<event>
 5    1  0.1668518E-003  0.9118800E+02  0.7818608E-02  0.1130116E+00
         25   -1    0    0    0    0  0.00000000000E+00  0.00000000000E+00  0.99999998245E-14  0.12500000000E+03  0.12500000000E+03 0.  0.
        -13    1    3    3    0    0 -0.20608628868E+02  0.53325265100E+02  0.22847974252E+02  0.61565741880E+02  0.10566000000E+00 0.  1.
         23    2    1    0    0    0 -0.16228771263E+02  0.20943878699E+02  0.98384381696E+01  0.96736703354E+02  0.92515813992E+02 0.  0.
         13    1    3    3    0    0  0.43798576050E+01 -0.32381386401E+02 -0.13009536083E+02  0.35170961474E+02  0.10566000000E+00 0. -1.
         22    1    1    0    0    0  0.16228771263E+02 -0.20943878699E+02 -0.98384381696E+01  0.28263296646E+02  0.00000000000E+00 0.  1.
</event>
<event>
 5    1  0.1668518E-003  0.9118800E+02  0.7818608E-02  0.1130116E+00
         25   -1    0    0    0    0  0.00000000000E+00  0.00000000000E+00  0.99999998245E-14  0.12500000000E+03  0.12500000000E+03 0.  0.
        -13    1    3    3    0    0 -0.10416674226E+02 -0.61324705437E+01  0.74293606080E+01  0.14188758226E+02  0.10566000000E+00 0.  1.
         23    2    1    0    0    0  0.10655260587E+02  0.22620317444E+02 -0.42590892436E+02  0.75611768022E+02  0.57253314362E+02 0.  0.
         13    1    3    3    0    0  0.21071934813E+02  0.28752787987E+02 -0.50020253044E+02  0.61423009796E+02  0.10566000000E+00 0. -1.
         22    1    1    0    0    0 -0.10655260587E+02 -0.22620317444E+02  0.42590892436E+02  0.49388231978E+02  0.00000000000E+00 0. -1.
</event>
<event>
 5    1  0.1668518E-003  0.9118800E+02  0.7818608E-02  0.1130116E+00
         25   -1    0    0    0    0  0.00000000000E+00  0.00000000000E+00  0.99999998245E-14  0.12500000000E+03  0.12500000000E+03 0.  0.
        -13    1    3    3    0    0 -0.89684100450E+01 -0.39323401605E+02 -0.13390065731E+02  0.42497850732E+02  0.10566000000E+00 0.  1.
         23    2    1    0    0    0  0.24909846381E+02 -0.34216869588E+01  0.10997559278E+02  0.97556335914E+02  0.93616686432E+02 0.  0.
         13    1    3    3    0    0  0.33878256427E+02  0.35901714646E+02  0.24387625009E+02  0.55058485183E+02  0.10566000000E+00 0. -1.
         22    1    1    0    0    0 -0.24909846381E+02  0.34216869588E+01 -0.10997559278E+02  0.27443664086E+02  0.00000000000E+00 0. -1.
</event>
<event>
 5    1  0.1668518E-003  0.9118800E+02  0.7818608E-02  0.1130116E+00
         25   -1    0    0    0    0  0.00000000000E+00  0.00000000000E+00  0.99999998245E-14  0.12500000000E+03  0.12500000000E+03 0.  0.
        -13    1    3    3    0    0 -0.11993315473E+02 -0.10088567250E+02  0.24825214106E+02  0.29358494932E+02  0.10566000000E+00 0.  1.
         23    2    1    0    0    0  0.18470662020E+02 -0.18636474794E+01 -0.28303454283E+02  0.91151454068E+02  0.84633702016E+02 0.  0.
         13    1    3    3    0    0  0.30463977493E+02  0.82249197709E+01 -0.53128668389E+02  0.61792959136E+02  0.10566000000E+00 0. -1.
         22    1    1    0    0    0 -0.18470662020E+02  0.18636474794E+01  0.28303454283E+02  0.33848545932E+02  0.00000000000E+00 0. -1.
</event>
<event>
 5    1  0.1668518E-003  0.9118800E+02  0.7818608E-02  0.1130116E+00
         25   -1    0    0    0    0  0.00000000000E+00  0.00000000000E+00  0.99999998245E-14  0.12500000000E+03  0.12500000000E+03 0.  0.
        -13    1    3    3    0    0  0.39845388017E+02  0.28495097594E+02 -0.21079532654E+02  0.53329010811E+02  0.10566000000E+00 0. -1.
         23    2    1    0    0    0  0.94860372460E+01  0.24110476212E+02  0.10214660049E+02  0.97149699360E+02  0.93072148573E+02 0.  0.
         13    1    3    3    0    0 -0.30359350771E+02 -0.43846213817E+01  0.31294192704E+02  0.43820688549E+02  0.10566000000E+00 0.  1.
         22    1    1    0    0    0 -0.94860372460E+01 -0.24110476212E+02 -0.10214660049E+02  0.27850300640E+02  0.00000000000E+00 0. -1.
</event>
<event>
 5    1  0.1668518E-003  0.9118800E+02  0.7818608E-02  0.1130116E+00
         25   -1    0    0    0    0  0.00000000000E+00  0.00000000000E+00  0.99999998245E-14  0.12500000000E+03  0.12500000000E+03 0.  0.
        -13    1    3    3    0    0  0.40123354035E+02 -0.16545150454E+02  0.40973468179E+02  0.59686361937E+02  0.10566000000E+00 0.  1.
         23    2    1    0    0    0  0.17074315359E+02  0.44240743393E+01  0.24139093353E+02  0.95103503439E+02  0.90282201234E+02 0.  0.
         13    1    3    3    0    0 -0.23049038677E+02  0.20969224794E+02 -0.16834374826E+02  0.35417141502E+02  0.10566000000E+00 0. -1.
         22    1    1    0    0    0 -0.17074315359E+02 -0.44240743393E+01 -0.24139093353E+02  0.29896496561E+02  0.00000000000E+00 0.  1.
</event>
<event>
 5    1  0.1668518E-003  0.9118800E+02  0.7818608E-02  0.1130116E+00
         25   -1    0    0    0    0  0.00000000000E+00  0.00000000000E+00  0.99999998245E-14  0.12500000000E+03  0.12500000000E+03 0.  0.
        -13    1    3    3    0    0 -0.40391489496E+02  0.39294656691E+02 -0.40083975735E+01  0.56494432322E+02  0.10566000000E+00 0.  1.
         23    2    1    0    0    0 -0.80727676628E+01  0.26098303166E+02  0.12318176246E+02  0.95032876816E+02  0.90184362303E+02 0.  0.
         13    1    3    3    0    0  0.32318721833E+02 -0.13196353526E+02  0.16326573820E+02  0.38538444494E+02  0.10566000000E+00 0. -1.
         22    1    1    0    0    0  0.80727676628E+01 -0.26098303166E+02 -0.12318176246E+02  0.29967123184E+02  0.00000000000E+00 0.  1.
</event>
<event>
 5    1  0.1668518E-003  0.9118800E+02  0.7818608E-02  0.1130116E+00
         25   -1    0    0    0    0  0.00000000000E+00  0.00000000000E+00  0.99999998245E-14  0.12500000000E+03  0.12500000000E+03 0.  0.
        -13    1    3    3    0    0 -0.19324197571E+02 -0.14946056135E+02 -0.24061113811E+02  0.34289321481E+02  0.10566000000E+00 0.  1.
         23    2    1    0    0    0  0.28744420755E+01  0.19584445034E+02  0.21607880079E+02  0.95696188199E+02  0.91099105647E+02 0.  0.
         13    1    3    3    0    0  0.22198639647E+02  0.34530501169E+02  0.45668993891E+02  0.61406866718E+02  0.10566000000E+00 0. -1.
         22    1    1    0    0    0 -0.28744420755E+01 -0.19584445034E+02 -0.21607880079E+02  0.29303811801E+02  0.00000000000E+00 0. -1.
</event>
<event>
 5    1  0.1668518E-003  0.9118800E+02  0.7818608E-02  0.1130116E+00
         25   -1    0    0    0    0  0.00000000000E+00  0.00000000000E+00  0.99999998245E-14  0.12500000000E+03  0.12500000000E+03 0.  0.
        -13    1    3    3    0    0  0.21064861208E+02 -0.38099713279E+02 -0.29408697558E+02  0.52537597830E+02  0.10566000000E+00 0. -1.
         23    2    1    0    0    0 -0.72015619841E+01 -0.64798557722E+01 -0.28433682959E+02  0.94961269127E+02  0.90085055818E+02 0.  0.
         13    1    3    3    0    0 -0.28266423192E+02  0.31619857507E+02  0.97501459902E+00  0.42423671297E+02  0.10566000000E+00 0.  1.
         22    1    1    0    0    0  0.72015619841E+01  0.64798557722E+01  0.28433682959E+02  0.30038730873E+02  0.00000000000E+00 0. -1.
</event>
<event>
 5    1  0.1668518E-003  0.9118800E+02  0.7818608E-02  0.1130116E+00
         25   -1    0    0    0    0  0.00000000000E+00  0.00000000000E+00  0.99999998245E-14  0.12500000000E+03  0.12500000000E+03 0.  0.
        -13    1    3    3    0    0  0.21294007793E+02  0.38005838304E+02 -0.19044326182E+02  0.47545515423E+02  0.10566000000E+00 0.  1.
         23    2    1    0    0    0  0.29181635508E+02 -0.69032037343E+00  0.71655316550E+01  0.94943565796E+02  0.90060487724E+02 0.  0.
         13    1    3    3    0    0  0.78876277155E+01 -0.38696158677E+02  0.26209857837E+02  0.47398050374E+02  0.10566000000E+00 0. -1.
         22    1    1    0    0    0 -0.29181635508E+02  0.69032037343E+00 -0.71655316550E+01  0.30056434204E+02  0.00000000000E+00 0. -1.
</event>
<event>
 5    1  0.1668518E-003  0.9118800E+02  0.7818608E-02  0.1130116E+00
         25   -1    0    0    0    0  0.00000000000E+00  0.00000000000E+00  0.99999998245E-14  0.12500000000E+03  0.12500000000E+03 0.  0.
        -13    1    3    3    0    0 -0.16292160405E+01  0.39499567461E+02  0.99166646448E+00  0.39545729743E+02  0.10566000000E+00 0.  1.
         23    2    1    0    0    0  0.19606620003E+02 -0.11411565215E+02  0.16617843813E+02  0.96878902909E+02  0.92707743621E+02 0.  0.
         13    1    3    3    0    0  0.21235836044E+02 -0.50911132675E+02  0.15626177348E+02  0.57333173166E+02  0.10566000000E+00 0. -1.
         22    1    1    0    0    0 -0.19606620003E+02  0.11411565215E+02 -0.16617843813E+02  0.28121097091E+02  0.00000000000E+00 0. -1.
</event>
<event>
 5    1  0.1668518E-003  0.9118800E+02  0.7818608E-02  0.1130116E+00
         25   -1    0    0    0    0  0.00000000000E+00  0.00000000000E+00  0.99999998245E-14  0.12500000000E+03  0.12500000000E+03 0.  0.
        -13    1    3    3    0    0  0.24892474752E+02 -0.48329263005E+02  0.18044780298E+02  0.57279823864E+02  0.10566000000E+00 0.  1.
         23    2    1    0    0    0  0.19354299456E+00 -0.28031022457E+02 -0.47831274429E+01  0.96563157928E+02  0.92281035333E+02 0.  0.
         13    1    3    3    0    0 -0.24698931757E+02  0.20298240548E+02 -0.22827907741E+02  0.39283334064E+02  0.10566000000E+00 0. -1.
         22    1    1    0    0    0 -0.19354299456E+00  0.28031022457E+02  0.47831274429E+01  0.28436842072E+02  0.00000000000E+00 0.  1.
</event>
<event>
 5    1  0.1668518E-003  0.9118800E+02  0.7818608E-02  0.1130116E+00
         25   -1    0    0    0    0  0.00000000000E+00  0.00000000000E+00  0.99999998245E-14  0.12500000000E+03  0.12500000000E+03 0.  0.
        -13    1    3    3    0    0 -0.55807135450E+02 -0.49854546797E+01 -0.10075548266E+02  0.56928191280E+02  0.10566000000E+00 0. -1.
         23    2    1    0    0    0 -0.25093588785E+02 -0.10447185176E+02  0.12145122188E+02  0.95228606530E+02  0.90455246572E+02 0.  0.
         13    1    3    3    0    0  0.30713546666E+02 -0.54617304966E+01  0.22220670454E+02  0.38300415249E+02  0.10566000000E+00 0.  1.
         22    1    1    0    0    0  0.25093588785E+02  0.10447185176E+02 -0.12145122188E+02  0.29771393470E+02  0.00000000000E+00 0. -1.
</event>
<event>
 5    1  0.1668518E-003  0.9118800E+02  0.7818608E-02  0.1130116E+00
         25   -1    0    0    0    0  0.00000000000E+00  0.00000000000E+00  0.99999998245E-14  0.12500000000E+03  0.12500000000E+03 0.  0.
        -13    1    3    3    0    0 -0.78963622179E+01 -0.13543148351E+02  0.33284473012E+02  0.36791802229E+02  0.10566000000E+00 0. -1.
         23    2    1    0    0    0 -0.84139161285E+01  0.26608715191E+02 -0.95489213724E+01  0.95504244236E+02  0.90835351372E+02 0.  0.
         13    1    3    3    0    0 -0.51755391056E+00  0.40151863542E+02 -0.42833394384E+02  0.58712442007E+02  0.10566000000E+00 0.  1.
         22    1    1    0    0    0  0.84139161285E+01 -0.26608715191E+02  0.95489213724E+01  0.29495755764E+02  0.00000000000E+00 0.  1.
</event>
<event>
 5    1  0.1668518E-003  0.9118800E+02  0.7818608E-02  0.1130116E+00
         25   -1    0    0    0    0  0.00000000000E+00  0.00000000000E+00  0.99999998245E-14  0.12500000000E+03  0.12500000000E+03 0.  0.
        -13    1    3    3    0    0  0.22606615248E+02  0.26031181934E+02  0.18293284812E+02  0.39029949002E+02  0.10566000000E+00 0.  1.
         23    2    1    0    0    0 -0.20466753850E+01  0.58299047276E+01 -0.28605782577E+02  0.95734534582E+02  0.91151706762E+02 0.  0.
         13    1    3    3    0    0 -0.24653290633E+02 -0.20201277206E+02 -0.46899067389E+02  0.56704585580E+02  0.10566000000E+00 0. -1.
         22    1    1    0    0    0  0.20466753850E+01 -0.58299047276E+01  0.28605782577E+02  0.29265465418E+02  0.00000000000E+00 0. -1.
</event>
<event>
 5    1  0.1668518E-003  0.9118800E+02  0.7818608E-02  0.1130116E+00
         25   -1    0    0    0    0  0.00000000000E+00  0.00000000000E+00  0.99999998245E-14  0.12500000000E+03  0.12500000000E+03 0.  0.
        -13    1    3    3    0    0  0.23696560715E+02 -0.13715835226E+02 -0.45339592145E+02  0.52965468992E+02  0.10566000000E+00 0.  1.
         23    2    1    0    0    0  0.11946348953E+02 -0.30207939509E+02 -0.15551350867E+02  0.88985011780E+02  0.81371081749E+02 0.  0.
         13    1    3    3    0    0 -0.11750211762E+02 -0.16492104283E+02  0.29788241278E+02  0.36019542788E+02  0.10566000000E+00 0. -1.
         22    1    1    0    0    0 -0.11946348953E+02  0.30207939509E+02  0.15551350867E+02  0.36014988220E+02  0.00000000000E+00 0.  1.
</event>
<event>
 5    1  0.1668518E-003  0.9118800E+02  0.7818608E-02  0.1130116E+00
         25   -1    0    0    0    0  0.00000000000E+00  0.00000000000E+00  0.99999998245E-14  0.12500000000E+03  0.12500000000E+03 0.  0.
        -13    1    3    3    0    0 -0.18144031210E+02  0.11799724370E+02  0.26030810366E+02  0.33853413655E+02  0.10566000000E+00 0. -1.
         23    2    1    0    0    0  0.18650846062E+01 -0.14343670253E+02 -0.25896628082E+02  0.95337654123E+02  0.90605814001E+02 0.  0.
         13    1    3    3    0    0  0.20009115816E+02 -0.26143394623E+02 -0.51927438448E+02  0.61484240468E+02  0.10566000000E+00 0.  1.
         22    1    1    0    0    0 -0.18650846062E+01  0.14343670253E+02  0.25896628082E+02  0.29662345877E+02  0.00000000000E+00 0.  1.
</event>
<event>
 5    1  0.1668518E-003  0.9118800E+02  0.7818608E-02  0.1130116E+00
         25   -1    0    0    0    0  0.00000000000E+00  0.00000000000E+00  0.99999998245E-14  0.12500000000E+03  0.12500000000E+03 0.  0.
        -13    1    3    3    0    0 -0.15975134508E+02  0.31791814770E+02  0.22587448506E+02  0.42144138417E+02  0.10566000000E+00 0. -1.
         23    2    1    0    0    0 -0.21063485077E+02 -0.19066517879E+02  0.53167835066E+01  0.96095490067E+02  0.91645362767E+02 0.  0.
         13    1    3    3    0    0 -0.50883505694E+01 -0.50858332649E+02 -0.17270664999E+02  0.53951351650E+02  0.10566000000E+00 0.  1.
         22    1    1    0    0    0  0.21063485077E+02  0.19066517879E+02 -0.53167835066E+01  0.28904509933E+02  0.00000000000E+00 0.  1.
</event>
<event>
 5    1  0.1668518E-003  0.9118800E+02  0.7818608E-02  0.1130116E+00
         25   -1    0    0    0    0  0.00000000000E+00  0.00000000000E+00  0.99999998245E-14  0.12500000000E+03  0.12500000000E+03 0.  0.
        -13    1    3    3    0    0 -0.40651793084E+02 -0.78605328252E+01  0.20283254817E+02  0.46106158452E+02  0.10566000000E+00 0. -1.
         23    2    1    0    0    0  0.21787049923E+01 -0.28536653475E+02  0.60825356740E+01  0.95741076794E+02  0.91160677918E+02 0.  0.
         13    1    3    3    0    0  0.42830498076E+02 -0.20676120649E+02 -0.14200719143E+02  0.49634918341E+02  0.10566000000E+00 0.  1.
         22    1    1    0    0    0 -0.21787049923E+01  0.28536653475E+02 -0.60825356740E+01  0.29258923206E+02  0.00000000000E+00 0.  1.
</event>
<event>
 5    1  0.1668518E-003  0.9118800E+02  0.7818608E-02  0.1130116E+00
         25   -1    0    0    0    0  0.00000000000E+00  0.00000000000E+00  0.99999998245E-14  0.12500000000E+03  0.12500000000E+03 0.  0.
        -13    1    3    3    0    0 -0.19487190275E+02 -0.31927393581E+02  0.25135792338E+02  0.45065821486E+02  0.10566000000E+00 0.  1.
         23    2    1    0    0    0  0.22865541721E+02 -0.16640511176E+02  0.19951883989E+02  0.90390502963E+02  0.83502249915E+02 0.  0.
         13    1    3    3    0    0  0.42352731996E+02  0.15286882405E+02 -0.51839083483E+01  0.45324681477E+02  0.10566000000E+00 0. -1.
         22    1    1    0    0    0 -0.22865541721E+02  0.16640511176E+02 -0.19951883989E+02  0.34609497037E+02  0.00000000000E+00 0. -1.
</event>
<event>
 5    1  0.1668518E-003  0.9118800E+02  0.7818608E-02  0.1130116E+00
         25   -1    0    0    0    0  0.00000000000E+00  0.00000000000E+00  0.99999998245E-14  0.12500000000E+03  0.12500000000E+03 0.  0.
        -13    1    3    3    0    0 -0.54120413484E+01 -0.31579315152E+02  0.12074460468E+02  0.34239554563E+02  0.10566000000E+00 0.  1.
         23    2    1    0    0    0  0.18168877667E+02  0.23541463334E+02  0.72831580153E+01  0.94383778772E+02  0.89280147250E+02 0.  0.
         13    1    3    3    0    0  0.23580919015E+02  0.55120778486E+02 -0.47913024528E+01  0.60144224209E+02  0.10566000000E+00 0. -1.
         22    1    1    0    0    0 -0.18168877667E+02 -0.23541463334E+02 -0.72831580153E+01  0.30616221228E+02  0.00000000000E+00 0. -1.
</event>
<event>
 5    1  0.1668518E-003  0.9118800E+02  0.7818608E-02  0.1130116E+00
         25   -1    0    0    0    0  0.00000000000E+00  0.00000000000E+00  0.99999998245E-14  0.12500000000E+03  0.12500000000E+03 0.  0.
        -13    1    3    3    0    0  0.51818899103E+02 -0.32714051137E+02  0.34483895721E+01  0.61378416408E+02  0.10566000000E+00 0.  1.
         23    2    1    0    0    0  0.20335978160E+02 -0.18393237255E+02 -0.53402137223E+01  0.97064698551E+02  0.92957918640E+02 0.  0.
         13    1    3    3    0    0 -0.31482920943E+02  0.14320813882E+02 -0.87886032944E+01  0.35686282144E+02  0.10566000000E+00 0. -1.
         22    1    1    0    0    0 -0.20335978160E+02  0.18393237255E+02  0.53402137223E+01  0.27935301449E+02  0.00000000000E+00 0.  1.
</event>
<event>
 5    1  0.1668518E-003  0.9118800E+02  0.7818608E-02  0.1130116E+00
         25   -1    0    0    0    0  0.00000000000E+00  0.00000000000E+00  0.99999998245E-14  0.12500000000E+03  0.12500000000E+03 0.  0.
        -13    1    3    3    0    0  0.42181909396E+02 -0.15696483838E+01  0.36895320065E+02  0.56062938587E+02  0.10566000000E+00 0. -1.
         23    2    1    0    0    0  0.19425502820E+02  0.19025018817E+02  0.13575408927E+02  0.94609323332E+02  0.89595372833E+02 0.  0.
         13    1    3    3    0    0 -0.22756406576E+02  0.20594667201E+02 -0.23319911138E+02  0.38546384745E+02  0.10566000000E+00 0.  1.
         22    1    1    0    0    0 -0.19425502820E+02 -0.19025018817E+02 -0.13575408927E+02  0.30390676668E+02  0.00000000000E+00 0. -1.
</event>
<event>
 5    1  0.1668518E-003  0.9118800E+02  0.7818608E-02  0.1130116E+00
         25   -1    0    0    0    0  0.00000000000E+00  0.00000000000E+00  0.99999998245E-14  0.12500000000E+03  0.12500000000E+03 0.  0.
        -13    1    3    3    0    0 -0.68907039610E+00  0.21613037377E+02  0.27630122682E+02  0.35086080518E+02  0.10566000000E+00 0. -1.
         23    2    1    0    0    0 -0.64519479142E+01 -0.26577037616E+02 -0.93437014573E+01  0.96098939167E+02  0.91650067058E+02 0.  0.
         13    1    3    3    0    0 -0.57628775181E+01 -0.48190074993E+02 -0.36973824139E+02  0.61012858650E+02  0.10566000000E+00 0.  1.
         22    1    1    0    0    0  0.64519479142E+01  0.26577037616E+02  0.93437014573E+01  0.28901060833E+02  0.00000000000E+00 0.  1.
</event>
<event>
 5    1  0.1668518E-003  0.9118800E+02  0.7818608E-02  0.1130116E+00
         25   -1    0    0    0    0  0.00000000000E+00  0.00000000000E+00  0.99999998245E-14  0.12500000000E+03  0.12500000000E+03 0.  0.
        -13    1    3    3    0    0  0.34134309991E+02  0.10049057986E+02 -0.15360700046E+02  0.38756895578E+02  0.10566000000E+00 0.  1.
         23    2    1    0    0    0 -0.56245535593E+01  0.67924645184E+01  0.26792304362E+02  0.96793604448E+02  0.92592662302E+02 0.  0.
         13    1    3    3    0    0 -0.39758863550E+02 -0.32565934677E+01  0.42153004408E+02  0.58036708870E+02  0.10566000000E+00 0. -1.
         22    1    1    0    0    0  0.56245535593E+01 -0.67924645184E+01 -0.26792304362E+02  0.28206395552E+02  0.00000000000E+00 0. -1.
</event>
<event>
 5    1  0.1668518E-003  0.9118800E+02  0.7818608E-02  0.1130116E+00
         25   -1    0    0    0    0  0.00000000000E+00  0.00000000000E+00  0.99999998245E-14  0.12500000000E+03  0.12500000000E+03 0.  0.
        -13    1    3    3    0    0 -0.34481124419E+02  0.17801569580E+02  0.17075385269E+02  0.42396034800E+02  0.10566000000E+00 0. -1.
         23    2    1    0    0    0 -0.16326758817E+02 -0.64778071869E+01 -0.25116965086E+02  0.94350579540E+02  0.89233653321E+02 0.  0.
         13    1    3    3    0    0  0.18154365602E+02 -0.24279376767E+02 -0.42192350355E+02  0.51954544739E+02  0.10566000000E+00 0.  1.
         22    1    1    0    0    0  0.16326758817E+02  0.64778071869E+01  0.25116965086E+02  0.30649420460E+02  0.00000000000E+00 0.  1.
</event>
<event>
 5    1  0.1668518E-003  0.9118800E+02  0.7818608E-02  0.1130116E+00
         25   -1    0    0    0    0  0.00000000000E+00  0.00000000000E+00  0.99999998245E-14  0.12500000000E+03  0.12500000000E+03 0.  0.
        -13    1    3    3    0    0  0.18876045473E+02  0.12131006625E+02 -0.35626798575E+02  0.42103994528E+02  0.10566000000E+00 0. -1.
         23    2    1    0    0    0 -0.26853675525E+02  0.92629879517E+01 -0.85109955324E+01  0.95345997236E+02  0.90617323449E+02 0.  0.
         13    1    3    3    0    0 -0.45729720998E+02 -0.28680186731E+01  0.27115803043E+02  0.53242002708E+02  0.10566000000E+00 0.  1.
         22    1    1    0    0    0  0.26853675525E+02 -0.92629879517E+01  0.85109955324E+01  0.29654002764E+02  0.00000000000E+00 0.  1.
</event>
<event>
 5    1  0.1668518E-003  0.9118800E+02  0.7818608E-02  0.1130116E+00
         25   -1    0    0    0    0  0.00000000000E+00  0.00000000000E+00  0.99999998245E-14  0.12500000000E+03  0.12500000000E+03 0.  0.
        -13    1    3    3    0    0 -0.13137993057E+01 -0.35674677023E+02  0.23792641150E+01  0.35778215594E+02  0.10566000000E+00 0.  1.
         23    2    1    0    0    0  0.67397346170E+00  0.18284465221E+02  0.24746927823E+02  0.94223607338E+02  0.89055610909E+02 0.  0.
         13    1    3    3    0    0  0.19877727674E+01  0.53959142244E+02  0.22367663708E+02  0.58445391744E+02  0.10566000000E+00 0. -1.
         22    1    1    0    0    0 -0.67397346170E+00 -0.18284465221E+02 -0.24746927823E+02  0.30776392662E+02  0.00000000000E+00 0. -1.
</event>
<event>
 5    1  0.1668518E-003  0.9118800E+02  0.7818608E-02  0.1130116E+00
         25   -1    0    0    0    0  0.00000000000E+00  0.00000000000E+00  0.99999998245E-14  0.12500000000E+03  0.12500000000E+03 0.  0.
        -13    1    3    3    0    0  0.52344559086E+02 -0.24167104434E+02 -0.16058562985E+02  0.59848896497E+02  0.10566000000E+00 0.  1.
         23    2    1    0    0    0  0.26379272740E+02  0.10411854743E+01 -0.11041021329E+02  0.96384370539E+02  0.92038538856E+02 0.  0.
         13    1    3    3    0    0 -0.25965286347E+02  0.25208289909E+02  0.50175416561E+01  0.36535474042E+02  0.10566000000E+00 0. -1.
         22    1    1    0    0    0 -0.26379272740E+02 -0.10411854743E+01  0.11041021329E+02  0.28615629461E+02  0.00000000000E+00 0.  1.
</event>
<event>
 5    1  0.1668518E-003  0.9118800E+02  0.7818608E-02  0.1130116E+00
         25   -1    0    0    0    0  0.00000000000E+00  0.00000000000E+00  0.99999998245E-14  0.12500000000E+03  0.12500000000E+03 0.  0.
        -13    1    3    3    0    0 -0.16182624604E+02  0.35114163107E+02 -0.39471477371E+02  0.55252968062E+02  0.10566000000E+00 0.  1.
         23    2    1    0    0    0 -0.16287123445E+02  0.29717449411E+02 -0.42954945951E+01  0.90840836318E+02  0.84173684009E+02 0.  0.
         13    1    3    3    0    0 -0.10449884111E+00 -0.53967136964E+01  0.35175982776E+02  0.35587868256E+02  0.10566000000E+00 0. -1.
         22    1    1    0    0    0  0.16287123445E+02 -0.29717449411E+02  0.42954945951E+01  0.34159163682E+02  0.00000000000E+00 0.  1.
</event>
<event>
 5    1  0.1668518E-003  0.9118800E+02  0.7818608E-02  0.1130116E+00
         25   -1    0    0    0    0  0.00000000000E+00  0.00000000000E+00  0.99999998245E-14  0.12500000000E+03  0.12500000000E+03 0.  0.
        -13    1    3    3    0    0  0.18681504738E+02  0.25246483916E+02  0.16169174687E+02  0.35324735576E+02  0.10566000000E+00 0. -1.
         23    2    1    0    0    0 -0.16100699683E+02 -0.21492635215E+02 -0.56858606904E+01  0.97550138242E+02  0.93608410736E+02 0.  0.
         13    1    3    3    0    0 -0.34782204421E+02 -0.46739119131E+02 -0.21855035378E+02  0.62225402666E+02  0.10566000000E+00 0.  1.
         22    1    1    0    0    0  0.16100699683E+02  0.21492635215E+02  0.56858606904E+01  0.27449861758E+02  0.00000000000E+00 0.  1.
</event>
<event>
 5    1  0.1668518E-003  0.9118800E+02  0.7818608E-02  0.1130116E+00
         25   -1    0    0    0    0  0.00000000000E+00  0.00000000000E+00  0.99999998245E-14  0.12500000000E+03  0.12500000000E+03 0.  0.
        -13    1    3    3    0    0  0.22264626503E+02  0.24078611088E+02  0.29422112724E+02  0.44058653934E+02  0.10566000000E+00 0.  1.
         23    2    1    0    0    0  0.18510146424E+02  0.15864421513E+02 -0.19484186310E+02  0.93792005724E+02  0.88447732764E+02 0.  0.
         13    1    3    3    0    0 -0.37544800794E+01 -0.82141895750E+01 -0.48906299034E+02  0.49733351790E+02  0.10566000000E+00 0. -1.
         22    1    1    0    0    0 -0.18510146424E+02 -0.15864421513E+02  0.19484186310E+02  0.31207994276E+02  0.00000000000E+00 0. -1.
</event>
<event>
 5    1  0.1668518E-003  0.9118800E+02  0.7818608E-02  0.1130116E+00
         25   -1    0    0    0    0  0.00000000000E+00  0.00000000000E+00  0.99999998245E-14  0.12500000000E+03  0.12500000000E+03 0.  0.
        -13    1    3    3    0    0 -0.49416728707E+02  0.30662382367E+02  0.72722252253E+01  0.58609651017E+02  0.10566000000E+00 0.  1.
         23    2    1    0    0    0 -0.12867196888E+02  0.26175008297E+02  0.32524956356E+01  0.95652520671E+02  0.91039168317E+02 0.  0.
         13    1    3    3    0    0  0.36549531819E+02 -0.44873740700E+01 -0.40197295897E+01  0.37042869655E+02  0.10566000000E+00 0. -1.
         22    1    1    0    0    0  0.12867196888E+02 -0.26175008297E+02 -0.32524956356E+01  0.29347479329E+02  0.00000000000E+00 0.  1.
</event>
<event>
 5    1  0.1668518E-003  0.9118800E+02  0.7818608E-02  0.1130116E+00
         25   -1    0    0    0    0  0.00000000000E+00  0.00000000000E+00  0.99999998245E-14  0.12500000000E+03  0.12500000000E+03 0.  0.
        -13    1    3    3    0    0  0.73036461773E+01 -0.41507387670E+02  0.32316476309E+02  0.53109060280E+02  0.10566000000E+00 0. -1.
         23    2    1    0    0    0  0.22436716574E+02 -0.19611490251E+02 -0.28890330172E+00  0.95198988849E+02  0.90414308670E+02 0.  0.
         13    1    3    3    0    0  0.15133070396E+02  0.21895897419E+02 -0.32605379611E+02  0.42089928570E+02  0.10566000000E+00 0.  1.
         22    1    1    0    0    0 -0.22436716574E+02  0.19611490251E+02  0.28890330172E+00  0.29801011151E+02  0.00000000000E+00 0. -1.
</event>
<event>
 5    1  0.1668518E-003  0.9118800E+02  0.7818608E-02  0.1130116E+00
         25   -1    0    0    0    0  0.00000000000E+00  0.00000000000E+00  0.99999998245E-14  0.12500000000E+03  0.12500000000E+03 0.  0.
        -13    1    3    3    0    0  0.34123260765E+02 -0.41850763832E+02 -0.18074606360E+02  0.56943708324E+02  0.10566000000E+00 0.  1.
         23    2    1    0    0    0  0.18403639215E+02 -0.22212241676E+02  0.98414985985E+01  0.94521602547E+02  0.89472904484E+02 0.  0.
         13    1    3    3    0    0 -0.15719621551E+02  0.19638522156E+02  0.27916104959E+02  0.37577894223E+02  0.10566000000E+00 0. -1.
         22    1    1    0    0    0 -0.18403639215E+02  0.22212241676E+02 -0.98414985985E+01  0.30478397453E+02  0.00000000000E+00 0.  1.
</event>
<event>
 5    1  0.1668518E-003  0.9118800E+02  0.7818608E-02  0.1130116E+00
         25   -1    0    0    0    0  0.00000000000E+00  0.00000000000E+00  0.99999998245E-14  0.12500000000E+03  0.12500000000E+03 0.  0.
        -13    1    3    3    0    0 -0.51950556691E+02  0.78879592754E+01 -0.13453773583E+02  0.54241086177E+02  0.10566000000E+00 0.  1.
         23    2    1    0    0    0 -0.23101810281E+02 -0.18603900464E+02 -0.10708138727E+01  0.95319275732E+02  0.90580455580E+02 0.  0.
         13    1    3    3    0    0  0.28848746410E+02 -0.26491859739E+02  0.12382959710E+02  0.41078189555E+02  0.10566000000E+00 0. -1.
         22    1    1    0    0    0  0.23101810281E+02  0.18603900464E+02  0.10708138727E+01  0.29680724268E+02  0.00000000000E+00 0.  1.
</event>
<event>
 5    1  0.1668518E-003  0.9118800E+02  0.7818608E-02  0.1130116E+00
         25   -1    0    0    0    0  0.00000000000E+00  0.00000000000E+00  0.99999998245E-14  0.12500000000E+03  0.12500000000E+03 0.  0.
        -13    1    3    3    0    0 -0.15258018928E+02 -0.43320821822E+02 -0.26394922421E+01  0.46005204361E+02  0.10566000000E+00 0. -1.
         23    2    1    0    0    0  0.22182863704E+02 -0.14144657399E+02 -0.14539716397E+02  0.94940822900E+02  0.90056680623E+02 0.  0.
         13    1    3    3    0    0  0.37440882632E+02  0.29176164424E+02 -0.11900224155E+02  0.48935618538E+02  0.10566000000E+00 0.  1.
         22    1    1    0    0    0 -0.22182863704E+02  0.14144657399E+02  0.14539716397E+02  0.30059177100E+02  0.00000000000E+00 0. -1.
</event>
<event>
 5    1  0.1668518E-003  0.9118800E+02  0.7818608E-02  0.1130116E+00
         25   -1    0    0    0    0  0.00000000000E+00  0.00000000000E+00  0.99999998245E-14  0.12500000000E+03  0.12500000000E+03 0.  0.
        -13    1    3    3    0    0  0.52189140679E+02 -0.53709343891E+01  0.16117027016E+02  0.54884634142E+02  0.10566000000E+00 0. -1.
         23    2    1    0    0    0  0.95626121808E+01 -0.53269791790E+01  0.24353319374E+02  0.98299729900E+02  0.94604082760E+02 0.  0.
         13    1    3    3    0    0 -0.42626528498E+02  0.43955210121E-01  0.82362923581E+01  0.43415095758E+02  0.10566000000E+00 0.  1.
         22    1    1    0    0    0 -0.95626121808E+01  0.53269791790E+01 -0.24353319374E+02  0.26700270100E+02  0.00000000000E+00 0. -1.
</event>
<event>
 5    1  0.1668518E-003  0.9118800E+02  0.7818608E-02  0.1130116E+00
         25   -1    0    0    0    0  0.00000000000E+00  0.00000000000E+00  0.99999998245E-14  0.12500000000E+03  0.12500000000E+03 0.  0.
        -13    1    3    3    0    0  0.46115366084E+02 -0.27667648513E+02  0.19746581090E+02  0.57289304343E+02  0.10566000000E+00 0.  1.
         23    2    1    0    0    0  0.15220986872E+02 -0.26576695701E+02 -0.72105126383E+00  0.94364740728E+02  0.89253488346E+02 0.  0.
         13    1    3    3    0    0 -0.30894379212E+02  0.10909528118E+01 -0.20467632354E+02  0.37075436385E+02  0.10566000000E+00 0. -1.
         22    1    1    0    0    0 -0.15220986872E+02  0.26576695701E+02  0.72105126383E+00  0.30635259272E+02  0.00000000000E+00 0.  1.
</event>
<event>
 5    1  0.1668518E-003  0.9118800E+02  0.7818608E-02  0.1130116E+00
         25   -1    0    0    0    0  0.00000000000E+00  0.00000000000E+00  0.99999998245E-14  0.12500000000E+03  0.12500000000E+03 0.  0.
        -13    1    3    3    0    0  0.15426039618E+02 -0.11049402917E+02  0.56468339546E+02  0.59571272760E+02  0.10566000000E+00 0.  1.
         23    2    1    0    0    0  0.78182058007E+01 -0.17531752742E+02  0.20444963608E+02  0.96955691610E+02  0.92811221856E+02 0.  0.
         13    1    3    3    0    0 -0.76078338177E+01 -0.64823498250E+01 -0.36023375939E+02  0.37384418849E+02  0.10566000000E+00 0. -1.
         22    1    1    0    0    0 -0.78182058007E+01  0.17531752742E+02 -0.20444963608E+02  0.28044308390E+02  0.00000000000E+00 0.  1.
</event>
<event>
 5    1  0.1668518E-003  0.9118800E+02  0.7818608E-02  0.1130116E+00
         25   -1    0    0    0    0  0.00000000000E+00  0.00000000000E+00  0.99999998245E-14  0.12500000000E+03  0.12500000000E+03 0.  0.
        -13    1    3    3    0    0 -0.70361950853E+01  0.34481919235E+02 -0.70631779220E+01  0.35894434691E+02  0.10566000000E+00 0. -1.
         23    2    1    0    0    0 -0.17130185498E+02 -0.23552444230E+02 -0.79655916892E+01  0.94807094619E+02  0.89870872115E+02 0.  0.
         13    1    3    3    0    0 -0.10093990413E+02 -0.58034363464E+02 -0.90241376720E+00  0.58912659928E+02  0.10566000000E+00 0.  1.
         22    1    1    0    0    0  0.17130185498E+02  0.23552444230E+02  0.79655916892E+01  0.30192905381E+02  0.00000000000E+00 0.  1.
</event>
<event>
 5    1  0.1668518E-003  0.9118800E+02  0.7818608E-02  0.1130116E+00
         25   -1    0    0    0    0  0.00000000000E+00  0.00000000000E+00  0.99999998245E-14  0.12500000000E+03  0.12500000000E+03 0.  0.
        -13    1    3    3    0    0  0.43156800157E+02 -0.28241889778E+02 -0.19499916427E+02  0.55139565130E+02  0.10566000000E+00 0. -1.
         23    2    1    0    0    0 -0.72109072418E+00 -0.19982815857E+01 -0.18604327751E+02  0.10627477337E+03  0.10461210897E+03 0.  0.
         13    1    3    3    0    0 -0.43877890881E+02  0.26243608193E+02  0.89558867618E+00  0.51135208245E+02  0.10566000000E+00 0.  1.
         22    1    1    0    0    0  0.72109072418E+00  0.19982815857E+01  0.18604327751E+02  0.18725226626E+02  0.00000000000E+00 0. -1.
</event>
<event>
 5    1  0.1668518E-003  0.9118800E+02  0.7818608E-02  0.1130116E+00
         25   -1    0    0    0    0  0.00000000000E+00  0.00000000000E+00  0.99999998245E-14  0.12500000000E+03  0.12500000000E+03 0.  0.
        -13    1    3    3    0    0 -0.41945742534E+02 -0.30435354209E+02 -0.18435396103E+02  0.55005736938E+02  0.10566000000E+00 0.  1.
         23    2    1    0    0    0 -0.12458136676E+02 -0.26298707750E+02  0.79960839644E+01  0.94821123986E+02  0.89890383225E+02 0.  0.
         13    1    3    3    0    0  0.29487605858E+02  0.41366464598E+01  0.26431480067E+02  0.39815387048E+02  0.10566000000E+00 0. -1.
         22    1    1    0    0    0  0.12458136676E+02  0.26298707750E+02 -0.79960839644E+01  0.30178876014E+02  0.00000000000E+00 0.  1.
</event>
<event>
 5    1  0.1668518E-003  0.9118800E+02  0.7818608E-02  0.1130116E+00
         25   -1    0    0    0    0  0.00000000000E+00  0.00000000000E+00  0.99999998245E-14  0.12500000000E+03  0.12500000000E+03 0.  0.
        -13    1    3    3    0    0 -0.16112751478E+02 -0.31068708186E+02  0.15867566891E+02  0.38427545220E+02  0.10566000000E+00 0.  1.
         23    2    1    0    0    0  0.17271812772E+02 -0.56556674614E+01 -0.23044718946E+02  0.95651044956E+02  0.91037142085E+02 0.  0.
         13    1    3    3    0    0  0.33384564250E+02  0.25413040724E+02 -0.38912285837E+02  0.57223499737E+02  0.10566000000E+00 0. -1.
         22    1    1    0    0    0 -0.17271812772E+02  0.56556674614E+01  0.23044718946E+02  0.29348955044E+02  0.00000000000E+00 0. -1.
</event>
<event>
 5    1  0.1668518E-003  0.9118800E+02  0.7818608E-02  0.1130116E+00
         25   -1    0    0    0    0  0.00000000000E+00  0.00000000000E+00  0.99999998245E-14  0.12500000000E+03  0.12500000000E+03 0.  0.
        -13    1    3    3    0    0  0.82678324147E+01  0.36446188885E+02 -0.19898783311E+02  0.42339750571E+02  0.10566000000E+00 0.  1.
         23    2    1    0    0    0  0.62621588083E+01 -0.20839916011E+02 -0.11846527157E+02  0.10022386354E+03  0.97113160202E+02 0.  0.
         13    1    3    3    0    0 -0.20056736064E+01 -0.57286104896E+02  0.80522561533E+01  0.57884112967E+02  0.10566000000E+00 0. -1.
         22    1    1    0    0    0 -0.62621588083E+01  0.20839916011E+02  0.11846527157E+02  0.24776136462E+02  0.00000000000E+00 0. -1.
</event>
<event>
 5    1  0.1668518E-003  0.9118800E+02  0.7818608E-02  0.1130116E+00
         25   -1    0    0    0    0  0.00000000000E+00  0.00000000000E+00  0.99999998245E-14  0.12500000000E+03  0.12500000000E+03 0.  0.
        -13    1    3    3    0    0 -0.15331079783E+02 -0.50406335845E+01 -0.45799509715E+02  0.48559821338E+02  0.10566000000E+00 0.  1.
         23    2    1    0    0    0  0.22577495117E+02 -0.18364731593E+01 -0.12447649977E+02  0.99153145078E+02  0.95725055599E+02 0.  0.
         13    1    3    3    0    0  0.37908574900E+02  0.32041604252E+01  0.33351859738E+02  0.50593323739E+02  0.10566000000E+00 0. -1.
         22    1    1    0    0    0 -0.22577495117E+02  0.18364731593E+01  0.12447649977E+02  0.25846854922E+02  0.00000000000E+00 0.  1.
</event>
<event>
 5    1  0.1668518E-003  0.9118800E+02  0.7818608E-02  0.1130116E+00
         25   -1    0    0    0    0  0.00000000000E+00  0.00000000000E+00  0.99999998245E-14  0.12500000000E+03  0.12500000000E+03 0.  0.
        -13    1    3    3    0    0 -0.41459563360E+02 -0.68235523464E+01 -0.14166899841E+02  0.44341498348E+02  0.10566000000E+00 0.  1.
         23    2    1    0    0    0 -0.36269305484E+02 -0.20059567983E+02  0.18230136948E+02  0.79721012809E+02  0.65614428308E+02 0.  0.
         13    1    3    3    0    0  0.51902578758E+01 -0.13236015636E+02  0.32397036788E+02  0.35379514460E+02  0.10566000000E+00 0. -1.
         22    1    1    0    0    0  0.36269305484E+02  0.20059567983E+02 -0.18230136948E+02  0.45278987191E+02  0.00000000000E+00 0. -1.
</event>
<event>
 5    1  0.1668518E-003  0.9118800E+02  0.7818608E-02  0.1130116E+00
         25   -1    0    0    0    0  0.00000000000E+00  0.00000000000E+00  0.99999998245E-14  0.12500000000E+03  0.12500000000E+03 0.  0.
        -13    1    3    3    0    0 -0.92245833413E+00 -0.42189370368E+02 -0.43202883489E+02  0.60392832416E+02  0.10566000000E+00 0. -1.
         23    2    1    0    0    0 -0.10393070899E+02 -0.22103364937E+02 -0.14820731960E+02  0.96430282464E+02  0.92100871962E+02 0.  0.
         13    1    3    3    0    0 -0.94706125644E+01  0.20086005431E+02  0.28382151529E+02  0.36037450048E+02  0.10566000000E+00 0.  1.
         22    1    1    0    0    0  0.10393070899E+02  0.22103364937E+02  0.14820731960E+02  0.28569717536E+02  0.00000000000E+00 0. -1.
</event>
<event>
 5    1  0.1668518E-003  0.9118800E+02  0.7818608E-02  0.1130116E+00
         25   -1    0    0    0    0  0.00000000000E+00  0.00000000000E+00  0.99999998245E-14  0.12500000000E+03  0.12500000000E+03 0.  0.
        -13    1    3    3    0    0 -0.52935730647E+02 -0.63012161398E+01 -0.78187842151E+01  0.53879879868E+02  0.10566000000E+00 0. -1.
         23    2    1    0    0    0 -0.21392640498E+02  0.10775242325E+02  0.15321918002E+02  0.96565653060E+02  0.92284415071E+02 0.  0.
         13    1    3    3    0    0  0.31543090149E+02  0.17076458464E+02  0.23140702218E+02  0.42685773192E+02  0.10566000000E+00 0.  1.
         22    1    1    0    0    0  0.21392640498E+02 -0.10775242325E+02 -0.15321918002E+02  0.28434346940E+02  0.00000000000E+00 0. -1.
</event>
<event>
 5    1  0.1668518E-003  0.9118800E+02  0.7818608E-02  0.1130116E+00
         25   -1    0    0    0    0  0.00000000000E+00  0.00000000000E+00  0.99999998245E-14  0.12500000000E+03  0.12500000000E+03 0.  0.
        -13    1    3    3    0    0  0.43774205636E+02  0.57005717214E+01 -0.81667174171E+01  0.44893028795E+02  0.10566000000E+00 0. -1.
         23    2    1    0    0    0 -0.72372402980E+01  0.22730066076E+02 -0.10967876999E+02  0.98744945690E+02  0.95190526958E+02 0.  0.
         13    1    3    3    0    0 -0.51011445934E+02  0.17029494354E+02 -0.28011595822E+01  0.53851916895E+02  0.10566000000E+00 0.  1.
         22    1    1    0    0    0  0.72372402980E+01 -0.22730066076E+02  0.10967876999E+02  0.26255054310E+02  0.00000000000E+00 0.  1.
</event>
<event>
 5    1  0.1668518E-003  0.9118800E+02  0.7818608E-02  0.1130116E+00
         25   -1    0    0    0    0  0.00000000000E+00  0.00000000000E+00  0.99999998245E-14  0.12500000000E+03  0.12500000000E+03 0.  0.
        -13    1    3    3    0    0 -0.33559766649E+02 -0.56037417455E+01  0.44764919638E+01  0.34317779698E+02  0.10566000000E+00 0.  1.
         23    2    1    0    0    0  0.17341558209E+02  0.24296911951E+02 -0.67151997244E+01  0.94403211299E+02  0.89307350340E+02 0.  0.
         13    1    3    3    0    0  0.50901324858E+02  0.29900653696E+02 -0.11191691688E+02  0.60085431601E+02  0.10566000000E+00 0. -1.
         22    1    1    0    0    0 -0.17341558209E+02 -0.24296911951E+02  0.67151997244E+01  0.30596788701E+02  0.00000000000E+00 0. -1.
</event>
<event>
 5    1  0.1668518E-003  0.9118800E+02  0.7818608E-02  0.1130116E+00
         25   -1    0    0    0    0  0.00000000000E+00  0.00000000000E+00  0.99999998245E-14  0.12500000000E+03  0.12500000000E+03 0.  0.
        -13    1    3    3    0    0  0.54765422077E+02 -0.19013859806E+02  0.36761400302E+01  0.58088755277E+02  0.10566000000E+00 0.  1.
         23    2    1    0    0    0  0.24846662879E+02 -0.11966483355E+02 -0.14544957607E+02  0.93821334668E+02  0.88489172598E+02 0.  0.
         13    1    3    3    0    0 -0.29918759199E+02  0.70473764510E+01 -0.18221097637E+02  0.35732579391E+02  0.10566000000E+00 0. -1.
         22    1    1    0    0    0 -0.24846662879E+02  0.11966483355E+02  0.14544957607E+02  0.31178665332E+02  0.00000000000E+00 0.  1.
</event>
<event>
 5    1  0.1668518E-003  0.9118800E+02  0.7818608E-02  0.1130116E+00
         25   -1    0    0    0    0  0.00000000000E+00  0.00000000000E+00  0.99999998245E-14  0.12500000000E+03  0.12500000000E+03 0.  0.
        -13    1    3    3    0    0  0.38896122530E+02  0.36975874160E+01  0.34179496561E+02  0.51911748668E+02  0.10566000000E+00 0. -1.
         23    2    1    0    0    0  0.68869378239E+01  0.23808844488E+02  0.22625757833E+02  0.91440859576E+02  0.85060066389E+02 0.  0.
         13    1    3    3    0    0 -0.32009184706E+02  0.20111257072E+02 -0.11553738728E+02  0.39529110908E+02  0.10566000000E+00 0.  1.
         22    1    1    0    0    0 -0.68869378239E+01 -0.23808844488E+02 -0.22625757833E+02  0.33559140424E+02  0.00000000000E+00 0.  1.
</event>
<event>
 5    1  0.1668518E-003  0.9118800E+02  0.7818608E-02  0.1130116E+00
         25   -1    0    0    0    0  0.00000000000E+00  0.00000000000E+00  0.99999998245E-14  0.12500000000E+03  0.12500000000E+03 0.  0.
        -13    1    3    3    0    0  0.17537152960E+02  0.13975116129E+01  0.26939064244E+02  0.32174976597E+02  0.10566000000E+00 0. -1.
         23    2    1    0    0    0 -0.21733172054E+02  0.68571201401E+01 -0.20740588562E+02  0.94185670897E+02  0.89002346735E+02 0.  0.
         13    1    3    3    0    0 -0.39270325013E+02  0.54596085272E+01 -0.47679652806E+02  0.62010694301E+02  0.10566000000E+00 0.  1.
         22    1    1    0    0    0  0.21733172054E+02 -0.68571201401E+01  0.20740588562E+02  0.30814329103E+02  0.00000000000E+00 0.  1.
</event>
<event>
 5    1  0.1668518E-003  0.9118800E+02  0.7818608E-02  0.1130116E+00
         25   -1    0    0    0    0  0.00000000000E+00  0.00000000000E+00  0.99999998245E-14  0.12500000000E+03  0.12500000000E+03 0.  0.
        -13    1    3    3    0    0  0.24927665388E+02  0.22391265386E+02  0.22269527005E+02  0.40233074259E+02  0.10566000000E+00 0.  1.
         23    2    1    0    0    0 -0.30102411205E-01 -0.25564231051E+02  0.16435424789E+02  0.94608323452E+02  0.89593977828E+02 0.  0.
         13    1    3    3    0    0 -0.24957767799E+02 -0.47955496437E+02 -0.58341022163E+01  0.54375249193E+02  0.10566000000E+00 0. -1.
         22    1    1    0    0    0  0.30102411205E-01  0.25564231051E+02 -0.16435424789E+02  0.30391676548E+02  0.00000000000E+00 0.  1.
</event>
<event>
 5    1  0.1668518E-003  0.9118800E+02  0.7818608E-02  0.1130116E+00
         25   -1    0    0    0    0  0.00000000000E+00  0.00000000000E+00  0.99999998245E-14  0.12500000000E+03  0.12500000000E+03 0.  0.
        -13    1    3    3    0    0  0.19053392904E+02 -0.24491063901E+02  0.15651035448E+02  0.34753561930E+02  0.10566000000E+00 0. -1.
         23    2    1    0    0    0  0.20114753582E+02  0.26013214496E+02 -0.89210782245E+01  0.90928365510E+02  0.84303566814E+02 0.  0.
         13    1    3    3    0    0  0.10613606780E+01  0.50504278398E+02 -0.24572113672E+02  0.56174803581E+02  0.10566000000E+00 0.  1.
         22    1    1    0    0    0 -0.20114753582E+02 -0.26013214496E+02  0.89210782245E+01  0.34071634490E+02  0.00000000000E+00 0.  1.
</event>
<event>
 5    1  0.1668518E-003  0.9118800E+02  0.7818608E-02  0.1130116E+00
         25   -1    0    0    0    0  0.00000000000E+00  0.00000000000E+00  0.99999998245E-14  0.12500000000E+03  0.12500000000E+03 0.  0.
        -13    1    3    3    0    0 -0.21872750517E+02  0.15241484367E+02 -0.27327189218E+02  0.38177303408E+02  0.10566000000E+00 0. -1.
         23    2    1    0    0    0  0.20134916346E+02 -0.19358068058E+02 -0.77518168006E+01  0.96013100909E+02  0.91532918818E+02 0.  0.
         13    1    3    3    0    0  0.42007666863E+02 -0.34599552425E+02  0.19575372417E+02  0.57835797501E+02  0.10566000000E+00 0.  1.
         22    1    1    0    0    0 -0.20134916346E+02  0.19358068058E+02  0.77518168006E+01  0.28986899091E+02  0.00000000000E+00 0.  1.
</event>
<event>
 5    1  0.1668518E-003  0.9118800E+02  0.7818608E-02  0.1130116E+00
         25   -1    0    0    0    0  0.00000000000E+00  0.00000000000E+00  0.99999998245E-14  0.12500000000E+03  0.12500000000E+03 0.  0.
        -13    1    3    3    0    0 -0.15410039143E+02  0.13101793681E+02 -0.31470335152E+02  0.37410151866E+02  0.10566000000E+00 0.  1.
         23    2    1    0    0    0  0.26250130170E+02  0.14171041230E+02  0.72551759126E+01  0.94299424745E+02  0.89161966030E+02 0.  0.
         13    1    3    3    0    0  0.41660169312E+02  0.10692475490E+01  0.38725511065E+02  0.56889272879E+02  0.10566000000E+00 0. -1.
         22    1    1    0    0    0 -0.26250130170E+02 -0.14171041230E+02 -0.72551759126E+01  0.30700575255E+02  0.00000000000E+00 0. -1.
</event>
<event>
 5    1  0.1668518E-003  0.9118800E+02  0.7818608E-02  0.1130116E+00
         25   -1    0    0    0    0  0.00000000000E+00  0.00000000000E+00  0.99999998245E-14  0.12500000000E+03  0.12500000000E+03 0.  0.
        -13    1    3    3    0    0 -0.34231920292E+02  0.12167492165E+02  0.15164588483E+02  0.39368110703E+02  0.10566000000E+00 0.  1.
         23    2    1    0    0    0  0.14834701181E+02 -0.14106505244E+02  0.21412777052E+02  0.95376211073E+02  0.90658991657E+02 0.  0.
         13    1    3    3    0    0  0.49066621473E+02 -0.26273997408E+02  0.62481885685E+01  0.56008100370E+02  0.10566000000E+00 0. -1.
         22    1    1    0    0    0 -0.14834701181E+02  0.14106505244E+02 -0.21412777052E+02  0.29623788927E+02  0.00000000000E+00 0. -1.
</event>
<event>
 5    1  0.1668518E-003  0.9118800E+02  0.7818608E-02  0.1130116E+00
         25   -1    0    0    0    0  0.00000000000E+00  0.00000000000E+00  0.99999998245E-14  0.12500000000E+03  0.12500000000E+03 0.  0.
        -13    1    3    3    0    0 -0.24211665969E+01 -0.33542122497E+02  0.12250592079E+02  0.35791398402E+02  0.10566000000E+00 0. -1.
         23    2    1    0    0    0  0.27383863350E+01  0.24994494988E+02  0.16845769398E+02  0.94734450509E+02  0.89769775688E+02 0.  0.
         13    1    3    3    0    0  0.51595529319E+01  0.58536617485E+02  0.45951773190E+01  0.58943052106E+02  0.10566000000E+00 0.  1.
         22    1    1    0    0    0 -0.27383863350E+01 -0.24994494988E+02 -0.16845769398E+02  0.30265549491E+02  0.00000000000E+00 0.  1.
</event>
<event>
 5    1  0.1668518E-003  0.9118800E+02  0.7818608E-02  0.1130116E+00
         25   -1    0    0    0    0  0.00000000000E+00  0.00000000000E+00  0.99999998245E-14  0.12500000000E+03  0.12500000000E+03 0.  0.
        -13    1    3    3    0    0  0.31763949035E+02 -0.88500381035E+01 -0.38017863765E+01  0.33192414441E+02  0.10566000000E+00 0. -1.
         23    2    1    0    0    0 -0.27117917364E+02  0.86299284029E+01 -0.97893470224E+01  0.94905342310E+02  0.90007419569E+02 0.  0.
         13    1    3    3    0    0 -0.58881866398E+02  0.17479966506E+02 -0.59875606460E+01  0.61712927869E+02  0.10566000000E+00 0.  1.
         22    1    1    0    0    0  0.27117917364E+02 -0.86299284029E+01  0.97893470224E+01  0.30094657690E+02  0.00000000000E+00 0.  1.
</event>
<event>
 5    1  0.1668518E-003  0.9118800E+02  0.7818608E-02  0.1130116E+00
         25   -1    0    0    0    0  0.00000000000E+00  0.00000000000E+00  0.99999998245E-14  0.12500000000E+03  0.12500000000E+03 0.  0.
        -13    1    3    3    0    0  0.32976120317E+02 -0.40851102750E+01 -0.32058762312E+02  0.46172373149E+02  0.10566000000E+00 0.  1.
         23    2    1    0    0    0 -0.22377987228E+01 -0.27808423394E+02 -0.46323945720E+01  0.96719702366E+02  0.92492840758E+02 0.  0.
         13    1    3    3    0    0 -0.35213919040E+02 -0.23723313119E+02  0.27426367740E+02  0.50547329217E+02  0.10566000000E+00 0. -1.
         22    1    1    0    0    0  0.22377987228E+01  0.27808423394E+02  0.46323945720E+01  0.28280297634E+02  0.00000000000E+00 0. -1.
</event>
<event>
 5    1  0.1668518E-003  0.9118800E+02  0.7818608E-02  0.1130116E+00
         25   -1    0    0    0    0  0.00000000000E+00  0.00000000000E+00  0.99999998245E-14  0.12500000000E+03  0.12500000000E+03 0.  0.
        -13    1    3    3    0    0  0.15879987135E+02 -0.55389668265E+02  0.63335472843E+01  0.57968218251E+02  0.10566000000E+00 0. -1.
         23    2    1    0    0    0  0.18533555618E+02 -0.39253547928E+02  0.17948817592E+02  0.78026669675E+02  0.62303028970E+02 0.  0.
         13    1    3    3    0    0  0.26535684827E+01  0.16136120336E+02  0.11615270308E+02  0.20058451425E+02  0.10566000000E+00 0.  1.
         22    1    1    0    0    0 -0.18533555618E+02  0.39253547928E+02 -0.17948817592E+02  0.46973330325E+02  0.00000000000E+00 0. -1.
</event>
<event>
 5    1  0.1668518E-003  0.9118800E+02  0.7818608E-02  0.1130116E+00
         25   -1    0    0    0    0  0.00000000000E+00  0.00000000000E+00  0.99999998245E-14  0.12500000000E+03  0.12500000000E+03 0.  0.
        -13    1    3    3    0    0 -0.25699355485E+02  0.27986220779E+02  0.13671088077E+02  0.40380629503E+02  0.10566000000E+00 0. -1.
         23    2    1    0    0    0  0.11765703808E+02 -0.14107788081E+02  0.20877066798E+02  0.97191487118E+02  0.93128254464E+02 0.  0.
         13    1    3    3    0    0  0.37465059292E+02 -0.42094008860E+02  0.72059787205E+01  0.56810857615E+02  0.10566000000E+00 0.  1.
         22    1    1    0    0    0 -0.11765703808E+02  0.14107788081E+02 -0.20877066798E+02  0.27808512882E+02  0.00000000000E+00 0.  1.
</event>
<event>
 5    1  0.1668518E-003  0.9118800E+02  0.7818608E-02  0.1130116E+00
         25   -1    0    0    0    0  0.00000000000E+00  0.00000000000E+00  0.99999998245E-14  0.12500000000E+03  0.12500000000E+03 0.  0.
        -13    1    3    3    0    0 -0.89939195678E+01  0.33055222306E+02 -0.66571443553E+01  0.34897951887E+02  0.10566000000E+00 0.  1.
         23    2    1    0    0    0 -0.79750417502E+01 -0.27833401892E+02 -0.16950042842E+01  0.95997024441E+02  0.91510961694E+02 0.  0.
         13    1    3    3    0    0  0.10188778176E+01 -0.60888624198E+02  0.49621400711E+01  0.61099072553E+02  0.10566000000E+00 0. -1.
         22    1    1    0    0    0  0.79750417502E+01  0.27833401892E+02  0.16950042842E+01  0.29002975559E+02  0.00000000000E+00 0. -1.
</event>
<event>
 5    1  0.1668518E-003  0.9118800E+02  0.7818608E-02  0.1130116E+00
         25   -1    0    0    0    0  0.00000000000E+00  0.00000000000E+00  0.99999998245E-14  0.12500000000E+03  0.12500000000E+03 0.  0.
        -13    1    3    3    0    0 -0.16042941869E+02  0.19052335355E+02  0.46060464313E+02  0.52363584705E+02  0.10566000000E+00 0. -1.
         23    2    1    0    0    0  0.17753217046E+02  0.91204588301E+01  0.23381252545E+02  0.94258457174E+02  0.89104513317E+02 0.  0.
         13    1    3    3    0    0  0.33796158915E+02 -0.99318765251E+01 -0.22679211768E+02  0.41894872469E+02  0.10566000000E+00 0.  1.
         22    1    1    0    0    0 -0.17753217046E+02 -0.91204588301E+01 -0.23381252545E+02  0.30741542826E+02  0.00000000000E+00 0. -1.
</event>
<event>
 5    1  0.1668518E-003  0.9118800E+02  0.7818608E-02  0.1130116E+00
         25   -1    0    0    0    0  0.00000000000E+00  0.00000000000E+00  0.99999998245E-14  0.12500000000E+03  0.12500000000E+03 0.  0.
        -13    1    3    3    0    0  0.30316865034E+02  0.21977106819E+02  0.46483660720E+02  0.59689592121E+02  0.10566000000E+00 0.  1.
         23    2    1    0    0    0  0.16121016157E+02 -0.27932707426E+01  0.23623046213E+02  0.96264345566E+02  0.91875385123E+02 0.  0.
         13    1    3    3    0    0 -0.14195848877E+02 -0.24770377562E+02 -0.22860614507E+02  0.36574753445E+02  0.10566000000E+00 0. -1.
         22    1    1    0    0    0 -0.16121016157E+02  0.27932707426E+01 -0.23623046213E+02  0.28735654434E+02  0.00000000000E+00 0.  1.
</event>
<event>
 5    1  0.1668518E-003  0.9118800E+02  0.7818608E-02  0.1130116E+00
         25   -1    0    0    0    0  0.00000000000E+00  0.00000000000E+00  0.99999998245E-14  0.12500000000E+03  0.12500000000E+03 0.  0.
        -13    1    3    3    0    0  0.17062561729E+02  0.36244121596E+02  0.21150035744E+02  0.45300138399E+02  0.10566000000E+00 0.  1.
         23    2    1    0    0    0  0.29103808021E+02 -0.41061073546E+01 -0.54501839433E+01  0.95106919464E+02  0.90286930760E+02 0.  0.
         13    1    3    3    0    0  0.12041246291E+02 -0.40350228950E+02 -0.26600219687E+02  0.49806781065E+02  0.10566000000E+00 0. -1.
         22    1    1    0    0    0 -0.29103808021E+02  0.41061073546E+01  0.54501839433E+01  0.29893080536E+02  0.00000000000E+00 0. -1.
</event>
<event>
 5    1  0.1668518E-003  0.9118800E+02  0.7818608E-02  0.1130116E+00
         25   -1    0    0    0    0  0.00000000000E+00  0.00000000000E+00  0.99999998245E-14  0.12500000000E+03  0.12500000000E+03 0.  0.
        -13    1    3    3    0    0 -0.40304658636E+02 -0.20378863643E+02  0.29841970751E+02  0.54132411488E+02  0.10566000000E+00 0.  1.
         23    2    1    0    0    0 -0.26580710655E+02 -0.68512152439E+01 -0.78373090453E+01  0.96453603689E+02  0.92132518268E+02 0.  0.
         13    1    3    3    0    0  0.13723947981E+02  0.13527648399E+02 -0.37679279796E+02  0.42321192202E+02  0.10566000000E+00 0. -1.
         22    1    1    0    0    0  0.26580710655E+02  0.68512152439E+01  0.78373090453E+01  0.28546396311E+02  0.00000000000E+00 0.  1.
</event>
<event>
 5    1  0.1668518E-003  0.9118800E+02  0.7818608E-02  0.1130116E+00
         25   -1    0    0    0    0  0.00000000000E+00  0.00000000000E+00  0.99999998245E-14  0.12500000000E+03  0.12500000000E+03 0.  0.
        -13    1    3    3    0    0 -0.28553912080E+02  0.33927332380E+02 -0.12264785166E+02  0.46008976262E+02  0.10566000000E+00 0.  1.
         23    2    1    0    0    0 -0.27546481335E+02  0.36957248887E+02  0.17315332883E+02  0.75761116665E+02  0.57578460958E+02 0.  0.
         13    1    3    3    0    0  0.10074307444E+01  0.30299165070E+01  0.29580118049E+02  0.29752140403E+02  0.10566000000E+00 0. -1.
         22    1    1    0    0    0  0.27546481335E+02 -0.36957248887E+02 -0.17315332883E+02  0.49238883335E+02  0.00000000000E+00 0.  1.
</event>
<event>
 5    1  0.1668518E-003  0.9118800E+02  0.7818608E-02  0.1130116E+00
         25   -1    0    0    0    0  0.00000000000E+00  0.00000000000E+00  0.99999998245E-14  0.12500000000E+03  0.12500000000E+03 0.  0.
        -13    1    3    3    0    0  0.32926337313E+02 -0.33929932369E+02  0.22240906810E+02  0.52249910040E+02  0.10566000000E+00 0.  1.
         23    2    1    0    0    0  0.27660903036E+02 -0.27308571681E+01 -0.80603028922E+01  0.96059515893E+02  0.91596282530E+02 0.  0.
         13    1    3    3    0    0 -0.52654342773E+01  0.31199075201E+02 -0.30301209702E+02  0.43809605853E+02  0.10566000000E+00 0. -1.
         22    1    1    0    0    0 -0.27660903036E+02  0.27308571681E+01  0.80603028922E+01  0.28940484107E+02  0.00000000000E+00 0.  1.
</event>
<event>
 5    1  0.1668518E-003  0.9118800E+02  0.7818608E-02  0.1130116E+00
         25   -1    0    0    0    0  0.00000000000E+00  0.00000000000E+00  0.99999998245E-14  0.12500000000E+03  0.12500000000E+03 0.  0.
        -13    1    3    3    0    0  0.30038198271E+02  0.15263284362E+02 -0.37703958043E+02  0.50565411311E+02  0.10566000000E+00 0.  1.
         23    2    1    0    0    0 -0.13486098238E+02  0.92713075776E+01 -0.22749117179E+02  0.96975826108E+02  0.92838335439E+02 0.  0.
         13    1    3    3    0    0 -0.43524296509E+02 -0.59919767840E+01  0.14954840864E+02  0.46410414798E+02  0.10566000000E+00 0. -1.
         22    1    1    0    0    0  0.13486098238E+02 -0.92713075776E+01  0.22749117179E+02  0.28024173892E+02  0.00000000000E+00 0.  1.
</event>
<event>
 5    1  0.1668518E-003  0.9118800E+02  0.7818608E-02  0.1130116E+00
         25   -1    0    0    0    0  0.00000000000E+00  0.00000000000E+00  0.99999998245E-14  0.12500000000E+03  0.12500000000E+03 0.  0.
        -13    1    3    3    0    0 -0.32470610542E+02 -0.37216156628E+02  0.75966167160E+01  0.49971017727E+02  0.10566000000E+00 0. -1.
         23    2    1    0    0    0 -0.21547364108E+01 -0.96610964321E+01  0.27684950069E+02  0.95598705239E+02  0.90965247814E+02 0.  0.
         13    1    3    3    0    0  0.30315874132E+02  0.27555060196E+02  0.20088333353E+02  0.45627687512E+02  0.10566000000E+00 0.  1.
         22    1    1    0    0    0  0.21547364108E+01  0.96610964321E+01 -0.27684950069E+02  0.29401294761E+02  0.00000000000E+00 0. -1.
</event>
<event>
 5    1  0.1668518E-003  0.9118800E+02  0.7818608E-02  0.1130116E+00
         25   -1    0    0    0    0  0.00000000000E+00  0.00000000000E+00  0.99999998245E-14  0.12500000000E+03  0.12500000000E+03 0.  0.
        -13    1    3    3    0    0  0.24145285397E+02  0.16740861201E+02 -0.24306837199E+02  0.38132463064E+02  0.10566000000E+00 0.  1.
         23    2    1    0    0    0 -0.15965494080E+02 -0.22246370261E+02 -0.97675283060E+01  0.95927631672E+02  0.91416125044E+02 0.  0.
         13    1    3    3    0    0 -0.40110779477E+02 -0.38987231462E+02  0.14539308893E+02  0.57795168608E+02  0.10566000000E+00 0. -1.
         22    1    1    0    0    0  0.15965494080E+02  0.22246370261E+02  0.97675283060E+01  0.29072368328E+02  0.00000000000E+00 0. -1.
</event>
<event>
 5    1  0.1668518E-003  0.9118800E+02  0.7818608E-02  0.1130116E+00
         25   -1    0    0    0    0  0.00000000000E+00  0.00000000000E+00  0.99999998245E-14  0.12500000000E+03  0.12500000000E+03 0.  0.
        -13    1    3    3    0    0 -0.35576871886E+02 -0.49191127089E+01 -0.16342384361E+02  0.39458790829E+02  0.10566000000E+00 0.  1.
         23    2    1    0    0    0  0.26666934387E+01  0.30820926238E+02 -0.83216728307E+00  0.94052734362E+02  0.88815446802E+02 0.  0.
         13    1    3    3    0    0  0.38243565325E+02  0.35740038947E+02  0.15510217078E+02  0.54593943533E+02  0.10566000000E+00 0. -1.
         22    1    1    0    0    0 -0.26666934387E+01 -0.30820926238E+02  0.83216728307E+00  0.30947265638E+02  0.00000000000E+00 0. -1.
</event>
<event>
 5    1  0.1668518E-003  0.9118800E+02  0.7818608E-02  0.1130116E+00
         25   -1    0    0    0    0  0.00000000000E+00  0.00000000000E+00  0.99999998245E-14  0.12500000000E+03  0.12500000000E+03 0.  0.
        -13    1    3    3    0    0 -0.36192947150E+02  0.19409870804E+01  0.26938243068E+01  0.36345078177E+02  0.10566000000E+00 0. -1.
         23    2    1    0    0    0  0.25617472547E+02 -0.17375522609E+01 -0.53107522363E+01  0.98780196857E+02  0.95236805985E+02 0.  0.
         13    1    3    3    0    0  0.61810419697E+02 -0.36785393413E+01 -0.80045765431E+01  0.62435118680E+02  0.10566000000E+00 0.  1.
         22    1    1    0    0    0 -0.25617472547E+02  0.17375522609E+01  0.53107522363E+01  0.26219803143E+02  0.00000000000E+00 0.  1.
</event>
<event>
 5    1  0.1668518E-003  0.9118800E+02  0.7818608E-02  0.1130116E+00
         25   -1    0    0    0    0  0.00000000000E+00  0.00000000000E+00  0.99999998245E-14  0.12500000000E+03  0.12500000000E+03 0.  0.
        -13    1    3    3    0    0  0.32592283821E+02  0.78576666855E+01 -0.97776798039E+01  0.34922973481E+02  0.10566000000E+00 0. -1.
         23    2    1    0    0    0 -0.14303107684E+02 -0.23784578567E+02  0.10937419662E+02  0.95168603521E+02  0.90372290445E+02 0.  0.
         13    1    3    3    0    0 -0.46895391505E+02 -0.31642245253E+02  0.20715099466E+02  0.60245630040E+02  0.10566000000E+00 0.  1.
         22    1    1    0    0    0  0.14303107684E+02  0.23784578567E+02 -0.10937419662E+02  0.29831396479E+02  0.00000000000E+00 0.  1.
</event>
<event>
 5    1  0.1668518E-003  0.9118800E+02  0.7818608E-02  0.1130116E+00
         25   -1    0    0    0    0  0.00000000000E+00  0.00000000000E+00  0.99999998245E-14  0.12500000000E+03  0.12500000000E+03 0.  0.
        -13    1    3    3    0    0 -0.17413468753E+01 -0.29804914125E+02 -0.28439932459E+02  0.41233555719E+02  0.10566000000E+00 0. -1.
         23    2    1    0    0    0 -0.60766344075E+01 -0.40455005486E+01  0.24051256901E+02  0.99865272650E+02  0.96650494890E+02 0.  0.
         13    1    3    3    0    0 -0.43352875322E+01  0.25759413576E+02  0.52491189360E+02  0.58631716931E+02  0.10566000000E+00 0.  1.
         22    1    1    0    0    0  0.60766344075E+01  0.40455005486E+01 -0.24051256901E+02  0.25134727350E+02  0.00000000000E+00 0.  1.
</event>
<event>
 5    1  0.1668518E-003  0.9118800E+02  0.7818608E-02  0.1130116E+00
         25   -1    0    0    0    0  0.00000000000E+00  0.00000000000E+00  0.99999998245E-14  0.12500000000E+03  0.12500000000E+03 0.  0.
        -13    1    3    3    0    0  0.35829476856E+02  0.21705531288E+01 -0.31062586871E+02  0.47469550028E+02  0.10566000000E+00 0.  1.
         23    2    1    0    0    0 -0.59481111206E+01  0.22783122926E+01 -0.34993128282E+02  0.89431899688E+02  0.82054706885E+02 0.  0.
         13    1    3    3    0    0 -0.41777587977E+02  0.10775916384E+00 -0.39305414119E+01  0.41962349661E+02  0.10566000000E+00 0. -1.
         22    1    1    0    0    0  0.59481111206E+01 -0.22783122926E+01  0.34993128282E+02  0.35568100312E+02  0.00000000000E+00 0.  1.
</event>
<event>
 5    1  0.1668518E-003  0.9118800E+02  0.7818608E-02  0.1130116E+00
         25   -1    0    0    0    0  0.00000000000E+00  0.00000000000E+00  0.99999998245E-14  0.12500000000E+03  0.12500000000E+03 0.  0.
        -13    1    3    3    0    0  0.38520349893E+02 -0.17939164346E+02  0.44672414475E+02  0.61654413892E+02  0.10566000000E+00 0.  1.
         23    2    1    0    0    0  0.18120175925E+02 -0.15626432453E+02  0.19534923964E+02  0.94110852698E+02  0.88897205662E+02 0.  0.
         13    1    3    3    0    0 -0.20400173968E+02  0.23127318925E+01 -0.25137490511E+02  0.32456438806E+02  0.10566000000E+00 0. -1.
         22    1    1    0    0    0 -0.18120175925E+02  0.15626432453E+02 -0.19534923964E+02  0.30889147302E+02  0.00000000000E+00 0.  1.
</event>
<event>
 5    1  0.1668518E-003  0.9118800E+02  0.7818608E-02  0.1130116E+00
         25   -1    0    0    0    0  0.00000000000E+00  0.00000000000E+00  0.99999998245E-14  0.12500000000E+03  0.12500000000E+03 0.  0.
        -13    1    3    3    0    0 -0.36421531846E+02  0.10353245995E+02  0.17182632175E+02  0.41580905439E+02  0.10566000000E+00 0. -1.
         23    2    1    0    0    0  0.47896801888E+01  0.17181927237E+02 -0.20491001199E+02  0.97833093845E+02  0.93985496016E+02 0.  0.
         13    1    3    3    0    0  0.41211212034E+02  0.68286812416E+01 -0.37673633374E+02  0.56252188406E+02  0.10566000000E+00 0.  1.
         22    1    1    0    0    0 -0.47896801888E+01 -0.17181927237E+02  0.20491001199E+02  0.27166906155E+02  0.00000000000E+00 0.  1.
</event>
<event>
 5    1  0.1668518E-003  0.9118800E+02  0.7818608E-02  0.1130116E+00
         25   -1    0    0    0    0  0.00000000000E+00  0.00000000000E+00  0.99999998245E-14  0.12500000000E+03  0.12500000000E+03 0.  0.
        -13    1    3    3    0    0 -0.36294971905E+02 -0.17182905799E+02  0.42478175529E+02  0.58454972394E+02  0.10566000000E+00 0. -1.
         23    2    1    0    0    0 -0.21360495024E+02  0.70645342689E+01  0.22014455377E+02  0.93522791774E+02  0.88066440507E+02 0.  0.
         13    1    3    3    0    0  0.14934476881E+02  0.24247440068E+02 -0.20463720152E+02  0.35067819380E+02  0.10566000000E+00 0.  1.
         22    1    1    0    0    0  0.21360495024E+02 -0.70645342689E+01 -0.22014455377E+02  0.31477208226E+02  0.00000000000E+00 0. -1.
</event>
<event>
 5    1  0.1668518E-003  0.9118800E+02  0.7818608E-02  0.1130116E+00
         25   -1    0    0    0    0  0.00000000000E+00  0.00000000000E+00  0.99999998245E-14  0.12500000000E+03  0.12500000000E+03 0.  0.
        -13    1    3    3    0    0 -0.11523813968E+02 -0.18005206301E+02  0.28128904281E+02  0.35330329214E+02  0.10566000000E+00 0.  1.
         23    2    1    0    0    0  0.23491496561E+02  0.17848006226E+02 -0.45354273134E+01  0.95150848625E+02  0.90347729114E+02 0.  0.
         13    1    3    3    0    0  0.35015310529E+02  0.35853212527E+02 -0.32664331594E+02  0.59820519410E+02  0.10566000000E+00 0. -1.
         22    1    1    0    0    0 -0.23491496561E+02 -0.17848006226E+02  0.45354273134E+01  0.29849151375E+02  0.00000000000E+00 0. -1.
</event>
<event>
 5    1  0.1668518E-003  0.9118800E+02  0.7818608E-02  0.1130116E+00
         25   -1    0    0    0    0  0.00000000000E+00  0.00000000000E+00  0.99999998245E-14  0.12500000000E+03  0.12500000000E+03 0.  0.
        -13    1    3    3    0    0 -0.42747497956E+02  0.29484196759E+02  0.76646957452E+01  0.52492143840E+02  0.10566000000E+00 0.  1.
         23    2    1    0    0    0 -0.10061924227E+02  0.40241334167E+01  0.25266459048E+02  0.97507638847E+02  0.93551641951E+02 0.  0.
         13    1    3    3    0    0  0.32685573729E+02 -0.25460063342E+02  0.17601763303E+02  0.45015495007E+02  0.10566000000E+00 0. -1.
         22    1    1    0    0    0  0.10061924227E+02 -0.40241334167E+01 -0.25266459048E+02  0.27492361153E+02  0.00000000000E+00 0.  1.
</event>
<event>
 5    1  0.1668518E-003  0.9118800E+02  0.7818608E-02  0.1130116E+00
         25   -1    0    0    0    0  0.00000000000E+00  0.00000000000E+00  0.99999998245E-14  0.12500000000E+03  0.12500000000E+03 0.  0.
        -13    1    3    3    0    0 -0.51204739153E+02 -0.25267332089E+02 -0.48933630952E+00  0.57101786283E+02  0.10566000000E+00 0. -1.
         23    2    1    0    0    0 -0.29697738528E+02  0.53037261521E+01  0.32060140892E+01  0.94662503216E+02  0.89669536656E+02 0.  0.
         13    1    3    3    0    0  0.21507000626E+02  0.30571058241E+02  0.36953503988E+01  0.37560716933E+02  0.10566000000E+00 0.  1.
         22    1    1    0    0    0  0.29697738528E+02 -0.53037261521E+01 -0.32060140892E+01  0.30337496784E+02  0.00000000000E+00 0. -1.
</event>
<event>
 5    1  0.1668518E-003  0.9118800E+02  0.7818608E-02  0.1130116E+00
         25   -1    0    0    0    0  0.00000000000E+00  0.00000000000E+00  0.99999998245E-14  0.12500000000E+03  0.12500000000E+03 0.  0.
        -13    1    3    3    0    0  0.14583699217E+02 -0.38492426871E+02  0.11429091344E+02  0.42719860747E+02  0.10566000000E+00 0. -1.
         23    2    1    0    0    0 -0.76771100576E+01 -0.10902927766E+02 -0.26928665931E+02  0.94950625605E+02  0.90070285895E+02 0.  0.
         13    1    3    3    0    0 -0.22260809274E+02  0.27589499104E+02 -0.38357757275E+02  0.52230764858E+02  0.10566000000E+00 0.  1.
         22    1    1    0    0    0  0.76771100576E+01  0.10902927766E+02  0.26928665931E+02  0.30049374395E+02  0.00000000000E+00 0.  1.
</event>
<event>
 5    1  0.1668518E-003  0.9118800E+02  0.7818608E-02  0.1130116E+00
         25   -1    0    0    0    0  0.00000000000E+00  0.00000000000E+00  0.99999998245E-14  0.12500000000E+03  0.12500000000E+03 0.  0.
        -13    1    3    3    0    0 -0.24132922200E+02  0.99939391332E+01  0.21942542405E+02  0.34113971984E+02  0.10566000000E+00 0. -1.
         23    2    1    0    0    0  0.19564674425E+02  0.16910075257E+02 -0.17817268661E+02  0.93596462093E+02  0.88170944893E+02 0.  0.
         13    1    3    3    0    0  0.43697596624E+02  0.69161361237E+01 -0.39759811065E+02  0.59482490109E+02  0.10566000000E+00 0.  1.
         22    1    1    0    0    0 -0.19564674425E+02 -0.16910075257E+02  0.17817268661E+02  0.31403537907E+02  0.00000000000E+00 0.  1.
</event>
<event>
 5    1  0.1668518E-003  0.9118800E+02  0.7818608E-02  0.1130116E+00
         25   -1    0    0    0    0  0.00000000000E+00  0.00000000000E+00  0.99999998245E-14  0.12500000000E+03  0.12500000000E+03 0.  0.
        -13    1    3    3    0    0 -0.24341487911E+02  0.35181063341E+02 -0.38363304333E+01  0.42952809533E+02  0.10566000000E+00 0. -1.
         23    2    1    0    0    0  0.23957725803E+02  0.20344230299E+02 -0.15980195972E+01  0.93529156371E+02  0.88075473844E+02 0.  0.
         13    1    3    3    0    0  0.48299213713E+02 -0.14836833042E+02  0.22383108361E+01  0.50576346838E+02  0.10566000000E+00 0.  1.
         22    1    1    0    0    0 -0.23957725803E+02 -0.20344230299E+02  0.15980195972E+01  0.31470843629E+02  0.00000000000E+00 0.  1.
</event>
<event>
 5    1  0.1668518E-003  0.9118800E+02  0.7818608E-02  0.1130116E+00
         25   -1    0    0    0    0  0.00000000000E+00  0.00000000000E+00  0.99999998245E-14  0.12500000000E+03  0.12500000000E+03 0.  0.
        -13    1    3    3    0    0  0.23200189272E+02 -0.14163690737E+01 -0.23518946417E+02  0.33066703619E+02  0.10566000000E+00 0.  1.
         23    2    1    0    0    0 -0.92464600952E+01 -0.12410051200E+02  0.26865999034E+02  0.93995350362E+02  0.88734647070E+02 0.  0.
         13    1    3    3    0    0 -0.32446649367E+02 -0.10993682126E+02  0.50384945451E+02  0.60928646743E+02  0.10566000000E+00 0. -1.
         22    1    1    0    0    0  0.92464600952E+01  0.12410051200E+02 -0.26865999034E+02  0.31004649638E+02  0.00000000000E+00 0. -1.
</event>
<event>
 5    1  0.1668518E-003  0.9118800E+02  0.7818608E-02  0.1130116E+00
         25   -1    0    0    0    0  0.00000000000E+00  0.00000000000E+00  0.99999998245E-14  0.12500000000E+03  0.12500000000E+03 0.  0.
        -13    1    3    3    0    0 -0.35045833791E+02 -0.13264892188E+01 -0.35008781420E+02  0.49553970379E+02  0.10566000000E+00 0.  1.
         23    2    1    0    0    0 -0.52494887103E+01 -0.26832346987E+02 -0.11080480468E+02  0.95498999611E+02  0.90828133873E+02 0.  0.
         13    1    3    3    0    0  0.29796345081E+02 -0.25505857768E+02  0.23928300952E+02  0.45945029232E+02  0.10566000000E+00 0. -1.
         22    1    1    0    0    0  0.52494887103E+01  0.26832346987E+02  0.11080480468E+02  0.29501000389E+02  0.00000000000E+00 0.  1.
</event>
<event>
 5    1  0.1668518E-003  0.9118800E+02  0.7818608E-02  0.1130116E+00
         25   -1    0    0    0    0  0.00000000000E+00  0.00000000000E+00  0.99999998245E-14  0.12500000000E+03  0.12500000000E+03 0.  0.
        -13    1    3    3    0    0 -0.67333160511E+01  0.61292914263E+01 -0.44051079142E+02  0.44982379839E+02  0.10566000000E+00 0.  1.
         23    2    1    0    0    0  0.58295761592E+01 -0.26406579365E+02 -0.47221174132E+01  0.97548410158E+02  0.93606103111E+02 0.  0.
         13    1    3    3    0    0  0.12562892210E+02 -0.32535870791E+02  0.39328961728E+02  0.52566030319E+02  0.10566000000E+00 0. -1.
         22    1    1    0    0    0 -0.58295761592E+01  0.26406579365E+02  0.47221174132E+01  0.27451589842E+02  0.00000000000E+00 0. -1.
</event>
<event>
 5    1  0.1668518E-003  0.9118800E+02  0.7818608E-02  0.1130116E+00
         25   -1    0    0    0    0  0.00000000000E+00  0.00000000000E+00  0.99999998245E-14  0.12500000000E+03  0.12500000000E+03 0.  0.
        -13    1    3    3    0    0 -0.48029282833E+02 -0.17890944879E+02  0.26592588319E+02  0.57741448160E+02  0.10566000000E+00 0.  1.
         23    2    1    0    0    0 -0.10810263813E+02 -0.16089315115E+02  0.22613130151E+02  0.95216086224E+02  0.90437943122E+02 0.  0.
         13    1    3    3    0    0  0.37219019021E+02  0.18016297640E+01 -0.39794581673E+01  0.37474638064E+02  0.10566000000E+00 0. -1.
         22    1    1    0    0    0  0.10810263813E+02  0.16089315115E+02 -0.22613130151E+02  0.29783913776E+02  0.00000000000E+00 0.  1.
</event>
<event>
 5    1  0.1668518E-003  0.9118800E+02  0.7818608E-02  0.1130116E+00
         25   -1    0    0    0    0  0.00000000000E+00  0.00000000000E+00  0.99999998245E-14  0.12500000000E+03  0.12500000000E+03 0.  0.
        -13    1    3    3    0    0 -0.28750083196E+02 -0.38911763136E+01  0.73946869295E+01  0.29939958178E+02  0.10566000000E+00 0.  1.
         23    2    1    0    0    0  0.31005733220E+02  0.89104693538E+01  0.10340212247E+02  0.91122692758E+02  0.84591212248E+02 0.  0.
         13    1    3    3    0    0  0.59755816416E+02  0.12801645667E+02  0.29455253180E+01  0.61182734581E+02  0.10566000000E+00 0. -1.
         22    1    1    0    0    0 -0.31005733220E+02 -0.89104693538E+01 -0.10340212247E+02  0.33877307242E+02  0.00000000000E+00 0. -1.
</event>
<event>
 5    1  0.1668518E-003  0.9118800E+02  0.7818608E-02  0.1130116E+00
         25   -1    0    0    0    0  0.00000000000E+00  0.00000000000E+00  0.99999998245E-14  0.12500000000E+03  0.12500000000E+03 0.  0.
        -13    1    3    3    0    0 -0.51685717399E+02 -0.21564074854E+01 -0.14882594827E+02  0.53829046704E+02  0.10566000000E+00 0. -1.
         23    2    1    0    0    0 -0.24396309621E+02 -0.31767272769E+01  0.16459645209E+02  0.95399468928E+02  0.90691053760E+02 0.  0.
         13    1    3    3    0    0  0.27289407778E+02 -0.10203197915E+01  0.31342240036E+02  0.41570422224E+02  0.10566000000E+00 0.  1.
         22    1    1    0    0    0  0.24396309621E+02  0.31767272769E+01 -0.16459645209E+02  0.29600531072E+02  0.00000000000E+00 0. -1.
</event>
<event>
 5    1  0.1668518E-003  0.9118800E+02  0.7818608E-02  0.1130116E+00
         25   -1    0    0    0    0  0.00000000000E+00  0.00000000000E+00  0.99999998245E-14  0.12500000000E+03  0.12500000000E+03 0.  0.
        -13    1    3    3    0    0 -0.30206529631E+02 -0.71058753819E+01  0.21261043101E+02  0.37616100477E+02  0.10566000000E+00 0. -1.
         23    2    1    0    0    0  0.19164321016E+01  0.12557898586E+02 -0.24812193832E+02  0.97124948581E+02  0.93038901247E+02 0.  0.
         13    1    3    3    0    0  0.32122961733E+02  0.19663773968E+02 -0.46073236933E+02  0.59508848104E+02  0.10566000000E+00 0.  1.
         22    1    1    0    0    0 -0.19164321016E+01 -0.12557898586E+02  0.24812193832E+02  0.27875051419E+02  0.00000000000E+00 0.  1.
</event>
<event>
 5    1  0.1668518E-003  0.9118800E+02  0.7818608E-02  0.1130116E+00
         25   -1    0    0    0    0  0.00000000000E+00  0.00000000000E+00  0.99999998245E-14  0.12500000000E+03  0.12500000000E+03 0.  0.
        -13    1    3    3    0    0  0.43843902487E+02  0.21853055485E+01 -0.14322943905E+01  0.43921816639E+02  0.10566000000E+00 0. -1.
         23    2    1    0    0    0  0.50352361093E+01 -0.14537740365E+02  0.26344632133E+02  0.94491982368E+02  0.89431513417E+02 0.  0.
         13    1    3    3    0    0 -0.38808666378E+02 -0.16723045913E+02  0.27776926524E+02  0.50570165729E+02  0.10566000000E+00 0.  1.
         22    1    1    0    0    0 -0.50352361093E+01  0.14537740365E+02 -0.26344632133E+02  0.30508017632E+02  0.00000000000E+00 0.  1.
</event>
<event>
 5    1  0.1668518E-003  0.9118800E+02  0.7818608E-02  0.1130116E+00
         25   -1    0    0    0    0  0.00000000000E+00  0.00000000000E+00  0.99999998245E-14  0.12500000000E+03  0.12500000000E+03 0.  0.
        -13    1    3    3    0    0 -0.32725095717E+02 -0.35684835340E+02 -0.20136779042E+02  0.52438920634E+02  0.10566000000E+00 0. -1.
         23    2    1    0    0    0 -0.21856568425E+02 -0.10136994188E+02  0.14539072575E+02  0.96860119655E+02  0.92682414264E+02 0.  0.
         13    1    3    3    0    0  0.10868527292E+02  0.25547841153E+02  0.34675851618E+02  0.44421199021E+02  0.10566000000E+00 0.  1.
         22    1    1    0    0    0  0.21856568425E+02  0.10136994188E+02 -0.14539072575E+02  0.28139880345E+02  0.00000000000E+00 0. -1.
</event>
<event>
 5    1  0.1668518E-003  0.9118800E+02  0.7818608E-02  0.1130116E+00
         25   -1    0    0    0    0  0.00000000000E+00  0.00000000000E+00  0.99999998245E-14  0.12500000000E+03  0.12500000000E+03 0.  0.
        -13    1    3    3    0    0  0.41247702524E+02  0.87454849415E+01 -0.65585854909E+01  0.42671801908E+02  0.10566000000E+00 0. -1.
         23    2    1    0    0    0 -0.10565598739E+01 -0.26108909467E+02 -0.85074681598E+01  0.97519670912E+02  0.93567717339E+02 0.  0.
         13    1    3    3    0    0 -0.42304262398E+02 -0.34854394408E+02 -0.19488826688E+01  0.54847869004E+02  0.10566000000E+00 0.  1.
         22    1    1    0    0    0  0.10565598739E+01  0.26108909467E+02  0.85074681598E+01  0.27480329088E+02  0.00000000000E+00 0.  1.
</event>
<event>
 5    1  0.1668518E-003  0.9118800E+02  0.7818608E-02  0.1130116E+00
         25   -1    0    0    0    0  0.00000000000E+00  0.00000000000E+00  0.99999998245E-14  0.12500000000E+03  0.12500000000E+03 0.  0.
        -13    1    3    3    0    0 -0.15126277761E+01  0.48149409623E+02 -0.38202364663E+02  0.61482400081E+02  0.10566000000E+00 0.  1.
         23    2    1    0    0    0 -0.86876849053E+01  0.22783565518E+02 -0.18400370500E+02  0.94452653777E+02  0.89376526249E+02 0.  0.
         13    1    3    3    0    0 -0.71750571291E+01 -0.25365844105E+02  0.19801994163E+02  0.32970253697E+02  0.10566000000E+00 0. -1.
         22    1    1    0    0    0  0.86876849053E+01 -0.22783565518E+02  0.18400370500E+02  0.30547346223E+02  0.00000000000E+00 0.  1.
</event>
<event>
 5    1  0.1668518E-003  0.9118800E+02  0.7818608E-02  0.1130116E+00
         25   -1    0    0    0    0  0.00000000000E+00  0.00000000000E+00  0.99999998245E-14  0.12500000000E+03  0.12500000000E+03 0.  0.
        -13    1    3    3    0    0  0.24614250812E+02 -0.44412611758E+02  0.28711048323E+02  0.58332468541E+02  0.10566000000E+00 0.  1.
         23    2    1    0    0    0  0.57656157342E+01 -0.11739472874E+02  0.25688588974E+02  0.96173603214E+02  0.91751843598E+02 0.  0.
         13    1    3    3    0    0 -0.18848635078E+02  0.32673138884E+02 -0.30224593486E+01  0.37841134674E+02  0.10566000000E+00 0. -1.
         22    1    1    0    0    0 -0.57656157342E+01  0.11739472874E+02 -0.25688588974E+02  0.28826396786E+02  0.00000000000E+00 0.  1.
</event>
<event>
 5    1  0.1668518E-003  0.9118800E+02  0.7818608E-02  0.1130116E+00
         25   -1    0    0    0    0  0.00000000000E+00  0.00000000000E+00  0.99999998245E-14  0.12500000000E+03  0.12500000000E+03 0.  0.
        -13    1    3    3    0    0 -0.18744781747E+02 -0.20640792287E+02  0.54866754273E+02  0.61544951356E+02  0.10566000000E+00 0.  1.
         23    2    1    0    0    0 -0.15212022626E+02 -0.15198464361E+02  0.25389677337E+02  0.91727869521E+02  0.85480801238E+02 0.  0.
         13    1    3    3    0    0  0.35327591208E+01  0.54423279261E+01 -0.29477076935E+02  0.30182918165E+02  0.10566000000E+00 0. -1.
         22    1    1    0    0    0  0.15212022626E+02  0.15198464361E+02 -0.25389677337E+02  0.33272130479E+02  0.00000000000E+00 0.  1.
</event>
<event>
 5    1  0.1668518E-003  0.9118800E+02  0.7818608E-02  0.1130116E+00
         25   -1    0    0    0    0  0.00000000000E+00  0.00000000000E+00  0.99999998245E-14  0.12500000000E+03  0.12500000000E+03 0.  0.
        -13    1    3    3    0    0  0.80119947886E+01  0.47498522133E+02  0.36089206560E+02  0.60189232089E+02  0.10566000000E+00 0.  1.
         23    2    1    0    0    0  0.15925978539E+02  0.24046733248E+02  0.22453778833E+02  0.88447922683E+02  0.80541794558E+02 0.  0.
         13    1    3    3    0    0  0.79139837504E+01 -0.23451788885E+02 -0.13635427727E+02  0.28258690593E+02  0.10566000000E+00 0. -1.
         22    1    1    0    0    0 -0.15925978539E+02 -0.24046733248E+02 -0.22453778833E+02  0.36552077317E+02  0.00000000000E+00 0.  1.
</event>
<event>
 5    1  0.1668518E-003  0.9118800E+02  0.7818608E-02  0.1130116E+00
         25   -1    0    0    0    0  0.00000000000E+00  0.00000000000E+00  0.99999998245E-14  0.12500000000E+03  0.12500000000E+03 0.  0.
        -13    1    3    3    0    0  0.15280260647E+02  0.32177204512E+02  0.30013429946E+02  0.46579780987E+02  0.10566000000E+00 0.  1.
         23    2    1    0    0    0 -0.21072959805E+02 -0.51220536207E+00  0.18837378571E+02  0.96730249016E+02  0.92507092993E+02 0.  0.
         13    1    3    3    0    0 -0.36353220452E+02 -0.32689409874E+02 -0.11176051374E+02  0.50150468029E+02  0.10566000000E+00 0. -1.
         22    1    1    0    0    0  0.21072959805E+02  0.51220536207E+00 -0.18837378571E+02  0.28269750984E+02  0.00000000000E+00 0. -1.
</event>
<event>
 5    1  0.1668518E-003  0.9118800E+02  0.7818608E-02  0.1130116E+00
         25   -1    0    0    0    0  0.00000000000E+00  0.00000000000E+00  0.99999998245E-14  0.12500000000E+03  0.12500000000E+03 0.  0.
        -13    1    3    3    0    0 -0.22692494561E+02 -0.14914099156E+02 -0.55146813588E+02  0.61470007938E+02  0.10566000000E+00 0. -1.
         23    2    1    0    0    0 -0.15557084438E+02 -0.64724278307E+00 -0.26130585500E+02  0.94582089190E+02  0.89557368751E+02 0.  0.
         13    1    3    3    0    0  0.71354101229E+01  0.14266856373E+02  0.29016228087E+02  0.33112081252E+02  0.10566000000E+00 0.  1.
         22    1    1    0    0    0  0.15557084438E+02  0.64724278307E+00  0.26130585500E+02  0.30417910810E+02  0.00000000000E+00 0. -1.
</event>
<event>
 5    1  0.1668518E-003  0.9118800E+02  0.7818608E-02  0.1130116E+00
         25   -1    0    0    0    0  0.00000000000E+00  0.00000000000E+00  0.99999998245E-14  0.12500000000E+03  0.12500000000E+03 0.  0.
        -13    1    3    3    0    0 -0.19701511017E+02  0.17802286017E+02  0.30843556839E+02  0.40698981391E+02  0.10566000000E+00 0. -1.
         23    2    1    0    0    0 -0.76696895477E+01  0.19056564228E+02 -0.21994698252E+02  0.94904426752E+02  0.90006148057E+02 0.  0.
         13    1    3    3    0    0  0.12031821469E+02  0.12542782105E+01 -0.52838255091E+02  0.54205445361E+02  0.10566000000E+00 0.  1.
         22    1    1    0    0    0  0.76696895477E+01 -0.19056564228E+02  0.21994698252E+02  0.30095573248E+02  0.00000000000E+00 0.  1.
</event>
<event>
 5    1  0.1668518E-003  0.9118800E+02  0.7818608E-02  0.1130116E+00
         25   -1    0    0    0    0  0.00000000000E+00  0.00000000000E+00  0.99999998245E-14  0.12500000000E+03  0.12500000000E+03 0.  0.
        -13    1    3    3    0    0  0.25204331269E+02 -0.11344259250E+02 -0.25379782023E+02  0.37524592365E+02  0.10566000000E+00 0.  1.
         23    2    1    0    0    0 -0.28812506194E+02 -0.47445127943E+01 -0.69004306965E+01  0.94995219404E+02  0.90132152149E+02 0.  0.
         13    1    3    3    0    0 -0.54016837462E+02  0.65997464560E+01  0.18479351326E+02  0.57470627038E+02  0.10566000000E+00 0. -1.
         22    1    1    0    0    0  0.28812506194E+02  0.47445127943E+01  0.69004306965E+01  0.30004780596E+02  0.00000000000E+00 0. -1.
</event>
<event>
 5    1  0.1668518E-003  0.9118800E+02  0.7818608E-02  0.1130116E+00
         25   -1    0    0    0    0  0.00000000000E+00  0.00000000000E+00  0.99999998245E-14  0.12500000000E+03  0.12500000000E+03 0.  0.
        -13    1    3    3    0    0 -0.39160696120E+02  0.26865028455E+02  0.16806137514E+02  0.50376058764E+02  0.10566000000E+00 0.  1.
         23    2    1    0    0    0 -0.11222391869E+02  0.25805024258E+02 -0.15316603205E+02  0.92961902523E+02  0.87266692562E+02 0.  0.
         13    1    3    3    0    0  0.27938304250E+02 -0.10600041973E+01 -0.32122740719E+02  0.42585843759E+02  0.10566000000E+00 0. -1.
         22    1    1    0    0    0  0.11222391869E+02 -0.25805024258E+02  0.15316603205E+02  0.32038097477E+02  0.00000000000E+00 0.  1.
</event>
<event>
 5    1  0.1668518E-003  0.9118800E+02  0.7818608E-02  0.1130116E+00
         25   -1    0    0    0    0  0.00000000000E+00  0.00000000000E+00  0.99999998245E-14  0.12500000000E+03  0.12500000000E+03 0.  0.
        -13    1    3    3    0    0 -0.23915236988E+02  0.21657346544E+02  0.37570274879E+02  0.49522882974E+02  0.10566000000E+00 0. -1.
         23    2    1    0    0    0 -0.12756006730E+02 -0.18763805193E+02  0.19091716030E+02  0.95347180337E+02  0.90618955436E+02 0.  0.
         13    1    3    3    0    0  0.11159230258E+02 -0.40421151736E+02 -0.18478558850E+02  0.45824297363E+02  0.10566000000E+00 0.  1.
         22    1    1    0    0    0  0.12756006730E+02  0.18763805193E+02 -0.19091716030E+02  0.29652819663E+02  0.00000000000E+00 0.  1.
</event>
<event>
 5    1  0.1668518E-003  0.9118800E+02  0.7818608E-02  0.1130116E+00
         25   -1    0    0    0    0  0.00000000000E+00  0.00000000000E+00  0.99999998245E-14  0.12500000000E+03  0.12500000000E+03 0.  0.
        -13    1    3    3    0    0 -0.19266810608E+01 -0.31049048793E+02 -0.34089366295E+02  0.46150315159E+02  0.10566000000E+00 0. -1.
         23    2    1    0    0    0  0.26234698532E+02 -0.15748174934E+02  0.19009413628E+01  0.94342570250E+02  0.89222433067E+02 0.  0.
         13    1    3    3    0    0  0.28161379593E+02  0.15300873859E+02  0.35990307657E+02  0.48192255091E+02  0.10566000000E+00 0.  1.
         22    1    1    0    0    0 -0.26234698532E+02  0.15748174934E+02 -0.19009413628E+01  0.30657429750E+02  0.00000000000E+00 0.  1.
</event>
<event>
 5    1  0.1668518E-003  0.9118800E+02  0.7818608E-02  0.1130116E+00
         25   -1    0    0    0    0  0.00000000000E+00  0.00000000000E+00  0.99999998245E-14  0.12500000000E+03  0.12500000000E+03 0.  0.
        -13    1    3    3    0    0 -0.26462343854E+02  0.14595328569E+02  0.15555677109E+02  0.33989255842E+02  0.10566000000E+00 0.  1.
         23    2    1    0    0    0  0.19100890097E+02 -0.23419016371E+02  0.31069233443E+01  0.94619952223E+02  0.89610200623E+02 0.  0.
         13    1    3    3    0    0  0.45563233951E+02 -0.38014344941E+02 -0.12448753764E+02  0.60630696381E+02  0.10566000000E+00 0. -1.
         22    1    1    0    0    0 -0.19100890097E+02  0.23419016371E+02 -0.31069233443E+01  0.30380047777E+02  0.00000000000E+00 0. -1.
</event>
<event>
 5    1  0.1668518E-003  0.9118800E+02  0.7818608E-02  0.1130116E+00
         25   -1    0    0    0    0  0.00000000000E+00  0.00000000000E+00  0.99999998245E-14  0.12500000000E+03  0.12500000000E+03 0.  0.
        -13    1    3    3    0    0 -0.21322164499E+02 -0.45745647477E+02 -0.15665529293E+02  0.52846181831E+02  0.10566000000E+00 0. -1.
         23    2    1    0    0    0  0.10243770960E+02 -0.20366376739E+02 -0.21373946746E+02  0.93749884089E+02  0.88388183725E+02 0.  0.
         13    1    3    3    0    0  0.31565935459E+02  0.25379270737E+02 -0.57084174531E+01  0.40903702258E+02  0.10566000000E+00 0.  1.
         22    1    1    0    0    0 -0.10243770960E+02  0.20366376739E+02  0.21373946746E+02  0.31250115911E+02  0.00000000000E+00 0. -1.
</event>
<event>
 5    1  0.1668518E-003  0.9118800E+02  0.7818608E-02  0.1130116E+00
         25   -1    0    0    0    0  0.00000000000E+00  0.00000000000E+00  0.99999998245E-14  0.12500000000E+03  0.12500000000E+03 0.  0.
        -13    1    3    3    0    0 -0.12941541125E+02  0.30001906810E+02  0.45743597141E+01  0.32992936059E+02  0.10566000000E+00 0. -1.
         23    2    1    0    0    0 -0.99789727062E+01 -0.29040171264E+02 -0.76376037828E+01  0.93357553273E+02  0.87831590663E+02 0.  0.
         13    1    3    3    0    0  0.29625684192E+01 -0.59042078074E+02 -0.12211963497E+02  0.60364617214E+02  0.10566000000E+00 0.  1.
         22    1    1    0    0    0  0.99789727062E+01  0.29040171264E+02  0.76376037828E+01  0.31642446727E+02  0.00000000000E+00 0.  1.
</event>
<event>
 5    1  0.1668518E-003  0.9118800E+02  0.7818608E-02  0.1130116E+00
         25   -1    0    0    0    0  0.00000000000E+00  0.00000000000E+00  0.99999998245E-14  0.12500000000E+03  0.12500000000E+03 0.  0.
        -13    1    3    3    0    0  0.56955273272E+02  0.16928082717E+02  0.27419459921E+00  0.59418427147E+02  0.10566000000E+00 0.  1.
         23    2    1    0    0    0  0.30049613613E+02  0.32039793022E+00  0.11285282046E+02  0.92899540128E+02  0.87177319482E+02 0.  0.
         13    1    3    3    0    0 -0.26905659659E+02 -0.16607684787E+02  0.11011087447E+02  0.33481112981E+02  0.10566000000E+00 0. -1.
         22    1    1    0    0    0 -0.30049613613E+02 -0.32039793022E+00 -0.11285282046E+02  0.32100459872E+02  0.00000000000E+00 0.  1.
</event>
<event>
 5    1  0.1668518E-003  0.9118800E+02  0.7818608E-02  0.1130116E+00
         25   -1    0    0    0    0  0.00000000000E+00  0.00000000000E+00  0.99999998245E-14  0.12500000000E+03  0.12500000000E+03 0.  0.
        -13    1    3    3    0    0 -0.26547946101E+01  0.22501535423E+00  0.32487312224E+02  0.32596551749E+02  0.10566000000E+00 0.  1.
         23    2    1    0    0    0  0.74471688805E+01 -0.34990696389E+01 -0.28915675583E+02  0.94936398966E+02  0.90050539930E+02 0.  0.
         13    1    3    3    0    0  0.10101963491E+02 -0.37240849931E+01 -0.61402987807E+02  0.62339847218E+02  0.10566000000E+00 0. -1.
         22    1    1    0    0    0 -0.74471688805E+01  0.34990696389E+01  0.28915675583E+02  0.30063601034E+02  0.00000000000E+00 0. -1.
</event>
<event>
 5    1  0.1668518E-003  0.9118800E+02  0.7818608E-02  0.1130116E+00
         25   -1    0    0    0    0  0.00000000000E+00  0.00000000000E+00  0.99999998245E-14  0.12500000000E+03  0.12500000000E+03 0.  0.
        -13    1    3    3    0    0  0.20015409567E+02 -0.19431605410E+02 -0.25584276758E+02  0.37851952265E+02  0.10566000000E+00 0.  1.
         23    2    1    0    0    0 -0.25769864031E+02  0.26133380217E+01  0.69388344992E+01  0.98184652678E+02  0.94451909296E+02 0.  0.
         13    1    3    3    0    0 -0.45785273598E+02  0.22044943432E+02  0.32523111257E+02  0.60332700414E+02  0.10566000000E+00 0. -1.
         22    1    1    0    0    0  0.25769864031E+02 -0.26133380217E+01 -0.69388344992E+01  0.26815347322E+02  0.00000000000E+00 0. -1.
</event>
<event>
 5    1  0.1668518E-003  0.9118800E+02  0.7818608E-02  0.1130116E+00
         25   -1    0    0    0    0  0.00000000000E+00  0.00000000000E+00  0.99999998245E-14  0.12500000000E+03  0.12500000000E+03 0.  0.
        -13    1    3    3    0    0 -0.25069111523E+02 -0.14679261304E+02 -0.26389270101E+02  0.39247239463E+02  0.10566000000E+00 0. -1.
         23    2    1    0    0    0 -0.33830267930E+01 -0.11211257681E+02  0.26234799110E+02  0.96270192249E+02  0.91883339416E+02 0.  0.
         13    1    3    3    0    0  0.21686084730E+02  0.34680036236E+01  0.52624069211E+02  0.57022952786E+02  0.10566000000E+00 0.  1.
         22    1    1    0    0    0  0.33830267930E+01  0.11211257681E+02 -0.26234799110E+02  0.28729807751E+02  0.00000000000E+00 0.  1.
</event>
<event>
 5    1  0.1668518E-003  0.9118800E+02  0.7818608E-02  0.1130116E+00
         25   -1    0    0    0    0  0.00000000000E+00  0.00000000000E+00  0.99999998245E-14  0.12500000000E+03  0.12500000000E+03 0.  0.
        -13    1    3    3    0    0 -0.28135103301E+02 -0.12054955801E+02  0.17608532875E+02  0.35312569875E+02  0.10566000000E+00 0. -1.
         23    2    1    0    0    0  0.22603804922E+02  0.17614480828E+02  0.10329806919E+02  0.94538436633E+02  0.89496419806E+02 0.  0.
         13    1    3    3    0    0  0.50738908224E+02  0.29669436629E+02 -0.72787259558E+01  0.59225866757E+02  0.10566000000E+00 0.  1.
         22    1    1    0    0    0 -0.22603804922E+02 -0.17614480828E+02 -0.10329806919E+02  0.30461563367E+02  0.00000000000E+00 0.  1.
</event>
<event>
 5    1  0.1668518E-003  0.9118800E+02  0.7818608E-02  0.1130116E+00
         25   -1    0    0    0    0  0.00000000000E+00  0.00000000000E+00  0.99999998245E-14  0.12500000000E+03  0.12500000000E+03 0.  0.
        -13    1    3    3    0    0 -0.35424439110E+02 -0.39635808493E+00  0.20902283245E+01  0.35488423528E+02  0.10566000000E+00 0.  1.
         23    2    1    0    0    0  0.21788279921E+02 -0.77542344316E+01  0.18413992521E+02  0.95437652087E+02  0.90743666566E+02 0.  0.
         13    1    3    3    0    0  0.57212719032E+02 -0.73578763467E+01  0.16323764196E+02  0.59949228560E+02  0.10566000000E+00 0. -1.
         22    1    1    0    0    0 -0.21788279921E+02  0.77542344316E+01 -0.18413992521E+02  0.29562347913E+02  0.00000000000E+00 0. -1.
</event>
<event>
 5    1  0.1668518E-003  0.9118800E+02  0.7818608E-02  0.1130116E+00
         25   -1    0    0    0    0  0.00000000000E+00  0.00000000000E+00  0.99999998245E-14  0.12500000000E+03  0.12500000000E+03 0.  0.
        -13    1    3    3    0    0 -0.53831871784E+02 -0.20785121191E+02  0.99198417534E+01  0.58551738720E+02  0.10566000000E+00 0.  1.
         23    2    1    0    0    0 -0.22504366301E+02 -0.93633865109E+01  0.20090119468E+02  0.93413097496E+02  0.87910604445E+02 0.  0.
         13    1    3    3    0    0  0.31327505483E+02  0.11421734680E+02  0.10170277715E+02  0.34861358776E+02  0.10566000000E+00 0. -1.
         22    1    1    0    0    0  0.22504366301E+02  0.93633865109E+01 -0.20090119468E+02  0.31586902504E+02  0.00000000000E+00 0.  1.
</event>
<event>
 5    1  0.1668518E-003  0.9118800E+02  0.7818608E-02  0.1130116E+00
         25   -1    0    0    0    0  0.00000000000E+00  0.00000000000E+00  0.99999998245E-14  0.12500000000E+03  0.12500000000E+03 0.  0.
        -13    1    3    3    0    0 -0.49048827526E+02 -0.56431619397E+01 -0.93381725368E+01  0.50247839642E+02  0.10566000000E+00 0. -1.
         23    2    1    0    0    0 -0.77968338769E+01 -0.24824225258E+02 -0.13047246747E+02  0.95892210221E+02  0.91367677848E+02 0.  0.
         13    1    3    3    0    0  0.41251993649E+02 -0.19181063318E+02 -0.37090742097E+01  0.45644370579E+02  0.10566000000E+00 0.  1.
         22    1    1    0    0    0  0.77968338769E+01  0.24824225258E+02  0.13047246747E+02  0.29107789779E+02  0.00000000000E+00 0.  1.
</event>
<event>
 5    1  0.1668518E-003  0.9118800E+02  0.7818608E-02  0.1130116E+00
         25   -1    0    0    0    0  0.00000000000E+00  0.00000000000E+00  0.99999998245E-14  0.12500000000E+03  0.12500000000E+03 0.  0.
        -13    1    3    3    0    0  0.42015040076E+02 -0.70208712398E+01  0.20515564267E+02  0.47280606667E+02  0.10566000000E+00 0.  1.
         23    2    1    0    0    0  0.18080897964E+02  0.12223311275E+02 -0.18118581182E+02  0.96634330719E+02  0.92377392688E+02 0.  0.
         13    1    3    3    0    0 -0.23934142112E+02  0.19244182514E+02 -0.38634145449E+02  0.49353724053E+02  0.10566000000E+00 0. -1.
         22    1    1    0    0    0 -0.18080897964E+02 -0.12223311275E+02  0.18118581182E+02  0.28365669281E+02  0.00000000000E+00 0. -1.
</event>
<event>
 5    1  0.1668518E-003  0.9118800E+02  0.7818608E-02  0.1130116E+00
         25   -1    0    0    0    0  0.00000000000E+00  0.00000000000E+00  0.99999998245E-14  0.12500000000E+03  0.12500000000E+03 0.  0.
        -13    1    3    3    0    0 -0.23768032512E+02 -0.45675970248E+02  0.17566715695E+02  0.54404175317E+02  0.10566000000E+00 0. -1.
         23    2    1    0    0    0 -0.23203602778E+02 -0.17098044690E+02 -0.10365919750E+02  0.94369906850E+02  0.89260723236E+02 0.  0.
         13    1    3    3    0    0  0.56442973459E+00  0.28577925558E+02 -0.27932635444E+02  0.39965731533E+02  0.10566000000E+00 0.  1.
         22    1    1    0    0    0  0.23203602778E+02  0.17098044690E+02  0.10365919750E+02  0.30630093150E+02  0.00000000000E+00 0.  1.
</event>
<event>
 5    1  0.1668518E-003  0.9118800E+02  0.7818608E-02  0.1130116E+00
         25   -1    0    0    0    0  0.00000000000E+00  0.00000000000E+00  0.99999998245E-14  0.12500000000E+03  0.12500000000E+03 0.  0.
        -13    1    3    3    0    0  0.53805509113E+02  0.10900823024E+01 -0.62107537150E+01  0.54173847160E+02  0.10566000000E+00 0.  1.
         23    2    1    0    0    0  0.21515708132E+02 -0.62984023751E+01  0.18849601183E+02  0.95710018203E+02  0.91118080262E+02 0.  0.
         13    1    3    3    0    0 -0.32289800981E+02 -0.73884846775E+01  0.25060354898E+02  0.41536171043E+02  0.10566000000E+00 0. -1.
         22    1    1    0    0    0 -0.21515708132E+02  0.62984023751E+01 -0.18849601183E+02  0.29289981797E+02  0.00000000000E+00 0.  1.
</event>
<event>
 5    1  0.1668518E-003  0.9118800E+02  0.7818608E-02  0.1130116E+00
         25   -1    0    0    0    0  0.00000000000E+00  0.00000000000E+00  0.99999998245E-14  0.12500000000E+03  0.12500000000E+03 0.  0.
        -13    1    3    3    0    0  0.18162672394E+02  0.19339431784E+02 -0.21007047318E+02  0.33840855357E+02  0.10566000000E+00 0. -1.
         23    2    1    0    0    0  0.10027102750E+02 -0.21365984717E+02  0.21369574827E+02  0.93161237136E+02  0.87551752032E+02 0.  0.
         13    1    3    3    0    0 -0.81355696447E+01 -0.40705416500E+02  0.42376622145E+02  0.59320381779E+02  0.10566000000E+00 0.  1.
         22    1    1    0    0    0 -0.10027102750E+02  0.21365984717E+02 -0.21369574827E+02  0.31838762864E+02  0.00000000000E+00 0.  1.
</event>
<event>
 5    1  0.1668518E-003  0.9118800E+02  0.7818608E-02  0.1130116E+00
         25   -1    0    0    0    0  0.00000000000E+00  0.00000000000E+00  0.99999998245E-14  0.12500000000E+03  0.12500000000E+03 0.  0.
        -13    1    3    3    0    0 -0.48314877665E+02  0.77460542585E+01  0.34611792900E+02  0.59935933564E+02  0.10566000000E+00 0. -1.
         23    2    1    0    0    0 -0.17024229367E+02  0.14691232855E+02  0.18867271506E+02  0.95646454347E+02  0.91030838658E+02 0.  0.
         13    1    3    3    0    0  0.31290648298E+02  0.69451785966E+01 -0.15744521395E+02  0.35710520784E+02  0.10566000000E+00 0.  1.
         22    1    1    0    0    0  0.17024229367E+02 -0.14691232855E+02 -0.18867271506E+02  0.29353545653E+02  0.00000000000E+00 0. -1.
</event>
<event>
 5    1  0.1668518E-003  0.9118800E+02  0.7818608E-02  0.1130116E+00
         25   -1    0    0    0    0  0.00000000000E+00  0.00000000000E+00  0.99999998245E-14  0.12500000000E+03  0.12500000000E+03 0.  0.
        -13    1    3    3    0    0 -0.55066640290E+02 -0.19801563918E+02  0.11060950915E+00  0.58518887591E+02  0.10566000000E+00 0. -1.
         23    2    1    0    0    0 -0.13829450578E+02 -0.19771430803E+02  0.59011220668E+01  0.10016078864E+03  0.97031938866E+02 0.  0.
         13    1    3    3    0    0  0.41237189712E+02  0.30133114313E-01  0.57905125576E+01  0.41641901050E+02  0.10566000000E+00 0.  1.
         22    1    1    0    0    0  0.13829450578E+02  0.19771430803E+02 -0.59011220668E+01  0.24839211359E+02  0.00000000000E+00 0. -1.
</event>
<event>
 5    1  0.1668518E-003  0.9118800E+02  0.7818608E-02  0.1130116E+00
         25   -1    0    0    0    0  0.00000000000E+00  0.00000000000E+00  0.99999998245E-14  0.12500000000E+03  0.12500000000E+03 0.  0.
        -13    1    3    3    0    0 -0.82956791007E+01  0.31548572183E+02  0.31647655533E+01  0.32774343679E+02  0.10566000000E+00 0. -1.
         23    2    1    0    0    0  0.60713558817E+01 -0.27389103138E+02 -0.10652583291E+02  0.94991636770E+02  0.90127183427E+02 0.  0.
         13    1    3    3    0    0  0.14367034982E+02 -0.58937675321E+02 -0.13817348844E+02  0.62217293091E+02  0.10566000000E+00 0.  1.
         22    1    1    0    0    0 -0.60713558817E+01  0.27389103138E+02  0.10652583291E+02  0.30008363230E+02  0.00000000000E+00 0.  1.
</event>
<event>
 5    1  0.1668518E-003  0.9118800E+02  0.7818608E-02  0.1130116E+00
         25   -1    0    0    0    0  0.00000000000E+00  0.00000000000E+00  0.99999998245E-14  0.12500000000E+03  0.12500000000E+03 0.  0.
        -13    1    3    3    0    0 -0.30944088691E+02  0.19796776357E+02  0.20951619765E+02  0.42289839369E+02  0.10566000000E+00 0.  1.
         23    2    1    0    0    0 -0.14011674240E+02 -0.18358543110E+02 -0.15067036068E+02  0.97425034977E+02  0.93441204746E+02 0.  0.
         13    1    3    3    0    0  0.16932414451E+02 -0.38155319466E+02 -0.36018655834E+02  0.55135195609E+02  0.10566000000E+00 0. -1.
         22    1    1    0    0    0  0.14011674240E+02  0.18358543110E+02  0.15067036068E+02  0.27574965023E+02  0.00000000000E+00 0. -1.
</event>
<event>
 5    1  0.1668518E-003  0.9118800E+02  0.7818608E-02  0.1130116E+00
         25   -1    0    0    0    0  0.00000000000E+00  0.00000000000E+00  0.99999998245E-14  0.12500000000E+03  0.12500000000E+03 0.  0.
        -13    1    3    3    0    0 -0.42646863009E+02  0.45889151291E+00  0.18983520992E+02  0.46683516783E+02  0.10566000000E+00 0.  1.
         23    2    1    0    0    0 -0.93539309695E+01 -0.24553572212E+01 -0.22826603524E+02  0.10020930352E+03  0.97094417343E+02 0.  0.
         13    1    3    3    0    0  0.33292932039E+02 -0.29142487341E+01 -0.41810124516E+02  0.53525786734E+02  0.10566000000E+00 0. -1.
         22    1    1    0    0    0  0.93539309695E+01  0.24553572212E+01  0.22826603524E+02  0.24790696483E+02  0.00000000000E+00 0.  1.
</event>
<event>
 5    1  0.1668518E-003  0.9118800E+02  0.7818608E-02  0.1130116E+00
         25   -1    0    0    0    0  0.00000000000E+00  0.00000000000E+00  0.99999998245E-14  0.12500000000E+03  0.12500000000E+03 0.  0.
        -13    1    3    3    0    0 -0.17006383082E+02 -0.11263493665E+02  0.31019581717E+02  0.37125583753E+02  0.10566000000E+00 0.  1.
         23    2    1    0    0    0  0.28898874918E+02 -0.19757171922E+02  0.18231974898E+02  0.85529812230E+02  0.75877882532E+02 0.  0.
         13    1    3    3    0    0  0.45905257999E+02 -0.84936782568E+01 -0.12787606818E+02  0.48404228478E+02  0.10566000000E+00 0. -1.
         22    1    1    0    0    0 -0.28898874918E+02  0.19757171922E+02 -0.18231974898E+02  0.39470187770E+02  0.00000000000E+00 0.  1.
</event>
<event>
 5    1  0.1668518E-003  0.9118800E+02  0.7818608E-02  0.1130116E+00
         25   -1    0    0    0    0  0.00000000000E+00  0.00000000000E+00  0.99999998245E-14  0.12500000000E+03  0.12500000000E+03 0.  0.
        -13    1    3    3    0    0 -0.36364346065E+02 -0.15375260759E+02 -0.19531118992E+01  0.39529610652E+02  0.10566000000E+00 0. -1.
         23    2    1    0    0    0 -0.22349401704E+01  0.29026895420E+02 -0.42420916698E+01  0.95579752601E+02  0.90939200294E+02 0.  0.
         13    1    3    3    0    0  0.34129405894E+02  0.44402156179E+02 -0.22889797706E+01  0.56050141949E+02  0.10566000000E+00 0.  1.
         22    1    1    0    0    0  0.22349401704E+01 -0.29026895420E+02  0.42420916698E+01  0.29420247399E+02  0.00000000000E+00 0.  1.
</event>
<event>
 5    1  0.1668518E-003  0.9118800E+02  0.7818608E-02  0.1130116E+00
         25   -1    0    0    0    0  0.00000000000E+00  0.00000000000E+00  0.99999998245E-14  0.12500000000E+03  0.12500000000E+03 0.  0.
        -13    1    3    3    0    0 -0.21942806672E+02  0.37178132074E+02  0.38983018535E+02  0.58166890644E+02  0.10566000000E+00 0.  1.
         23    2    1    0    0    0  0.34866367520E+01  0.12288880645E+02  0.25976859811E+02  0.96052280418E+02  0.91586407860E+02 0.  0.
         13    1    3    3    0    0  0.25429443424E+02 -0.24889251429E+02 -0.13006158724E+02  0.37885389774E+02  0.10566000000E+00 0. -1.
         22    1    1    0    0    0 -0.34866367520E+01 -0.12288880645E+02 -0.25976859811E+02  0.28947719582E+02  0.00000000000E+00 0.  1.
</event>
<event>
 5    1  0.1668518E-003  0.9118800E+02  0.7818608E-02  0.1130116E+00
         25   -1    0    0    0    0  0.00000000000E+00  0.00000000000E+00  0.99999998245E-14  0.12500000000E+03  0.12500000000E+03 0.  0.
        -13    1    3    3    0    0  0.33472263915E+02 -0.15362295213E+01  0.37178089142E+01  0.33713286994E+02  0.10566000000E+00 0. -1.
         23    2    1    0    0    0 -0.19712766688E+02 -0.78730935379E+01 -0.23112611925E+02  0.93618929235E+02  0.88202790822E+02 0.  0.
         13    1    3    3    0    0 -0.53185030603E+02 -0.63368640166E+01 -0.26830420840E+02  0.59905642241E+02  0.10566000000E+00 0.  1.
         22    1    1    0    0    0  0.19712766688E+02  0.78730935379E+01  0.23112611925E+02  0.31381070765E+02  0.00000000000E+00 0.  1.
</event>
<event>
 5    1  0.1668518E-003  0.9118800E+02  0.7818608E-02  0.1130116E+00
         25   -1    0    0    0    0  0.00000000000E+00  0.00000000000E+00  0.99999998245E-14  0.12500000000E+03  0.12500000000E+03 0.  0.
        -13    1    3    3    0    0  0.14743287166E+02 -0.52639593034E+02  0.69458023487E+01  0.55104869163E+02  0.10566000000E+00 0. -1.
         23    2    1    0    0    0  0.70257224818E+01 -0.21930810849E+02 -0.18287424231E+02  0.95593348952E+02  0.90957887167E+02 0.  0.
         13    1    3    3    0    0 -0.77175646837E+01  0.30708782185E+02 -0.25233226579E+02  0.40488479788E+02  0.10566000000E+00 0.  1.
         22    1    1    0    0    0 -0.70257224818E+01  0.21930810849E+02  0.18287424231E+02  0.29406651048E+02  0.00000000000E+00 0. -1.
</event>
<event>
 5    1  0.1668518E-003  0.9118800E+02  0.7818608E-02  0.1130116E+00
         25   -1    0    0    0    0  0.00000000000E+00  0.00000000000E+00  0.99999998245E-14  0.12500000000E+03  0.12500000000E+03 0.  0.
        -13    1    3    3    0    0  0.10937063727E+02  0.45881432081E+02  0.19598808745E+02  0.51076899290E+02  0.10566000000E+00 0.  1.
         23    2    1    0    0    0  0.21208179577E+02  0.98340989061E+00  0.18004830079E+02  0.97162473491E+02  0.93089303213E+02 0.  0.
         13    1    3    3    0    0  0.10271115850E+02 -0.44898022190E+02 -0.15939786660E+01  0.46085574201E+02  0.10566000000E+00 0. -1.
         22    1    1    0    0    0 -0.21208179577E+02 -0.98340989061E+00 -0.18004830079E+02  0.27837526509E+02  0.00000000000E+00 0.  1.
</event>
<event>
 5    1  0.1668518E-003  0.9118800E+02  0.7818608E-02  0.1130116E+00
         25   -1    0    0    0    0  0.00000000000E+00  0.00000000000E+00  0.99999998245E-14  0.12500000000E+03  0.12500000000E+03 0.  0.
        -13    1    3    3    0    0 -0.12974673209E+02 -0.32087236972E+02 -0.17271424912E+02  0.38681341806E+02  0.10566000000E+00 0.  1.
         23    2    1    0    0    0  0.24112754767E+02  0.90700952240E+01 -0.17091276512E+02  0.94083931320E+02  0.88859342952E+02 0.  0.
         13    1    3    3    0    0  0.37087427977E+02  0.41157332196E+02  0.18014840028E+00  0.55402589514E+02  0.10566000000E+00 0. -1.
         22    1    1    0    0    0 -0.24112754767E+02 -0.90700952240E+01  0.17091276512E+02  0.30916068680E+02  0.00000000000E+00 0. -1.
</event>
<event>
 5    1  0.1668518E-003  0.9118800E+02  0.7818608E-02  0.1130116E+00
         25   -1    0    0    0    0  0.00000000000E+00  0.00000000000E+00  0.99999998245E-14  0.12500000000E+03  0.12500000000E+03 0.  0.
        -13    1    3    3    0    0  0.35358420044E+02 -0.31129552010E+01 -0.46526911992E+01  0.35798981236E+02  0.10566000000E+00 0. -1.
         23    2    1    0    0    0 -0.21060370140E+02 -0.55137450221E+00  0.18620201933E+02  0.96883187871E+02  0.92713520955E+02 0.  0.
         13    1    3    3    0    0 -0.56418790184E+02  0.25615806988E+01  0.23272893132E+02  0.61084206635E+02  0.10566000000E+00 0.  1.
         22    1    1    0    0    0  0.21060370140E+02  0.55137450221E+00 -0.18620201933E+02  0.28116812129E+02  0.00000000000E+00 0.  1.
</event>
<event>
 5    1  0.1668518E-003  0.9118800E+02  0.7818608E-02  0.1130116E+00
         25   -1    0    0    0    0  0.00000000000E+00  0.00000000000E+00  0.99999998245E-14  0.12500000000E+03  0.12500000000E+03 0.  0.
        -13    1    3    3    0    0  0.50236530550E+02 -0.15739850652E+01 -0.56124194820E+01  0.50573677414E+02  0.10566000000E+00 0.  1.
         23    2    1    0    0    0  0.14200144085E+02 -0.24938268565E+02  0.72393006878E+01  0.95403229813E+02  0.90696237260E+02 0.  0.
         13    1    3    3    0    0 -0.36036386465E+02 -0.23364283500E+02  0.12851720170E+02  0.44829552399E+02  0.10566000000E+00 0. -1.
         22    1    1    0    0    0 -0.14200144085E+02  0.24938268565E+02 -0.72393006878E+01  0.29596770187E+02  0.00000000000E+00 0.  1.
</event>
<event>
 5    1  0.1668518E-003  0.9118800E+02  0.7818608E-02  0.1130116E+00
         25   -1    0    0    0    0  0.00000000000E+00  0.00000000000E+00  0.99999998245E-14  0.12500000000E+03  0.12500000000E+03 0.  0.
        -13    1    3    3    0    0  0.44114675773E+02  0.17953805772E+02 -0.15949211251E+02  0.50227803693E+02  0.10566000000E+00 0.  1.
         23    2    1    0    0    0 -0.72666723450E+00  0.25713301019E+02 -0.13851839371E+02  0.95783988148E+02  0.91219499215E+02 0.  0.
         13    1    3    3    0    0 -0.44841343008E+02  0.77594952469E+01  0.20973718792E+01  0.45556184455E+02  0.10566000000E+00 0. -1.
         22    1    1    0    0    0  0.72666723450E+00 -0.25713301019E+02  0.13851839371E+02  0.29216011852E+02  0.00000000000E+00 0. -1.
</event>
<event>
 5    1  0.1668518E-003  0.9118800E+02  0.7818608E-02  0.1130116E+00
         25   -1    0    0    0    0  0.00000000000E+00  0.00000000000E+00  0.99999998245E-14  0.12500000000E+03  0.12500000000E+03 0.  0.
        -13    1    3    3    0    0  0.29219304263E+02  0.18019484261E+02 -0.97034656932E+01  0.35674051707E+02  0.10566000000E+00 0. -1.
         23    2    1    0    0    0 -0.26784187710E+02 -0.97974548760E+00  0.73241309690E+01  0.97215192875E+02  0.93160067727E+02 0.  0.
         13    1    3    3    0    0 -0.56003491973E+02 -0.18999229749E+02  0.17027596662E+02  0.61541141169E+02  0.10566000000E+00 0.  1.
         22    1    1    0    0    0  0.26784187710E+02  0.97974548760E+00 -0.73241309690E+01  0.27784807125E+02  0.00000000000E+00 0.  1.
</event>
<event>
 5    1  0.1668518E-003  0.9118800E+02  0.7818608E-02  0.1130116E+00
         25   -1    0    0    0    0  0.00000000000E+00  0.00000000000E+00  0.99999998245E-14  0.12500000000E+03  0.12500000000E+03 0.  0.
        -13    1    3    3    0    0  0.23774549662E+02  0.20774076354E+02 -0.47093660148E+02  0.56697578874E+02  0.10566000000E+00 0.  1.
         23    2    1    0    0    0  0.45560556914E+01  0.23799525529E+02 -0.96047912134E+01  0.98934178066E+02  0.95438695069E+02 0.  0.
         13    1    3    3    0    0 -0.19218493971E+02  0.30254491747E+01  0.37488868935E+02  0.42236599191E+02  0.10566000000E+00 0. -1.
         22    1    1    0    0    0 -0.45560556914E+01 -0.23799525529E+02  0.96047912134E+01  0.26065821934E+02  0.00000000000E+00 0.  1.
</event>
<event>
 5    1  0.1668518E-003  0.9118800E+02  0.7818608E-02  0.1130116E+00
         25   -1    0    0    0    0  0.00000000000E+00  0.00000000000E+00  0.99999998245E-14  0.12500000000E+03  0.12500000000E+03 0.  0.
        -13    1    3    3    0    0  0.10638454464E+02 -0.28047114893E+02 -0.51691342785E+02  0.59764734168E+02  0.10566000000E+00 0. -1.
         23    2    1    0    0    0 -0.62409456850E+01 -0.10380390697E+02 -0.30769435072E+02  0.91932492554E+02  0.85779503021E+02 0.  0.
         13    1    3    3    0    0 -0.16879400149E+02  0.17666724196E+02  0.20921907713E+02  0.32167758386E+02  0.10566000000E+00 0.  1.
         22    1    1    0    0    0  0.62409456850E+01  0.10380390697E+02  0.30769435072E+02  0.33067507446E+02  0.00000000000E+00 0. -1.
</event>
<event>
 5    1  0.1668518E-003  0.9118800E+02  0.7818608E-02  0.1130116E+00
         25   -1    0    0    0    0  0.00000000000E+00  0.00000000000E+00  0.99999998245E-14  0.12500000000E+03  0.12500000000E+03 0.  0.
        -13    1    3    3    0    0  0.58963480188E+02  0.35419662120E+01 -0.17117487603E+02  0.61500057450E+02  0.10566000000E+00 0.  1.
         23    2    1    0    0    0  0.25000408309E+02  0.50591457010E+01 -0.14646436186E+02  0.95586848795E+02  0.90948953808E+02 0.  0.
         13    1    3    3    0    0 -0.33963071879E+02  0.15171794891E+01  0.24710514164E+01  0.34086791345E+02  0.10566000000E+00 0. -1.
         22    1    1    0    0    0 -0.25000408309E+02 -0.50591457010E+01  0.14646436186E+02  0.29413151205E+02  0.00000000000E+00 0.  1.
</event>
<event>
 5    1  0.1668518E-003  0.9118800E+02  0.7818608E-02  0.1130116E+00
         25   -1    0    0    0    0  0.00000000000E+00  0.00000000000E+00  0.99999998245E-14  0.12500000000E+03  0.12500000000E+03 0.  0.
        -13    1    3    3    0    0 -0.22093207305E+02  0.25871984500E+02 -0.13086110150E+01  0.34046923765E+02  0.10566000000E+00 0.  1.
         23    2    1    0    0    0  0.20971288237E+02 -0.18227625224E+02  0.72680452317E+01  0.96279524149E+02  0.91896033849E+02 0.  0.
         13    1    3    3    0    0  0.43064495542E+02 -0.44099609724E+02  0.85766562466E+01  0.62232600384E+02  0.10566000000E+00 0. -1.
         22    1    1    0    0    0 -0.20971288237E+02  0.18227625224E+02 -0.72680452317E+01  0.28720475851E+02  0.00000000000E+00 0. -1.
</event>
<event>
 5    1  0.1668518E-003  0.9118800E+02  0.7818608E-02  0.1130116E+00
         25   -1    0    0    0    0  0.00000000000E+00  0.00000000000E+00  0.99999998245E-14  0.12500000000E+03  0.12500000000E+03 0.  0.
        -13    1    3    3    0    0  0.36974553397E+01 -0.59598346000E+02 -0.78198282081E+01  0.60222876875E+02  0.10566000000E+00 0. -1.
         23    2    1    0    0    0 -0.64507695646E+01 -0.28125665090E+02  0.50462203474E+01  0.95706147325E+02  0.91112769859E+02 0.  0.
         13    1    3    3    0    0 -0.10148224904E+02  0.31472680910E+02  0.12866048556E+02  0.35483270450E+02  0.10566000000E+00 0.  1.
         22    1    1    0    0    0  0.64507695646E+01  0.28125665090E+02 -0.50462203474E+01  0.29293852675E+02  0.00000000000E+00 0. -1.
</event>
<event>
 5    1  0.1668518E-003  0.9118800E+02  0.7818608E-02  0.1130116E+00
         25   -1    0    0    0    0  0.00000000000E+00  0.00000000000E+00  0.99999998245E-14  0.12500000000E+03  0.12500000000E+03 0.  0.
        -13    1    3    3    0    0 -0.19554033209E+02 -0.22414949412E+02  0.43579379861E+02  0.52763279702E+02  0.10566000000E+00 0. -1.
         23    2    1    0    0    0  0.15360199864E+02 -0.11193556760E+02  0.24157924511E+02  0.94261802761E+02  0.89109206541E+02 0.  0.
         13    1    3    3    0    0  0.34914233073E+02  0.11221392652E+02 -0.19421455350E+02  0.41498523059E+02  0.10566000000E+00 0.  1.
         22    1    1    0    0    0 -0.15360199864E+02  0.11193556760E+02 -0.24157924511E+02  0.30738197239E+02  0.00000000000E+00 0. -1.
</event>
<event>
 5    1  0.1668518E-003  0.9118800E+02  0.7818608E-02  0.1130116E+00
         25   -1    0    0    0    0  0.00000000000E+00  0.00000000000E+00  0.99999998245E-14  0.12500000000E+03  0.12500000000E+03 0.  0.
        -13    1    3    3    0    0 -0.41312802152E+02 -0.21256986529E+02 -0.88999635449E+01  0.47305682672E+02  0.10566000000E+00 0. -1.
         23    2    1    0    0    0 -0.48791218317E+01 -0.14970426352E+02  0.23665637471E+02  0.96574977715E+02  0.92297044529E+02 0.  0.
         13    1    3    3    0    0  0.36433680320E+02  0.62865601772E+01  0.32565601016E+02  0.49269295043E+02  0.10566000000E+00 0.  1.
         22    1    1    0    0    0  0.48791218317E+01  0.14970426352E+02 -0.23665637471E+02  0.28425022285E+02  0.00000000000E+00 0.  1.
</event>
<event>
 5    1  0.1668518E-003  0.9118800E+02  0.7818608E-02  0.1130116E+00
         25   -1    0    0    0    0  0.00000000000E+00  0.00000000000E+00  0.99999998245E-14  0.12500000000E+03  0.12500000000E+03 0.  0.
        -13    1    3    3    0    0  0.28361948120E+02  0.16759825325E+02  0.77176629400E+01  0.33835858662E+02  0.10566000000E+00 0. -1.
         23    2    1    0    0    0 -0.18322514121E+02 -0.97105801645E+01 -0.21657108400E+02  0.95016000349E+02  0.90160967648E+02 0.  0.
         13    1    3    3    0    0 -0.46684462242E+02 -0.26470405489E+02 -0.29374771340E+02  0.61180141687E+02  0.10566000000E+00 0.  1.
         22    1    1    0    0    0  0.18322514121E+02  0.97105801645E+01  0.21657108400E+02  0.29983999651E+02  0.00000000000E+00 0.  1.
</event>
<event>
 5    1  0.1668518E-003  0.9118800E+02  0.7818608E-02  0.1130116E+00
         25   -1    0    0    0    0  0.00000000000E+00  0.00000000000E+00  0.99999998245E-14  0.12500000000E+03  0.12500000000E+03 0.  0.
        -13    1    3    3    0    0 -0.47759766827E+01  0.24243716381E+02  0.32713391990E+02  0.40996889111E+02  0.10566000000E+00 0. -1.
         23    2    1    0    0    0  0.12571142626E+02  0.19265341159E+02 -0.18616243282E+02  0.95406900959E+02  0.90701296792E+02 0.  0.
         13    1    3    3    0    0  0.17347119309E+02 -0.49783752213E+01 -0.51329635272E+02  0.54410011848E+02  0.10566000000E+00 0.  1.
         22    1    1    0    0    0 -0.12571142626E+02 -0.19265341159E+02  0.18616243282E+02  0.29593099041E+02  0.00000000000E+00 0.  1.
</event>
<event>
 5    1  0.1668518E-003  0.9118800E+02  0.7818608E-02  0.1130116E+00
         25   -1    0    0    0    0  0.00000000000E+00  0.00000000000E+00  0.99999998245E-14  0.12500000000E+03  0.12500000000E+03 0.  0.
        -13    1    3    3    0    0 -0.74893984583E+01  0.29028055887E+02 -0.81008792105E+01  0.31054058122E+02  0.10566000000E+00 0. -1.
         23    2    1    0    0    0  0.54605075808E+01 -0.30295624885E+02  0.65720379356E+01  0.93522488776E+02  0.88066010436E+02 0.  0.
         13    1    3    3    0    0  0.12949906039E+02 -0.59323680772E+02  0.14672917146E+02  0.62468430654E+02  0.10566000000E+00 0.  1.
         22    1    1    0    0    0 -0.54605075808E+01  0.30295624885E+02 -0.65720379356E+01  0.31477511224E+02  0.00000000000E+00 0.  1.
</event>
<event>
 5    1  0.1668518E-003  0.9118800E+02  0.7818608E-02  0.1130116E+00
         25   -1    0    0    0    0  0.00000000000E+00  0.00000000000E+00  0.99999998245E-14  0.12500000000E+03  0.12500000000E+03 0.  0.
        -13    1    3    3    0    0  0.22265080644E+02  0.51179556915E+02 -0.24392059377E+02  0.60910299513E+02  0.10566000000E+00 0.  1.
         23    2    1    0    0    0  0.12717961591E+02  0.26831482990E+02 -0.21729535063E+01  0.95227584017E+02  0.90453833553E+02 0.  0.
         13    1    3    3    0    0 -0.95471190525E+01 -0.24348073924E+02  0.22219105871E+02  0.34317284505E+02  0.10566000000E+00 0. -1.
         22    1    1    0    0    0 -0.12717961591E+02 -0.26831482990E+02  0.21729535063E+01  0.29772415983E+02  0.00000000000E+00 0.  1.
</event>
<event>
 5    1  0.1668518E-003  0.9118800E+02  0.7818608E-02  0.1130116E+00
         25   -1    0    0    0    0  0.00000000000E+00  0.00000000000E+00  0.99999998245E-14  0.12500000000E+03  0.12500000000E+03 0.  0.
        -13    1    3    3    0    0 -0.24435173949E+02 -0.31724882413E+02 -0.42656876897E+02  0.58507830251E+02  0.10566000000E+00 0. -1.
         23    2    1    0    0    0  0.36920687283E+01 -0.13080790306E+02 -0.24880376478E+02  0.96649134401E+02  0.92397422043E+02 0.  0.
         13    1    3    3    0    0  0.28127242677E+02  0.18644092107E+02  0.17776500419E+02  0.38141304150E+02  0.10566000000E+00 0.  1.
         22    1    1    0    0    0 -0.36920687283E+01  0.13080790306E+02  0.24880376478E+02  0.28350865599E+02  0.00000000000E+00 0. -1.
</event>
<event>
 5    1  0.1668518E-003  0.9118800E+02  0.7818608E-02  0.1130116E+00
         25   -1    0    0    0    0  0.00000000000E+00  0.00000000000E+00  0.99999998245E-14  0.12500000000E+03  0.12500000000E+03 0.  0.
        -13    1    3    3    0    0  0.14457942349E+02  0.83256961553E+01 -0.38016950069E+02  0.41516851639E+02  0.10566000000E+00 0.  1.
         23    2    1    0    0    0  0.13724476919E+02 -0.20761197529E+02  0.10418418235E+02  0.98019784507E+02  0.94233466065E+02 0.  0.
         13    1    3    3    0    0 -0.73346543029E+00 -0.29086893685E+02  0.48435368305E+02  0.56502932867E+02  0.10566000000E+00 0. -1.
         22    1    1    0    0    0 -0.13724476919E+02  0.20761197529E+02 -0.10418418235E+02  0.26980215493E+02  0.00000000000E+00 0.  1.
</event>
<event>
 5    1  0.1668518E-003  0.9118800E+02  0.7818608E-02  0.1130116E+00
         25   -1    0    0    0    0  0.00000000000E+00  0.00000000000E+00  0.99999998245E-14  0.12500000000E+03  0.12500000000E+03 0.  0.
        -13    1    3    3    0    0  0.18045317145E+02 -0.49198056947E+02 -0.83947877592E-01  0.52403248845E+02  0.10566000000E+00 0.  1.
         23    2    1    0    0    0  0.24569738586E+02 -0.99282006647E+01 -0.14562143370E+02  0.94762651536E+02  0.89809035647E+02 0.  0.
         13    1    3    3    0    0  0.65244214409E+01  0.39269856282E+02 -0.14478195492E+02  0.42359402691E+02  0.10566000000E+00 0. -1.
         22    1    1    0    0    0 -0.24569738586E+02  0.99282006647E+01  0.14562143370E+02  0.30237348464E+02  0.00000000000E+00 0.  1.
</event>
<event>
 5    1  0.1668518E-003  0.9118800E+02  0.7818608E-02  0.1130116E+00
         25   -1    0    0    0    0  0.00000000000E+00  0.00000000000E+00  0.99999998245E-14  0.12500000000E+03  0.12500000000E+03 0.  0.
        -13    1    3    3    0    0 -0.18272745971E+02 -0.14863805106E+02  0.47020219861E+02  0.52590286055E+02  0.10566000000E+00 0. -1.
         23    2    1    0    0    0  0.18090826363E+01  0.14176086174E+02  0.29966046079E+02  0.91800630777E+02  0.85587135097E+02 0.  0.
         13    1    3    3    0    0  0.20081828607E+02  0.29039891280E+02 -0.17054173782E+02  0.39210344721E+02  0.10566000000E+00 0.  1.
         22    1    1    0    0    0 -0.18090826363E+01 -0.14176086174E+02 -0.29966046079E+02  0.33199369223E+02  0.00000000000E+00 0. -1.
</event>
<event>
 5    1  0.1668518E-003  0.9118800E+02  0.7818608E-02  0.1130116E+00
         25   -1    0    0    0    0  0.00000000000E+00  0.00000000000E+00  0.99999998245E-14  0.12500000000E+03  0.12500000000E+03 0.  0.
        -13    1    3    3    0    0  0.18081214499E+01  0.31513203144E+02 -0.21946353794E+02  0.38444829099E+02  0.10566000000E+00 0.  1.
         23    2    1    0    0    0 -0.35121926725E+01  0.78619069876E+01  0.28937505342E+02  0.94808539382E+02  0.89872881591E+02 0.  0.
         13    1    3    3    0    0 -0.53203141224E+01 -0.23651296156E+02  0.50883859136E+02  0.56363710283E+02  0.10566000000E+00 0. -1.
         22    1    1    0    0    0  0.35121926725E+01 -0.78619069876E+01 -0.28937505342E+02  0.30191460618E+02  0.00000000000E+00 0. -1.
</event>
<event>
 5    1  0.1668518E-003  0.9118800E+02  0.7818608E-02  0.1130116E+00
         25   -1    0    0    0    0  0.00000000000E+00  0.00000000000E+00  0.99999998245E-14  0.12500000000E+03  0.12500000000E+03 0.  0.
        -13    1    3    3    0    0 -0.25508418312E+02 -0.53795333190E+02  0.97127376418E+01  0.60323840348E+02  0.10566000000E+00 0. -1.
         23    2    1    0    0    0 -0.80697398557E+01 -0.23073913077E+02  0.15406318335E+02  0.96105695879E+02  0.91659281961E+02 0.  0.
         13    1    3    3    0    0  0.17438678456E+02  0.30721420113E+02  0.56935806934E+01  0.35781855531E+02  0.10566000000E+00 0.  1.
         22    1    1    0    0    0  0.80697398557E+01  0.23073913077E+02 -0.15406318335E+02  0.28894304121E+02  0.00000000000E+00 0. -1.
</event>
<event>
 5    1  0.1668518E-003  0.9118800E+02  0.7818608E-02  0.1130116E+00
         25   -1    0    0    0    0  0.00000000000E+00  0.00000000000E+00  0.99999998245E-14  0.12500000000E+03  0.12500000000E+03 0.  0.
        -13    1    3    3    0    0  0.22482716840E+02  0.32974250366E+02 -0.39957147332E+02  0.56474405979E+02  0.10566000000E+00 0. -1.
         23    2    1    0    0    0 -0.66114983611E+01  0.10080159827E+02 -0.26536285148E+02  0.95853885985E+02  0.91315231457E+02 0.  0.
         13    1    3    3    0    0 -0.29094215201E+02 -0.22894090539E+02  0.13420862183E+02  0.39379480006E+02  0.10566000000E+00 0.  1.
         22    1    1    0    0    0  0.66114983611E+01 -0.10080159827E+02  0.26536285148E+02  0.29146114015E+02  0.00000000000E+00 0. -1.
</event>
<event>
 5    1  0.1668518E-003  0.9118800E+02  0.7818608E-02  0.1130116E+00
         25   -1    0    0    0    0  0.00000000000E+00  0.00000000000E+00  0.99999998245E-14  0.12500000000E+03  0.12500000000E+03 0.  0.
        -13    1    3    3    0    0 -0.18410851177E+02  0.39908442937E+02  0.52254696163E+01  0.44260139578E+02  0.10566000000E+00 0.  1.
         23    2    1    0    0    0  0.10615888275E+02  0.47958743619E+01  0.27619978757E+02  0.95023997577E+02  0.90172054397E+02 0.  0.
         13    1    3    3    0    0  0.29026739452E+02 -0.35112568576E+02  0.22394509141E+02  0.50763857998E+02  0.10566000000E+00 0. -1.
         22    1    1    0    0    0 -0.10615888275E+02 -0.47958743619E+01 -0.27619978757E+02  0.29976002423E+02  0.00000000000E+00 0.  1.
</event>
<event>
 5    1  0.1668518E-003  0.9118800E+02  0.7818608E-02  0.1130116E+00
         25   -1    0    0    0    0  0.00000000000E+00  0.00000000000E+00  0.99999998245E-14  0.12500000000E+03  0.12500000000E+03 0.  0.
        -13    1    3    3    0    0  0.55978692853E+01 -0.34990928101E+01 -0.53906290568E+02  0.54309107136E+02  0.10566000000E+00 0.  1.
         23    2    1    0    0    0 -0.14472286777E+02 -0.16132579398E+02 -0.21444013838E+02  0.94511429485E+02  0.89458690864E+02 0.  0.
         13    1    3    3    0    0 -0.20070156062E+02 -0.12633486588E+02  0.32462276730E+02  0.40202322349E+02  0.10566000000E+00 0. -1.
         22    1    1    0    0    0  0.14472286777E+02  0.16132579398E+02  0.21444013838E+02  0.30488570515E+02  0.00000000000E+00 0.  1.
</event>
<event>
 5    1  0.1668518E-003  0.9118800E+02  0.7818608E-02  0.1130116E+00
         25   -1    0    0    0    0  0.00000000000E+00  0.00000000000E+00  0.99999998245E-14  0.12500000000E+03  0.12500000000E+03 0.  0.
        -13    1    3    3    0    0 -0.61312241464E+02 -0.52971493502E+01  0.45573308461E+01  0.61709247063E+02  0.10566000000E+00 0. -1.
         23    2    1    0    0    0 -0.28607154587E+02 -0.73975659659E+01 -0.28694159040E+01  0.95312850871E+02  0.90571588911E+02 0.  0.
         13    1    3    3    0    0  0.32705086877E+02 -0.21004166158E+01 -0.74267467500E+01  0.33603603809E+02  0.10566000000E+00 0.  1.
         22    1    1    0    0    0  0.28607154587E+02  0.73975659659E+01  0.28694159040E+01  0.29687149129E+02  0.00000000000E+00 0. -1.
</event>
<event>
 5    1  0.1668518E-003  0.9118800E+02  0.7818608E-02  0.1130116E+00
         25   -1    0    0    0    0  0.00000000000E+00  0.00000000000E+00  0.99999998245E-14  0.12500000000E+03  0.12500000000E+03 0.  0.
        -13    1    3    3    0    0  0.18450267165E+02 -0.32685843101E+02  0.21389432321E+02  0.43200644402E+02  0.10566000000E+00 0.  1.
         23    2    1    0    0    0 -0.43659276217E+01 -0.47790935149E+02  0.15759536012E+01  0.76984185562E+02  0.60175130997E+02 0.  0.
         13    1    3    3    0    0 -0.22816194787E+02 -0.15105092048E+02 -0.19813478720E+02  0.33783541160E+02  0.10566000000E+00 0. -1.
         22    1    1    0    0    0  0.43659276217E+01  0.47790935149E+02 -0.15759536012E+01  0.48015814438E+02  0.00000000000E+00 0.  1.
</event>
<event>
 5    1  0.1668518E-003  0.9118800E+02  0.7818608E-02  0.1130116E+00
         25   -1    0    0    0    0  0.00000000000E+00  0.00000000000E+00  0.99999998245E-14  0.12500000000E+03  0.12500000000E+03 0.  0.
        -13    1    3    3    0    0  0.23132049502E+02  0.10066171988E+02 -0.26854251852E+02  0.36845373376E+02  0.10566000000E+00 0. -1.
         23    2    1    0    0    0 -0.11554511282E+02  0.36285641218E+02 -0.21413301292E+01  0.86858948831E+02  0.78036768307E+02 0.  0.
         13    1    3    3    0    0 -0.34686560784E+02  0.26219469230E+02  0.24712921723E+02  0.50013575455E+02  0.10566000000E+00 0.  1.
         22    1    1    0    0    0  0.11554511282E+02 -0.36285641218E+02  0.21413301292E+01  0.38141051169E+02  0.00000000000E+00 0.  1.
</event>
<event>
 5    1  0.1668518E-003  0.9118800E+02  0.7818608E-02  0.1130116E+00
         25   -1    0    0    0    0  0.00000000000E+00  0.00000000000E+00  0.99999998245E-14  0.12500000000E+03  0.12500000000E+03 0.  0.
        -13    1    3    3    0    0  0.66970336762E+01  0.55608487691E+02 -0.24636132698E+02  0.61189086949E+02  0.10566000000E+00 0.  1.
         23    2    1    0    0    0  0.81761705422E+01  0.27636184793E+02 -0.41725570939E+01  0.95879239238E+02  0.91349930540E+02 0.  0.
         13    1    3    3    0    0  0.14791368659E+01 -0.27972302898E+02  0.20463575604E+02  0.34690152289E+02  0.10566000000E+00 0. -1.
         22    1    1    0    0    0 -0.81761705422E+01 -0.27636184793E+02  0.41725570939E+01  0.29120760762E+02  0.00000000000E+00 0.  1.
</event>
<event>
 5    1  0.1668518E-003  0.9118800E+02  0.7818608E-02  0.1130116E+00
         25   -1    0    0    0    0  0.00000000000E+00  0.00000000000E+00  0.99999998245E-14  0.12500000000E+03  0.12500000000E+03 0.  0.
        -13    1    3    3    0    0  0.40060617789E+02 -0.52543717533E+00  0.31734537406E+02  0.51109893468E+02  0.10566000000E+00 0. -1.
         23    2    1    0    0    0 -0.31376850008E+01 -0.12387866878E+02  0.25681757568E+02  0.96314516132E+02  0.91943618772E+02 0.  0.
         13    1    3    3    0    0 -0.43198302790E+02 -0.11862429703E+02 -0.60527798382E+01  0.45204622664E+02  0.10566000000E+00 0.  1.
         22    1    1    0    0    0  0.31376850008E+01  0.12387866878E+02 -0.25681757568E+02  0.28685483868E+02  0.00000000000E+00 0. -1.
</event>
<event>
 5    1  0.1668518E-003  0.9118800E+02  0.7818608E-02  0.1130116E+00
         25   -1    0    0    0    0  0.00000000000E+00  0.00000000000E+00  0.99999998245E-14  0.12500000000E+03  0.12500000000E+03 0.  0.
        -13    1    3    3    0    0 -0.15512663149E+02 -0.35706775327E+02 -0.89079205637E+01  0.39937184866E+02  0.10566000000E+00 0.  1.
         23    2    1    0    0    0  0.16852093690E+02  0.69951321692E+01 -0.23288778500E+02  0.95414663433E+02  0.90711994015E+02 0.  0.
         13    1    3    3    0    0  0.32364756839E+02  0.42701907497E+02 -0.14380857936E+02  0.55477478566E+02  0.10566000000E+00 0. -1.
         22    1    1    0    0    0 -0.16852093690E+02 -0.69951321692E+01  0.23288778500E+02  0.29585336567E+02  0.00000000000E+00 0. -1.
</event>
<event>
 5    1  0.1668518E-003  0.9118800E+02  0.7818608E-02  0.1130116E+00
         25   -1    0    0    0    0  0.00000000000E+00  0.00000000000E+00  0.99999998245E-14  0.12500000000E+03  0.12500000000E+03 0.  0.
        -13    1    3    3    0    0 -0.62219352828E+02  0.16884147750E+00 -0.29074632565E+01  0.62287566017E+02  0.10566000000E+00 0. -1.
         23    2    1    0    0    0 -0.23999680569E+02  0.32019162173E+01 -0.27875519297E+01  0.10062773337E+03  0.97631620609E+02 0.  0.
         13    1    3    3    0    0  0.38219672259E+02  0.30330747398E+01  0.11991132672E+00  0.38340167354E+02  0.10566000000E+00 0.  1.
         22    1    1    0    0    0  0.23999680569E+02 -0.32019162173E+01  0.27875519297E+01  0.24372266629E+02  0.00000000000E+00 0. -1.
</event>
<event>
 5    1  0.1668518E-003  0.9118800E+02  0.7818608E-02  0.1130116E+00
         25   -1    0    0    0    0  0.00000000000E+00  0.00000000000E+00  0.99999998245E-14  0.12500000000E+03  0.12500000000E+03 0.  0.
        -13    1    3    3    0    0 -0.42971948873E+02 -0.33580983592E+02 -0.30559660792E+01  0.54622531446E+02  0.10566000000E+00 0.  1.
         23    2    1    0    0    0 -0.28241315698E+01 -0.24567853628E+02 -0.13152378861E+02  0.96990354863E+02  0.92857895279E+02 0.  0.
         13    1    3    3    0    0  0.40147817303E+02  0.90131299631E+01 -0.10096412781E+02  0.42367823416E+02  0.10566000000E+00 0. -1.
         22    1    1    0    0    0  0.28241315698E+01  0.24567853628E+02  0.13152378861E+02  0.28009645137E+02  0.00000000000E+00 0.  1.
</event>
<event>
 5    1  0.1668518E-003  0.9118800E+02  0.7818608E-02  0.1130116E+00
         25   -1    0    0    0    0  0.00000000000E+00  0.00000000000E+00  0.99999998245E-14  0.12500000000E+03  0.12500000000E+03 0.  0.
        -13    1    3    3    0    0  0.41604711886E+02  0.23894810971E+01  0.18035377912E+02  0.45408674188E+02  0.10566000000E+00 0. -1.
         23    2    1    0    0    0  0.17071558542E+02 -0.61710964070E+01 -0.24049382179E+02  0.94868731771E+02  0.89956561422E+02 0.  0.
         13    1    3    3    0    0 -0.24533153344E+02 -0.85605775041E+01 -0.42084760091E+02  0.49460057583E+02  0.10566000000E+00 0.  1.
         22    1    1    0    0    0 -0.17071558542E+02  0.61710964070E+01  0.24049382179E+02  0.30131268229E+02  0.00000000000E+00 0. -1.
</event>
<event>
 5    1  0.1668518E-003  0.9118800E+02  0.7818608E-02  0.1130116E+00
         25   -1    0    0    0    0  0.00000000000E+00  0.00000000000E+00  0.99999998245E-14  0.12500000000E+03  0.12500000000E+03 0.  0.
        -13    1    3    3    0    0  0.14438786493E+02 -0.10868289289E+02 -0.29437832836E+02  0.34542661067E+02  0.10566000000E+00 0.  1.
         23    2    1    0    0    0 -0.26083291673E+02  0.21637628442E+01  0.13964714200E+02  0.95334646188E+02  0.90601664151E+02 0.  0.
         13    1    3    3    0    0 -0.40522078166E+02  0.13032052133E+02  0.43402547036E+02  0.60791985121E+02  0.10566000000E+00 0. -1.
         22    1    1    0    0    0  0.26083291673E+02 -0.21637628442E+01 -0.13964714200E+02  0.29665353812E+02  0.00000000000E+00 0. -1.
</event>
<event>
 5    1  0.1668518E-003  0.9118800E+02  0.7818608E-02  0.1130116E+00
         25   -1    0    0    0    0  0.00000000000E+00  0.00000000000E+00  0.99999998245E-14  0.12500000000E+03  0.12500000000E+03 0.  0.
        -13    1    3    3    0    0  0.20553633981E+02 -0.42922383961E+02  0.64500265010E+01  0.48024961433E+02  0.10566000000E+00 0.  1.
         23    2    1    0    0    0  0.19640358927E+02 -0.32118173148E+01 -0.20813976370E+02  0.96202759133E+02  0.91791556166E+02 0.  0.
         13    1    3    3    0    0 -0.91327505424E+00  0.39710566646E+02 -0.27264002871E+02  0.48177797700E+02  0.10566000000E+00 0. -1.
         22    1    1    0    0    0 -0.19640358927E+02  0.32118173148E+01  0.20813976370E+02  0.28797240867E+02  0.00000000000E+00 0.  1.
</event>
<event>
 5    1  0.1668518E-003  0.9118800E+02  0.7818608E-02  0.1130116E+00
         25   -1    0    0    0    0  0.00000000000E+00  0.00000000000E+00  0.99999998245E-14  0.12500000000E+03  0.12500000000E+03 0.  0.
        -13    1    3    3    0    0 -0.57090356322E+01  0.45177567496E+02 -0.13923696062E+02  0.47618128573E+02  0.10566000000E+00 0.  1.
         23    2    1    0    0    0  0.18641403365E+02  0.15772020640E+02  0.15724071001E+02  0.95956843090E+02  0.91456059244E+02 0.  0.
         13    1    3    3    0    0  0.24350438997E+02 -0.29405546856E+02  0.29647767063E+02  0.48338714517E+02  0.10566000000E+00 0. -1.
         22    1    1    0    0    0 -0.18641403365E+02 -0.15772020640E+02 -0.15724071001E+02  0.29043156910E+02  0.00000000000E+00 0.  1.
</event>
<event>
 5    1  0.1668518E-003  0.9118800E+02  0.7818608E-02  0.1130116E+00
         25   -1    0    0    0    0  0.00000000000E+00  0.00000000000E+00  0.99999998245E-14  0.12500000000E+03  0.12500000000E+03 0.  0.
        -13    1    3    3    0    0  0.34797392703E+02  0.27572360353E+02  0.43920314268E+02  0.62450770722E+02  0.10566000000E+00 0. -1.
         23    2    1    0    0    0  0.28013890837E+02  0.21330412894E+02  0.36499162368E+02  0.74285569631E+02  0.54280681718E+02 0.  0.
         13    1    3    3    0    0 -0.67835018662E+01 -0.62419474595E+01 -0.74211518998E+01  0.11834798909E+02  0.10566000000E+00 0.  1.
         22    1    1    0    0    0 -0.28013890837E+02 -0.21330412894E+02 -0.36499162368E+02  0.50714430369E+02  0.00000000000E+00 0. -1.
</event>
<event>
 5    1  0.1668518E-003  0.9118800E+02  0.7818608E-02  0.1130116E+00
         25   -1    0    0    0    0  0.00000000000E+00  0.00000000000E+00  0.99999998245E-14  0.12500000000E+03  0.12500000000E+03 0.  0.
        -13    1    3    3    0    0  0.15968862014E+02  0.52242891293E+02 -0.21979342973E+02  0.58884861605E+02  0.10566000000E+00 0. -1.
         23    2    1    0    0    0  0.54199507674E+01  0.18429370729E+02 -0.23874800393E+02  0.94356506962E+02  0.89241956167E+02 0.  0.
         13    1    3    3    0    0 -0.10548911246E+02 -0.33813520565E+02 -0.18954574192E+01  0.35471645357E+02  0.10566000000E+00 0.  1.
         22    1    1    0    0    0 -0.54199507674E+01 -0.18429370729E+02  0.23874800393E+02  0.30643493038E+02  0.00000000000E+00 0. -1.
</event>
<event>
 5    1  0.1668518E-003  0.9118800E+02  0.7818608E-02  0.1130116E+00
         25   -1    0    0    0    0  0.00000000000E+00  0.00000000000E+00  0.99999998245E-14  0.12500000000E+03  0.12500000000E+03 0.  0.
        -13    1    3    3    0    0 -0.41484774472E+02  0.15619151567E+02 -0.11956094131E+02  0.45911913047E+02  0.10566000000E+00 0. -1.
         23    2    1    0    0    0 -0.10286574388E+02 -0.24654457428E+02  0.19433984037E+00  0.98284954582E+02  0.94584558177E+02 0.  0.
         13    1    3    3    0    0  0.31198200084E+02 -0.40273608995E+02  0.12150433971E+02  0.52373041536E+02  0.10566000000E+00 0.  1.
         22    1    1    0    0    0  0.10286574388E+02  0.24654457428E+02 -0.19433984037E+00  0.26715045418E+02  0.00000000000E+00 0. -1.
</event>
<event>
 5    1  0.1668518E-003  0.9118800E+02  0.7818608E-02  0.1130116E+00
         25   -1    0    0    0    0  0.00000000000E+00  0.00000000000E+00  0.99999998245E-14  0.12500000000E+03  0.12500000000E+03 0.  0.
        -13    1    3    3    0    0 -0.19170424955E+01 -0.33327736056E+02  0.21122562450E+02  0.39504263707E+02  0.10566000000E+00 0.  1.
         23    2    1    0    0    0 -0.19844872999E+01 -0.94197016453E+01 -0.28679581434E+02  0.94747936266E+02  0.89788551979E+02 0.  0.
         13    1    3    3    0    0 -0.67444804382E-01  0.23908034411E+02 -0.49802143885E+02  0.55243672558E+02  0.10566000000E+00 0. -1.
         22    1    1    0    0    0  0.19844872999E+01  0.94197016453E+01  0.28679581434E+02  0.30252063734E+02  0.00000000000E+00 0. -1.
</event>
<event>
 5    1  0.1668518E-003  0.9118800E+02  0.7818608E-02  0.1130116E+00
         25   -1    0    0    0    0  0.00000000000E+00  0.00000000000E+00  0.99999998245E-14  0.12500000000E+03  0.12500000000E+03 0.  0.
        -13    1    3    3    0    0  0.22991342831E+02  0.55966457372E+02  0.16040327593E+01  0.60526277608E+02  0.10566000000E+00 0. -1.
         23    2    1    0    0    0 -0.58285426249E+00  0.23777981471E+02 -0.42083452829E+01  0.10084544987E+03  0.97909971237E+02 0.  0.
         13    1    3    3    0    0 -0.23574197094E+02 -0.32188475900E+02 -0.58123780422E+01  0.40319172263E+02  0.10566000000E+00 0.  1.
         22    1    1    0    0    0  0.58285426249E+00 -0.23777981471E+02  0.42083452829E+01  0.24154550130E+02  0.00000000000E+00 0. -1.
</event>
<event>
 5    1  0.1668518E-003  0.9118800E+02  0.7818608E-02  0.1130116E+00
         25   -1    0    0    0    0  0.00000000000E+00  0.00000000000E+00  0.99999998245E-14  0.12500000000E+03  0.12500000000E+03 0.  0.
        -13    1    3    3    0    0  0.26746339721E+02 -0.30703183034E+02  0.20070818952E+02  0.45397148306E+02  0.10566000000E+00 0. -1.
         23    2    1    0    0    0  0.25466352793E+02  0.13069426417E+02 -0.51264732635E+01  0.95920354893E+02  0.91406174426E+02 0.  0.
         13    1    3    3    0    0 -0.12799869274E+01  0.43772609451E+02 -0.25197292216E+02  0.50523206586E+02  0.10566000000E+00 0.  1.
         22    1    1    0    0    0 -0.25466352793E+02 -0.13069426417E+02  0.51264732635E+01  0.29079645107E+02  0.00000000000E+00 0.  1.
</event>
<event>
 5    1  0.1668518E-003  0.9118800E+02  0.7818608E-02  0.1130116E+00
         25   -1    0    0    0    0  0.00000000000E+00  0.00000000000E+00  0.99999998245E-14  0.12500000000E+03  0.12500000000E+03 0.  0.
        -13    1    3    3    0    0 -0.13502374502E+01 -0.53149465030E+02  0.65896284405E+01  0.53573530229E+02  0.10566000000E+00 0.  1.
         23    2    1    0    0    0  0.12465835473E+02 -0.20406054566E+02 -0.16493500839E+02  0.95951081140E+02  0.91448183607E+02 0.  0.
         13    1    3    3    0    0  0.13816072924E+02  0.32743410464E+02 -0.23083129280E+02  0.42377550911E+02  0.10566000000E+00 0. -1.
         22    1    1    0    0    0 -0.12465835473E+02  0.20406054566E+02  0.16493500839E+02  0.29048918860E+02  0.00000000000E+00 0.  1.
</event>
<event>
 5    1  0.1668518E-003  0.9118800E+02  0.7818608E-02  0.1130116E+00
         25   -1    0    0    0    0  0.00000000000E+00  0.00000000000E+00  0.99999998245E-14  0.12500000000E+03  0.12500000000E+03 0.  0.
        -13    1    3    3    0    0  0.29573850946E+02  0.50907217792E+02  0.15198386812E+02  0.60804272948E+02  0.10566000000E+00 0.  1.
         23    2    1    0    0    0  0.11225698890E+02  0.22619488971E+02  0.16982336702E+02  0.94568809476E+02  0.89538831626E+02 0.  0.
         13    1    3    3    0    0 -0.18348152056E+02 -0.28287728820E+02  0.17839498897E+01  0.33764536527E+02  0.10566000000E+00 0. -1.
         22    1    1    0    0    0 -0.11225698890E+02 -0.22619488971E+02 -0.16982336702E+02  0.30431190524E+02  0.00000000000E+00 0.  1.
</event>
<event>
 5    1  0.1668518E-003  0.9118800E+02  0.7818608E-02  0.1130116E+00
         25   -1    0    0    0    0  0.00000000000E+00  0.00000000000E+00  0.99999998245E-14  0.12500000000E+03  0.12500000000E+03 0.  0.
        -13    1    3    3    0    0 -0.42851778493E+02 -0.11592187774E+02 -0.96812731456E+01  0.45435580233E+02  0.10566000000E+00 0. -1.
         23    2    1    0    0    0  0.16719246003E+01 -0.28217549721E+02  0.71296398872E+01  0.95847689473E+02  0.91306748755E+02 0.  0.
         13    1    3    3    0    0  0.44523703093E+02 -0.16625361947E+02  0.16810913033E+02  0.50412109240E+02  0.10566000000E+00 0.  1.
         22    1    1    0    0    0 -0.16719246003E+01  0.28217549721E+02 -0.71296398872E+01  0.29152310527E+02  0.00000000000E+00 0. -1.
</event>
<event>
 5    1  0.1668518E-003  0.9118800E+02  0.7818608E-02  0.1130116E+00
         25   -1    0    0    0    0  0.00000000000E+00  0.00000000000E+00  0.99999998245E-14  0.12500000000E+03  0.12500000000E+03 0.  0.
        -13    1    3    3    0    0 -0.23051682371E+02  0.94362139632E+01  0.40286948906E+02  0.47365299643E+02  0.10566000000E+00 0. -1.
         23    2    1    0    0    0  0.15383067112E+02  0.20705283660E+02  0.11129704719E+02  0.96906978583E+02  0.92745590978E+02 0.  0.
         13    1    3    3    0    0  0.38434749482E+02  0.11269069696E+02 -0.29157244187E+02  0.49541678940E+02  0.10566000000E+00 0.  1.
         22    1    1    0    0    0 -0.15383067112E+02 -0.20705283660E+02 -0.11129704719E+02  0.28093021417E+02  0.00000000000E+00 0.  1.
</event>
<event>
 5    1  0.1668518E-003  0.9118800E+02  0.7818608E-02  0.1130116E+00
         25   -1    0    0    0    0  0.00000000000E+00  0.00000000000E+00  0.99999998245E-14  0.12500000000E+03  0.12500000000E+03 0.  0.
        -13    1    3    3    0    0  0.18220934261E+02  0.29726676755E+02  0.50822339443E+02  0.61632776237E+02  0.10566000000E+00 0.  1.
         23    2    1    0    0    0  0.17060757015E+02  0.15295105260E+02  0.26221995037E+02  0.90177554673E+02  0.83182862828E+02 0.  0.
         13    1    3    3    0    0 -0.11601772467E+01 -0.14431571495E+02 -0.24600344405E+02  0.28544778436E+02  0.10566000000E+00 0. -1.
         22    1    1    0    0    0 -0.17060757015E+02 -0.15295105260E+02 -0.26221995037E+02  0.34822445327E+02  0.00000000000E+00 0.  1.
</event>
<event>
 5    1  0.1668518E-003  0.9118800E+02  0.7818608E-02  0.1130116E+00
         25   -1    0    0    0    0  0.00000000000E+00  0.00000000000E+00  0.99999998245E-14  0.12500000000E+03  0.12500000000E+03 0.  0.
        -13    1    3    3    0    0 -0.22529372795E+02 -0.23950932732E+01  0.44903715896E+01  0.23097266318E+02  0.10566000000E+00 0. -1.
         23    2    1    0    0    0  0.42533856454E+01 -0.48353498503E+02  0.40361695325E+01  0.76292271953E+02  0.58720251944E+02 0.  0.
         13    1    3    3    0    0  0.26782758440E+02 -0.45958405230E+02 -0.45420205706E+00  0.53195005635E+02  0.10566000000E+00 0.  1.
         22    1    1    0    0    0 -0.42533856454E+01  0.48353498503E+02 -0.40361695325E+01  0.48707728047E+02  0.00000000000E+00 0.  1.
</event>
<event>
 5    1  0.1668518E-003  0.9118800E+02  0.7818608E-02  0.1130116E+00
         25   -1    0    0    0    0  0.00000000000E+00  0.00000000000E+00  0.99999998245E-14  0.12500000000E+03  0.12500000000E+03 0.  0.
        -13    1    3    3    0    0 -0.61434731289E+02  0.10256946923E+02  0.39220079117E+01  0.62408528895E+02  0.10566000000E+00 0. -1.
         23    2    1    0    0    0 -0.27761385386E+02  0.22258659134E+01  0.17790716412E+01  0.97092759121E+02  0.92995643877E+02 0.  0.
         13    1    3    3    0    0  0.33673345903E+02 -0.80310810092E+01 -0.21429362705E+01  0.34684230226E+02  0.10566000000E+00 0.  1.
         22    1    1    0    0    0  0.27761385386E+02 -0.22258659134E+01 -0.17790716412E+01  0.27907240879E+02  0.00000000000E+00 0. -1.
</event>
<event>
 5    1  0.1668518E-003  0.9118800E+02  0.7818608E-02  0.1130116E+00
         25   -1    0    0    0    0  0.00000000000E+00  0.00000000000E+00  0.99999998245E-14  0.12500000000E+03  0.12500000000E+03 0.  0.
        -13    1    3    3    0    0  0.11847009508E+02  0.74207194792E+01 -0.47021006665E+02  0.49055121483E+02  0.10566000000E+00 0. -1.
         23    2    1    0    0    0 -0.23296970537E+02 -0.14954390077E+01 -0.17149449328E+02  0.96032970703E+02  0.91560049561E+02 0.  0.
         13    1    3    3    0    0 -0.35143980045E+02 -0.89161584869E+01  0.29871557336E+02  0.46977849220E+02  0.10566000000E+00 0.  1.
         22    1    1    0    0    0  0.23296970537E+02  0.14954390077E+01  0.17149449328E+02  0.28967029297E+02  0.00000000000E+00 0. -1.
</event>
<event>
 5    1  0.1668518E-003  0.9118800E+02  0.7818608E-02  0.1130116E+00
         25   -1    0    0    0    0  0.00000000000E+00  0.00000000000E+00  0.99999998245E-14  0.12500000000E+03  0.12500000000E+03 0.  0.
        -13    1    3    3    0    0  0.14614564649E+02  0.36137996434E+01 -0.33210245855E+02  0.36463360261E+02  0.10566000000E+00 0. -1.
         23    2    1    0    0    0 -0.27275200074E+02 -0.86521106492E+00  0.91613481927E+01  0.96214319011E+02  0.91807296839E+02 0.  0.
         13    1    3    3    0    0 -0.41889764723E+02 -0.44790107083E+01  0.42371594047E+02  0.59750958751E+02  0.10566000000E+00 0.  1.
         22    1    1    0    0    0  0.27275200074E+02  0.86521106492E+00 -0.91613481927E+01  0.28785680989E+02  0.00000000000E+00 0.  1.
</event>
<event>
 5    1  0.1668518E-003  0.9118800E+02  0.7818608E-02  0.1130116E+00
         25   -1    0    0    0    0  0.00000000000E+00  0.00000000000E+00  0.99999998245E-14  0.12500000000E+03  0.12500000000E+03 0.  0.
        -13    1    3    3    0    0  0.12293358195E+02 -0.28876712943E+02  0.12248538768E+02  0.33690192521E+02  0.10566000000E+00 0. -1.
         23    2    1    0    0    0 -0.11157657620E+01  0.30020178514E+02  0.27992713841E+01  0.94828954749E+02  0.89901271889E+02 0.  0.
         13    1    3    3    0    0 -0.13409123956E+02  0.58896891458E+02 -0.94492673837E+01  0.61138762228E+02  0.10566000000E+00 0.  1.
         22    1    1    0    0    0  0.11157657620E+01 -0.30020178514E+02 -0.27992713841E+01  0.30171045251E+02  0.00000000000E+00 0.  1.
</event>
<event>
 5    1  0.1668518E-003  0.9118800E+02  0.7818608E-02  0.1130116E+00
         25   -1    0    0    0    0  0.00000000000E+00  0.00000000000E+00  0.99999998245E-14  0.12500000000E+03  0.12500000000E+03 0.  0.
        -13    1    3    3    0    0  0.26757390463E+02 -0.47100606349E+01 -0.28944128598E+02  0.39697813037E+02  0.10566000000E+00 0. -1.
         23    2    1    0    0    0  0.73420200633E+01 -0.21327352259E+02  0.19962645914E+02  0.94879102854E+02  0.89970971504E+02 0.  0.
         13    1    3    3    0    0 -0.19415370400E+02 -0.16617291624E+02  0.48906774512E+02  0.55181289817E+02  0.10566000000E+00 0.  1.
         22    1    1    0    0    0 -0.73420200633E+01  0.21327352259E+02 -0.19962645914E+02  0.30120897146E+02  0.00000000000E+00 0.  1.
</event>
<event>
 5    1  0.1668518E-003  0.9118800E+02  0.7818608E-02  0.1130116E+00
         25   -1    0    0    0    0  0.00000000000E+00  0.00000000000E+00  0.99999998245E-14  0.12500000000E+03  0.12500000000E+03 0.  0.
        -13    1    3    3    0    0 -0.18141043383E+02 -0.23244872871E+02  0.35137864114E+02  0.45870494094E+02  0.10566000000E+00 0. -1.
         23    2    1    0    0    0 -0.56445068947E+01 -0.27912179166E+02 -0.11432360054E+02  0.94313699143E+02  0.89181975677E+02 0.  0.
         13    1    3    3    0    0  0.12496536489E+02 -0.46673062954E+01 -0.46570224169E+02  0.48443205049E+02  0.10566000000E+00 0.  1.
         22    1    1    0    0    0  0.56445068947E+01  0.27912179166E+02  0.11432360054E+02  0.30686300857E+02  0.00000000000E+00 0.  1.
</event>
<event>
 5    1  0.1668518E-003  0.9118800E+02  0.7818608E-02  0.1130116E+00
         25   -1    0    0    0    0  0.00000000000E+00  0.00000000000E+00  0.99999998245E-14  0.12500000000E+03  0.12500000000E+03 0.  0.
        -13    1    3    3    0    0  0.27796169843E+01  0.48367402963E+02 -0.96139021490E+01  0.49392005614E+02  0.10566000000E+00 0.  1.
         23    2    1    0    0    0  0.14837429819E+02  0.46988565374E+01 -0.23533972840E+02  0.96785173153E+02  0.92581279362E+02 0.  0.
         13    1    3    3    0    0  0.12057812835E+02 -0.43668546426E+02 -0.13920070691E+02  0.47393167539E+02  0.10566000000E+00 0. -1.
         22    1    1    0    0    0 -0.14837429819E+02 -0.46988565374E+01  0.23533972840E+02  0.28214826847E+02  0.00000000000E+00 0.  1.
</event>
<event>
 5    1  0.1668518E-003  0.9118800E+02  0.7818608E-02  0.1130116E+00
         25   -1    0    0    0    0  0.00000000000E+00  0.00000000000E+00  0.99999998245E-14  0.12500000000E+03  0.12500000000E+03 0.  0.
        -13    1    3    3    0    0 -0.12429024420E+02  0.50729966375E+02 -0.68814465991E+01  0.52681833755E+02  0.10566000000E+00 0.  1.
         23    2    1    0    0    0  0.88949101408E+01  0.22041588832E+02  0.17093554354E+02  0.95723035248E+02  0.91135935897E+02 0.  0.
         13    1    3    3    0    0  0.21323934560E+02 -0.28688377543E+02  0.23975000954E+02  0.43041201493E+02  0.10566000000E+00 0. -1.
         22    1    1    0    0    0 -0.88949101408E+01 -0.22041588832E+02 -0.17093554354E+02  0.29276964752E+02  0.00000000000E+00 0.  1.
</event>
<event>
 5    1  0.1668518E-003  0.9118800E+02  0.7818608E-02  0.1130116E+00
         25   -1    0    0    0    0  0.00000000000E+00  0.00000000000E+00  0.99999998245E-14  0.12500000000E+03  0.12500000000E+03 0.  0.
        -13    1    3    3    0    0  0.25588321944E+02  0.35639003655E+02 -0.32561522243E+02  0.54636660735E+02  0.10566000000E+00 0.  1.
         23    2    1    0    0    0  0.87573664630E+01  0.24033113642E+02  0.63964724750E+01  0.98633413592E+02  0.95043955083E+02 0.  0.
         13    1    3    3    0    0 -0.16830955481E+02 -0.11605890013E+02  0.38957994719E+02  0.43996752856E+02  0.10566000000E+00 0. -1.
         22    1    1    0    0    0 -0.87573664630E+01 -0.24033113642E+02 -0.63964724750E+01  0.26366586408E+02  0.00000000000E+00 0.  1.
</event>
<event>
 5    1  0.1668518E-003  0.9118800E+02  0.7818608E-02  0.1130116E+00
         25   -1    0    0    0    0  0.00000000000E+00  0.00000000000E+00  0.99999998245E-14  0.12500000000E+03  0.12500000000E+03 0.  0.
        -13    1    3    3    0    0 -0.40555263427E+02  0.21788349726E+02  0.41758314019E+02  0.62154883389E+02  0.10566000000E+00 0.  1.
         23    2    1    0    0    0 -0.20122678143E+02  0.56383556536E+01  0.19571475518E+02  0.96368620639E+02  0.92017146010E+02 0.  0.
         13    1    3    3    0    0  0.20432585284E+02 -0.16149994072E+02 -0.22186838501E+02  0.34213737250E+02  0.10566000000E+00 0. -1.
         22    1    1    0    0    0  0.20122678143E+02 -0.56383556536E+01 -0.19571475518E+02  0.28631379361E+02  0.00000000000E+00 0.  1.
</event>
<event>
 5    1  0.1668518E-003  0.9118800E+02  0.7818608E-02  0.1130116E+00
         25   -1    0    0    0    0  0.00000000000E+00  0.00000000000E+00  0.99999998245E-14  0.12500000000E+03  0.12500000000E+03 0.  0.
        -13    1    3    3    0    0 -0.12720887804E+02 -0.48699122421E+02 -0.15863889843E+02  0.52774043583E+02  0.10566000000E+00 0. -1.
         23    2    1    0    0    0  0.12594414359E+02 -0.26027027136E+02  0.88134347034E+01  0.94772495210E+02  0.89822735443E+02 0.  0.
         13    1    3    3    0    0  0.25315302163E+02  0.22672095285E+02  0.24677324547E+02  0.41998451627E+02  0.10566000000E+00 0.  1.
         22    1    1    0    0    0 -0.12594414359E+02  0.26027027136E+02 -0.88134347034E+01  0.30227504790E+02  0.00000000000E+00 0.  1.
</event>
<event>
 5    1  0.1668518E-003  0.9118800E+02  0.7818608E-02  0.1130116E+00
         25   -1    0    0    0    0  0.00000000000E+00  0.00000000000E+00  0.99999998245E-14  0.12500000000E+03  0.12500000000E+03 0.  0.
        -13    1    3    3    0    0  0.13781961790E+02 -0.25127522518E+02  0.29267439137E+02  0.40962531860E+02  0.10566000000E+00 0. -1.
         23    2    1    0    0    0  0.16911486121E+01  0.23729404173E+02 -0.34045834946E+01  0.10096802557E+03  0.98066336699E+02 0.  0.
         13    1    3    3    0    0 -0.12090813178E+02  0.48856926691E+02 -0.32672022632E+02  0.60005493714E+02  0.10566000000E+00 0.  1.
         22    1    1    0    0    0 -0.16911486121E+01 -0.23729404173E+02  0.34045834946E+01  0.24031974426E+02  0.00000000000E+00 0.  1.
</event>
<event>
 4    1  0.1668518E-003  0.9118800E+02  0.7818608E-02  0.1130116E+00
         25   -1    0    0    0    0  0.00000000000E+00  0.00000000000E+00  0.99999998245E-14  0.12500000000E+03  0.12500000000E+03 0.  0.
        -13    1    1    0    0    0 -0.47543623343E+02 -0.22147754388E+02 -0.31396469339E+01  0.52543198341E+02  0.10566000000E+00 0. -1.
         13    1    1    0    0    0  0.56002143410E+01 -0.60921367305E+01  0.17951956328E+02  0.19767661234E+02  0.10566000000E+00 0.  1.
         22    1    1    0    0    0  0.41943409002E+02  0.28239891118E+02 -0.14812309394E+02  0.52689140425E+02  0.00000000000E+00 0. -1.
</event>
<event>
 5    1  0.1668518E-003  0.9118800E+02  0.7818608E-02  0.1130116E+00
         25   -1    0    0    0    0  0.00000000000E+00  0.00000000000E+00  0.99999998245E-14  0.12500000000E+03  0.12500000000E+03 0.  0.
        -13    1    3    3    0    0 -0.30181288523E+02 -0.13788006355E+02  0.43840924475E+02  0.54982334609E+02  0.10566000000E+00 0.  1.
         23    2    1    0    0    0 -0.21051639850E+02 -0.21955987107E+02  0.70268812319E+01  0.93781192046E+02  0.88432448861E+02 0.  0.
         13    1    3    3    0    0  0.91296486735E+01 -0.81679807522E+01 -0.36814043244E+02  0.38798857437E+02  0.10566000000E+00 0. -1.
         22    1    1    0    0    0  0.21051639850E+02  0.21955987107E+02 -0.70268812319E+01  0.31218807954E+02  0.00000000000E+00 0.  1.
</event>
<event>
 5    1  0.1668518E-003  0.9118800E+02  0.7818608E-02  0.1130116E+00
         25   -1    0    0    0    0  0.00000000000E+00  0.00000000000E+00  0.99999998245E-14  0.12500000000E+03  0.12500000000E+03 0.  0.
        -13    1    3    3    0    0  0.23977789531E+02  0.11207735884E+02  0.30106379795E+02  0.40086818318E+02  0.10566000000E+00 0.  1.
         23    2    1    0    0    0  0.62889583875E+01 -0.27486304088E+02 -0.63291041421E+01  0.96101808547E+02  0.91653980474E+02 0.  0.
         13    1    3    3    0    0 -0.17688831144E+02 -0.38694039972E+02 -0.36435483937E+02  0.56014990229E+02  0.10566000000E+00 0. -1.
         22    1    1    0    0    0 -0.62889583875E+01  0.27486304088E+02  0.63291041421E+01  0.28898191453E+02  0.00000000000E+00 0. -1.
</event>
<event>
 5    1  0.1668518E-003  0.9118800E+02  0.7818608E-02  0.1130116E+00
         25   -1    0    0    0    0  0.00000000000E+00  0.00000000000E+00  0.99999998245E-14  0.12500000000E+03  0.12500000000E+03 0.  0.
        -13    1    3    3    0    0  0.25655746478E+02  0.10793322647E+02  0.21835868342E+02  0.35376962156E+02  0.10566000000E+00 0. -1.
         23    2    1    0    0    0 -0.10968350205E+02  0.13468998068E+02 -0.24791767270E+02  0.94728720880E+02  0.89761797108E+02 0.  0.
         13    1    3    3    0    0 -0.36624096683E+02  0.26756754212E+01 -0.46627635612E+02  0.59351758724E+02  0.10566000000E+00 0.  1.
         22    1    1    0    0    0  0.10968350205E+02 -0.13468998068E+02  0.24791767270E+02  0.30271279120E+02  0.00000000000E+00 0.  1.
</event>
<event>
 5    1  0.1668518E-003  0.9118800E+02  0.7818608E-02  0.1130116E+00
         25   -1    0    0    0    0  0.00000000000E+00  0.00000000000E+00  0.99999998245E-14  0.12500000000E+03  0.12500000000E+03 0.  0.
        -13    1    3    3    0    0  0.33207340119E+02  0.33294449000E+02 -0.25832958749E+02  0.53652592609E+02  0.10566000000E+00 0.  1.
         23    2    1    0    0    0 -0.61459572316E+01  0.25605283977E+02 -0.11917867163E+02  0.96096039794E+02  0.91646112566E+02 0.  0.
         13    1    3    3    0    0 -0.39353297350E+02 -0.76891650220E+01  0.13915091585E+02  0.42443447185E+02  0.10566000000E+00 0. -1.
         22    1    1    0    0    0  0.61459572316E+01 -0.25605283977E+02  0.11917867163E+02  0.28903960206E+02  0.00000000000E+00 0.  1.
</event>
<event>
 5    1  0.1668518E-003  0.9118800E+02  0.7818608E-02  0.1130116E+00
         25   -1    0    0    0    0  0.00000000000E+00  0.00000000000E+00  0.99999998245E-14  0.12500000000E+03  0.12500000000E+03 0.  0.
        -13    1    3    3    0    0 -0.48368789674E+01 -0.28822920890E+02 -0.49039169680E+02  0.57087717539E+02  0.10566000000E+00 0.  1.
         23    2    1    0    0    0  0.81585701314E+01 -0.20200510334E+01 -0.33055840262E+02  0.90892354990E+02  0.84250155771E+02 0.  0.
         13    1    3    3    0    0  0.12995449099E+02  0.26802869857E+02  0.15983329419E+02  0.33804637451E+02  0.10566000000E+00 0. -1.
         22    1    1    0    0    0 -0.81585701314E+01  0.20200510334E+01  0.33055840262E+02  0.34107645010E+02  0.00000000000E+00 0.  1.
</event>
<event>
 5    1  0.1668518E-003  0.9118800E+02  0.7818608E-02  0.1130116E+00
         25   -1    0    0    0    0  0.00000000000E+00  0.00000000000E+00  0.99999998245E-14  0.12500000000E+03  0.12500000000E+03 0.  0.
        -13    1    3    3    0    0 -0.38098163136E+02  0.62652541191E+01 -0.10901054886E+02  0.40119416810E+02  0.10566000000E+00 0.  1.
         23    2    1    0    0    0  0.72342297500E+01 -0.24316993551E+02 -0.15944760301E+02  0.95035260113E+02  0.90187665610E+02 0.  0.
         13    1    3    3    0    0  0.45332392886E+02 -0.30582247670E+02 -0.50437054149E+01  0.54915843303E+02  0.10566000000E+00 0. -1.
         22    1    1    0    0    0 -0.72342297500E+01  0.24316993551E+02  0.15944760301E+02  0.29964739887E+02  0.00000000000E+00 0. -1.
</event>
<event>
 5    1  0.1668518E-003  0.9118800E+02  0.7818608E-02  0.1130116E+00
         25   -1    0    0    0    0  0.00000000000E+00  0.00000000000E+00  0.99999998245E-14  0.12500000000E+03  0.12500000000E+03 0.  0.
        -13    1    3    3    0    0  0.74657131562E+01 -0.45981291183E+02  0.36857584428E+02  0.59401251718E+02  0.10566000000E+00 0.  1.
         23    2    1    0    0    0  0.90731817784E+01 -0.10751561310E+02  0.24458779597E+02  0.96783859273E+02  0.92579505390E+02 0.  0.
         13    1    3    3    0    0  0.16074686222E+01  0.35229729873E+02 -0.12398804831E+02  0.37382607555E+02  0.10566000000E+00 0. -1.
         22    1    1    0    0    0 -0.90731817784E+01  0.10751561310E+02 -0.24458779597E+02  0.28216140727E+02  0.00000000000E+00 0.  1.
</event>
<event>
 5    1  0.1668518E-003  0.9118800E+02  0.7818608E-02  0.1130116E+00
         25   -1    0    0    0    0  0.00000000000E+00  0.00000000000E+00  0.99999998245E-14  0.12500000000E+03  0.12500000000E+03 0.  0.
        -13    1    3    3    0    0  0.27811205407E+02 -0.47940930935E+01 -0.44636242317E+02  0.52809580258E+02  0.10566000000E+00 0. -1.
         23    2    1    0    0    0  0.89283862813E+00 -0.23675640457E+02 -0.16009035081E+02  0.96405904175E+02  0.92067779617E+02 0.  0.
         13    1    3    3    0    0 -0.26918366779E+02 -0.18881547363E+02  0.28627207236E+02  0.43596323917E+02  0.10566000000E+00 0.  1.
         22    1    1    0    0    0 -0.89283862813E+00  0.23675640457E+02  0.16009035081E+02  0.28594095825E+02  0.00000000000E+00 0. -1.
</event>
<event>
 5    1  0.1668518E-003  0.9118800E+02  0.7818608E-02  0.1130116E+00
         25   -1    0    0    0    0  0.00000000000E+00  0.00000000000E+00  0.99999998245E-14  0.12500000000E+03  0.12500000000E+03 0.  0.
        -13    1    3    3    0    0  0.15300874724E+01  0.22942807864E+02 -0.31522886026E+02  0.39018163819E+02  0.10566000000E+00 0.  1.
         23    2    1    0    0    0 -0.36393311068E+01 -0.27876977491E+02 -0.54744792414E+01  0.96358412616E+02  0.92003277952E+02 0.  0.
         13    1    3    3    0    0 -0.51694185793E+01 -0.50819785355E+02  0.26048406785E+02  0.57340248797E+02  0.10566000000E+00 0. -1.
         22    1    1    0    0    0  0.36393311068E+01  0.27876977491E+02  0.54744792414E+01  0.28641587384E+02  0.00000000000E+00 0. -1.
</event>
<event>
 5    1  0.1668518E-003  0.9118800E+02  0.7818608E-02  0.1130116E+00
         25   -1    0    0    0    0  0.00000000000E+00  0.00000000000E+00  0.99999998245E-14  0.12500000000E+03  0.12500000000E+03 0.  0.
        -13    1    3    3    0    0  0.19796846945E+02 -0.12980105555E+02  0.54441225911E+02  0.59365448974E+02  0.10566000000E+00 0. -1.
         23    2    1    0    0    0  0.21263997627E+02 -0.10376572358E+01  0.20226785859E+02  0.95634081083E+02  0.91013846589E+02 0.  0.
         13    1    3    3    0    0  0.14671506820E+01  0.11942448319E+02 -0.34214440052E+02  0.36268632109E+02  0.10566000000E+00 0.  1.
         22    1    1    0    0    0 -0.21263997627E+02  0.10376572358E+01 -0.20226785859E+02  0.29365918917E+02  0.00000000000E+00 0. -1.
</event>
<event>
 5    1  0.1668518E-003  0.9118800E+02  0.7818608E-02  0.1130116E+00
         25   -1    0    0    0    0  0.00000000000E+00  0.00000000000E+00  0.99999998245E-14  0.12500000000E+03  0.12500000000E+03 0.  0.
        -13    1    3    3    0    0 -0.30291764574E+02 -0.40893009396E+02  0.35245981344E+02  0.61904116046E+02  0.10566000000E+00 0.  1.
         23    2    1    0    0    0 -0.16326507159E+02 -0.12484474962E+02  0.16023960578E+02  0.98938836103E+02  0.95444795697E+02 0.  0.
         13    1    3    3    0    0  0.13965257415E+02  0.28408534434E+02 -0.19222020766E+02  0.37034720057E+02  0.10566000000E+00 0. -1.
         22    1    1    0    0    0  0.16326507159E+02  0.12484474962E+02 -0.16023960578E+02  0.26061163897E+02  0.00000000000E+00 0.  1.
</event>
<event>
 5    1  0.1668518E-003  0.9118800E+02  0.7818608E-02  0.1130116E+00
         25   -1    0    0    0    0  0.00000000000E+00  0.00000000000E+00  0.99999998245E-14  0.12500000000E+03  0.12500000000E+03 0.  0.
        -13    1    3    3    0    0 -0.17368522452E+02  0.17486353035E+02 -0.52307576685E+02  0.57823281275E+02  0.10566000000E+00 0.  1.
         23    2    1    0    0    0 -0.31352570253E-01  0.21748815057E+02 -0.16973840421E+02  0.97411538680E+02  0.93423148470E+02 0.  0.
         13    1    3    3    0    0  0.17337169882E+02  0.42624620214E+01  0.35333736264E+02  0.39588257406E+02  0.10566000000E+00 0. -1.
         22    1    1    0    0    0  0.31352570253E-01 -0.21748815057E+02  0.16973840421E+02  0.27588461320E+02  0.00000000000E+00 0.  1.
</event>
<event>
 5    1  0.1668518E-003  0.9118800E+02  0.7818608E-02  0.1130116E+00
         25   -1    0    0    0    0  0.00000000000E+00  0.00000000000E+00  0.99999998245E-14  0.12500000000E+03  0.12500000000E+03 0.  0.
        -13    1    3    3    0    0  0.39470958696E+02  0.27062355306E+02 -0.11566941196E+02  0.49235484640E+02  0.10566000000E+00 0. -1.
         23    2    1    0    0    0  0.24982471602E+02 -0.91023381817E+01  0.13112337841E+02  0.95353586197E+02  0.90627791263E+02 0.  0.
         13    1    3    3    0    0 -0.14488487094E+02 -0.36164693488E+02  0.24679279037E+02  0.46118101557E+02  0.10566000000E+00 0.  1.
         22    1    1    0    0    0 -0.24982471602E+02  0.91023381817E+01 -0.13112337841E+02  0.29646413803E+02  0.00000000000E+00 0.  1.
</event>
<event>
 5    1  0.1668518E-003  0.9118800E+02  0.7818608E-02  0.1130116E+00
         25   -1    0    0    0    0  0.00000000000E+00  0.00000000000E+00  0.99999998245E-14  0.12500000000E+03  0.12500000000E+03 0.  0.
        -13    1    3    3    0    0 -0.46381266035E+02  0.23206112669E+02  0.22716634885E+02  0.56619803680E+02  0.10566000000E+00 0.  1.
         23    2    1    0    0    0 -0.12288750727E+02  0.24094812247E+02  0.20982049526E+02  0.90768146793E+02  0.84065668963E+02 0.  0.
         13    1    3    3    0    0  0.34092515308E+02  0.88869957768E+00 -0.17345853588E+01  0.34148343113E+02  0.10566000000E+00 0. -1.
         22    1    1    0    0    0  0.12288750727E+02 -0.24094812247E+02 -0.20982049526E+02  0.34231853207E+02  0.00000000000E+00 0.  1.
</event>
<event>
 5    1  0.1668518E-003  0.9118800E+02  0.7818608E-02  0.1130116E+00
         25   -1    0    0    0    0  0.00000000000E+00  0.00000000000E+00  0.99999998245E-14  0.12500000000E+03  0.12500000000E+03 0.  0.
        -13    1    3    3    0    0  0.35427075352E+02 -0.34441405189E+01 -0.13973069189E+02  0.38238692426E+02  0.10566000000E+00 0.  1.
         23    2    1    0    0    0 -0.87032763436E+00  0.18206025564E+02  0.23868413012E+02  0.94968050734E+02  0.90094465333E+02 0.  0.
         13    1    3    3    0    0 -0.36297402986E+02  0.21650166082E+02  0.37841482200E+02  0.56729358308E+02  0.10566000000E+00 0. -1.
         22    1    1    0    0    0  0.87032763436E+00 -0.18206025564E+02 -0.23868413012E+02  0.30031949266E+02  0.00000000000E+00 0. -1.
</event>
<event>
 5    1  0.1668518E-003  0.9118800E+02  0.7818608E-02  0.1130116E+00
         25   -1    0    0    0    0  0.00000000000E+00  0.00000000000E+00  0.99999998245E-14  0.12500000000E+03  0.12500000000E+03 0.  0.
        -13    1    3    3    0    0 -0.28608128486E+02 -0.36749352624E+02  0.38972071668E+02  0.60727040665E+02  0.10566000000E+00 0.  1.
         23    2    1    0    0    0 -0.10138909704E+02 -0.25096531691E+02  0.12106987977E+02  0.95348481476E+02  0.90620750211E+02 0.  0.
         13    1    3    3    0    0  0.18469218782E+02  0.11652820933E+02 -0.26865083691E+02  0.34621440811E+02  0.10566000000E+00 0. -1.
         22    1    1    0    0    0  0.10138909704E+02  0.25096531691E+02 -0.12106987977E+02  0.29651518524E+02  0.00000000000E+00 0.  1.
</event>
<event>
 5    1  0.1668518E-003  0.9118800E+02  0.7818608E-02  0.1130116E+00
         25   -1    0    0    0    0  0.00000000000E+00  0.00000000000E+00  0.99999998245E-14  0.12500000000E+03  0.12500000000E+03 0.  0.
        -13    1    3    3    0    0  0.59145824799E+02  0.15272148775E+01  0.11550517345E+02  0.60282556278E+02  0.10566000000E+00 0. -1.
         23    2    1    0    0    0  0.26762271710E+02  0.10944511892E+02  0.11152126404E+02  0.94010139546E+02  0.88755478065E+02 0.  0.
         13    1    3    3    0    0 -0.32383553089E+02  0.94172970144E+01 -0.39839094098E+00  0.33727583268E+02  0.10566000000E+00 0.  1.
         22    1    1    0    0    0 -0.26762271710E+02 -0.10944511892E+02 -0.11152126404E+02  0.30989860454E+02  0.00000000000E+00 0. -1.
</event>
<event>
 5    1  0.1668518E-003  0.9118800E+02  0.7818608E-02  0.1130116E+00
         25   -1    0    0    0    0  0.00000000000E+00  0.00000000000E+00  0.99999998245E-14  0.12500000000E+03  0.12500000000E+03 0.  0.
        -13    1    3    3    0    0 -0.12647423051E+01  0.20022939370E+00  0.57465620799E+02  0.57479982626E+02  0.10566000000E+00 0. -1.
         23    2    1    0    0    0 -0.15317130073E+02 -0.91264992418E+01  0.22577761539E+02  0.96230871090E+02  0.91829830516E+02 0.  0.
         13    1    3    3    0    0 -0.14052387768E+02 -0.93267286355E+01 -0.34887859259E+02  0.38750888464E+02  0.10566000000E+00 0.  1.
         22    1    1    0    0    0  0.15317130073E+02  0.91264992418E+01 -0.22577761539E+02  0.28769128910E+02  0.00000000000E+00 0. -1.
</event>
<event>
 5    1  0.1668518E-003  0.9118800E+02  0.7818608E-02  0.1130116E+00
         25   -1    0    0    0    0  0.00000000000E+00  0.00000000000E+00  0.99999998245E-14  0.12500000000E+03  0.12500000000E+03 0.  0.
        -13    1    3    3    0    0  0.40206854572E+02  0.56135392275E+01 -0.47342232007E+02  0.62365062917E+02  0.10566000000E+00 0.  1.
         23    2    1    0    0    0  0.25175618774E+02  0.27838756565E+01 -0.33562501476E+02  0.82952369274E+02  0.71505890096E+02 0.  0.
         13    1    3    3    0    0 -0.15031235797E+02 -0.28296635710E+01  0.13779730530E+02  0.20587306357E+02  0.10566000000E+00 0. -1.
         22    1    1    0    0    0 -0.25175618774E+02 -0.27838756565E+01  0.33562501476E+02  0.42047630726E+02  0.00000000000E+00 0.  1.
</event>
<event>
 5    1  0.1668518E-003  0.9118800E+02  0.7818608E-02  0.1130116E+00
         25   -1    0    0    0    0  0.00000000000E+00  0.00000000000E+00  0.99999998245E-14  0.12500000000E+03  0.12500000000E+03 0.  0.
        -13    1    3    3    0    0  0.11879425123E+02  0.35537181691E+02 -0.10376902797E+01  0.37484663383E+02  0.10566000000E+00 0.  1.
         23    2    1    0    0    0 -0.50624308384E+01 -0.15686816823E+02 -0.23805326604E+02  0.96044896776E+02  0.91576329878E+02 0.  0.
         13    1    3    3    0    0 -0.16941855962E+02 -0.51223998514E+02 -0.22767636324E+02  0.58560233393E+02  0.10566000000E+00 0. -1.
         22    1    1    0    0    0  0.50624308384E+01  0.15686816823E+02  0.23805326604E+02  0.28955103224E+02  0.00000000000E+00 0. -1.
</event>
<event>
 5    1  0.1668518E-003  0.9118800E+02  0.7818608E-02  0.1130116E+00
         25   -1    0    0    0    0  0.00000000000E+00  0.00000000000E+00  0.99999998245E-14  0.12500000000E+03  0.12500000000E+03 0.  0.
        -13    1    3    3    0    0  0.32964558865E+01  0.27258765970E+00 -0.51438920190E+02  0.51545267482E+02  0.10566000000E+00 0.  1.
         23    2    1    0    0    0  0.25150204198E+02 -0.65105838311E+01 -0.13828792831E+02  0.95569471901E+02  0.90925067914E+02 0.  0.
         13    1    3    3    0    0  0.21853748312E+02 -0.67831714908E+01  0.37610127359E+02  0.44024204419E+02  0.10566000000E+00 0. -1.
         22    1    1    0    0    0 -0.25150204198E+02  0.65105838311E+01  0.13828792831E+02  0.29430528099E+02  0.00000000000E+00 0.  1.
</event>
<event>
 5    1  0.1668518E-003  0.9118800E+02  0.7818608E-02  0.1130116E+00
         25   -1    0    0    0    0  0.00000000000E+00  0.00000000000E+00  0.99999998245E-14  0.12500000000E+03  0.12500000000E+03 0.  0.
        -13    1    3    3    0    0  0.10626828891E+02 -0.17073107139E+02  0.26632721937E+02  0.33372646306E+02  0.10566000000E+00 0.  1.
         23    2    1    0    0    0 -0.16787161292E+02  0.13730484800E+02 -0.19913275288E+02  0.95557283926E+02  0.90908310850E+02 0.  0.
         13    1    3    3    0    0 -0.27413990184E+02  0.30803591939E+02 -0.46545997226E+02  0.62184637620E+02  0.10566000000E+00 0. -1.
         22    1    1    0    0    0  0.16787161292E+02 -0.13730484800E+02  0.19913275288E+02  0.29442716074E+02  0.00000000000E+00 0. -1.
</event>
<event>
 5    1  0.1668518E-003  0.9118800E+02  0.7818608E-02  0.1130116E+00
         25   -1    0    0    0    0  0.00000000000E+00  0.00000000000E+00  0.99999998245E-14  0.12500000000E+03  0.12500000000E+03 0.  0.
        -13    1    3    3    0    0  0.68631235402E+01 -0.48385423811E+02  0.27606250150E+02  0.56128138340E+02  0.10566000000E+00 0. -1.
         23    2    1    0    0    0  0.44323698959E+01 -0.29396236766E+02 -0.58752174138E+01  0.94696488346E+02  0.89716899670E+02 0.  0.
         13    1    3    3    0    0 -0.24307536443E+01  0.18989187045E+02 -0.33481467564E+02  0.38568350006E+02  0.10566000000E+00 0.  1.
         22    1    1    0    0    0 -0.44323698959E+01  0.29396236766E+02  0.58752174138E+01  0.30303511654E+02  0.00000000000E+00 0.  1.
</event>
<event>
 5    1  0.1668518E-003  0.9118800E+02  0.7818608E-02  0.1130116E+00
         25   -1    0    0    0    0  0.00000000000E+00  0.00000000000E+00  0.99999998245E-14  0.12500000000E+03  0.12500000000E+03 0.  0.
        -13    1    3    3    0    0 -0.26888622385E+02 -0.18102521367E+02 -0.52988163182E+02  0.62116470400E+02  0.10566000000E+00 0.  1.
         23    2    1    0    0    0 -0.12403403390E+02 -0.34355425773E+01 -0.25054584307E+02  0.96833005782E+02  0.92645838792E+02 0.  0.
         13    1    3    3    0    0  0.14485218995E+02  0.14666978790E+02  0.27933578874E+02  0.34716535382E+02  0.10566000000E+00 0. -1.
         22    1    1    0    0    0  0.12403403390E+02  0.34355425773E+01  0.25054584307E+02  0.28166994218E+02  0.00000000000E+00 0.  1.
</event>
<event>
 5    1  0.1668518E-003  0.9118800E+02  0.7818608E-02  0.1130116E+00
         25   -1    0    0    0    0  0.00000000000E+00  0.00000000000E+00  0.99999998245E-14  0.12500000000E+03  0.12500000000E+03 0.  0.
        -13    1    3    3    0    0  0.26608193776E+02  0.28367434979E+01  0.25161965366E+02  0.36731168710E+02  0.10566000000E+00 0.  1.
         23    2    1    0    0    0 -0.23465914427E+01  0.48480460273E+01 -0.27562183210E+02  0.96916481969E+02  0.92758398500E+02 0.  0.
         13    1    3    3    0    0 -0.28954785218E+02  0.20113025294E+01 -0.52724148577E+02  0.60185313259E+02  0.10566000000E+00 0. -1.
         22    1    1    0    0    0  0.23465914427E+01 -0.48480460273E+01  0.27562183210E+02  0.28083518031E+02  0.00000000000E+00 0. -1.
</event>
<event>
 5    1  0.1668518E-003  0.9118800E+02  0.7818608E-02  0.1130116E+00
         25   -1    0    0    0    0  0.00000000000E+00  0.00000000000E+00  0.99999998245E-14  0.12500000000E+03  0.12500000000E+03 0.  0.
        -13    1    3    3    0    0  0.15202503403E+02  0.27369301584E+01 -0.58468488862E+02  0.60474641382E+02  0.10566000000E+00 0. -1.
         23    2    1    0    0    0  0.18544761527E+02 -0.19719065668E+00 -0.27071911316E+02  0.92184829018E+02  0.86146429146E+02 0.  0.
         13    1    3    3    0    0  0.33422581240E+01 -0.29341208151E+01  0.31396577546E+02  0.31710187637E+02  0.10566000000E+00 0.  1.
         22    1    1    0    0    0 -0.18544761527E+02  0.19719065668E+00  0.27071911316E+02  0.32815170982E+02  0.00000000000E+00 0. -1.
</event>
<event>
 5    1  0.1668518E-003  0.9118800E+02  0.7818608E-02  0.1130116E+00
         25   -1    0    0    0    0  0.00000000000E+00  0.00000000000E+00  0.99999998245E-14  0.12500000000E+03  0.12500000000E+03 0.  0.
        -13    1    3    3    0    0  0.13477123545E+02  0.11708113065E+02  0.40311124102E+02  0.44087534077E+02  0.10566000000E+00 0.  1.
         23    2    1    0    0    0  0.82003202826E+01  0.34135041111E+01 -0.18903969644E+02  0.10411322592E+03  0.10199660034E+03 0.  0.
         13    1    3    3    0    0 -0.52768032626E+01 -0.82946089535E+01 -0.59215093745E+02  0.60025691847E+02  0.10566000000E+00 0. -1.
         22    1    1    0    0    0 -0.82003202826E+01 -0.34135041111E+01  0.18903969644E+02  0.20886774077E+02  0.00000000000E+00 0. -1.
</event>
<event>
 5    1  0.1668518E-003  0.9118800E+02  0.7818608E-02  0.1130116E+00
         25   -1    0    0    0    0  0.00000000000E+00  0.00000000000E+00  0.99999998245E-14  0.12500000000E+03  0.12500000000E+03 0.  0.
        -13    1    3    3    0    0  0.98835999365E+01 -0.46416068147E+02 -0.11641979546E+02  0.48863931297E+02  0.10566000000E+00 0. -1.
         23    2    1    0    0    0  0.17164474710E+02 -0.13000243618E+01 -0.23303520947E+02  0.96028231951E+02  0.91553579873E+02 0.  0.
         13    1    3    3    0    0  0.72808747733E+01  0.45116043786E+02 -0.11661541400E+02  0.47164300654E+02  0.10566000000E+00 0.  1.
         22    1    1    0    0    0 -0.17164474710E+02  0.13000243618E+01  0.23303520947E+02  0.28971768049E+02  0.00000000000E+00 0. -1.
</event>
<event>
 5    1  0.1668518E-003  0.9118800E+02  0.7818608E-02  0.1130116E+00
         25   -1    0    0    0    0  0.00000000000E+00  0.00000000000E+00  0.99999998245E-14  0.12500000000E+03  0.12500000000E+03 0.  0.
        -13    1    3    3    0    0 -0.32708926739E+02 -0.13300801011E+02 -0.10417388835E+02  0.36814648581E+02  0.10566000000E+00 0.  1.
         23    2    1    0    0    0  0.24035517310E+02 -0.14261466970E+02  0.70162750313E+01  0.96184662976E+02  0.91766909854E+02 0.  0.
         13    1    3    3    0    0  0.56744444049E+02 -0.96066595903E+00  0.17433663867E+02  0.59370014395E+02  0.10566000000E+00 0. -1.
         22    1    1    0    0    0 -0.24035517310E+02  0.14261466970E+02 -0.70162750313E+01  0.28815337024E+02  0.00000000000E+00 0. -1.
</event>
<event>
 5    1  0.1668518E-003  0.9118800E+02  0.7818608E-02  0.1130116E+00
         25   -1    0    0    0    0  0.00000000000E+00  0.00000000000E+00  0.99999998245E-14  0.12500000000E+03  0.12500000000E+03 0.  0.
        -13    1    3    3    0    0  0.32922719681E+02 -0.27185195251E+02  0.17212331089E+02  0.46034941268E+02  0.10566000000E+00 0.  1.
         23    2    1    0    0    0 -0.13118935847E+02 -0.22915896239E+01  0.22720037534E+02  0.98664511276E+02  0.95084845370E+02 0.  0.
         13    1    3    3    0    0 -0.46041655529E+02  0.24893605627E+02  0.55077064454E+01  0.52629570008E+02  0.10566000000E+00 0. -1.
         22    1    1    0    0    0  0.13118935847E+02  0.22915896239E+01 -0.22720037534E+02  0.26335488724E+02  0.00000000000E+00 0.  1.
</event>
<event>
 5    1  0.1668518E-003  0.9118800E+02  0.7818608E-02  0.1130116E+00
         25   -1    0    0    0    0  0.00000000000E+00  0.00000000000E+00  0.99999998245E-14  0.12500000000E+03  0.12500000000E+03 0.  0.
        -13    1    3    3    0    0  0.27755323086E+02  0.94355715438E+01  0.50009067753E+02  0.57968146353E+02  0.10566000000E+00 0. -1.
         23    2    1    0    0    0  0.28513918291E+01  0.18026804689E+02  0.21880105173E+02  0.96507279438E+02  0.92205313618E+02 0.  0.
         13    1    3    3    0    0 -0.24903931257E+02  0.85912331454E+01 -0.28128962581E+02  0.38539133085E+02  0.10566000000E+00 0.  1.
         22    1    1    0    0    0 -0.28513918291E+01 -0.18026804689E+02 -0.21880105173E+02  0.28492720562E+02  0.00000000000E+00 0. -1.
</event>
<event>
 5    1  0.1668518E-003  0.9118800E+02  0.7818608E-02  0.1130116E+00
         25   -1    0    0    0    0  0.00000000000E+00  0.00000000000E+00  0.99999998245E-14  0.12500000000E+03  0.12500000000E+03 0.  0.
        -13    1    3    3    0    0  0.25062914524E+02 -0.16555834909E+02  0.45004180210E+02  0.54107603480E+02  0.10566000000E+00 0.  1.
         23    2    1    0    0    0  0.26171199220E+02 -0.12374613886E+02  0.34963881513E+01  0.95840310915E+02  0.91296646864E+02 0.  0.
         13    1    3    3    0    0  0.11082846962E+01  0.41812210223E+01 -0.41507792059E+02  0.41732707435E+02  0.10566000000E+00 0. -1.
         22    1    1    0    0    0 -0.26171199220E+02  0.12374613886E+02 -0.34963881513E+01  0.29159689085E+02  0.00000000000E+00 0.  1.
</event>
<event>
 5    1  0.1668518E-003  0.9118800E+02  0.7818608E-02  0.1130116E+00
         25   -1    0    0    0    0  0.00000000000E+00  0.00000000000E+00  0.99999998245E-14  0.12500000000E+03  0.12500000000E+03 0.  0.
        -13    1    3    3    0    0  0.43749281930E+02 -0.24810034851E+02 -0.29064545702E+02  0.58088694938E+02  0.10566000000E+00 0. -1.
         23    2    1    0    0    0  0.26578841056E+02  0.29691171471E+01 -0.74984520787E+01  0.97224521028E+02  0.93172583183E+02 0.  0.
         13    1    3    3    0    0 -0.17170440874E+02  0.27779151998E+02  0.21566093624E+02  0.39135826090E+02  0.10566000000E+00 0.  1.
         22    1    1    0    0    0 -0.26578841056E+02 -0.29691171471E+01  0.74984520787E+01  0.27775478972E+02  0.00000000000E+00 0. -1.
</event>
<event>
 5    1  0.1668518E-003  0.9118800E+02  0.7818608E-02  0.1130116E+00
         25   -1    0    0    0    0  0.00000000000E+00  0.00000000000E+00  0.99999998245E-14  0.12500000000E+03  0.12500000000E+03 0.  0.
        -13    1    3    3    0    0 -0.12275016765E+02  0.12677827590E+02  0.33876109323E+02  0.38196927833E+02  0.10566000000E+00 0. -1.
         23    2    1    0    0    0  0.27775065734E+02  0.12258247818E+02 -0.52513291075E+01  0.94189362657E+02  0.89007531503E+02 0.  0.
         13    1    3    3    0    0  0.40050082499E+02 -0.41957977212E+00 -0.39127438430E+02  0.55992434824E+02  0.10566000000E+00 0.  1.
         22    1    1    0    0    0 -0.27775065734E+02 -0.12258247818E+02  0.52513291075E+01  0.30810637343E+02  0.00000000000E+00 0.  1.
</event>
<event>
 5    1  0.1668518E-003  0.9118800E+02  0.7818608E-02  0.1130116E+00
         25   -1    0    0    0    0  0.00000000000E+00  0.00000000000E+00  0.99999998245E-14  0.12500000000E+03  0.12500000000E+03 0.  0.
        -13    1    3    3    0    0  0.19791188477E+01 -0.29420691176E+02  0.12253640795E+01  0.29512821991E+02  0.10566000000E+00 0.  1.
         23    2    1    0    0    0 -0.13814249792E+02  0.27769512458E+02 -0.14307377938E+02  0.90843296662E+02  0.84177337600E+02 0.  0.
         13    1    3    3    0    0 -0.15793368639E+02  0.57190203634E+02 -0.15532742018E+02  0.61330474671E+02  0.10566000000E+00 0. -1.
         22    1    1    0    0    0  0.13814249792E+02 -0.27769512458E+02  0.14307377938E+02  0.34156703338E+02  0.00000000000E+00 0. -1.
</event>
<event>
 5    1  0.1668518E-003  0.9118800E+02  0.7818608E-02  0.1130116E+00
         25   -1    0    0    0    0  0.00000000000E+00  0.00000000000E+00  0.99999998245E-14  0.12500000000E+03  0.12500000000E+03 0.  0.
        -13    1    3    3    0    0 -0.21953568940E+02 -0.26851940843E+02  0.23024291217E+02  0.41630698604E+02  0.10566000000E+00 0. -1.
         23    2    1    0    0    0 -0.66530395421E+01 -0.12268868908E+02 -0.26262809420E+02  0.95259064607E+02  0.90497326766E+02 0.  0.
         13    1    3    3    0    0  0.15300529398E+02  0.14583071934E+02 -0.49287100637E+02  0.53628366002E+02  0.10566000000E+00 0.  1.
         22    1    1    0    0    0  0.66530395421E+01  0.12268868908E+02  0.26262809420E+02  0.29740935393E+02  0.00000000000E+00 0. -1.
</event>
<event>
 5    1  0.1668518E-003  0.9118800E+02  0.7818608E-02  0.1130116E+00
         25   -1    0    0    0    0  0.00000000000E+00  0.00000000000E+00  0.99999998245E-14  0.12500000000E+03  0.12500000000E+03 0.  0.
        -13    1    3    3    0    0  0.26975404009E+02 -0.17826097395E+02  0.38385419595E+01  0.32560524231E+02  0.10566000000E+00 0. -1.
         23    2    1    0    0    0 -0.48507050598E+01  0.29712037576E+02 -0.13018061331E+02  0.92200542118E+02  0.86169226117E+02 0.  0.
         13    1    3    3    0    0 -0.31826109069E+02  0.47538134972E+02 -0.16856603291E+02  0.59640017887E+02  0.10566000000E+00 0.  1.
         22    1    1    0    0    0  0.48507050598E+01 -0.29712037576E+02  0.13018061331E+02  0.32799457882E+02  0.00000000000E+00 0.  1.
</event>
<event>
 5    1  0.1668518E-003  0.9118800E+02  0.7818608E-02  0.1130116E+00
         25   -1    0    0    0    0  0.00000000000E+00  0.00000000000E+00  0.99999998245E-14  0.12500000000E+03  0.12500000000E+03 0.  0.
        -13    1    3    3    0    0  0.29579088364E+02  0.10917808473E+02  0.10136982064E+02  0.33119338455E+02  0.10566000000E+00 0. -1.
         23    2    1    0    0    0  0.60173883705E+01 -0.34174019882E+02 -0.11554335727E+02  0.88427123824E+02  0.80509508482E+02 0.  0.
         13    1    3    3    0    0 -0.23561699993E+02 -0.45091828355E+02 -0.21691317791E+02  0.55307785369E+02  0.10566000000E+00 0.  1.
         22    1    1    0    0    0 -0.60173883705E+01  0.34174019882E+02  0.11554335727E+02  0.36572876176E+02  0.00000000000E+00 0.  1.
</event>
<event>
 5    1  0.1668518E-003  0.9118800E+02  0.7818608E-02  0.1130116E+00
         25   -1    0    0    0    0  0.00000000000E+00  0.00000000000E+00  0.99999998245E-14  0.12500000000E+03  0.12500000000E+03 0.  0.
        -13    1    3    3    0    0 -0.17765838422E+02  0.47821929549E+02 -0.95012005723E+00  0.51024267293E+02  0.10566000000E+00 0. -1.
         23    2    1    0    0    0 -0.89120855357E+01  0.11446553777E+02  0.24664265578E+02  0.96385757769E+02  0.92040422871E+02 0.  0.
         13    1    3    3    0    0  0.88537528864E+01 -0.36375375772E+02  0.25614385635E+02  0.45361490476E+02  0.10566000000E+00 0.  1.
         22    1    1    0    0    0  0.89120855357E+01 -0.11446553777E+02 -0.24664265578E+02  0.28614242231E+02  0.00000000000E+00 0. -1.
</event>
<event>
 5    1  0.1668518E-003  0.9118800E+02  0.7818608E-02  0.1130116E+00
         25   -1    0    0    0    0  0.00000000000E+00  0.00000000000E+00  0.99999998245E-14  0.12500000000E+03  0.12500000000E+03 0.  0.
        -13    1    3    3    0    0  0.35025651208E+02  0.18454985485E+01  0.18950234339E+02  0.39866334833E+02  0.10566000000E+00 0.  1.
         23    2    1    0    0    0 -0.18243997374E+02  0.12063067464E+02  0.21717587285E+02  0.94177692586E+02  0.88991140832E+02 0.  0.
         13    1    3    3    0    0 -0.53269648583E+02  0.10217568915E+02  0.27673529465E+01  0.54311357753E+02  0.10566000000E+00 0. -1.
         22    1    1    0    0    0  0.18243997374E+02 -0.12063067464E+02 -0.21717587285E+02  0.30822307414E+02  0.00000000000E+00 0. -1.
</event>
<event>
 5    1  0.1668518E-003  0.9118800E+02  0.7818608E-02  0.1130116E+00
         25   -1    0    0    0    0  0.00000000000E+00  0.00000000000E+00  0.99999998245E-14  0.12500000000E+03  0.12500000000E+03 0.  0.
        -13    1    3    3    0    0  0.14308114447E+01 -0.38831461151E+02 -0.18972248313E+01  0.38904244275E+02  0.10566000000E+00 0.  1.
         23    2    1    0    0    0  0.22438802393E+02  0.13823541691E+02  0.99662441864E+01  0.96823481746E+02  0.92632987842E+02 0.  0.
         13    1    3    3    0    0  0.21007990948E+02  0.52655002843E+02  0.11863469018E+02  0.57919237471E+02  0.10566000000E+00 0. -1.
         22    1    1    0    0    0 -0.22438802393E+02 -0.13823541691E+02 -0.99662441864E+01  0.28176518254E+02  0.00000000000E+00 0. -1.
</event>
<event>
 5    1  0.1668518E-003  0.9118800E+02  0.7818608E-02  0.1130116E+00
         25   -1    0    0    0    0  0.00000000000E+00  0.00000000000E+00  0.99999998245E-14  0.12500000000E+03  0.12500000000E+03 0.  0.
        -13    1    3    3    0    0  0.17935583014E+02  0.47463734115E+02  0.27790180172E+02  0.57851503630E+02  0.10566000000E+00 0.  1.
         23    2    1    0    0    0 -0.83038894535E+01  0.25792130058E+02  0.12312070781E+02  0.95238016869E+02  0.90468249775E+02 0.  0.
         13    1    3    3    0    0 -0.26239472468E+02 -0.21671604058E+02 -0.15478109392E+02  0.37386513239E+02  0.10566000000E+00 0. -1.
         22    1    1    0    0    0  0.83038894535E+01 -0.25792130058E+02 -0.12312070781E+02  0.29761983131E+02  0.00000000000E+00 0.  1.
</event>
<event>
 5    1  0.1668518E-003  0.9118800E+02  0.7818608E-02  0.1130116E+00
         25   -1    0    0    0    0  0.00000000000E+00  0.00000000000E+00  0.99999998245E-14  0.12500000000E+03  0.12500000000E+03 0.  0.
        -13    1    3    3    0    0  0.50927328191E+01 -0.98944095436E+01 -0.50310057255E+02  0.51526190358E+02  0.10566000000E+00 0. -1.
         23    2    1    0    0    0 -0.15663190299E+02  0.14618985240E+02 -0.19888507003E+02  0.95766406814E+02  0.91195403960E+02 0.  0.
         13    1    3    3    0    0 -0.20755923118E+02  0.24513394784E+02  0.30421550252E+02  0.44240216456E+02  0.10566000000E+00 0.  1.
         22    1    1    0    0    0  0.15663190299E+02 -0.14618985240E+02  0.19888507003E+02  0.29233593186E+02  0.00000000000E+00 0. -1.
</event>
<event>
 5    1  0.1668518E-003  0.9118800E+02  0.7818608E-02  0.1130116E+00
         25   -1    0    0    0    0  0.00000000000E+00  0.00000000000E+00  0.99999998245E-14  0.12500000000E+03  0.12500000000E+03 0.  0.
        -13    1    3    3    0    0  0.47116171661E+01  0.36982413638E+02  0.82291218852E+01  0.38178892936E+02  0.10566000000E+00 0. -1.
         23    2    1    0    0    0  0.17432305396E+02 -0.94787861996E+01 -0.22253526830E+02  0.95184699975E+02  0.90394551792E+02 0.  0.
         13    1    3    3    0    0  0.12720688230E+02 -0.46461199838E+02 -0.30482648715E+02  0.57005807038E+02  0.10566000000E+00 0.  1.
         22    1    1    0    0    0 -0.17432305396E+02  0.94787861996E+01  0.22253526830E+02  0.29815300025E+02  0.00000000000E+00 0.  1.
</event>
<event>
 5    1  0.1668518E-003  0.9118800E+02  0.7818608E-02  0.1130116E+00
         25   -1    0    0    0    0  0.00000000000E+00  0.00000000000E+00  0.99999998245E-14  0.12500000000E+03  0.12500000000E+03 0.  0.
        -13    1    3    3    0    0 -0.26432354074E+02  0.23630688652E+02 -0.11639514680E+02  0.37317130839E+02  0.10566000000E+00 0.  1.
         23    2    1    0    0    0  0.25432686504E+02  0.22346440382E+02  0.23862903704E+01  0.91060652301E+02  0.84499485650E+02 0.  0.
         13    1    3    3    0    0  0.51865040578E+02 -0.12842482708E+01  0.14025805050E+02  0.53743521461E+02  0.10566000000E+00 0. -1.
         22    1    1    0    0    0 -0.25432686504E+02 -0.22346440382E+02 -0.23862903704E+01  0.33939347699E+02  0.00000000000E+00 0. -1.
</event>
<event>
 5    1  0.1668518E-003  0.9118800E+02  0.7818608E-02  0.1130116E+00
         25   -1    0    0    0    0  0.00000000000E+00  0.00000000000E+00  0.99999998245E-14  0.12500000000E+03  0.12500000000E+03 0.  0.
        -13    1    3    3    0    0 -0.34512178953E+01 -0.42045703513E+02 -0.31826440953E+02  0.52845866410E+02  0.10566000000E+00 0. -1.
         23    2    1    0    0    0  0.21402457318E+02 -0.19503264525E+02 -0.54276479957E+01  0.95539825711E+02  0.90884302428E+02 0.  0.
         13    1    3    3    0    0  0.24853675213E+02  0.22542438988E+02  0.26398792958E+02  0.42693959301E+02  0.10566000000E+00 0.  1.
         22    1    1    0    0    0 -0.21402457318E+02  0.19503264525E+02  0.54276479957E+01  0.29460174289E+02  0.00000000000E+00 0. -1.
</event>
<event>
 5    1  0.1668518E-003  0.9118800E+02  0.7818608E-02  0.1130116E+00
         25   -1    0    0    0    0  0.00000000000E+00  0.00000000000E+00  0.99999998245E-14  0.12500000000E+03  0.12500000000E+03 0.  0.
        -13    1    3    3    0    0  0.47360699071E+02  0.33370463989E+02  0.50388818520E+01  0.58155181865E+02  0.10566000000E+00 0.  1.
         23    2    1    0    0    0  0.15598616985E+02  0.17465120824E+02 -0.13234703799E+02  0.98101957657E+02  0.94342405175E+02 0.  0.
         13    1    3    3    0    0 -0.31762082086E+02 -0.15905343165E+02 -0.18273585651E+02  0.39946775793E+02  0.10566000000E+00 0. -1.
         22    1    1    0    0    0 -0.15598616985E+02 -0.17465120824E+02  0.13234703799E+02  0.26898042343E+02  0.00000000000E+00 0. -1.
</event>
<event>
 5    1  0.1668518E-003  0.9118800E+02  0.7818608E-02  0.1130116E+00
         25   -1    0    0    0    0  0.00000000000E+00  0.00000000000E+00  0.99999998245E-14  0.12500000000E+03  0.12500000000E+03 0.  0.
        -13    1    3    3    0    0  0.41345383191E+02 -0.41735755101E+02  0.30834040105E+01  0.58828840796E+02  0.10566000000E+00 0.  1.
         23    2    1    0    0    0  0.75386982747E+01 -0.27590405807E+02  0.66078986797E+01  0.95644816654E+02  0.91028589815E+02 0.  0.
         13    1    3    3    0    0 -0.33806684916E+02  0.14145349294E+02  0.35244946692E+01  0.36815975858E+02  0.10566000000E+00 0. -1.
         22    1    1    0    0    0 -0.75386982747E+01  0.27590405807E+02 -0.66078986797E+01  0.29355183346E+02  0.00000000000E+00 0.  1.
</event>
<event>
 5    1  0.1668518E-003  0.9118800E+02  0.7818608E-02  0.1130116E+00
         25   -1    0    0    0    0  0.00000000000E+00  0.00000000000E+00  0.99999998245E-14  0.12500000000E+03  0.12500000000E+03 0.  0.
        -13    1    3    3    0    0  0.16500317653E+02 -0.34106410467E+02 -0.21337197969E+01  0.37948275874E+02  0.10566000000E+00 0.  1.
         23    2    1    0    0    0 -0.40708713603E+01  0.16275875664E+02 -0.23256037811E+02  0.96323887695E+02  0.91956358800E+02 0.  0.
         13    1    3    3    0    0 -0.20571189013E+02  0.50382286131E+02 -0.21122318014E+02  0.58375611821E+02  0.10566000000E+00 0. -1.
         22    1    1    0    0    0  0.40708713603E+01 -0.16275875664E+02  0.23256037811E+02  0.28676112305E+02  0.00000000000E+00 0. -1.
</event>
<event>
 5    1  0.1668518E-003  0.9118800E+02  0.7818608E-02  0.1130116E+00
         25   -1    0    0    0    0  0.00000000000E+00  0.00000000000E+00  0.99999998245E-14  0.12500000000E+03  0.12500000000E+03 0.  0.
        -13    1    3    3    0    0 -0.20622433325E+01  0.31938798602E+01  0.35079348698E+02  0.35284920082E+02  0.10566000000E+00 0.  1.
         23    2    1    0    0    0  0.12118384514E+02  0.14821104668E+02 -0.22350169770E+02  0.95571264459E+02  0.90927532215E+02 0.  0.
         13    1    3    3    0    0  0.14180627847E+02  0.11627224808E+02 -0.57429518467E+02  0.60286344377E+02  0.10566000000E+00 0. -1.
         22    1    1    0    0    0 -0.12118384514E+02 -0.14821104668E+02  0.22350169770E+02  0.29428735541E+02  0.00000000000E+00 0. -1.
</event>
<event>
 5    1  0.1668518E-003  0.9118800E+02  0.7818608E-02  0.1130116E+00
         25   -1    0    0    0    0  0.00000000000E+00  0.00000000000E+00  0.99999998245E-14  0.12500000000E+03  0.12500000000E+03 0.  0.
        -13    1    3    3    0    0  0.42733086906E+02  0.22047736283E+02  0.44813273670E+01  0.48294025000E+02  0.10566000000E+00 0.  1.
         23    2    1    0    0    0  0.10616891712E+01  0.14643858949E+02  0.25519269968E+02  0.95558482911E+02  0.90909959453E+02 0.  0.
         13    1    3    3    0    0 -0.41671397734E+02 -0.74038773344E+01  0.21037942601E+02  0.47264457911E+02  0.10566000000E+00 0. -1.
         22    1    1    0    0    0 -0.10616891712E+01 -0.14643858949E+02 -0.25519269968E+02  0.29441517089E+02  0.00000000000E+00 0. -1.
</event>
<event>
 5    1  0.1668518E-003  0.9118800E+02  0.7818608E-02  0.1130116E+00
         25   -1    0    0    0    0  0.00000000000E+00  0.00000000000E+00  0.99999998245E-14  0.12500000000E+03  0.12500000000E+03 0.  0.
        -13    1    3    3    0    0 -0.29610265248E+02 -0.37230351492E+02  0.32954330723E+02  0.57869387052E+02  0.10566000000E+00 0. -1.
         23    2    1    0    0    0 -0.20474389002E+01 -0.21440648299E+02  0.27451176755E+02  0.90107873226E+02  0.83078085598E+02 0.  0.
         13    1    3    3    0    0  0.27562826348E+02  0.15789703193E+02 -0.55031539682E+01  0.32238486175E+02  0.10566000000E+00 0.  1.
         22    1    1    0    0    0  0.20474389002E+01  0.21440648299E+02 -0.27451176755E+02  0.34892126774E+02  0.00000000000E+00 0. -1.
</event>
<event>
 5    1  0.1668518E-003  0.9118800E+02  0.7818608E-02  0.1130116E+00
         25   -1    0    0    0    0  0.00000000000E+00  0.00000000000E+00  0.99999998245E-14  0.12500000000E+03  0.12500000000E+03 0.  0.
        -13    1    3    3    0    0  0.33945815498E+02  0.25859563267E+02 -0.17807789658E+02  0.46240284804E+02  0.10566000000E+00 0.  1.
         23    2    1    0    0    0  0.17920172288E+02 -0.46790125888E+01  0.20221208032E+02  0.97578785805E+02  0.93646657448E+02 0.  0.
         13    1    3    3    0    0 -0.16025643210E+02 -0.30538575856E+02  0.38028997691E+02  0.51338501001E+02  0.10566000000E+00 0. -1.
         22    1    1    0    0    0 -0.17920172288E+02  0.46790125888E+01 -0.20221208032E+02  0.27421214195E+02  0.00000000000E+00 0. -1.
</event>
<event>
 5    1  0.1668518E-003  0.9118800E+02  0.7818608E-02  0.1130116E+00
         25   -1    0    0    0    0  0.00000000000E+00  0.00000000000E+00  0.99999998245E-14  0.12500000000E+03  0.12500000000E+03 0.  0.
        -13    1    3    3    0    0  0.26503253426E+02 -0.93242124859E+01 -0.43635475766E+02  0.51898259027E+02  0.10566000000E+00 0.  1.
         23    2    1    0    0    0  0.10313273902E+02  0.21245211580E+02 -0.13367652360E+02  0.97863000106E+02  0.94025262703E+02 0.  0.
         13    1    3    3    0    0 -0.16189979524E+02  0.30569424066E+02  0.30267823406E+02  0.45964741079E+02  0.10566000000E+00 0. -1.
         22    1    1    0    0    0 -0.10313273902E+02 -0.21245211580E+02  0.13367652360E+02  0.27136999894E+02  0.00000000000E+00 0.  1.
</event>
<event>
 5    1  0.1668518E-003  0.9118800E+02  0.7818608E-02  0.1130116E+00
         25   -1    0    0    0    0  0.00000000000E+00  0.00000000000E+00  0.99999998245E-14  0.12500000000E+03  0.12500000000E+03 0.  0.
        -13    1    3    3    0    0 -0.33914800062E+02 -0.15714247055E+02 -0.67133631407E+01  0.37976724878E+02  0.10566000000E+00 0. -1.
         23    2    1    0    0    0  0.30688567304E+01  0.20134144342E+02  0.20391448345E+02  0.96179645811E+02  0.91760075483E+02 0.  0.
         13    1    3    3    0    0  0.36983656793E+02  0.35848391396E+02  0.27104811485E+02  0.58202920933E+02  0.10566000000E+00 0.  1.
         22    1    1    0    0    0 -0.30688567304E+01 -0.20134144342E+02 -0.20391448345E+02  0.28820354189E+02  0.00000000000E+00 0.  1.
</event>
<event>
 5    1  0.1668518E-003  0.9118800E+02  0.7818608E-02  0.1130116E+00
         25   -1    0    0    0    0  0.00000000000E+00  0.00000000000E+00  0.99999998245E-14  0.12500000000E+03  0.12500000000E+03 0.  0.
        -13    1    3    3    0    0 -0.70114846668E+01  0.13738863368E+02 -0.40911779770E+02  0.43723016500E+02  0.10566000000E+00 0. -1.
         23    2    1    0    0    0  0.20988699427E+02 -0.17328430853E+02 -0.89920582320E+01  0.96335437720E+02  0.91972057876E+02 0.  0.
         13    1    3    3    0    0  0.28000184093E+02 -0.31067294221E+02  0.31919721538E+02  0.52612421220E+02  0.10566000000E+00 0.  1.
         22    1    1    0    0    0 -0.20988699427E+02  0.17328430853E+02  0.89920582320E+01  0.28664562280E+02  0.00000000000E+00 0.  1.
</event>
<event>
 5    1  0.1668518E-003  0.9118800E+02  0.7818608E-02  0.1130116E+00
         25   -1    0    0    0    0  0.00000000000E+00  0.00000000000E+00  0.99999998245E-14  0.12500000000E+03  0.12500000000E+03 0.  0.
        -13    1    3    3    0    0 -0.30013451962E+02 -0.36688573822E+02  0.35545680754E+02  0.59248336113E+02  0.10566000000E+00 0. -1.
         23    2    1    0    0    0 -0.17376343995E+02 -0.36272676380E+01  0.20968329087E+02  0.97527009157E+02  0.93577520213E+02 0.  0.
         13    1    3    3    0    0  0.12637107967E+02  0.33061306184E+02 -0.14577351667E+02  0.38278673044E+02  0.10566000000E+00 0.  1.
         22    1    1    0    0    0  0.17376343995E+02  0.36272676380E+01 -0.20968329087E+02  0.27472990843E+02  0.00000000000E+00 0. -1.
</event>
<event>
 5    1  0.1668518E-003  0.9118800E+02  0.7818608E-02  0.1130116E+00
         25   -1    0    0    0    0  0.00000000000E+00  0.00000000000E+00  0.99999998245E-14  0.12500000000E+03  0.12500000000E+03 0.  0.
        -13    1    3    3    0    0  0.37801164876E+02  0.25983732180E+02 -0.34518484610E+02  0.57407485119E+02  0.10566000000E+00 0.  1.
         23    2    1    0    0    0  0.46452999346E+01  0.24144504098E+02 -0.18213516880E+02  0.94401501887E+02  0.89304957711E+02 0.  0.
         13    1    3    3    0    0 -0.33155864941E+02 -0.18392280819E+01  0.16304967730E+02  0.36994016768E+02  0.10566000000E+00 0. -1.
         22    1    1    0    0    0 -0.46452999346E+01 -0.24144504098E+02  0.18213516880E+02  0.30598498113E+02  0.00000000000E+00 0.  1.
</event>
<event>
 5    1  0.1668518E-003  0.9118800E+02  0.7818608E-02  0.1130116E+00
         25   -1    0    0    0    0  0.00000000000E+00  0.00000000000E+00  0.99999998245E-14  0.12500000000E+03  0.12500000000E+03 0.  0.
        -13    1    3    3    0    0  0.32943672433E+02 -0.18151429761E+02  0.29435456101E+02  0.47762089523E+02  0.10566000000E+00 0. -1.
         23    2    1    0    0    0 -0.13671611635E+02 -0.14445434995E+02  0.22389054322E+02  0.95052490749E+02  0.90211544091E+02 0.  0.
         13    1    3    3    0    0 -0.46615284069E+02  0.37059947657E+01 -0.70464017783E+01  0.47290401225E+02  0.10566000000E+00 0.  1.
         22    1    1    0    0    0  0.13671611635E+02  0.14445434995E+02 -0.22389054322E+02  0.29947509251E+02  0.00000000000E+00 0.  1.
</event>
<event>
 5    1  0.1668518E-003  0.9118800E+02  0.7818608E-02  0.1130116E+00
         25   -1    0    0    0    0  0.00000000000E+00  0.00000000000E+00  0.99999998245E-14  0.12500000000E+03  0.12500000000E+03 0.  0.
        -13    1    3    3    0    0  0.24756634998E+02 -0.69254114655E+01  0.20620864495E+02  0.32955781237E+02  0.10566000000E+00 0. -1.
         23    2    1    0    0    0 -0.18762227847E+02  0.92726230068E+01 -0.21027466340E+02  0.95332558723E+02  0.90598784102E+02 0.  0.
         13    1    3    3    0    0 -0.43518862845E+02  0.16198034472E+02 -0.41648330836E+02  0.62376777486E+02  0.10566000000E+00 0.  1.
         22    1    1    0    0    0  0.18762227847E+02 -0.92726230068E+01  0.21027466340E+02  0.29667441277E+02  0.00000000000E+00 0.  1.
</event>
<event>
 5    1  0.1668518E-003  0.9118800E+02  0.7818608E-02  0.1130116E+00
         25   -1    0    0    0    0  0.00000000000E+00  0.00000000000E+00  0.99999998245E-14  0.12500000000E+03  0.12500000000E+03 0.  0.
        -13    1    3    3    0    0 -0.22587919834E+02  0.10388207017E+02 -0.26402909677E+02  0.36266427600E+02  0.10566000000E+00 0. -1.
         23    2    1    0    0    0  0.16818669227E+02 -0.23763936580E+02  0.23095177773E+01  0.95795099919E+02  0.91234724638E+02 0.  0.
         13    1    3    3    0    0  0.39406589061E+02 -0.34152143597E+02  0.28712427454E+02  0.59528672319E+02  0.10566000000E+00 0.  1.
         22    1    1    0    0    0 -0.16818669227E+02  0.23763936580E+02 -0.23095177773E+01  0.29204900081E+02  0.00000000000E+00 0.  1.
</event>
<event>
 5    1  0.1668518E-003  0.9118800E+02  0.7818608E-02  0.1130116E+00
         25   -1    0    0    0    0  0.00000000000E+00  0.00000000000E+00  0.99999998245E-14  0.12500000000E+03  0.12500000000E+03 0.  0.
        -13    1    3    3    0    0 -0.17595249439E+02  0.18754594825E+02 -0.33895143035E+02  0.42546674550E+02  0.10566000000E+00 0.  1.
         23    2    1    0    0    0 -0.53466376809E+01 -0.27033300625E+02 -0.15451983243E+02  0.93406493336E+02  0.87901213496E+02 0.  0.
         13    1    3    3    0    0  0.12248611758E+02 -0.45787895450E+02  0.18443159793E+02  0.50859818786E+02  0.10566000000E+00 0. -1.
         22    1    1    0    0    0  0.53466376809E+01  0.27033300625E+02  0.15451983243E+02  0.31593506664E+02  0.00000000000E+00 0. -1.
</event>
<event>
 5    1  0.1668518E-003  0.9118800E+02  0.7818608E-02  0.1130116E+00
         25   -1    0    0    0    0  0.00000000000E+00  0.00000000000E+00  0.99999998245E-14  0.12500000000E+03  0.12500000000E+03 0.  0.
        -13    1    3    3    0    0  0.37442197219E+02 -0.35702277048E+02 -0.17260619139E+02  0.54539076415E+02  0.10566000000E+00 0.  1.
         23    2    1    0    0    0  0.28370980428E+02 -0.32428994534E+01  0.64220535080E+01  0.95731045482E+02  0.91146921893E+02 0.  0.
         13    1    3    3    0    0 -0.90712167914E+01  0.32459377595E+02  0.23682672647E+02  0.41191969068E+02  0.10566000000E+00 0. -1.
         22    1    1    0    0    0 -0.28370980428E+02  0.32428994534E+01 -0.64220535080E+01  0.29268954518E+02  0.00000000000E+00 0.  1.
</event>
<event>
 5    1  0.1668518E-003  0.9118800E+02  0.7818608E-02  0.1130116E+00
         25   -1    0    0    0    0  0.00000000000E+00  0.00000000000E+00  0.99999998245E-14  0.12500000000E+03  0.12500000000E+03 0.  0.
        -13    1    3    3    0    0  0.27419720476E+02  0.12259819258E+02 -0.10110485819E+02  0.31691912640E+02  0.10566000000E+00 0.  1.
         23    2    1    0    0    0 -0.16481316854E+02 -0.23367673976E+02  0.14005667481E+02  0.93159134530E+02  0.87548750034E+02 0.  0.
         13    1    3    3    0    0 -0.43901037330E+02 -0.35627493235E+02  0.24116153300E+02  0.61467221890E+02  0.10566000000E+00 0. -1.
         22    1    1    0    0    0  0.16481316854E+02  0.23367673976E+02 -0.14005667481E+02  0.31840865470E+02  0.00000000000E+00 0. -1.
</event>
<event>
 5    1  0.1668518E-003  0.9118800E+02  0.7818608E-02  0.1130116E+00
         25   -1    0    0    0    0  0.00000000000E+00  0.00000000000E+00  0.99999998245E-14  0.12500000000E+03  0.12500000000E+03 0.  0.
        -13    1    3    3    0    0 -0.17197590361E+02  0.18972858557E+02 -0.33922074287E+02  0.42502291280E+02  0.10566000000E+00 0. -1.
         23    2    1    0    0    0 -0.26125129910E+02 -0.38866630691E+01  0.13080368095E+02  0.95525865710E+02  0.90865100162E+02 0.  0.
         13    1    3    3    0    0 -0.89275395491E+01 -0.22859521626E+02  0.47002442383E+02  0.53023574430E+02  0.10566000000E+00 0.  1.
         22    1    1    0    0    0  0.26125129910E+02  0.38866630691E+01 -0.13080368095E+02  0.29474134290E+02  0.00000000000E+00 0.  1.
</event>
<event>
 5    1  0.1668518E-003  0.9118800E+02  0.7818608E-02  0.1130116E+00
         25   -1    0    0    0    0  0.00000000000E+00  0.00000000000E+00  0.99999998245E-14  0.12500000000E+03  0.12500000000E+03 0.  0.
        -13    1    3    3    0    0  0.52869295211E+01 -0.27386652073E+02 -0.38734876858E+02  0.47732401833E+02  0.10566000000E+00 0. -1.
         23    2    1    0    0    0  0.23285850840E+02 -0.16633659600E+02  0.47348342920E+01  0.95994343021E+02  0.91507298918E+02 0.  0.
         13    1    3    3    0    0  0.17998921318E+02  0.10752992473E+02  0.43469711150E+02  0.48261941188E+02  0.10566000000E+00 0.  1.
         22    1    1    0    0    0 -0.23285850840E+02  0.16633659600E+02 -0.47348342920E+01  0.29005656979E+02  0.00000000000E+00 0. -1.
</event>
<event>
 5    1  0.1668518E-003  0.9118800E+02  0.7818608E-02  0.1130116E+00
         25   -1    0    0    0    0  0.00000000000E+00  0.00000000000E+00  0.99999998245E-14  0.12500000000E+03  0.12500000000E+03 0.  0.
        -13    1    3    3    0    0  0.31995805254E+02 -0.36674848223E+02 -0.19206655057E+02  0.52322870798E+02  0.10566000000E+00 0. -1.
         23    2    1    0    0    0  0.30326858963E+01 -0.31094967689E+02  0.83207404378E+01  0.92668453165E+02  0.86845341217E+02 0.  0.
         13    1    3    3    0    0 -0.28963119358E+02  0.55798805343E+01  0.27527395495E+02  0.40345582366E+02  0.10566000000E+00 0.  1.
         22    1    1    0    0    0 -0.30326858963E+01  0.31094967689E+02 -0.83207404378E+01  0.32331546835E+02  0.00000000000E+00 0. -1.
</event>
<event>
 5    1  0.1668518E-003  0.9118800E+02  0.7818608E-02  0.1130116E+00
         25   -1    0    0    0    0  0.00000000000E+00  0.00000000000E+00  0.99999998245E-14  0.12500000000E+03  0.12500000000E+03 0.  0.
        -13    1    3    3    0    0  0.11901904597E+02 -0.36540871149E+02 -0.12385136292E+02  0.40376891440E+02  0.10566000000E+00 0. -1.
         23    2    1    0    0    0 -0.28902967696E+02 -0.29613396516E+00 -0.72796677886E+01  0.95192906883E+02  0.90405899812E+02 0.  0.
         13    1    3    3    0    0 -0.40804872293E+02  0.36244737184E+02  0.51054685036E+01  0.54816015443E+02  0.10566000000E+00 0.  1.
         22    1    1    0    0    0  0.28902967696E+02  0.29613396516E+00  0.72796677886E+01  0.29807093117E+02  0.00000000000E+00 0.  1.
</event>
<event>
 5    1  0.1668518E-003  0.9118800E+02  0.7818608E-02  0.1130116E+00
         25   -1    0    0    0    0  0.00000000000E+00  0.00000000000E+00  0.99999998245E-14  0.12500000000E+03  0.12500000000E+03 0.  0.
        -13    1    3    3    0    0 -0.89808700432E+01 -0.31228121878E+02  0.16534897266E+01  0.32536084815E+02  0.10566000000E+00 0.  1.
         23    2    1    0    0    0  0.80191865934E+01  0.28694090025E+02 -0.33229112822E+01  0.95021676242E+02  0.90168836415E+02 0.  0.
         13    1    3    3    0    0  0.17000056637E+02  0.59922211903E+02 -0.49764010089E+01  0.62485591427E+02  0.10566000000E+00 0. -1.
         22    1    1    0    0    0 -0.80191865934E+01 -0.28694090025E+02  0.33229112822E+01  0.29978323758E+02  0.00000000000E+00 0. -1.
</event>
<event>
 5    1  0.1668518E-003  0.9118800E+02  0.7818608E-02  0.1130116E+00
         25   -1    0    0    0    0  0.00000000000E+00  0.00000000000E+00  0.99999998245E-14  0.12500000000E+03  0.12500000000E+03 0.  0.
        -13    1    3    3    0    0  0.20783142749E+02 -0.17474927557E+02  0.27468155351E+02  0.38624122489E+02  0.10566000000E+00 0. -1.
         23    2    1    0    0    0 -0.12383157098E+02  0.24733215301E+02  0.46531504491E+01  0.96951357824E+02  0.92805384843E+02 0.  0.
         13    1    3    3    0    0 -0.33166299848E+02  0.42208142858E+02 -0.22815004902E+02  0.58327235334E+02  0.10566000000E+00 0.  1.
         22    1    1    0    0    0  0.12383157098E+02 -0.24733215301E+02 -0.46531504491E+01  0.28048642176E+02  0.00000000000E+00 0.  1.
</event>
<event>
 5    1  0.1668518E-003  0.9118800E+02  0.7818608E-02  0.1130116E+00
         25   -1    0    0    0    0  0.00000000000E+00  0.00000000000E+00  0.99999998245E-14  0.12500000000E+03  0.12500000000E+03 0.  0.
        -13    1    3    3    0    0  0.43017129777E+01  0.33700517409E+02  0.74701209858E+01  0.34785679233E+02  0.10566000000E+00 0.  1.
         23    2    1    0    0    0 -0.26008265729E+02 -0.10579528260E+02  0.20776538270E+02  0.90071203185E+02  0.83022893206E+02 0.  0.
         13    1    3    3    0    0 -0.30309978707E+02 -0.44280045669E+02  0.13306417285E+02  0.55285523952E+02  0.10566000000E+00 0. -1.
         22    1    1    0    0    0  0.26008265729E+02  0.10579528260E+02 -0.20776538270E+02  0.34928796815E+02  0.00000000000E+00 0. -1.
</event>
<event>
 5    1  0.1668518E-003  0.9118800E+02  0.7818608E-02  0.1130116E+00
         25   -1    0    0    0    0  0.00000000000E+00  0.00000000000E+00  0.99999998245E-14  0.12500000000E+03  0.12500000000E+03 0.  0.
        -13    1    3    3    0    0  0.69590053862E+01  0.33181738551E+02  0.16724343695E+02  0.37804369659E+02  0.10566000000E+00 0.  1.
         23    2    1    0    0    0 -0.25639302922E+01 -0.38337344360E+01 -0.27992634042E+02  0.96629966182E+02  0.92371486647E+02 0.  0.
         13    1    3    3    0    0 -0.95229356784E+01 -0.37015472987E+02 -0.44716977736E+02  0.58825596523E+02  0.10566000000E+00 0. -1.
         22    1    1    0    0    0  0.25639302922E+01  0.38337344360E+01  0.27992634042E+02  0.28370033818E+02  0.00000000000E+00 0. -1.
</event>
<event>
 5    1  0.1668518E-003  0.9118800E+02  0.7818608E-02  0.1130116E+00
         25   -1    0    0    0    0  0.00000000000E+00  0.00000000000E+00  0.99999998245E-14  0.12500000000E+03  0.12500000000E+03 0.  0.
        -13    1    3    3    0    0  0.10092696673E+02  0.32115335870E+02 -0.50557066298E+02  0.60739488316E+02  0.10566000000E+00 0.  1.
         23    2    1    0    0    0  0.14545786892E+02  0.11415569555E+02 -0.23894607816E+02  0.94786634956E+02  0.89842410581E+02 0.  0.
         13    1    3    3    0    0  0.44530902184E+01 -0.20699766315E+02  0.26662458482E+02  0.34047146640E+02  0.10566000000E+00 0. -1.
         22    1    1    0    0    0 -0.14545786892E+02 -0.11415569555E+02  0.23894607816E+02  0.30213365044E+02  0.00000000000E+00 0.  1.
</event>
<event>
 5    1  0.1668518E-003  0.9118800E+02  0.7818608E-02  0.1130116E+00
         25   -1    0    0    0    0  0.00000000000E+00  0.00000000000E+00  0.99999998245E-14  0.12500000000E+03  0.12500000000E+03 0.  0.
        -13    1    3    3    0    0  0.12546035241E+02 -0.10106211111E+02  0.25402395669E+02  0.30080415108E+02  0.10566000000E+00 0. -1.
         23    2    1    0    0    0 -0.21001882149E+02 -0.22804328880E+02 -0.20123129931E+02  0.88039793998E+02  0.79905872747E+02 0.  0.
         13    1    3    3    0    0 -0.33547917391E+02 -0.12698117768E+02 -0.45525525601E+02  0.57959378890E+02  0.10566000000E+00 0.  1.
         22    1    1    0    0    0  0.21001882149E+02  0.22804328880E+02  0.20123129931E+02  0.36960206002E+02  0.00000000000E+00 0.  1.
</event>
<event>
 5    1  0.1668518E-003  0.9118800E+02  0.7818608E-02  0.1130116E+00
         25   -1    0    0    0    0  0.00000000000E+00  0.00000000000E+00  0.99999998245E-14  0.12500000000E+03  0.12500000000E+03 0.  0.
        -13    1    3    3    0    0 -0.14547796774E+01  0.78822919476E+01 -0.37426371049E+02  0.38275205084E+02  0.10566000000E+00 0.  1.
         23    2    1    0    0    0  0.16143424043E+02 -0.27400888984E+02  0.79309286061E+00  0.93187300441E+02  0.87588955412E+02 0.  0.
         13    1    3    3    0    0  0.17598203721E+02 -0.35283180932E+02  0.38219463910E+02  0.54912095357E+02  0.10566000000E+00 0. -1.
         22    1    1    0    0    0 -0.16143424043E+02  0.27400888984E+02 -0.79309286061E+00  0.31812699559E+02  0.00000000000E+00 0. -1.
</event>
<event>
 5    1  0.1668518E-003  0.9118800E+02  0.7818608E-02  0.1130116E+00
         25   -1    0    0    0    0  0.00000000000E+00  0.00000000000E+00  0.99999998245E-14  0.12500000000E+03  0.12500000000E+03 0.  0.
        -13    1    3    3    0    0 -0.70614192004E+01 -0.28046781415E+02  0.17311013936E+02  0.33707090596E+02  0.10566000000E+00 0.  1.
         23    2    1    0    0    0 -0.38706214286E+01  0.30404585898E+02  0.16434149644E+01  0.94306004388E+02  0.89171189837E+02 0.  0.
         13    1    3    3    0    0  0.31907977718E+01  0.58451367313E+02 -0.15667598972E+02  0.60598913792E+02  0.10566000000E+00 0. -1.
         22    1    1    0    0    0  0.38706214286E+01 -0.30404585898E+02 -0.16434149644E+01  0.30693995612E+02  0.00000000000E+00 0. -1.
</event>
<event>
 5    1  0.1668518E-003  0.9118800E+02  0.7818608E-02  0.1130116E+00
         25   -1    0    0    0    0  0.00000000000E+00  0.00000000000E+00  0.99999998245E-14  0.12500000000E+03  0.12500000000E+03 0.  0.
        -13    1    3    3    0    0 -0.32146281118E+02  0.20490951277E+02  0.11016853354E+02  0.39681793001E+02  0.10566000000E+00 0. -1.
         23    2    1    0    0    0 -0.61018166804E+01 -0.17321715172E+02 -0.22079394460E+02  0.96281127407E+02  0.91898214628E+02 0.  0.
         13    1    3    3    0    0  0.26044464437E+02 -0.37812666449E+02 -0.33096247813E+02  0.56599334406E+02  0.10566000000E+00 0.  1.
         22    1    1    0    0    0  0.61018166804E+01  0.17321715172E+02  0.22079394460E+02  0.28718872593E+02  0.00000000000E+00 0.  1.
</event>
<event>
 5    1  0.1668518E-003  0.9118800E+02  0.7818608E-02  0.1130116E+00
         25   -1    0    0    0    0  0.00000000000E+00  0.00000000000E+00  0.99999998245E-14  0.12500000000E+03  0.12500000000E+03 0.  0.
        -13    1    3    3    0    0 -0.31861323136E+01 -0.43722790372E+01  0.53806788953E+02  0.54078183814E+02  0.10566000000E+00 0.  1.
         23    2    1    0    0    0  0.12780971089E+02  0.15713178044E+02  0.19841081025E+02  0.96646416762E+02  0.92393745408E+02 0.  0.
         13    1    3    3    0    0  0.15967103403E+02  0.20085457081E+02 -0.33965707928E+02  0.42568232948E+02  0.10566000000E+00 0. -1.
         22    1    1    0    0    0 -0.12780971089E+02 -0.15713178044E+02 -0.19841081025E+02  0.28353583238E+02  0.00000000000E+00 0. -1.
</event>
<event>
 5    1  0.1668518E-003  0.9118800E+02  0.7818608E-02  0.1130116E+00
         25   -1    0    0    0    0  0.00000000000E+00  0.00000000000E+00  0.99999998245E-14  0.12500000000E+03  0.12500000000E+03 0.  0.
        -13    1    3    3    0    0 -0.64697107064E+01  0.22755041992E+02 -0.23701900094E+02  0.33487913115E+02  0.10566000000E+00 0.  1.
         23    2    1    0    0    0  0.68538974619E+01 -0.23976633461E+02  0.15252634865E+02  0.95768206814E+02  0.91197871157E+02 0.  0.
         13    1    3    3    0    0  0.13323608168E+02 -0.46731675453E+02  0.38954534959E+02  0.62280293699E+02  0.10566000000E+00 0. -1.
         22    1    1    0    0    0 -0.68538974619E+01  0.23976633461E+02 -0.15252634865E+02  0.29231793186E+02  0.00000000000E+00 0. -1.
</event>
<event>
 5    1  0.1668518E-003  0.9118800E+02  0.7818608E-02  0.1130116E+00
         25   -1    0    0    0    0  0.00000000000E+00  0.00000000000E+00  0.99999998245E-14  0.12500000000E+03  0.12500000000E+03 0.  0.
        -13    1    3    3    0    0 -0.53689645318E+01 -0.76471592862E+01  0.36828412939E+02  0.37995367994E+02  0.10566000000E+00 0. -1.
         23    2    1    0    0    0  0.11246025677E+02  0.32875293116E+02  0.12646144063E+02  0.88024562874E+02  0.79882042528E+02 0.  0.
         13    1    3    3    0    0  0.16614990209E+02  0.40522452402E+02 -0.24182268876E+02  0.50029194880E+02  0.10566000000E+00 0.  1.
         22    1    1    0    0    0 -0.11246025677E+02 -0.32875293116E+02 -0.12646144063E+02  0.36975437126E+02  0.00000000000E+00 0. -1.
</event>
<event>
 5    1  0.1668518E-003  0.9118800E+02  0.7818608E-02  0.1130116E+00
         25   -1    0    0    0    0  0.00000000000E+00  0.00000000000E+00  0.99999998245E-14  0.12500000000E+03  0.12500000000E+03 0.  0.
        -13    1    3    3    0    0  0.31001522946E+02  0.12238117012E+02 -0.49177613726E+02  0.59408036399E+02  0.10566000000E+00 0.  1.
         23    2    1    0    0    0  0.17616794972E+02 -0.78317492728E+01 -0.21693928548E+02  0.95977348542E+02  0.91484081323E+02 0.  0.
         13    1    3    3    0    0 -0.13384727974E+02 -0.20069866285E+02  0.27483685178E+02  0.36569312143E+02  0.10566000000E+00 0. -1.
         22    1    1    0    0    0 -0.17616794972E+02  0.78317492728E+01  0.21693928548E+02  0.29022651458E+02  0.00000000000E+00 0.  1.
</event>
<event>
 5    1  0.1668518E-003  0.9118800E+02  0.7818608E-02  0.1130116E+00
         25   -1    0    0    0    0  0.00000000000E+00  0.00000000000E+00  0.99999998245E-14  0.12500000000E+03  0.12500000000E+03 0.  0.
        -13    1    3    3    0    0  0.27070521528E+02  0.24772095813E+02 -0.42083519187E+01  0.36934959817E+02  0.10566000000E+00 0. -1.
         23    2    1    0    0    0  0.92266561485E+01 -0.26266980241E+02  0.13804624793E+02  0.93925040622E+02  0.88635546794E+02 0.  0.
         13    1    3    3    0    0 -0.17843865379E+02 -0.51039076054E+02  0.18012976711E+02  0.56990080805E+02  0.10566000000E+00 0.  1.
         22    1    1    0    0    0 -0.92266561485E+01  0.26266980241E+02 -0.13804624793E+02  0.31074959378E+02  0.00000000000E+00 0.  1.
</event>
<event>
 5    1  0.1668518E-003  0.9118800E+02  0.7818608E-02  0.1130116E+00
         25   -1    0    0    0    0  0.00000000000E+00  0.00000000000E+00  0.99999998245E-14  0.12500000000E+03  0.12500000000E+03 0.  0.
        -13    1    3    3    0    0  0.13477199110E+02 -0.61541093889E+01  0.34157786883E+02  0.37232694329E+02  0.10566000000E+00 0.  1.
         23    2    1    0    0    0  0.10488929773E+02  0.13856064794E+02 -0.22023307032E+02  0.96945869609E+02  0.92797992447E+02 0.  0.
         13    1    3    3    0    0 -0.29882693372E+01  0.20010174183E+02 -0.56181093915E+02  0.59713175280E+02  0.10566000000E+00 0. -1.
         22    1    1    0    0    0 -0.10488929773E+02 -0.13856064794E+02  0.22023307032E+02  0.28054130391E+02  0.00000000000E+00 0. -1.
</event>
<event>
 5    1  0.1668518E-003  0.9118800E+02  0.7818608E-02  0.1130116E+00
         25   -1    0    0    0    0  0.00000000000E+00  0.00000000000E+00  0.99999998245E-14  0.12500000000E+03  0.12500000000E+03 0.  0.
        -13    1    3    3    0    0 -0.50612820606E+02  0.14315312682E+02 -0.16335430019E+01  0.52623810330E+02  0.10566000000E+00 0.  1.
         23    2    1    0    0    0 -0.11584167637E+02  0.22069484651E+02  0.15173928659E+02  0.95819472185E+02  0.91268110785E+02 0.  0.
         13    1    3    3    0    0  0.39028652969E+02  0.77541719690E+01  0.16807471661E+02  0.43195661855E+02  0.10566000000E+00 0. -1.
         22    1    1    0    0    0  0.11584167637E+02 -0.22069484651E+02 -0.15173928659E+02  0.29180527815E+02  0.00000000000E+00 0.  1.
</event>
<event>
 5    1  0.1668518E-003  0.9118800E+02  0.7818608E-02  0.1130116E+00
         25   -1    0    0    0    0  0.00000000000E+00  0.00000000000E+00  0.99999998245E-14  0.12500000000E+03  0.12500000000E+03 0.  0.
        -13    1    3    3    0    0  0.20389163860E+02  0.32769314430E+02 -0.58888216469E+01  0.39041456883E+02  0.10566000000E+00 0. -1.
         23    2    1    0    0    0  0.14494376014E+02 -0.17590160923E+02  0.18816907727E+02  0.95443668804E+02  0.90751954255E+02 0.  0.
         13    1    3    3    0    0 -0.58947878463E+01 -0.50359475353E+02  0.24705729374E+02  0.56402211921E+02  0.10566000000E+00 0.  1.
         22    1    1    0    0    0 -0.14494376014E+02  0.17590160923E+02 -0.18816907727E+02  0.29556331196E+02  0.00000000000E+00 0. -1.
</event>
<event>
 5    1  0.1668518E-003  0.9118800E+02  0.7818608E-02  0.1130116E+00
         25   -1    0    0    0    0  0.00000000000E+00  0.00000000000E+00  0.99999998245E-14  0.12500000000E+03  0.12500000000E+03 0.  0.
        -13    1    3    3    0    0  0.32609690519E+02  0.21563033286E+02  0.83354887686E+01  0.39973089164E+02  0.10566000000E+00 0.  1.
         23    2    1    0    0    0  0.34585768402E+01 -0.26887230358E+02 -0.32665895582E+01  0.97695137476E+02  0.93801835638E+02 0.  0.
         13    1    3    3    0    0 -0.29151113679E+02 -0.48450263644E+02 -0.11602078327E+02  0.57722048313E+02  0.10566000000E+00 0. -1.
         22    1    1    0    0    0 -0.34585768402E+01  0.26887230358E+02  0.32665895582E+01  0.27304862524E+02  0.00000000000E+00 0. -1.
</event>
<event>
 5    1  0.1668518E-003  0.9118800E+02  0.7818608E-02  0.1130116E+00
         25   -1    0    0    0    0  0.00000000000E+00  0.00000000000E+00  0.99999998245E-14  0.12500000000E+03  0.12500000000E+03 0.  0.
        -13    1    3    3    0    0 -0.12207791629E+02  0.39794021886E+02  0.30810266558E+02  0.51786852035E+02  0.10566000000E+00 0.  1.
         23    2    1    0    0    0 -0.16950479709E+00  0.28120341948E+02 -0.93967308908E+01  0.95350701280E+02  0.90623812102E+02 0.  0.
         13    1    3    3    0    0  0.12038286831E+02 -0.11673679938E+02 -0.40206997449E+02  0.43563849245E+02  0.10566000000E+00 0. -1.
         22    1    1    0    0    0  0.16950479709E+00 -0.28120341948E+02  0.93967308908E+01  0.29649298720E+02  0.00000000000E+00 0.  1.
</event>
<event>
 5    1  0.1668518E-003  0.9118800E+02  0.7818608E-02  0.1130116E+00
         25   -1    0    0    0    0  0.00000000000E+00  0.00000000000E+00  0.99999998245E-14  0.12500000000E+03  0.12500000000E+03 0.  0.
        -13    1    3    3    0    0  0.59571092565E+01  0.26535430991E+01  0.57162668612E+02  0.57533557934E+02  0.10566000000E+00 0.  1.
         23    2    1    0    0    0 -0.13605898218E+02 -0.52630844284E+01  0.26357854154E+02  0.94874313293E+02  0.89964316944E+02 0.  0.
         13    1    3    3    0    0 -0.19563007474E+02 -0.79166275275E+01 -0.30804814459E+02  0.37340755358E+02  0.10566000000E+00 0. -1.
         22    1    1    0    0    0  0.13605898218E+02  0.52630844284E+01 -0.26357854154E+02  0.30125686707E+02  0.00000000000E+00 0.  1.
</event>
<event>
 5    1  0.1668518E-003  0.9118800E+02  0.7818608E-02  0.1130116E+00
         25   -1    0    0    0    0  0.00000000000E+00  0.00000000000E+00  0.99999998245E-14  0.12500000000E+03  0.12500000000E+03 0.  0.
        -13    1    3    3    0    0  0.42875005685E+02 -0.12611315673E+02  0.26397313587E+02  0.51905112697E+02  0.10566000000E+00 0.  1.
         23    2    1    0    0    0  0.38228360632E+01 -0.22778998573E+02 -0.28270399532E+01  0.10173008366E+03  0.99032928439E+02 0.  0.
         13    1    3    3    0    0 -0.39052169621E+02 -0.10167682900E+02 -0.29224353540E+02  0.49824970964E+02  0.10566000000E+00 0. -1.
         22    1    1    0    0    0 -0.38228360632E+01  0.22778998573E+02  0.28270399532E+01  0.23269916339E+02  0.00000000000E+00 0.  1.
</event>
<event>
 5    1  0.1668518E-003  0.9118800E+02  0.7818608E-02  0.1130116E+00
         25   -1    0    0    0    0  0.00000000000E+00  0.00000000000E+00  0.99999998245E-14  0.12500000000E+03  0.12500000000E+03 0.  0.
        -13    1    3    3    0    0 -0.27021455554E+02 -0.82186225307E+01  0.42341963961E+02  0.50897523443E+02  0.10566000000E+00 0.  1.
         23    2    1    0    0    0 -0.21152289017E+02 -0.20048517085E+02 -0.62629117445E+00  0.95849449258E+02  0.91309157889E+02 0.  0.
         13    1    3    3    0    0  0.58691665374E+01 -0.11829894554E+02 -0.42968255135E+02  0.44951925814E+02  0.10566000000E+00 0. -1.
         22    1    1    0    0    0  0.21152289017E+02  0.20048517085E+02  0.62629117445E+00  0.29150550742E+02  0.00000000000E+00 0.  1.
</event>
<event>
 5    1  0.1668518E-003  0.9118800E+02  0.7818608E-02  0.1130116E+00
         25   -1    0    0    0    0  0.00000000000E+00  0.00000000000E+00  0.99999998245E-14  0.12500000000E+03  0.12500000000E+03 0.  0.
        -13    1    3    3    0    0  0.40870028137E+02 -0.15691056030E+02  0.18659398897E+01  0.43818504482E+02  0.10566000000E+00 0. -1.
         23    2    1    0    0    0  0.30620279186E+01  0.11397232117E+02  0.26166968389E+02  0.96294893319E+02  0.91916937121E+02 0.  0.
         13    1    3    3    0    0 -0.37808000219E+02  0.27088288147E+02  0.24301028499E+02  0.52476388838E+02  0.10566000000E+00 0.  1.
         22    1    1    0    0    0 -0.30620279186E+01 -0.11397232117E+02 -0.26166968389E+02  0.28705106681E+02  0.00000000000E+00 0.  1.
</event>
<event>
 5    1  0.1668518E-003  0.9118800E+02  0.7818608E-02  0.1130116E+00
         25   -1    0    0    0    0  0.00000000000E+00  0.00000000000E+00  0.99999998245E-14  0.12500000000E+03  0.12500000000E+03 0.  0.
        -13    1    3    3    0    0 -0.10066267063E+02  0.53785919089E+01 -0.55820651509E+02  0.56975567416E+02  0.10566000000E+00 0.  1.
         23    2    1    0    0    0  0.88817195393E+01 -0.10557217870E+02 -0.24293364969E+02  0.97062437962E+02  0.92954878787E+02 0.  0.
         13    1    3    3    0    0  0.18947986602E+02 -0.15935809779E+02  0.31527286539E+02  0.40086870546E+02  0.10566000000E+00 0. -1.
         22    1    1    0    0    0 -0.88817195393E+01  0.10557217870E+02  0.24293364969E+02  0.27937562038E+02  0.00000000000E+00 0.  1.
</event>
<event>
 5    1  0.1668518E-003  0.9118800E+02  0.7818608E-02  0.1130116E+00
         25   -1    0    0    0    0  0.00000000000E+00  0.00000000000E+00  0.99999998245E-14  0.12500000000E+03  0.12500000000E+03 0.  0.
        -13    1    3    3    0    0 -0.27416480629E+02 -0.10336630770E+02  0.36714439774E+02  0.46973083758E+02  0.10566000000E+00 0.  1.
         23    2    1    0    0    0 -0.77556952569E+01 -0.29800150076E+02 -0.15231770049E+01  0.94169498518E+02  0.88979630419E+02 0.  0.
         13    1    3    3    0    0  0.19660785373E+02 -0.19463519306E+02 -0.38237616779E+02  0.47196414760E+02  0.10566000000E+00 0. -1.
         22    1    1    0    0    0  0.77556952569E+01  0.29800150076E+02  0.15231770049E+01  0.30830501482E+02  0.00000000000E+00 0.  1.
</event>
<event>
 5    1  0.1668518E-003  0.9118800E+02  0.7818608E-02  0.1130116E+00
         25   -1    0    0    0    0  0.00000000000E+00  0.00000000000E+00  0.99999998245E-14  0.12500000000E+03  0.12500000000E+03 0.  0.
        -13    1    3    3    0    0 -0.32397194540E+02 -0.10730504446E+02  0.11958359851E+02  0.36162625376E+02  0.10566000000E+00 0. -1.
         23    2    1    0    0    0  0.15328211289E+02  0.24319460507E+02  0.55544882057E+01  0.95721295113E+02  0.91133549136E+02 0.  0.
         13    1    3    3    0    0  0.47725405829E+02  0.35049964952E+02 -0.64038716458E+01  0.59558669737E+02  0.10566000000E+00 0.  1.
         22    1    1    0    0    0 -0.15328211289E+02 -0.24319460507E+02 -0.55544882057E+01  0.29278704887E+02  0.00000000000E+00 0.  1.
</event>
<event>
 5    1  0.1668518E-003  0.9118800E+02  0.7818608E-02  0.1130116E+00
         25   -1    0    0    0    0  0.00000000000E+00  0.00000000000E+00  0.99999998245E-14  0.12500000000E+03  0.12500000000E+03 0.  0.
        -13    1    3    3    0    0  0.24059411584E+02 -0.20998080650E+02  0.46240097743E+02  0.56195484517E+02  0.10566000000E+00 0.  1.
         23    2    1    0    0    0  0.76671660284E+01  0.87510625874E+01  0.27842133025E+02  0.94824664000E+02  0.89895305773E+02 0.  0.
         13    1    3    3    0    0 -0.16392245555E+02  0.29749143238E+02 -0.18397964718E+02  0.38629179483E+02  0.10566000000E+00 0. -1.
         22    1    1    0    0    0 -0.76671660284E+01 -0.87510625874E+01 -0.27842133025E+02  0.30175336000E+02  0.00000000000E+00 0.  1.
</event>
<event>
 5    1  0.1668518E-003  0.9118800E+02  0.7818608E-02  0.1130116E+00
         25   -1    0    0    0    0  0.00000000000E+00  0.00000000000E+00  0.99999998245E-14  0.12500000000E+03  0.12500000000E+03 0.  0.
        -13    1    3    3    0    0 -0.15593475338E+02  0.30475242960E+02 -0.26112410894E+01  0.34332588755E+02  0.10566000000E+00 0.  1.
         23    2    1    0    0    0 -0.16228842770E+02 -0.21815451369E+02 -0.21916543648E+02  0.90076882419E+02  0.83031443471E+02 0.  0.
         13    1    3    3    0    0 -0.63536743271E+00 -0.52290694329E+02 -0.19305302558E+02  0.55744293664E+02  0.10566000000E+00 0. -1.
         22    1    1    0    0    0  0.16228842770E+02  0.21815451369E+02  0.21916543648E+02  0.34923117581E+02  0.00000000000E+00 0. -1.
</event>
<event>
 5    1  0.1668518E-003  0.9118800E+02  0.7818608E-02  0.1130116E+00
         25   -1    0    0    0    0  0.00000000000E+00  0.00000000000E+00  0.99999998245E-14  0.12500000000E+03  0.12500000000E+03 0.  0.
        -13    1    3    3    0    0 -0.32445285675E+02  0.14061035277E+01 -0.23718106752E+02  0.40214841062E+02  0.10566000000E+00 0.  1.
         23    2    1    0    0    0 -0.87370480397E+01  0.10431001035E+02  0.25788181220E+02  0.95842289499E+02  0.91299355828E+02 0.  0.
         13    1    3    3    0    0  0.23708237635E+02  0.90248975073E+01  0.49506287972E+02  0.55627448437E+02  0.10566000000E+00 0. -1.
         22    1    1    0    0    0  0.87370480397E+01 -0.10431001035E+02 -0.25788181220E+02  0.29157710501E+02  0.00000000000E+00 0. -1.
</event>
<event>
 5    1  0.1668518E-003  0.9118800E+02  0.7818608E-02  0.1130116E+00
         25   -1    0    0    0    0  0.00000000000E+00  0.00000000000E+00  0.99999998245E-14  0.12500000000E+03  0.12500000000E+03 0.  0.
        -13    1    3    3    0    0 -0.36678983468E+02  0.20575965715E+02  0.26911302777E+02  0.49929425938E+02  0.10566000000E+00 0.  1.
         23    2    1    0    0    0 -0.17618566511E+02 -0.12684872484E+01 -0.15632370862E+02  0.10141199532E+03  0.98630618122E+02 0.  0.
         13    1    3    3    0    0  0.19060416956E+02 -0.21844452964E+02 -0.42543673639E+02  0.51482569386E+02  0.10566000000E+00 0. -1.
         22    1    1    0    0    0  0.17618566511E+02  0.12684872484E+01  0.15632370862E+02  0.23588004676E+02  0.00000000000E+00 0. -1.
</event>
<event>
 5    1  0.1668518E-003  0.9118800E+02  0.7818608E-02  0.1130116E+00
         25   -1    0    0    0    0  0.00000000000E+00  0.00000000000E+00  0.99999998245E-14  0.12500000000E+03  0.12500000000E+03 0.  0.
        -13    1    3    3    0    0  0.32950740601E+02 -0.38684566518E+02  0.37200892818E+01  0.50951910868E+02  0.10566000000E+00 0. -1.
         23    2    1    0    0    0  0.29214732642E+02  0.36313750999E+01  0.10030181155E+02  0.93898681339E+02  0.88598365305E+02 0.  0.
         13    1    3    3    0    0 -0.37360079588E+01  0.42315941618E+02  0.63100918727E+01  0.42946770471E+02  0.10566000000E+00 0.  1.
         22    1    1    0    0    0 -0.29214732642E+02 -0.36313750999E+01 -0.10030181155E+02  0.31101318661E+02  0.00000000000E+00 0. -1.
</event>
<event>
 5    1  0.1668518E-003  0.9118800E+02  0.7818608E-02  0.1130116E+00
         25   -1    0    0    0    0  0.00000000000E+00  0.00000000000E+00  0.99999998245E-14  0.12500000000E+03  0.12500000000E+03 0.  0.
        -13    1    3    3    0    0 -0.30134238929E+01 -0.31703642099E+02 -0.13748812522E+02  0.34687788279E+02  0.10566000000E+00 0.  1.
         23    2    1    0    0    0  0.12778186342E+02  0.21084208411E+02  0.14282448147E+02  0.96507646366E+02  0.92205811051E+02 0.  0.
         13    1    3    3    0    0  0.15791610235E+02  0.52787850510E+02  0.28031260669E+02  0.61819858088E+02  0.10566000000E+00 0. -1.
         22    1    1    0    0    0 -0.12778186342E+02 -0.21084208411E+02 -0.14282448147E+02  0.28492353634E+02  0.00000000000E+00 0. -1.
</event>
<event>
 5    1  0.1668518E-003  0.9118800E+02  0.7818608E-02  0.1130116E+00
         25   -1    0    0    0    0  0.00000000000E+00  0.00000000000E+00  0.99999998245E-14  0.12500000000E+03  0.12500000000E+03 0.  0.
        -13    1    3    3    0    0  0.48765466087E+02 -0.14663941933E+02 -0.34788632350E+02  0.61671403263E+02  0.10566000000E+00 0.  1.
         23    2    1    0    0    0  0.23504918937E+02 -0.97468772930E+01 -0.92564130844E+01  0.97922998423E+02  0.94104992460E+02 0.  0.
         13    1    3    3    0    0 -0.25260547150E+02  0.49170646397E+01  0.25532219266E+02  0.36251595160E+02  0.10566000000E+00 0. -1.
         22    1    1    0    0    0 -0.23504918937E+02  0.97468772930E+01  0.92564130844E+01  0.27077001577E+02  0.00000000000E+00 0.  1.
</event>
<event>
 5    1  0.1668518E-003  0.9118800E+02  0.7818608E-02  0.1130116E+00
         25   -1    0    0    0    0  0.00000000000E+00  0.00000000000E+00  0.99999998245E-14  0.12500000000E+03  0.12500000000E+03 0.  0.
        -13    1    3    3    0    0 -0.30515651994E+02 -0.81466205477E+01  0.41986593284E+02  0.52540057315E+02  0.10566000000E+00 0.  1.
         23    2    1    0    0    0 -0.23504431087E+02 -0.20926864636E+02  0.39398697004E+01  0.93283844535E+02  0.87726627279E+02 0.  0.
         13    1    3    3    0    0  0.70112209072E+01 -0.12780244088E+02 -0.38046723584E+02  0.40743787220E+02  0.10566000000E+00 0. -1.
         22    1    1    0    0    0  0.23504431087E+02  0.20926864636E+02 -0.39398697004E+01  0.31716155465E+02  0.00000000000E+00 0. -1.
</event>
<event>
 5    1  0.1668518E-003  0.9118800E+02  0.7818608E-02  0.1130116E+00
         25   -1    0    0    0    0  0.00000000000E+00  0.00000000000E+00  0.99999998245E-14  0.12500000000E+03  0.12500000000E+03 0.  0.
        -13    1    3    3    0    0 -0.56628762182E+02  0.28055923982E+01 -0.16426421168E+02  0.59029878294E+02  0.10566000000E+00 0.  1.
         23    2    1    0    0    0 -0.21414336916E+02  0.10165001079E+02 -0.18299275103E+02  0.95053972855E+02  0.90213597721E+02 0.  0.
         13    1    3    3    0    0  0.35214425267E+02  0.73594086807E+01 -0.18728539354E+01  0.36024094561E+02  0.10566000000E+00 0. -1.
         22    1    1    0    0    0  0.21414336916E+02 -0.10165001079E+02  0.18299275103E+02  0.29946027145E+02  0.00000000000E+00 0.  1.
</event>
<event>
 5    1  0.1668518E-003  0.9118800E+02  0.7818608E-02  0.1130116E+00
         25   -1    0    0    0    0  0.00000000000E+00  0.00000000000E+00  0.99999998245E-14  0.12500000000E+03  0.12500000000E+03 0.  0.
        -13    1    3    3    0    0  0.17384324403E+02 -0.90391928782E+01  0.33776664681E+02  0.39048636133E+02  0.10566000000E+00 0. -1.
         23    2    1    0    0    0 -0.43664699503E+01 -0.23770413991E+02 -0.16473612239E+02  0.95751435226E+02  0.91174880349E+02 0.  0.
         13    1    3    3    0    0 -0.21750794354E+02 -0.14731221112E+02 -0.50250276920E+02  0.56702799094E+02  0.10566000000E+00 0.  1.
         22    1    1    0    0    0  0.43664699503E+01  0.23770413991E+02  0.16473612239E+02  0.29248564774E+02  0.00000000000E+00 0.  1.
</event>
<event>
 5    1  0.1668518E-003  0.9118800E+02  0.7818608E-02  0.1130116E+00
         25   -1    0    0    0    0  0.00000000000E+00  0.00000000000E+00  0.99999998245E-14  0.12500000000E+03  0.12500000000E+03 0.  0.
        -13    1    3    3    0    0  0.33663054466E+02 -0.26009358570E+02 -0.83200050784E+01  0.43346529477E+02  0.10566000000E+00 0.  1.
         23    2    1    0    0    0 -0.13677710987E+02 -0.20427427094E+02  0.14777724897E+02  0.96316542944E+02  0.91946374241E+02 0.  0.
         13    1    3    3    0    0 -0.47340765453E+02  0.55819314756E+01  0.23097729975E+02  0.52970013467E+02  0.10566000000E+00 0. -1.
         22    1    1    0    0    0  0.13677710987E+02  0.20427427094E+02 -0.14777724897E+02  0.28683457056E+02  0.00000000000E+00 0. -1.
</event>
<event>
 5    1  0.1668518E-003  0.9118800E+02  0.7818608E-02  0.1130116E+00
         25   -1    0    0    0    0  0.00000000000E+00  0.00000000000E+00  0.99999998245E-14  0.12500000000E+03  0.12500000000E+03 0.  0.
        -13    1    3    3    0    0 -0.10752266890E+02  0.25677686211E+02 -0.23444327548E+02  0.36395088551E+02  0.10566000000E+00 0.  1.
         23    2    1    0    0    0  0.16658425068E+01 -0.12508781624E+01  0.28615748751E+02  0.96308523844E+02  0.91935471723E+02 0.  0.
         13    1    3    3    0    0  0.12418109396E+02 -0.26928564373E+02  0.52060076300E+02  0.59913435292E+02  0.10566000000E+00 0. -1.
         22    1    1    0    0    0 -0.16658425068E+01  0.12508781624E+01 -0.28615748751E+02  0.28691476156E+02  0.00000000000E+00 0. -1.
</event>
<event>
 5    1  0.1668518E-003  0.9118800E+02  0.7818608E-02  0.1130116E+00
         25   -1    0    0    0    0  0.00000000000E+00  0.00000000000E+00  0.99999998245E-14  0.12500000000E+03  0.12500000000E+03 0.  0.
        -13    1    3    3    0    0  0.34798678882E+02 -0.13832619431E+02  0.22271103287E+02  0.43569514777E+02  0.10566000000E+00 0.  1.
         23    2    1    0    0    0  0.19108923493E+02  0.16448655047E+02 -0.16238516925E+02  0.95010024311E+02  0.90152682033E+02 0.  0.
         13    1    3    3    0    0 -0.15689755389E+02  0.30281274479E+02 -0.38509620212E+02  0.51440509534E+02  0.10566000000E+00 0. -1.
         22    1    1    0    0    0 -0.19108923493E+02 -0.16448655047E+02  0.16238516925E+02  0.29989975689E+02  0.00000000000E+00 0. -1.
</event>
<event>
 5    1  0.1668518E-003  0.9118800E+02  0.7818608E-02  0.1130116E+00
         25   -1    0    0    0    0  0.00000000000E+00  0.00000000000E+00  0.99999998245E-14  0.12500000000E+03  0.12500000000E+03 0.  0.
        -13    1    3    3    0    0 -0.29304601219E+02  0.14110504118E+02  0.20916812415E+02  0.38670275208E+02  0.10566000000E+00 0. -1.
         23    2    1    0    0    0  0.17477992981E+02 -0.25404440512E+01 -0.16487158752E+02  0.10083886389E+03  0.97901562660E+02 0.  0.
         13    1    3    3    0    0  0.46782594200E+02 -0.16650948169E+02 -0.37403971167E+02  0.62168588677E+02  0.10566000000E+00 0.  1.
         22    1    1    0    0    0 -0.17477992981E+02  0.25404440512E+01  0.16487158752E+02  0.24161136115E+02  0.00000000000E+00 0.  1.
</event>
<event>
 5    1  0.1668518E-003  0.9118800E+02  0.7818608E-02  0.1130116E+00
         25   -1    0    0    0    0  0.00000000000E+00  0.00000000000E+00  0.99999998245E-14  0.12500000000E+03  0.12500000000E+03 0.  0.
        -13    1    3    3    0    0  0.40206748271E+02  0.20170088004E+02  0.85201442964E+01  0.45782300941E+02  0.10566000000E+00 0. -1.
         23    2    1    0    0    0  0.14970401833E+02 -0.22163516989E+02  0.12984224408E+02  0.95269132205E+02  0.90511231630E+02 0.  0.
         13    1    3    3    0    0 -0.25236346438E+02 -0.42333604993E+02  0.44640801113E+01  0.49486831264E+02  0.10566000000E+00 0.  1.
         22    1    1    0    0    0 -0.14970401833E+02  0.22163516989E+02 -0.12984224408E+02  0.29730867795E+02  0.00000000000E+00 0. -1.
</event>
<event>
 5    1  0.1668518E-003  0.9118800E+02  0.7818608E-02  0.1130116E+00
         25   -1    0    0    0    0  0.00000000000E+00  0.00000000000E+00  0.99999998245E-14  0.12500000000E+03  0.12500000000E+03 0.  0.
        -13    1    3    3    0    0  0.19636787593E+02 -0.23386798218E+01  0.32243466499E+02  0.37824927576E+02  0.10566000000E+00 0.  1.
         23    2    1    0    0    0 -0.98301921564E+01  0.33190159023E+02  0.10659391847E+02  0.88780640973E+02  0.81056524989E+02 0.  0.
         13    1    3    3    0    0 -0.29466979749E+02  0.35528838844E+02 -0.21584074652E+02  0.50955713397E+02  0.10566000000E+00 0. -1.
         22    1    1    0    0    0  0.98301921564E+01 -0.33190159023E+02 -0.10659391847E+02  0.36219359027E+02  0.00000000000E+00 0. -1.
</event>
<event>
 5    1  0.1668518E-003  0.9118800E+02  0.7818608E-02  0.1130116E+00
         25   -1    0    0    0    0  0.00000000000E+00  0.00000000000E+00  0.99999998245E-14  0.12500000000E+03  0.12500000000E+03 0.  0.
        -13    1    3    3    0    0 -0.21929285186E+02 -0.29653438556E+02  0.88005241992E+01  0.37916755625E+02  0.10566000000E+00 0. -1.
         23    2    1    0    0    0 -0.11459891795E+02  0.26537660498E+02  0.77005794400E+01  0.95085530786E+02  0.90257313812E+02 0.  0.
         13    1    3    3    0    0  0.10469393391E+02  0.56191099054E+02 -0.10999447593E+01  0.57168775161E+02  0.10566000000E+00 0.  1.
         22    1    1    0    0    0  0.11459891795E+02 -0.26537660498E+02 -0.77005794400E+01  0.29914469214E+02  0.00000000000E+00 0.  1.
</event>
<event>
 5    1  0.1668518E-003  0.9118800E+02  0.7818608E-02  0.1130116E+00
         25   -1    0    0    0    0  0.00000000000E+00  0.00000000000E+00  0.99999998245E-14  0.12500000000E+03  0.12500000000E+03 0.  0.
        -13    1    3    3    0    0  0.28895685603E+02  0.35162104624E+02 -0.25693466843E+02  0.52263750827E+02  0.10566000000E+00 0. -1.
         23    2    1    0    0    0  0.24808546502E+02 -0.68419457421E+01 -0.11746647635E+02  0.96711134139E+02  0.92481260451E+02 0.  0.
         13    1    3    3    0    0 -0.40871391013E+01 -0.42004050366E+02  0.13946819209E+02  0.44447383311E+02  0.10566000000E+00 0.  1.
         22    1    1    0    0    0 -0.24808546502E+02  0.68419457421E+01  0.11746647635E+02  0.28288865861E+02  0.00000000000E+00 0.  1.
</event>
<event>
 5    1  0.1668518E-003  0.9118800E+02  0.7818608E-02  0.1130116E+00
         25   -1    0    0    0    0  0.00000000000E+00  0.00000000000E+00  0.99999998245E-14  0.12500000000E+03  0.12500000000E+03 0.  0.
        -13    1    3    3    0    0  0.36113675963E+02 -0.40354539002E+01  0.51612598335E+01  0.36703300218E+02  0.10566000000E+00 0.  1.
         23    2    1    0    0    0 -0.18713512629E+02 -0.80391619117E+01  0.22791127697E+02  0.94434346386E+02  0.89350918275E+02 0.  0.
         13    1    3    3    0    0 -0.54827188592E+02 -0.40037080115E+01  0.17629867863E+02  0.57731046168E+02  0.10566000000E+00 0. -1.
         22    1    1    0    0    0  0.18713512629E+02  0.80391619117E+01 -0.22791127697E+02  0.30565653614E+02  0.00000000000E+00 0. -1.
</event>
<event>
 5    1  0.1668518E-003  0.9118800E+02  0.7818608E-02  0.1130116E+00
         25   -1    0    0    0    0  0.00000000000E+00  0.00000000000E+00  0.99999998245E-14  0.12500000000E+03  0.12500000000E+03 0.  0.
        -13    1    3    3    0    0 -0.90616029684E+01  0.27605478066E+02 -0.15134608186E+02  0.32760381509E+02  0.10566000000E+00 0. -1.
         23    2    1    0    0    0  0.87271787865E+01 -0.19173432012E+02  0.21589223033E+02  0.94835804406E+02  0.89910795244E+02 0.  0.
         13    1    3    3    0    0  0.17788781755E+02 -0.46778910078E+02  0.36723831219E+02  0.62075422897E+02  0.10566000000E+00 0.  1.
         22    1    1    0    0    0 -0.87271787865E+01  0.19173432012E+02 -0.21589223033E+02  0.30164195594E+02  0.00000000000E+00 0.  1.
</event>
<event>
 5    1  0.1668518E-003  0.9118800E+02  0.7818608E-02  0.1130116E+00
         25   -1    0    0    0    0  0.00000000000E+00  0.00000000000E+00  0.99999998245E-14  0.12500000000E+03  0.12500000000E+03 0.  0.
        -13    1    3    3    0    0  0.26374853691E+02  0.25963900262E+02 -0.55650677503E+01  0.37426436741E+02  0.10566000000E+00 0.  1.
         23    2    1    0    0    0  0.24592034761E+01 -0.27037004733E+02 -0.10742205441E+02  0.95803385737E+02  0.91246076268E+02 0.  0.
         13    1    3    3    0    0 -0.23915650215E+02 -0.53000904994E+02 -0.51771376912E+01  0.58376948996E+02  0.10566000000E+00 0. -1.
         22    1    1    0    0    0 -0.24592034761E+01  0.27037004733E+02  0.10742205441E+02  0.29196614263E+02  0.00000000000E+00 0.  1.
</event>
<event>
 5    1  0.1668518E-003  0.9118800E+02  0.7818608E-02  0.1130116E+00
         25   -1    0    0    0    0  0.00000000000E+00  0.00000000000E+00  0.99999998245E-14  0.12500000000E+03  0.12500000000E+03 0.  0.
        -13    1    3    3    0    0 -0.29328846691E+02 -0.18682702015E+02  0.13584512909E+01  0.34800591328E+02  0.10566000000E+00 0.  1.
         23    2    1    0    0    0  0.16977741574E+02  0.22417209389E+02 -0.20100381735E+01  0.96807532226E+02  0.92611462879E+02 0.  0.
         13    1    3    3    0    0  0.46306588265E+02  0.41099911404E+02 -0.33684894644E+01  0.62006940898E+02  0.10566000000E+00 0. -1.
         22    1    1    0    0    0 -0.16977741574E+02 -0.22417209389E+02  0.20100381735E+01  0.28192467774E+02  0.00000000000E+00 0. -1.
</event>
<event>
 5    1  0.1668518E-003  0.9118800E+02  0.7818608E-02  0.1130116E+00
         25   -1    0    0    0    0  0.00000000000E+00  0.00000000000E+00  0.99999998245E-14  0.12500000000E+03  0.12500000000E+03 0.  0.
        -13    1    3    3    0    0 -0.71079656733E+01  0.39822064408E+01 -0.34839478829E+02  0.35779625393E+02  0.10566000000E+00 0.  1.
         23    2    1    0    0    0  0.18062514556E+02  0.14745844469E+02  0.18169080510E+02  0.95439725174E+02  0.90746522212E+02 0.  0.
         13    1    3    3    0    0  0.25170480229E+02  0.10763638028E+02  0.53008559339E+02  0.59660099781E+02  0.10566000000E+00 0. -1.
         22    1    1    0    0    0 -0.18062514556E+02 -0.14745844469E+02 -0.18169080510E+02  0.29560274826E+02  0.00000000000E+00 0. -1.
</event>
<event>
 5    1  0.1668518E-003  0.9118800E+02  0.7818608E-02  0.1130116E+00
         25   -1    0    0    0    0  0.00000000000E+00  0.00000000000E+00  0.99999998245E-14  0.12500000000E+03  0.12500000000E+03 0.  0.
        -13    1    3    3    0    0  0.17936785025E+02 -0.30661128211E+01 -0.53044836907E+02  0.56079365112E+02  0.10566000000E+00 0. -1.
         23    2    1    0    0    0  0.24044708814E+02 -0.77732787750E+01 -0.13537609289E+02  0.96332269882E+02  0.91967752340E+02 0.  0.
         13    1    3    3    0    0  0.61079237891E+01 -0.47071659539E+01  0.39507227618E+02  0.40252904770E+02  0.10566000000E+00 0.  1.
         22    1    1    0    0    0 -0.24044708814E+02  0.77732787750E+01  0.13537609289E+02  0.28667730118E+02  0.00000000000E+00 0. -1.
</event>
<event>
 5    1  0.1668518E-003  0.9118800E+02  0.7818608E-02  0.1130116E+00
         25   -1    0    0    0    0  0.00000000000E+00  0.00000000000E+00  0.99999998245E-14  0.12500000000E+03  0.12500000000E+03 0.  0.
        -13    1    3    3    0    0 -0.30799400087E+02  0.12545209327E+02  0.42638322573E+02  0.54074236367E+02  0.10566000000E+00 0. -1.
         23    2    1    0    0    0  0.70157911671E+01  0.12117185860E+02  0.26165095702E+02  0.95324088018E+02  0.90587096236E+02 0.  0.
         13    1    3    3    0    0  0.37815191254E+02 -0.42802346699E+00 -0.16473226871E+02  0.41249851651E+02  0.10566000000E+00 0.  1.
         22    1    1    0    0    0 -0.70157911671E+01 -0.12117185860E+02 -0.26165095702E+02  0.29675911982E+02  0.00000000000E+00 0. -1.
</event>
<event>
 5    1  0.1668518E-003  0.9118800E+02  0.7818608E-02  0.1130116E+00
         25   -1    0    0    0    0  0.00000000000E+00  0.00000000000E+00  0.99999998245E-14  0.12500000000E+03  0.12500000000E+03 0.  0.
        -13    1    3    3    0    0 -0.57239215953E+02 -0.43148399999E+01  0.39529073013E+01  0.57537660078E+02  0.10566000000E+00 0. -1.
         23    2    1    0    0    0 -0.41286411037E+02  0.13204504391E+02 -0.51806787460E+00  0.81650316416E+02  0.69192334142E+02 0.  0.
         13    1    3    3    0    0  0.15952804916E+02  0.17519344391E+02 -0.44709751759E+01  0.24112656338E+02  0.10566000000E+00 0.  1.
         22    1    1    0    0    0  0.41286411037E+02 -0.13204504391E+02  0.51806787460E+00  0.43349683584E+02  0.00000000000E+00 0. -1.
</event>
<event>
 5    1  0.1668518E-003  0.9118800E+02  0.7818608E-02  0.1130116E+00
         25   -1    0    0    0    0  0.00000000000E+00  0.00000000000E+00  0.99999998245E-14  0.12500000000E+03  0.12500000000E+03 0.  0.
        -13    1    3    3    0    0  0.35412434560E+01  0.54109999766E+02  0.14476533882E+02  0.56124982647E+02  0.10566000000E+00 0.  1.
         23    2    1    0    0    0 -0.15467319808E+02  0.24130173729E+02 -0.38599566208E+01  0.96079375329E+02  0.91623380380E+02 0.  0.
         13    1    3    3    0    0 -0.19008563264E+02 -0.29979826037E+02 -0.18336490503E+02  0.39954392681E+02  0.10566000000E+00 0. -1.
         22    1    1    0    0    0  0.15467319808E+02 -0.24130173729E+02  0.38599566208E+01  0.28920624671E+02  0.00000000000E+00 0.  1.
</event>
<event>
 5    1  0.1668518E-003  0.9118800E+02  0.7818608E-02  0.1130116E+00
         25   -1    0    0    0    0  0.00000000000E+00  0.00000000000E+00  0.99999998245E-14  0.12500000000E+03  0.12500000000E+03 0.  0.
        -13    1    3    3    0    0  0.43878316352E+02 -0.18442207268E+01  0.11825798049E+02  0.45481517779E+02  0.10566000000E+00 0.  1.
         23    2    1    0    0    0  0.57670407388E+01  0.25834767353E+02 -0.90810244936E+01  0.97015022442E+02  0.92891095431E+02 0.  0.
         13    1    3    3    0    0 -0.38111275613E+02  0.27678988080E+02 -0.20906822542E+02  0.51533504663E+02  0.10566000000E+00 0. -1.
         22    1    1    0    0    0 -0.57670407388E+01 -0.25834767353E+02  0.90810244936E+01  0.27984977558E+02  0.00000000000E+00 0. -1.
</event>
<event>
 5    1  0.1668518E-003  0.9118800E+02  0.7818608E-02  0.1130116E+00
         25   -1    0    0    0    0  0.00000000000E+00  0.00000000000E+00  0.99999998245E-14  0.12500000000E+03  0.12500000000E+03 0.  0.
        -13    1    3    3    0    0 -0.45989774879E+01  0.17401523235E+02  0.35043643755E+02  0.39395833999E+02  0.10566000000E+00 0.  1.
         23    2    1    0    0    0 -0.23061286374E+02  0.19060123917E+02 -0.14104551002E+02  0.91923579215E+02  0.85766513301E+02 0.  0.
         13    1    3    3    0    0 -0.18462308886E+02  0.16586006820E+01 -0.49148194757E+02  0.52527745216E+02  0.10566000000E+00 0. -1.
         22    1    1    0    0    0  0.23061286374E+02 -0.19060123917E+02  0.14104551002E+02  0.33076420785E+02  0.00000000000E+00 0. -1.
</event>
<event>
 5    1  0.1668518E-003  0.9118800E+02  0.7818608E-02  0.1130116E+00
         25   -1    0    0    0    0  0.00000000000E+00  0.00000000000E+00  0.99999998245E-14  0.12500000000E+03  0.12500000000E+03 0.  0.
        -13    1    3    3    0    0  0.12170560205E+02 -0.31764761734E+02  0.10772014319E+02  0.35681508940E+02  0.10566000000E+00 0.  1.
         23    2    1    0    0    0 -0.24665096446E+02  0.14908768129E+02 -0.38022162646E+00  0.96176694875E+02  0.91756055489E+02 0.  0.
         13    1    3    3    0    0 -0.36835656650E+02  0.46673529863E+02 -0.11152235946E+02  0.60495185936E+02  0.10566000000E+00 0. -1.
         22    1    1    0    0    0  0.24665096446E+02 -0.14908768129E+02  0.38022162646E+00  0.28823305125E+02  0.00000000000E+00 0. -1.
</event>
<event>
 5    1  0.1668518E-003  0.9118800E+02  0.7818608E-02  0.1130116E+00
         25   -1    0    0    0    0  0.00000000000E+00  0.00000000000E+00  0.99999998245E-14  0.12500000000E+03  0.12500000000E+03 0.  0.
        -13    1    3    3    0    0  0.42877836258E+02  0.99420334173E+01  0.20639541250E+01  0.44063862079E+02  0.10566000000E+00 0. -1.
         23    2    1    0    0    0  0.45562298918E+01 -0.64793701350E+01 -0.28281638890E+02  0.95630073775E+02  0.91008342715E+02 0.  0.
         13    1    3    3    0    0 -0.38321606367E+02 -0.16421403552E+02 -0.30345593015E+02  0.51566211695E+02  0.10566000000E+00 0.  1.
         22    1    1    0    0    0 -0.45562298918E+01  0.64793701350E+01  0.28281638890E+02  0.29369926225E+02  0.00000000000E+00 0.  1.
</event>
<event>
 5    1  0.1668518E-003  0.9118800E+02  0.7818608E-02  0.1130116E+00
         25   -1    0    0    0    0  0.00000000000E+00  0.00000000000E+00  0.99999998245E-14  0.12500000000E+03  0.12500000000E+03 0.  0.
        -13    1    3    3    0    0  0.25436187219E+02  0.50478546074E+01  0.25395779791E+02  0.36296518450E+02  0.10566000000E+00 0.  1.
         23    2    1    0    0    0 -0.42787552981E+01  0.21350007372E+02 -0.21659457371E+02  0.94287418615E+02  0.89145132530E+02 0.  0.
         13    1    3    3    0    0 -0.29714942517E+02  0.16302152764E+02 -0.47055237163E+02  0.57990900165E+02  0.10566000000E+00 0. -1.
         22    1    1    0    0    0  0.42787552981E+01 -0.21350007372E+02  0.21659457371E+02  0.30712581385E+02  0.00000000000E+00 0. -1.
</event>
<event>
 5    1  0.1668518E-003  0.9118800E+02  0.7818608E-02  0.1130116E+00
         25   -1    0    0    0    0  0.00000000000E+00  0.00000000000E+00  0.99999998245E-14  0.12500000000E+03  0.12500000000E+03 0.  0.
        -13    1    3    3    0    0  0.22667714377E+02 -0.15651008438E+02 -0.31150898291E+02  0.41583277511E+02  0.10566000000E+00 0. -1.
         23    2    1    0    0    0 -0.17703137861E+02 -0.22104425761E+02  0.51010466678E+01  0.96224534661E+02  0.91821204878E+02 0.  0.
         13    1    3    3    0    0 -0.40370852238E+02 -0.64534173230E+01  0.36251944959E+02  0.54641257150E+02  0.10566000000E+00 0.  1.
         22    1    1    0    0    0  0.17703137861E+02  0.22104425761E+02 -0.51010466678E+01  0.28775465339E+02  0.00000000000E+00 0.  1.
</event>
<event>
 5    1  0.1668518E-003  0.9118800E+02  0.7818608E-02  0.1130116E+00
         25   -1    0    0    0    0  0.00000000000E+00  0.00000000000E+00  0.99999998245E-14  0.12500000000E+03  0.12500000000E+03 0.  0.
        -13    1    3    3    0    0  0.19917590366E+02 -0.26558417929E+02 -0.18649584488E+02  0.38077265323E+02  0.10566000000E+00 0.  1.
         23    2    1    0    0    0 -0.15037870737E+02  0.46812481692E+01  0.20495374415E+02  0.99152137165E+02  0.95723739434E+02 0.  0.
         13    1    3    3    0    0 -0.34955461103E+02  0.31239666099E+02  0.39144958903E+02  0.61074871841E+02  0.10566000000E+00 0. -1.
         22    1    1    0    0    0  0.15037870737E+02 -0.46812481692E+01 -0.20495374415E+02  0.25847862835E+02  0.00000000000E+00 0. -1.
</event>
<event>
 5    1  0.1668518E-003  0.9118800E+02  0.7818608E-02  0.1130116E+00
         25   -1    0    0    0    0  0.00000000000E+00  0.00000000000E+00  0.99999998245E-14  0.12500000000E+03  0.12500000000E+03 0.  0.
        -13    1    3    3    0    0  0.46363172813E+01 -0.27438033033E+02  0.23744655956E+02  0.36580882235E+02  0.10566000000E+00 0.  1.
         23    2    1    0    0    0 -0.12590548506E+02  0.25255351052E+02  0.28356581199E+00  0.96778818628E+02  0.92572699307E+02 0.  0.
         13    1    3    3    0    0 -0.17226865787E+02  0.52693384085E+02 -0.23461090144E+02  0.60197936393E+02  0.10566000000E+00 0. -1.
         22    1    1    0    0    0  0.12590548506E+02 -0.25255351052E+02 -0.28356581199E+00  0.28221181372E+02  0.00000000000E+00 0. -1.
</event>
<event>
 5    1  0.1668518E-003  0.9118800E+02  0.7818608E-02  0.1130116E+00
         25   -1    0    0    0    0  0.00000000000E+00  0.00000000000E+00  0.99999998245E-14  0.12500000000E+03  0.12500000000E+03 0.  0.
        -13    1    3    3    0    0  0.28480321345E+02  0.27384444320E+02  0.27827368684E+01  0.39607969945E+02  0.10566000000E+00 0. -1.
         23    2    1    0    0    0 -0.22535634023E+02  0.13590559458E+02 -0.14173360304E+02  0.95109495663E+02  0.90290497372E+02 0.  0.
         13    1    3    3    0    0 -0.51015955368E+02 -0.13793884862E+02 -0.16956097173E+02  0.55501525718E+02  0.10566000000E+00 0.  1.
         22    1    1    0    0    0  0.22535634023E+02 -0.13590559458E+02  0.14173360304E+02  0.29890504337E+02  0.00000000000E+00 0.  1.
</event>
<event>
 5    1  0.1668518E-003  0.9118800E+02  0.7818608E-02  0.1130116E+00
         25   -1    0    0    0    0  0.00000000000E+00  0.00000000000E+00  0.99999998245E-14  0.12500000000E+03  0.12500000000E+03 0.  0.
        -13    1    3    3    0    0  0.10911306096E+02 -0.41859439918E+02 -0.26075388398E+02  0.50509467975E+02  0.10566000000E+00 0. -1.
         23    2    1    0    0    0 -0.22161470695E+02 -0.18486630507E+02 -0.14897377124E+02  0.92522036147E+02  0.86634340979E+02 0.  0.
         13    1    3    3    0    0 -0.33072776790E+02  0.23372809411E+02  0.11178011274E+02  0.42012568173E+02  0.10566000000E+00 0.  1.
         22    1    1    0    0    0  0.22161470695E+02  0.18486630507E+02  0.14897377124E+02  0.32477963853E+02  0.00000000000E+00 0. -1.
</event>
<event>
 5    1  0.1668518E-003  0.9118800E+02  0.7818608E-02  0.1130116E+00
         25   -1    0    0    0    0  0.00000000000E+00  0.00000000000E+00  0.99999998245E-14  0.12500000000E+03  0.12500000000E+03 0.  0.
        -13    1    3    3    0    0  0.18895714343E+02 -0.25651059923E+02 -0.12423609022E+02  0.34196229629E+02  0.10566000000E+00 0.  1.
         23    2    1    0    0    0 -0.11469377776E+02  0.85454443224E+01  0.26915341284E+02  0.94520386458E+02  0.89471205505E+02 0.  0.
         13    1    3    3    0    0 -0.30365092119E+02  0.34196504245E+02  0.39338950305E+02  0.60324156829E+02  0.10566000000E+00 0. -1.
         22    1    1    0    0    0  0.11469377776E+02 -0.85454443224E+01 -0.26915341284E+02  0.30479613542E+02  0.00000000000E+00 0. -1.
</event>
<event>
 5    1  0.1668518E-003  0.9118800E+02  0.7818608E-02  0.1130116E+00
         25   -1    0    0    0    0  0.00000000000E+00  0.00000000000E+00  0.99999998245E-14  0.12500000000E+03  0.12500000000E+03 0.  0.
        -13    1    3    3    0    0  0.40427319303E+02  0.35151885139E+01  0.92727898255E+01  0.41625959346E+02  0.10566000000E+00 0. -1.
         23    2    1    0    0    0 -0.79305952848E+01  0.26730710763E+02 -0.38589508060E+01  0.96851878557E+02  0.92671298897E+02 0.  0.
         13    1    3    3    0    0 -0.48357914588E+02  0.23215522249E+02 -0.13131740632E+02  0.55225919210E+02  0.10566000000E+00 0.  1.
         22    1    1    0    0    0  0.79305952848E+01 -0.26730710763E+02  0.38589508060E+01  0.28148121443E+02  0.00000000000E+00 0.  1.
</event>
<event>
 5    1  0.1668518E-003  0.9118800E+02  0.7818608E-02  0.1130116E+00
         25   -1    0    0    0    0  0.00000000000E+00  0.00000000000E+00  0.99999998245E-14  0.12500000000E+03  0.12500000000E+03 0.  0.
        -13    1    3    3    0    0  0.19588763817E+01 -0.51912538073E+02  0.22822421516E+02  0.56741720927E+02  0.10566000000E+00 0. -1.
         23    2    1    0    0    0 -0.45911871355E+01 -0.26292556792E+02 -0.77915677974E+01  0.97195574620E+02  0.93133740690E+02 0.  0.
         13    1    3    3    0    0 -0.65500635172E+01  0.25619981281E+02 -0.30613989314E+02  0.40453853693E+02  0.10566000000E+00 0.  1.
         22    1    1    0    0    0  0.45911871355E+01  0.26292556792E+02  0.77915677974E+01  0.27804425380E+02  0.00000000000E+00 0. -1.
</event>
<event>
 5    1  0.1668518E-003  0.9118800E+02  0.7818608E-02  0.1130116E+00
         25   -1    0    0    0    0  0.00000000000E+00  0.00000000000E+00  0.99999998245E-14  0.12500000000E+03  0.12500000000E+03 0.  0.
        -13    1    3    3    0    0  0.14299475190E+02 -0.21705967518E+02  0.40416285440E+02  0.48053213310E+02  0.10566000000E+00 0. -1.
         23    2    1    0    0    0 -0.14111044256E+02 -0.25160637548E+02  0.18305639428E+01  0.96094460459E+02  0.91643958420E+02 0.  0.
         13    1    3    3    0    0 -0.28410519445E+02 -0.34546700297E+01 -0.38585721497E+02  0.48041247149E+02  0.10566000000E+00 0.  1.
         22    1    1    0    0    0  0.14111044256E+02  0.25160637548E+02 -0.18305639428E+01  0.28905539541E+02  0.00000000000E+00 0.  1.
</event>
<event>
 5    1  0.1668518E-003  0.9118800E+02  0.7818608E-02  0.1130116E+00
         25   -1    0    0    0    0  0.00000000000E+00  0.00000000000E+00  0.99999998245E-14  0.12500000000E+03  0.12500000000E+03 0.  0.
        -13    1    3    3    0    0  0.45587990948E+01 -0.15502298834E+02 -0.33418148702E+02  0.37119910358E+02  0.10566000000E+00 0. -1.
         23    2    1    0    0    0 -0.22233193958E+02 -0.40966325685E+01  0.17927026324E+02  0.96147347006E+02  0.91716065939E+02 0.  0.
         13    1    3    3    0    0 -0.26791993053E+02  0.11405666265E+02  0.51345175026E+02  0.59027436648E+02  0.10566000000E+00 0.  1.
         22    1    1    0    0    0  0.22233193958E+02  0.40966325685E+01 -0.17927026324E+02  0.28852652994E+02  0.00000000000E+00 0.  1.
</event>
<event>
 5    1  0.1668518E-003  0.9118800E+02  0.7818608E-02  0.1130116E+00
         25   -1    0    0    0    0  0.00000000000E+00  0.00000000000E+00  0.99999998245E-14  0.12500000000E+03  0.12500000000E+03 0.  0.
        -13    1    3    3    0    0  0.11257183910E+02 -0.60932916194E+01 -0.46961446563E+02  0.48674849971E+02  0.10566000000E+00 0.  1.
         23    2    1    0    0    0  0.27399059679E+00  0.25828688068E+02 -0.15181778176E+02  0.95038648449E+02  0.90192361718E+02 0.  0.
         13    1    3    3    0    0 -0.10983193314E+02  0.31921979688E+02  0.31779668387E+02  0.46363798479E+02  0.10566000000E+00 0. -1.
         22    1    1    0    0    0 -0.27399059679E+00 -0.25828688068E+02  0.15181778176E+02  0.29961351551E+02  0.00000000000E+00 0. -1.
</event>
<event>
 5    1  0.1668518E-003  0.9118800E+02  0.7818608E-02  0.1130116E+00
         25   -1    0    0    0    0  0.00000000000E+00  0.00000000000E+00  0.99999998245E-14  0.12500000000E+03  0.12500000000E+03 0.  0.
        -13    1    3    3    0    0  0.38920349421E+02 -0.20760544247E+02 -0.43867840063E+02  0.62210870049E+02  0.10566000000E+00 0. -1.
         23    2    1    0    0    0  0.15143334379E+02 -0.11212520336E+02 -0.23077057792E+02  0.95207521340E+02  0.90426104278E+02 0.  0.
         13    1    3    3    0    0 -0.23777015041E+02  0.95480239113E+01  0.20790782271E+02  0.32996651290E+02  0.10566000000E+00 0.  1.
         22    1    1    0    0    0 -0.15143334379E+02  0.11212520336E+02  0.23077057792E+02  0.29792478660E+02  0.00000000000E+00 0. -1.
</event>
<event>
 5    1  0.1668518E-003  0.9118800E+02  0.7818608E-02  0.1130116E+00
         25   -1    0    0    0    0  0.00000000000E+00  0.00000000000E+00  0.99999998245E-14  0.12500000000E+03  0.12500000000E+03 0.  0.
        -13    1    3    3    0    0  0.21904198707E+02 -0.25656464970E+02 -0.15436944038E+02  0.37099306207E+02  0.10566000000E+00 0.  1.
         23    2    1    0    0    0 -0.24844328777E+02  0.68115020238E+01 -0.17166593567E+02  0.94043107926E+02  0.88801897398E+02 0.  0.
         13    1    3    3    0    0 -0.46748527484E+02  0.32467966994E+02 -0.17296495294E+01  0.56943801719E+02  0.10566000000E+00 0. -1.
         22    1    1    0    0    0  0.24844328777E+02 -0.68115020238E+01  0.17166593567E+02  0.30956892074E+02  0.00000000000E+00 0. -1.
</event>
<event>
 5    1  0.1668518E-003  0.9118800E+02  0.7818608E-02  0.1130116E+00
         25   -1    0    0    0    0  0.00000000000E+00  0.00000000000E+00  0.99999998245E-14  0.12500000000E+03  0.12500000000E+03 0.  0.
        -13    1    3    3    0    0 -0.21302845880E+02 -0.10818116481E+02  0.36326568182E+02  0.43479576892E+02  0.10566000000E+00 0.  1.
         23    2    1    0    0    0  0.25397998481E+02 -0.50602555455E+01  0.11830522912E+02  0.96528509252E+02  0.92234089755E+02 0.  0.
         13    1    3    3    0    0  0.46700844361E+02  0.57578609354E+01 -0.24496045270E+02  0.53048932360E+02  0.10566000000E+00 0. -1.
         22    1    1    0    0    0 -0.25397998481E+02  0.50602555455E+01 -0.11830522912E+02  0.28471490748E+02  0.00000000000E+00 0. -1.
</event>
<event>
 5    1  0.1668518E-003  0.9118800E+02  0.7818608E-02  0.1130116E+00
         25   -1    0    0    0    0  0.00000000000E+00  0.00000000000E+00  0.99999998245E-14  0.12500000000E+03  0.12500000000E+03 0.  0.
        -13    1    3    3    0    0  0.88547072998E+00  0.23258014672E+02  0.34455541116E+02  0.41580221050E+02  0.10566000000E+00 0. -1.
         23    2    1    0    0    0  0.27819558821E+02 -0.10183513041E+02  0.21838829506E+01  0.95294762489E+02  0.90546621263E+02 0.  0.
         13    1    3    3    0    0  0.26934088091E+02 -0.33441527714E+02 -0.32271658166E+02  0.53714541438E+02  0.10566000000E+00 0.  1.
         22    1    1    0    0    0 -0.27819558821E+02  0.10183513041E+02 -0.21838829506E+01  0.29705237511E+02  0.00000000000E+00 0.  1.
</event>
<event>
 5    1  0.1668518E-003  0.9118800E+02  0.7818608E-02  0.1130116E+00
         25   -1    0    0    0    0  0.00000000000E+00  0.00000000000E+00  0.99999998245E-14  0.12500000000E+03  0.12500000000E+03 0.  0.
        -13    1    3    3    0    0  0.14177032642E+02  0.13254941053E+01 -0.47673584885E+02  0.49754668615E+02  0.10566000000E+00 0.  1.
         23    2    1    0    0    0  0.19696379055E+02 -0.19138185286E+02 -0.54471433527E+01  0.97001984809E+02  0.92873549530E+02 0.  0.
         13    1    3    3    0    0  0.55193464127E+01 -0.20463679392E+02  0.42226441532E+02  0.47247316194E+02  0.10566000000E+00 0. -1.
         22    1    1    0    0    0 -0.19696379055E+02  0.19138185286E+02  0.54471433527E+01  0.27998015191E+02  0.00000000000E+00 0. -1.
</event>
<event>
 5    1  0.1668518E-003  0.9118800E+02  0.7818608E-02  0.1130116E+00
         25   -1    0    0    0    0  0.00000000000E+00  0.00000000000E+00  0.99999998245E-14  0.12500000000E+03  0.12500000000E+03 0.  0.
        -13    1    3    3    0    0  0.40723202530E+02  0.44955112708E+00 -0.70543409055E+01  0.41332265970E+02  0.10566000000E+00 0. -1.
         23    2    1    0    0    0 -0.96586129597E+01  0.13768339453E+02  0.19025566730E+02  0.99606533025E+02  0.96315280492E+02 0.  0.
         13    1    3    3    0    0 -0.50381815490E+02  0.13318788326E+02  0.26079907636E+02  0.58274267056E+02  0.10566000000E+00 0.  1.
         22    1    1    0    0    0  0.96586129597E+01 -0.13768339453E+02 -0.19025566730E+02  0.25393466975E+02  0.00000000000E+00 0. -1.
</event>
<event>
 5    1  0.1668518E-003  0.9118800E+02  0.7818608E-02  0.1130116E+00
         25   -1    0    0    0    0  0.00000000000E+00  0.00000000000E+00  0.99999998245E-14  0.12500000000E+03  0.12500000000E+03 0.  0.
        -13    1    3    3    0    0  0.29525166244E+02  0.19122406911E+02  0.16327286654E+02  0.38781353010E+02  0.10566000000E+00 0. -1.
         23    2    1    0    0    0 -0.14307689731E+02  0.13272904365E+02 -0.20767726704E+02  0.96501255323E+02  0.92197146543E+02 0.  0.
         13    1    3    3    0    0 -0.43832855975E+02 -0.58495025462E+01 -0.37095013358E+02  0.57719902313E+02  0.10566000000E+00 0.  1.
         22    1    1    0    0    0  0.14307689731E+02 -0.13272904365E+02  0.20767726704E+02  0.28498744677E+02  0.00000000000E+00 0.  1.
</event>
<event>
 5    1  0.1668518E-003  0.9118800E+02  0.7818608E-02  0.1130116E+00
         25   -1    0    0    0    0  0.00000000000E+00  0.00000000000E+00  0.99999998245E-14  0.12500000000E+03  0.12500000000E+03 0.  0.
        -13    1    3    3    0    0  0.28397536208E+01  0.30636347735E+02 -0.52741463509E+00  0.30772379392E+02  0.10566000000E+00 0. -1.
         23    2    1    0    0    0 -0.44865849939E+01 -0.23663933308E+02  0.24173979441E+02  0.90875339320E+02  0.84224906233E+02 0.  0.
         13    1    3    3    0    0 -0.73263386148E+01 -0.54300281043E+02  0.24701394076E+02  0.60102959929E+02  0.10566000000E+00 0.  1.
         22    1    1    0    0    0  0.44865849939E+01  0.23663933308E+02 -0.24173979441E+02  0.34124660680E+02  0.00000000000E+00 0.  1.
</event>
<event>
 5    1  0.1668518E-003  0.9118800E+02  0.7818608E-02  0.1130116E+00
         25   -1    0    0    0    0  0.00000000000E+00  0.00000000000E+00  0.99999998245E-14  0.12500000000E+03  0.12500000000E+03 0.  0.
        -13    1    3    3    0    0 -0.26089981498E+02 -0.27137025460E+02 -0.52947841736E+01  0.38015144204E+02  0.10566000000E+00 0.  1.
         23    2    1    0    0    0 -0.86548942611E+01  0.27825224520E+02 -0.27011562928E+01  0.95734891772E+02  0.91152196589E+02 0.  0.
         13    1    3    3    0    0  0.17435087236E+02  0.54962249980E+02  0.25936278807E+01  0.57719747569E+02  0.10566000000E+00 0. -1.
         22    1    1    0    0    0  0.86548942611E+01 -0.27825224520E+02  0.27011562928E+01  0.29265108228E+02  0.00000000000E+00 0. -1.
</event>
<event>
 5    1  0.1668518E-003  0.9118800E+02  0.7818608E-02  0.1130116E+00
         25   -1    0    0    0    0  0.00000000000E+00  0.00000000000E+00  0.99999998245E-14  0.12500000000E+03  0.12500000000E+03 0.  0.
        -13    1    3    3    0    0 -0.10201871427E+02  0.27485167364E+02  0.50232048020E+02  0.58161692014E+02  0.10566000000E+00 0.  1.
         23    2    1    0    0    0 -0.15882397687E+02  0.15377080035E+02  0.96719118306E+01  0.10087012173E+03  0.97941464322E+02 0.  0.
         13    1    3    3    0    0 -0.56805262598E+01 -0.12108087330E+02 -0.40560136189E+02  0.42708429719E+02  0.10566000000E+00 0. -1.
         22    1    1    0    0    0  0.15882397687E+02 -0.15377080035E+02 -0.96719118306E+01  0.24129878266E+02  0.00000000000E+00 0.  1.
</event>
<event>
 5    1  0.1668518E-003  0.9118800E+02  0.7818608E-02  0.1130116E+00
         25   -1    0    0    0    0  0.00000000000E+00  0.00000000000E+00  0.99999998245E-14  0.12500000000E+03  0.12500000000E+03 0.  0.
        -13    1    3    3    0    0 -0.22709065045E+02 -0.26846928565E+02 -0.42198487049E+01  0.35415780321E+02  0.10566000000E+00 0. -1.
         23    2    1    0    0    0  0.29436243049E+02  0.23320243395E+01 -0.42312719186E+01  0.95169907738E+02  0.90374094377E+02 0.  0.
         13    1    3    3    0    0  0.52145308094E+02  0.29178952905E+02 -0.11423213652E-01  0.59754127417E+02  0.10566000000E+00 0.  1.
         22    1    1    0    0    0 -0.29436243049E+02 -0.23320243395E+01  0.42312719186E+01  0.29830092262E+02  0.00000000000E+00 0.  1.
</event>
<event>
 5    1  0.1668518E-003  0.9118800E+02  0.7818608E-02  0.1130116E+00
         25   -1    0    0    0    0  0.00000000000E+00  0.00000000000E+00  0.99999998245E-14  0.12500000000E+03  0.12500000000E+03 0.  0.
        -13    1    3    3    0    0  0.10284225852E+01 -0.62066996431E+02  0.30968194644E+01  0.62152804875E+02  0.10566000000E+00 0.  1.
         23    2    1    0    0    0 -0.47989054262E+00 -0.29485214720E+02  0.60279501137E+01  0.94901090309E+02  0.90001514306E+02 0.  0.
         13    1    3    3    0    0 -0.15083131278E+01  0.32581781711E+02  0.29311306493E+01  0.32748285434E+02  0.10566000000E+00 0. -1.
         22    1    1    0    0    0  0.47989054262E+00  0.29485214720E+02 -0.60279501137E+01  0.30098909691E+02  0.00000000000E+00 0.  1.
</event>
<event>
 5    1  0.1668518E-003  0.9118800E+02  0.7818608E-02  0.1130116E+00
         25   -1    0    0    0    0  0.00000000000E+00  0.00000000000E+00  0.99999998245E-14  0.12500000000E+03  0.12500000000E+03 0.  0.
        -13    1    3    3    0    0  0.23759987886E+02 -0.30857332742E+02  0.39100330446E+02  0.55186583636E+02  0.10566000000E+00 0.  1.
         23    2    1    0    0    0 -0.47576207216E+01 -0.26365702374E+02  0.93960449405E+01  0.96608612624E+02  0.92342585821E+02 0.  0.
         13    1    3    3    0    0 -0.28517608608E+02  0.44916303686E+01 -0.29704285506E+02  0.41422028989E+02  0.10566000000E+00 0. -1.
         22    1    1    0    0    0  0.47576207216E+01  0.26365702374E+02 -0.93960449405E+01  0.28391387376E+02  0.00000000000E+00 0.  1.
</event>
<event>
 5    1  0.1668518E-003  0.9118800E+02  0.7818608E-02  0.1130116E+00
         25   -1    0    0    0    0  0.00000000000E+00  0.00000000000E+00  0.99999998245E-14  0.12500000000E+03  0.12500000000E+03 0.  0.
        -13    1    3    3    0    0  0.36632814816E+02 -0.15385050933E+02 -0.21743080894E+01  0.39791980263E+02  0.10566000000E+00 0. -1.
         23    2    1    0    0    0 -0.64180842719E+01  0.11065224417E+02  0.24819584884E+02  0.97077915713E+02  0.92975689985E+02 0.  0.
         13    1    3    3    0    0 -0.43050899088E+02  0.26450275350E+02  0.26993892973E+02  0.57285935449E+02  0.10566000000E+00 0.  1.
         22    1    1    0    0    0  0.64180842719E+01 -0.11065224417E+02 -0.24819584884E+02  0.27922084287E+02  0.00000000000E+00 0.  1.
</event>
<event>
 5    1  0.1668518E-003  0.9118800E+02  0.7818608E-02  0.1130116E+00
         25   -1    0    0    0    0  0.00000000000E+00  0.00000000000E+00  0.99999998245E-14  0.12500000000E+03  0.12500000000E+03 0.  0.
        -13    1    3    3    0    0  0.23313752972E+02 -0.24723575313E+02  0.44726851946E+01  0.34275389579E+02  0.10566000000E+00 0.  1.
         23    2    1    0    0    0 -0.30416799790E+02  0.22275966387E+01  0.10600573133E+01  0.94483322302E+02  0.89419408271E+02 0.  0.
         13    1    3    3    0    0 -0.53730552762E+02  0.26951171952E+02 -0.34126278813E+01  0.60207932723E+02  0.10566000000E+00 0. -1.
         22    1    1    0    0    0  0.30416799790E+02 -0.22275966387E+01 -0.10600573133E+01  0.30516677698E+02  0.00000000000E+00 0. -1.
</event>
<event>
 5    1  0.1668518E-003  0.9118800E+02  0.7818608E-02  0.1130116E+00
         25   -1    0    0    0    0  0.00000000000E+00  0.00000000000E+00  0.99999998245E-14  0.12500000000E+03  0.12500000000E+03 0.  0.
        -13    1    3    3    0    0 -0.46836633794E+02 -0.96521538078E+00 -0.10431794545E+02  0.47994118466E+02  0.10566000000E+00 0. -1.
         23    2    1    0    0    0 -0.77207806616E+01 -0.27711268878E+02 -0.16563424880E+01  0.96185622560E+02  0.91768216938E+02 0.  0.
         13    1    3    3    0    0  0.39115853133E+02 -0.26746053497E+02  0.87754520568E+01  0.48191504093E+02  0.10566000000E+00 0.  1.
         22    1    1    0    0    0  0.77207806616E+01  0.27711268878E+02  0.16563424880E+01  0.28814377440E+02  0.00000000000E+00 0.  1.
</event>
<event>
 5    1  0.1668518E-003  0.9118800E+02  0.7818608E-02  0.1130116E+00
         25   -1    0    0    0    0  0.00000000000E+00  0.00000000000E+00  0.99999998245E-14  0.12500000000E+03  0.12500000000E+03 0.  0.
        -13    1    3    3    0    0  0.27286446195E+02 -0.19550971510E+02  0.22230491836E+02  0.40261601611E+02  0.10566000000E+00 0.  1.
         23    2    1    0    0    0  0.62101195978E+01  0.28488632643E+02  0.10437089389E+02  0.94030650471E+02  0.88784360210E+02 0.  0.
         13    1    3    3    0    0 -0.21076326597E+02  0.48039604154E+02 -0.11793402447E+02  0.53769048861E+02  0.10566000000E+00 0. -1.
         22    1    1    0    0    0 -0.62101195978E+01 -0.28488632643E+02 -0.10437089389E+02  0.30969349529E+02  0.00000000000E+00 0.  1.
</event>
<event>
 5    1  0.1668518E-003  0.9118800E+02  0.7818608E-02  0.1130116E+00
         25   -1    0    0    0    0  0.00000000000E+00  0.00000000000E+00  0.99999998245E-14  0.12500000000E+03  0.12500000000E+03 0.  0.
        -13    1    3    3    0    0 -0.52016682054E+02  0.23361651129E+02  0.64914833602E+01  0.57390351765E+02  0.10566000000E+00 0. -1.
         23    2    1    0    0    0 -0.27485458160E+02  0.41448950205E+01 -0.13175140241E+02  0.94239393937E+02  0.89077766498E+02 0.  0.
         13    1    3    3    0    0  0.24531223894E+02 -0.19216756109E+02 -0.19666623601E+02  0.36849042172E+02  0.10566000000E+00 0.  1.
         22    1    1    0    0    0  0.27485458160E+02 -0.41448950205E+01  0.13175140241E+02  0.30760606063E+02  0.00000000000E+00 0. -1.
</event>
<event>
 5    1  0.1668518E-003  0.9118800E+02  0.7818608E-02  0.1130116E+00
         25   -1    0    0    0    0  0.00000000000E+00  0.00000000000E+00  0.99999998245E-14  0.12500000000E+03  0.12500000000E+03 0.  0.
        -13    1    3    3    0    0 -0.22801725655E+02 -0.43034753249E+02  0.12116357344E+02  0.50186910239E+02  0.10566000000E+00 0. -1.
         23    2    1    0    0    0 -0.12434701450E+02  0.14846993229E+00  0.25549883495E+02  0.96584504402E+02  0.92309945837E+02 0.  0.
         13    1    3    3    0    0  0.10367024205E+02  0.43183223181E+02  0.13433526151E+02  0.46397594162E+02  0.10566000000E+00 0.  1.
         22    1    1    0    0    0  0.12434701450E+02 -0.14846993229E+00 -0.25549883495E+02  0.28415495598E+02  0.00000000000E+00 0. -1.
</event>
<event>
 5    1  0.1668518E-003  0.9118800E+02  0.7818608E-02  0.1130116E+00
         25   -1    0    0    0    0  0.00000000000E+00  0.00000000000E+00  0.99999998245E-14  0.12500000000E+03  0.12500000000E+03 0.  0.
        -13    1    3    3    0    0 -0.25506216178E+01 -0.19391698498E+02 -0.25700669108E+02  0.32296736645E+02  0.10566000000E+00 0.  1.
         23    2    1    0    0    0  0.18854627375E+02  0.25466180115E+02  0.79643902352E+01  0.92328072984E+02  0.86354028546E+02 0.  0.
         13    1    3    3    0    0  0.21405248993E+02  0.44857878613E+02  0.33665059343E+02  0.60031336340E+02  0.10566000000E+00 0. -1.
         22    1    1    0    0    0 -0.18854627375E+02 -0.25466180115E+02 -0.79643902352E+01  0.32671927016E+02  0.00000000000E+00 0. -1.
</event>
<event>
 5    1  0.1668518E-003  0.9118800E+02  0.7818608E-02  0.1130116E+00
         25   -1    0    0    0    0  0.00000000000E+00  0.00000000000E+00  0.99999998245E-14  0.12500000000E+03  0.12500000000E+03 0.  0.
        -13    1    3    3    0    0  0.30689400390E+02 -0.32093454540E+01  0.88120990885E+01  0.32090550773E+02  0.10566000000E+00 0. -1.
         23    2    1    0    0    0 -0.25892376600E+02  0.23967427921E+01 -0.16366625278E+02  0.94274994467E+02  0.89127709590E+02 0.  0.
         13    1    3    3    0    0 -0.56581776990E+02  0.56060882461E+01 -0.25178724367E+02  0.62184443694E+02  0.10566000000E+00 0.  1.
         22    1    1    0    0    0  0.25892376600E+02 -0.23967427921E+01  0.16366625278E+02  0.30725005533E+02  0.00000000000E+00 0.  1.
</event>
<event>
 5    1  0.1668518E-003  0.9118800E+02  0.7818608E-02  0.1130116E+00
         25   -1    0    0    0    0  0.00000000000E+00  0.00000000000E+00  0.99999998245E-14  0.12500000000E+03  0.12500000000E+03 0.  0.
        -13    1    3    3    0    0 -0.26195769171E+02 -0.41931366238E+01  0.39173992283E+02  0.47311875387E+02  0.10566000000E+00 0.  1.
         23    2    1    0    0    0  0.61672216447E+01  0.23622413488E+02  0.14285386901E+02  0.96713513461E+02  0.92484476348E+02 0.  0.
         13    1    3    3    0    0  0.32362990816E+02  0.27815550111E+02 -0.24888605382E+02  0.49401638074E+02  0.10566000000E+00 0. -1.
         22    1    1    0    0    0 -0.61672216447E+01 -0.23622413488E+02 -0.14285386901E+02  0.28286486539E+02  0.00000000000E+00 0. -1.
</event>
<event>
 5    1  0.1668518E-003  0.9118800E+02  0.7818608E-02  0.1130116E+00
         25   -1    0    0    0    0  0.00000000000E+00  0.00000000000E+00  0.99999998245E-14  0.12500000000E+03  0.12500000000E+03 0.  0.
        -13    1    3    3    0    0 -0.17632113560E+02 -0.24931370515E+02  0.15221326789E+02  0.34119856647E+02  0.10566000000E+00 0.  1.
         23    2    1    0    0    0  0.42102752374E+01  0.29853966278E+02  0.78337996631E+00  0.94840434283E+02  0.89917231778E+02 0.  0.
         13    1    3    3    0    0  0.21842388798E+02  0.54785336793E+02 -0.14437946823E+02  0.60720577635E+02  0.10566000000E+00 0. -1.
         22    1    1    0    0    0 -0.42102752374E+01 -0.29853966278E+02 -0.78337996631E+00  0.30159565717E+02  0.00000000000E+00 0. -1.
</event>
<event>
 5    1  0.1668518E-003  0.9118800E+02  0.7818608E-02  0.1130116E+00
         25   -1    0    0    0    0  0.00000000000E+00  0.00000000000E+00  0.99999998245E-14  0.12500000000E+03  0.12500000000E+03 0.  0.
        -13    1    3    3    0    0 -0.21514856752E+02 -0.83416913136E+01  0.28768944182E+02  0.36880024246E+02  0.10566000000E+00 0. -1.
         23    2    1    0    0    0  0.25482317687E+02  0.92819590125E+01 -0.50640496654E+01  0.97411091416E+02  0.93422550030E+02 0.  0.
         13    1    3    3    0    0  0.46997174439E+02  0.17623650326E+02 -0.33832993847E+02  0.60531067170E+02  0.10566000000E+00 0.  1.
         22    1    1    0    0    0 -0.25482317687E+02 -0.92819590125E+01  0.50640496654E+01  0.27588908584E+02  0.00000000000E+00 0.  1.
</event>
<event>
 5    1  0.1668518E-003  0.9118800E+02  0.7818608E-02  0.1130116E+00
         25   -1    0    0    0    0  0.00000000000E+00  0.00000000000E+00  0.99999998245E-14  0.12500000000E+03  0.12500000000E+03 0.  0.
        -13    1    3    3    0    0 -0.46422112857E+02  0.36449619180E+02 -0.53007586981E+00  0.59024397032E+02  0.10566000000E+00 0.  1.
         23    2    1    0    0    0 -0.27079440888E+02  0.69033238554E+01 -0.95409688075E+01  0.95470657223E+02  0.90789119974E+02 0.  0.
         13    1    3    3    0    0  0.19342671969E+02 -0.29546295325E+02 -0.90108929377E+01  0.36446260191E+02  0.10566000000E+00 0. -1.
         22    1    1    0    0    0  0.27079440888E+02 -0.69033238554E+01  0.95409688075E+01  0.29529342777E+02  0.00000000000E+00 0.  1.
</event>
<event>
 5    1  0.1668518E-003  0.9118800E+02  0.7818608E-02  0.1130116E+00
         25   -1    0    0    0    0  0.00000000000E+00  0.00000000000E+00  0.99999998245E-14  0.12500000000E+03  0.12500000000E+03 0.  0.
        -13    1    3    3    0    0 -0.11438205119E+02  0.50241047631E+02 -0.13378979618E+02  0.53235361021E+02  0.10566000000E+00 0.  1.
         23    2    1    0    0    0 -0.12247546183E+02  0.21357844450E+02  0.16937628418E+02  0.95116172209E+02  0.90299740045E+02 0.  0.
         13    1    3    3    0    0 -0.80934106453E+00 -0.28883203181E+02  0.30316608036E+02  0.41880811188E+02  0.10566000000E+00 0. -1.
         22    1    1    0    0    0  0.12247546183E+02 -0.21357844450E+02 -0.16937628418E+02  0.29883827791E+02  0.00000000000E+00 0.  1.
</event>
<event>
 5    1  0.1668518E-003  0.9118800E+02  0.7818608E-02  0.1130116E+00
         25   -1    0    0    0    0  0.00000000000E+00  0.00000000000E+00  0.99999998245E-14  0.12500000000E+03  0.12500000000E+03 0.  0.
        -13    1    3    3    0    0 -0.21736672258E+02  0.17653129357E+02  0.27489065142E+02  0.39239976598E+02  0.10566000000E+00 0.  1.
         23    2    1    0    0    0  0.23574788756E+02 -0.12572410677E+02  0.76427278966E+01  0.97210659151E+02  0.93153984283E+02 0.  0.
         13    1    3    3    0    0  0.45311461014E+02 -0.30225540034E+02 -0.19846337246E+02  0.57970682553E+02  0.10566000000E+00 0. -1.
         22    1    1    0    0    0 -0.23574788756E+02  0.12572410677E+02 -0.76427278966E+01  0.27789340849E+02  0.00000000000E+00 0. -1.
</event>
<event>
 5    1  0.1668518E-003  0.9118800E+02  0.7818608E-02  0.1130116E+00
         25   -1    0    0    0    0  0.00000000000E+00  0.00000000000E+00  0.99999998245E-14  0.12500000000E+03  0.12500000000E+03 0.  0.
        -13    1    3    3    0    0  0.25874943027E+02 -0.31162539480E+02 -0.18348469217E+01  0.40546200448E+02  0.10566000000E+00 0.  1.
         23    2    1    0    0    0 -0.21255591767E+02 -0.84532113270E+01 -0.18636549541E+02  0.95494442186E+02  0.90821861611E+02 0.  0.
         13    1    3    3    0    0 -0.47130534794E+02  0.22709328153E+02 -0.16801702619E+02  0.54948241738E+02  0.10566000000E+00 0. -1.
         22    1    1    0    0    0  0.21255591767E+02  0.84532113270E+01  0.18636549541E+02  0.29505557814E+02  0.00000000000E+00 0. -1.
</event>
<event>
 5    1  0.1668518E-003  0.9118800E+02  0.7818608E-02  0.1130116E+00
         25   -1    0    0    0    0  0.00000000000E+00  0.00000000000E+00  0.99999998245E-14  0.12500000000E+03  0.12500000000E+03 0.  0.
        -13    1    3    3    0    0  0.27085178761E+02  0.24215110279E+02  0.21721126343E+02  0.42329622818E+02  0.10566000000E+00 0. -1.
         23    2    1    0    0    0 -0.38894845118E+01  0.15526499522E+02 -0.22729422064E+02  0.97200235531E+02  0.93139996150E+02 0.  0.
         13    1    3    3    0    0 -0.30974663273E+02 -0.86886107567E+01 -0.44450548407E+02  0.54870612712E+02  0.10566000000E+00 0.  1.
         22    1    1    0    0    0  0.38894845118E+01 -0.15526499522E+02  0.22729422064E+02  0.27799764469E+02  0.00000000000E+00 0.  1.
</event>
<event>
 5    1  0.1668518E-003  0.9118800E+02  0.7818608E-02  0.1130116E+00
         25   -1    0    0    0    0  0.00000000000E+00  0.00000000000E+00  0.99999998245E-14  0.12500000000E+03  0.12500000000E+03 0.  0.
        -13    1    3    3    0    0 -0.17464327282E+02  0.33208343372E+02  0.13171151928E+02  0.39765402099E+02  0.10566000000E+00 0. -1.
         23    2    1    0    0    0 -0.16740123015E+02 -0.58393434765E+01 -0.24983972393E+02  0.94364587038E+02  0.89253273103E+02 0.  0.
         13    1    3    3    0    0  0.72420426641E+00 -0.39047686848E+02 -0.38155124322E+02  0.54599184939E+02  0.10566000000E+00 0.  1.
         22    1    1    0    0    0  0.16740123015E+02  0.58393434765E+01  0.24983972393E+02  0.30635412962E+02  0.00000000000E+00 0.  1.
</event>
<event>
 5    1  0.1668518E-003  0.9118800E+02  0.7818608E-02  0.1130116E+00
         25   -1    0    0    0    0  0.00000000000E+00  0.00000000000E+00  0.99999998245E-14  0.12500000000E+03  0.12500000000E+03 0.  0.
        -13    1    3    3    0    0 -0.26708844631E+02 -0.45713694885E+02 -0.41069153002E+01  0.53103504582E+02  0.10566000000E+00 0.  1.
         23    2    1    0    0    0  0.10916707773E+02 -0.27275561933E+02  0.24706474433E+01  0.95517210340E+02  0.90853192486E+02 0.  0.
         13    1    3    3    0    0  0.37625552404E+02  0.18438132952E+02  0.65775627435E+01  0.42413705758E+02  0.10566000000E+00 0. -1.
         22    1    1    0    0    0 -0.10916707773E+02  0.27275561933E+02 -0.24706474433E+01  0.29482789660E+02  0.00000000000E+00 0. -1.
</event>
<event>
 5    1  0.1668518E-003  0.9118800E+02  0.7818608E-02  0.1130116E+00
         25   -1    0    0    0    0  0.00000000000E+00  0.00000000000E+00  0.99999998245E-14  0.12500000000E+03  0.12500000000E+03 0.  0.
        -13    1    3    3    0    0 -0.89825396096E+01  0.23958459741E+02 -0.28190117580E+02  0.38070824843E+02  0.10566000000E+00 0.  1.
         23    2    1    0    0    0  0.48555528601E+01  0.26896901355E+02  0.21809456910E+02  0.90033271431E+02  0.82965763167E+02 0.  0.
         13    1    3    3    0    0  0.13838092470E+02  0.29384416140E+01  0.49999574489E+02  0.51962446589E+02  0.10566000000E+00 0. -1.
         22    1    1    0    0    0 -0.48555528601E+01 -0.26896901355E+02 -0.21809456910E+02  0.34966728569E+02  0.00000000000E+00 0.  1.
</event>
<event>
 5    1  0.1668518E-003  0.9118800E+02  0.7818608E-02  0.1130116E+00
         25   -1    0    0    0    0  0.00000000000E+00  0.00000000000E+00  0.99999998245E-14  0.12500000000E+03  0.12500000000E+03 0.  0.
        -13    1    3    3    0    0 -0.20323677954E+02 -0.72346639192E+01 -0.33144823953E+02  0.39547221982E+02  0.10566000000E+00 0.  1.
         23    2    1    0    0    0  0.25935537873E+02  0.10145461019E+02 -0.41467136105E+01  0.96843690977E+02  0.92660254393E+02 0.  0.
         13    1    3    3    0    0  0.46259215826E+02  0.17380124938E+02  0.28998110343E+02  0.57296468994E+02  0.10566000000E+00 0. -1.
         22    1    1    0    0    0 -0.25935537873E+02 -0.10145461019E+02  0.41467136105E+01  0.28156309023E+02  0.00000000000E+00 0. -1.
</event>
<event>
 5    1  0.1668518E-003  0.9118800E+02  0.7818608E-02  0.1130116E+00
         25   -1    0    0    0    0  0.00000000000E+00  0.00000000000E+00  0.99999998245E-14  0.12500000000E+03  0.12500000000E+03 0.  0.
        -13    1    3    3    0    0  0.44499139142E+02 -0.15475709832E+02  0.82464169887E+01  0.47829755763E+02  0.10566000000E+00 0. -1.
         23    2    1    0    0    0  0.34494200088E+01 -0.22379922983E+02  0.23689785344E+02  0.92228588972E+02  0.86209902233E+02 0.  0.
         13    1    3    3    0    0 -0.41049719133E+02 -0.69042131508E+01  0.15443368355E+02  0.44398833209E+02  0.10566000000E+00 0.  1.
         22    1    1    0    0    0 -0.34494200088E+01  0.22379922983E+02 -0.23689785344E+02  0.32771411028E+02  0.00000000000E+00 0. -1.
</event>
<event>
 5    1  0.1668518E-003  0.9118800E+02  0.7818608E-02  0.1130116E+00
         25   -1    0    0    0    0  0.00000000000E+00  0.00000000000E+00  0.99999998245E-14  0.12500000000E+03  0.12500000000E+03 0.  0.
        -13    1    3    3    0    0  0.27190187333E+01 -0.38628829842E+02  0.98466029454E+01  0.39956805571E+02  0.10566000000E+00 0. -1.
         23    2    1    0    0    0  0.25680449699E+02  0.87952807535E+01 -0.97263629795E+01  0.96165218970E+02  0.91740420439E+02 0.  0.
         13    1    3    3    0    0  0.22961430965E+02  0.47424110595E+02 -0.19572965925E+02  0.56208413399E+02  0.10566000000E+00 0.  1.
         22    1    1    0    0    0 -0.25680449699E+02 -0.87952807535E+01  0.97263629795E+01  0.28834781030E+02  0.00000000000E+00 0.  1.
</event>
<event>
 5    1  0.1668518E-003  0.9118800E+02  0.7818608E-02  0.1130116E+00
         25   -1    0    0    0    0  0.00000000000E+00  0.00000000000E+00  0.99999998245E-14  0.12500000000E+03  0.12500000000E+03 0.  0.
        -13    1    3    3    0    0 -0.17225435350E+02  0.24714785258E+02 -0.41407409071E+02  0.51206649211E+02  0.10566000000E+00 0. -1.
         23    2    1    0    0    0 -0.15905149525E+02 -0.14329609385E+02 -0.19740312993E+02  0.95879707358E+02  0.91350571095E+02 0.  0.
         13    1    3    3    0    0  0.13202858252E+01 -0.39044394643E+02  0.21667096078E+02  0.44673058147E+02  0.10566000000E+00 0.  1.
         22    1    1    0    0    0  0.15905149525E+02  0.14329609385E+02  0.19740312993E+02  0.29120292642E+02  0.00000000000E+00 0. -1.
</event>
<event>
 5    1  0.1668518E-003  0.9118800E+02  0.7818608E-02  0.1130116E+00
         25   -1    0    0    0    0  0.00000000000E+00  0.00000000000E+00  0.99999998245E-14  0.12500000000E+03  0.12500000000E+03 0.  0.
        -13    1    3    3    0    0 -0.99004392972E+01  0.24111012984E+01  0.36532785397E+02  0.37927400130E+02  0.10566000000E+00 0. -1.
         23    2    1    0    0    0  0.28710509529E+02 -0.19153331044E+02  0.19791821651E+02  0.85214831259E+02  0.75357201479E+02 0.  0.
         13    1    3    3    0    0  0.38610948827E+02 -0.21564432342E+02 -0.16740963746E+02  0.47287431128E+02  0.10566000000E+00 0.  1.
         22    1    1    0    0    0 -0.28710509529E+02  0.19153331044E+02 -0.19791821651E+02  0.39785168741E+02  0.00000000000E+00 0.  1.
</event>
<event>
 5    1  0.1668518E-003  0.9118800E+02  0.7818608E-02  0.1130116E+00
         25   -1    0    0    0    0  0.00000000000E+00  0.00000000000E+00  0.99999998245E-14  0.12500000000E+03  0.12500000000E+03 0.  0.
        -13    1    3    3    0    0  0.52654366181E+01  0.19480628573E+02  0.44430315734E+02  0.48798399898E+02  0.10566000000E+00 0.  1.
         23    2    1    0    0    0 -0.24097474972E+02  0.13995560100E+02  0.78042615566E+01  0.96060917413E+02  0.91598195142E+02 0.  0.
         13    1    3    3    0    0 -0.29362911590E+02 -0.54850684728E+01 -0.36626054177E+02  0.47262517515E+02  0.10566000000E+00 0. -1.
         22    1    1    0    0    0  0.24097474972E+02 -0.13995560100E+02 -0.78042615566E+01  0.28939082587E+02  0.00000000000E+00 0. -1.
</event>
<event>
 5    1  0.1668518E-003  0.9118800E+02  0.7818608E-02  0.1130116E+00
         25   -1    0    0    0    0  0.00000000000E+00  0.00000000000E+00  0.99999998245E-14  0.12500000000E+03  0.12500000000E+03 0.  0.
        -13    1    3    3    0    0 -0.47443754415E+02  0.98753152707E+01  0.32857000399E+02  0.58549340935E+02  0.10566000000E+00 0. -1.
         23    2    1    0    0    0 -0.12838586561E+02  0.31668375323E+01  0.27872784128E+02  0.94149550086E+02  0.88951602130E+02 0.  0.
         13    1    3    3    0    0  0.34605167853E+02 -0.67084777384E+01 -0.49842162714E+01  0.35600209151E+02  0.10566000000E+00 0.  1.
         22    1    1    0    0    0  0.12838586561E+02 -0.31668375323E+01 -0.27872784128E+02  0.30850449914E+02  0.00000000000E+00 0. -1.
</event>
<event>
 5    1  0.1668518E-003  0.9118800E+02  0.7818608E-02  0.1130116E+00
         25   -1    0    0    0    0  0.00000000000E+00  0.00000000000E+00  0.99999998245E-14  0.12500000000E+03  0.12500000000E+03 0.  0.
        -13    1    3    3    0    0 -0.38377760719E+02  0.14150176868E+01  0.42979003776E+02  0.57637320570E+02  0.10566000000E+00 0. -1.
         23    2    1    0    0    0 -0.43503248046E+01 -0.58994511821E+01  0.28905042106E+02  0.95180035055E+02  0.90388100786E+02 0.  0.
         13    1    3    3    0    0  0.34027435915E+02 -0.73144688689E+01 -0.14073961670E+02  0.37542714485E+02  0.10566000000E+00 0.  1.
         22    1    1    0    0    0  0.43503248046E+01  0.58994511821E+01 -0.28905042106E+02  0.29819964945E+02  0.00000000000E+00 0. -1.
</event>
<event>
 5    1  0.1668518E-003  0.9118800E+02  0.7818608E-02  0.1130116E+00
         25   -1    0    0    0    0  0.00000000000E+00  0.00000000000E+00  0.99999998245E-14  0.12500000000E+03  0.12500000000E+03 0.  0.
        -13    1    3    3    0    0  0.44542858508E+02 -0.18536615871E+02  0.17823853050E+02  0.51433192333E+02  0.10566000000E+00 0.  1.
         23    2    1    0    0    0  0.35365587377E+02 -0.63936500992E+01 -0.13778675728E+02  0.86510320385E+02  0.77476319583E+02 0.  0.
         13    1    3    3    0    0 -0.91772711311E+01  0.12142965772E+02 -0.31602528778E+02  0.35077128051E+02  0.10566000000E+00 0. -1.
         22    1    1    0    0    0 -0.35365587377E+02  0.63936500992E+01  0.13778675728E+02  0.38489679615E+02  0.00000000000E+00 0.  1.
</event>
<event>
 5    1  0.1668518E-003  0.9118800E+02  0.7818608E-02  0.1130116E+00
         25   -1    0    0    0    0  0.00000000000E+00  0.00000000000E+00  0.99999998245E-14  0.12500000000E+03  0.12500000000E+03 0.  0.
        -13    1    3    3    0    0  0.31196538389E+01 -0.29795468391E+02  0.22858701278E+02  0.37683332720E+02  0.10566000000E+00 0.  1.
         23    2    1    0    0    0 -0.22633085150E+02  0.17617074243E+02 -0.96073853193E-01  0.96318523774E+02  0.91949067116E+02 0.  0.
         13    1    3    3    0    0 -0.25752738989E+02  0.47412542635E+02 -0.22954775132E+02  0.58635191054E+02  0.10566000000E+00 0. -1.
         22    1    1    0    0    0  0.22633085150E+02 -0.17617074243E+02  0.96073853193E-01  0.28681476226E+02  0.00000000000E+00 0. -1.
</event>
<event>
 5    1  0.1668518E-003  0.9118800E+02  0.7818608E-02  0.1130116E+00
         25   -1    0    0    0    0  0.00000000000E+00  0.00000000000E+00  0.99999998245E-14  0.12500000000E+03  0.12500000000E+03 0.  0.
        -13    1    3    3    0    0 -0.22955474970E+02 -0.19327859159E+02 -0.31417110424E+02  0.43446127125E+02  0.10566000000E+00 0. -1.
         23    2    1    0    0    0  0.15046968414E+02 -0.23609861923E+01 -0.36572767632E+02  0.85382417457E+02  0.75634676995E+02 0.  0.
         13    1    3    3    0    0  0.38002443385E+02  0.16966872967E+02 -0.51556572085E+01  0.41936290331E+02  0.10566000000E+00 0.  1.
         22    1    1    0    0    0 -0.15046968414E+02  0.23609861923E+01  0.36572767632E+02  0.39617582543E+02  0.00000000000E+00 0.  1.
</event>
<event>
 5    1  0.1668518E-003  0.9118800E+02  0.7818608E-02  0.1130116E+00
         25   -1    0    0    0    0  0.00000000000E+00  0.00000000000E+00  0.99999998245E-14  0.12500000000E+03  0.12500000000E+03 0.  0.
        -13    1    3    3    0    0 -0.96567914359E+01  0.59649432010E+02  0.11195257769E+02  0.61454481696E+02  0.10566000000E+00 0. -1.
         23    2    1    0    0    0  0.11387320311E+00  0.29582369962E+02 -0.11519261590E+01  0.95394991749E+02  0.90684882628E+02 0.  0.
         13    1    3    3    0    0  0.97706646390E+01 -0.30067062048E+02 -0.12347183928E+02  0.33940510054E+02  0.10566000000E+00 0.  1.
         22    1    1    0    0    0 -0.11387320311E+00 -0.29582369962E+02  0.11519261590E+01  0.29605008251E+02  0.00000000000E+00 0. -1.
</event>
<event>
 5    1  0.1668518E-003  0.9118800E+02  0.7818608E-02  0.1130116E+00
         25   -1    0    0    0    0  0.00000000000E+00  0.00000000000E+00  0.99999998245E-14  0.12500000000E+03  0.12500000000E+03 0.  0.
        -13    1    3    3    0    0  0.41505479377E+02  0.13731924559E+02 -0.50193257657E+01  0.44005401550E+02  0.10566000000E+00 0. -1.
         23    2    1    0    0    0 -0.11401836549E+02  0.22983325428E+02  0.55619266267E+01  0.98747949561E+02  0.95194471427E+02 0.  0.
         13    1    3    3    0    0 -0.52907315926E+02  0.92514008696E+01  0.10581252392E+02  0.54742548011E+02  0.10566000000E+00 0.  1.
         22    1    1    0    0    0  0.11401836549E+02 -0.22983325428E+02 -0.55619266267E+01  0.26252050439E+02  0.00000000000E+00 0.  1.
</event>
<event>
 5    1  0.1668518E-003  0.9118800E+02  0.7818608E-02  0.1130116E+00
         25   -1    0    0    0    0  0.00000000000E+00  0.00000000000E+00  0.99999998245E-14  0.12500000000E+03  0.12500000000E+03 0.  0.
        -13    1    3    3    0    0  0.19687401898E+02 -0.36217791671E+02  0.20427151610E+02  0.46006542078E+02  0.10566000000E+00 0.  1.
         23    2    1    0    0    0  0.28112646364E+02  0.88887675870E+01  0.20238248995E+01  0.95446202579E+02  0.90755444160E+02 0.  0.
         13    1    3    3    0    0  0.84252444660E+01  0.45106559258E+02 -0.18403326711E+02  0.49439660501E+02  0.10566000000E+00 0. -1.
         22    1    1    0    0    0 -0.28112646364E+02 -0.88887675870E+01 -0.20238248995E+01  0.29553797421E+02  0.00000000000E+00 0.  1.
</event>
<event>
 5    1  0.1668518E-003  0.9118800E+02  0.7818608E-02  0.1130116E+00
         25   -1    0    0    0    0  0.00000000000E+00  0.00000000000E+00  0.99999998245E-14  0.12500000000E+03  0.12500000000E+03 0.  0.
        -13    1    3    3    0    0  0.15599754903E+02 -0.22328201829E+02 -0.13409200840E+02  0.30359821823E+02  0.10566000000E+00 0.  1.
         23    2    1    0    0    0 -0.13924435317E+01  0.28592555623E+02  0.16649596633E+02  0.91883807525E+02  0.85708528637E+02 0.  0.
         13    1    3    3    0    0 -0.16992198435E+02  0.50920757452E+02  0.30058797472E+02  0.61523985702E+02  0.10566000000E+00 0. -1.
         22    1    1    0    0    0  0.13924435317E+01 -0.28592555623E+02 -0.16649596633E+02  0.33116192475E+02  0.00000000000E+00 0. -1.
</event>
<event>
 5    1  0.1668518E-003  0.9118800E+02  0.7818608E-02  0.1130116E+00
         25   -1    0    0    0    0  0.00000000000E+00  0.00000000000E+00  0.99999998245E-14  0.12500000000E+03  0.12500000000E+03 0.  0.
        -13    1    3    3    0    0  0.23069899895E+02  0.27582018447E+02  0.40501293984E+02  0.54160446833E+02  0.10566000000E+00 0. -1.
         23    2    1    0    0    0 -0.26720362102E+01 -0.44075791683E+01  0.27191071635E+02  0.97324723881E+02  0.93306918126E+02 0.  0.
         13    1    3    3    0    0 -0.25741936105E+02 -0.31989597615E+02 -0.13310222349E+02  0.43164277047E+02  0.10566000000E+00 0.  1.
         22    1    1    0    0    0  0.26720362102E+01  0.44075791683E+01 -0.27191071635E+02  0.27675276119E+02  0.00000000000E+00 0. -1.
</event>
<event>
 5    1  0.1668518E-003  0.9118800E+02  0.7818608E-02  0.1130116E+00
         25   -1    0    0    0    0  0.00000000000E+00  0.00000000000E+00  0.99999998245E-14  0.12500000000E+03  0.12500000000E+03 0.  0.
        -13    1    3    3    0    0 -0.44825653402E+01  0.54778944214E+01  0.53802921507E+02  0.54266621841E+02  0.10566000000E+00 0.  1.
         23    2    1    0    0    0  0.61029519690E+00  0.24325466820E+02  0.19173415081E+02  0.94020641677E+02  0.88770267654E+02 0.  0.
         13    1    3    3    0    0  0.50928605371E+01  0.18847572398E+02 -0.34629506426E+02  0.39754019836E+02  0.10566000000E+00 0. -1.
         22    1    1    0    0    0 -0.61029519690E+00 -0.24325466820E+02 -0.19173415081E+02  0.30979358323E+02  0.00000000000E+00 0. -1.
</event>
<event>
 5    1  0.1668518E-003  0.9118800E+02  0.7818608E-02  0.1130116E+00
         25   -1    0    0    0    0  0.00000000000E+00  0.00000000000E+00  0.99999998245E-14  0.12500000000E+03  0.12500000000E+03 0.  0.
        -13    1    3    3    0    0  0.16839756121E+02  0.28395957777E+02  0.90888514223E+01  0.34242169740E+02  0.10566000000E+00 0.  1.
         23    2    1    0    0    0 -0.26933967564E+02 -0.13110145203E+02  0.39815998975E+01  0.94781336004E+02  0.89835037713E+02 0.  0.
         13    1    3    3    0    0 -0.43773723685E+02 -0.41506102979E+02 -0.51072515247E+01  0.60539166264E+02  0.10566000000E+00 0. -1.
         22    1    1    0    0    0  0.26933967564E+02  0.13110145203E+02 -0.39815998975E+01  0.30218663996E+02  0.00000000000E+00 0. -1.
</event>
<event>
 5    1  0.1668518E-003  0.9118800E+02  0.7818608E-02  0.1130116E+00
         25   -1    0    0    0    0  0.00000000000E+00  0.00000000000E+00  0.99999998245E-14  0.12500000000E+03  0.12500000000E+03 0.  0.
        -13    1    3    3    0    0 -0.45148988251E+02 -0.87720684115E+01  0.27528820937E+02  0.53602495003E+02  0.10566000000E+00 0.  1.
         23    2    1    0    0    0 -0.11876861144E+02 -0.25431274627E+02  0.71146173312E+01  0.96044390188E+02  0.91575638393E+02 0.  0.
         13    1    3    3    0    0  0.33272127108E+02 -0.16659206216E+02 -0.20414203606E+02  0.42441895185E+02  0.10566000000E+00 0. -1.
         22    1    1    0    0    0  0.11876861144E+02  0.25431274627E+02 -0.71146173312E+01  0.28955609812E+02  0.00000000000E+00 0.  1.
</event>
<event>
 5    1  0.1668518E-003  0.9118800E+02  0.7818608E-02  0.1130116E+00
         25   -1    0    0    0    0  0.00000000000E+00  0.00000000000E+00  0.99999998245E-14  0.12500000000E+03  0.12500000000E+03 0.  0.
        -13    1    3    3    0    0 -0.38272590213E+01 -0.15930040719E+01  0.51308852501E+02  0.51476160333E+02  0.10566000000E+00 0.  1.
         23    2    1    0    0    0 -0.15973573645E+02 -0.20317617783E+02  0.12394841451E+02  0.96336560884E+02  0.91973584365E+02 0.  0.
         13    1    3    3    0    0 -0.12146314624E+02 -0.18724613711E+02 -0.38914011050E+02  0.44860400551E+02  0.10566000000E+00 0. -1.
         22    1    1    0    0    0  0.15973573645E+02  0.20317617783E+02 -0.12394841451E+02  0.28663439116E+02  0.00000000000E+00 0. -1.
</event>
<event>
 5    1  0.1668518E-003  0.9118800E+02  0.7818608E-02  0.1130116E+00
         25   -1    0    0    0    0  0.00000000000E+00  0.00000000000E+00  0.99999998245E-14  0.12500000000E+03  0.12500000000E+03 0.  0.
        -13    1    3    3    0    0 -0.25036928232E+02  0.54743111358E+02 -0.69681926017E-01  0.60196943743E+02  0.10566000000E+00 0. -1.
         23    2    1    0    0    0 -0.11974547996E+01  0.29030007129E+02 -0.47072544049E+01  0.95566456959E+02  0.90920923004E+02 0.  0.
         13    1    3    3    0    0  0.23839473433E+02 -0.25713104229E+02 -0.46375724789E+01  0.35369513216E+02  0.10566000000E+00 0.  1.
         22    1    1    0    0    0  0.11974547996E+01 -0.29030007129E+02  0.47072544049E+01  0.29433543041E+02  0.00000000000E+00 0. -1.
</event>
<event>
 5    1  0.1668518E-003  0.9118800E+02  0.7818608E-02  0.1130116E+00
         25   -1    0    0    0    0  0.00000000000E+00  0.00000000000E+00  0.99999998245E-14  0.12500000000E+03  0.12500000000E+03 0.  0.
        -13    1    3    3    0    0  0.25428396209E+02  0.20543696572E+02 -0.53666054296E+01  0.33127909993E+02  0.10566000000E+00 0.  1.
         23    2    1    0    0    0 -0.26709366552E+02 -0.62588637597E+01  0.13111563758E+02  0.94594790885E+02  0.89575095430E+02 0.  0.
         13    1    3    3    0    0 -0.52137762761E+02 -0.26802560332E+02  0.18478169187E+02  0.61466880892E+02  0.10566000000E+00 0. -1.
         22    1    1    0    0    0  0.26709366552E+02  0.62588637597E+01 -0.13111563758E+02  0.30405209115E+02  0.00000000000E+00 0. -1.
</event>
<event>
 5    1  0.1668518E-003  0.9118800E+02  0.7818608E-02  0.1130116E+00
         25   -1    0    0    0    0  0.00000000000E+00  0.00000000000E+00  0.99999998245E-14  0.12500000000E+03  0.12500000000E+03 0.  0.
        -13    1    3    3    0    0  0.40873486728E+02  0.28616683043E+02  0.82587427243E+01  0.50574444744E+02  0.10566000000E+00 0. -1.
         23    2    1    0    0    0  0.23542078516E+02 -0.12598939600E+02  0.12559535543E+02  0.95492294685E+02  0.90818905913E+02 0.  0.
         13    1    3    3    0    0 -0.17331408212E+02 -0.41215622643E+02  0.43007928189E+01  0.44917849941E+02  0.10566000000E+00 0.  1.
         22    1    1    0    0    0 -0.23542078516E+02  0.12598939600E+02 -0.12559535543E+02  0.29507705315E+02  0.00000000000E+00 0. -1.
</event>
<event>
 5    1  0.1668518E-003  0.9118800E+02  0.7818608E-02  0.1130116E+00
         25   -1    0    0    0    0  0.00000000000E+00  0.00000000000E+00  0.99999998245E-14  0.12500000000E+03  0.12500000000E+03 0.  0.
        -13    1    3    3    0    0  0.59353111849E+02 -0.17741424536E+02  0.19413914792E+01  0.61978465580E+02  0.10566000000E+00 0. -1.
         23    2    1    0    0    0  0.38385081795E+02 -0.66123826535E+01 -0.17890778099E+01  0.86008476457E+02  0.76662370915E+02 0.  0.
         13    1    3    3    0    0 -0.20968030054E+02  0.11129041883E+02 -0.37304692892E+01  0.24030010877E+02  0.10566000000E+00 0.  1.
         22    1    1    0    0    0 -0.38385081795E+02  0.66123826535E+01  0.17890778099E+01  0.38991523543E+02  0.00000000000E+00 0. -1.
</event>
<event>
 5    1  0.1668518E-003  0.9118800E+02  0.7818608E-02  0.1130116E+00
         25   -1    0    0    0    0  0.00000000000E+00  0.00000000000E+00  0.99999998245E-14  0.12500000000E+03  0.12500000000E+03 0.  0.
        -13    1    3    3    0    0 -0.84604024897E+01  0.28296666607E+02  0.22398274196E+02  0.37067149909E+02  0.10566000000E+00 0.  1.
         23    2    1    0    0    0  0.43419700170E+01 -0.27389718399E+02  0.98743656423E+01  0.95562736634E+02  0.90915808079E+02 0.  0.
         13    1    3    3    0    0  0.12802372507E+02 -0.55686385007E+02 -0.12523908553E+02  0.58495586726E+02  0.10566000000E+00 0. -1.
         22    1    1    0    0    0 -0.43419700170E+01  0.27389718399E+02 -0.98743656423E+01  0.29437263366E+02  0.00000000000E+00 0. -1.
</event>
<event>
 5    1  0.1668518E-003  0.9118800E+02  0.7818608E-02  0.1130116E+00
         25   -1    0    0    0    0  0.00000000000E+00  0.00000000000E+00  0.99999998245E-14  0.12500000000E+03  0.12500000000E+03 0.  0.
        -13    1    3    3    0    0  0.37823860062E+02 -0.14334516519E+02 -0.82349987478E+01  0.41278918617E+02  0.10566000000E+00 0. -1.
         23    2    1    0    0    0 -0.15947882769E+02 -0.21319668196E+02 -0.12334162787E+02  0.95657287303E+02  0.91045712835E+02 0.  0.
         13    1    3    3    0    0 -0.53771742831E+02 -0.69851516768E+01 -0.40991640388E+01  0.54378368685E+02  0.10566000000E+00 0.  1.
         22    1    1    0    0    0  0.15947882769E+02  0.21319668196E+02  0.12334162787E+02  0.29342712697E+02  0.00000000000E+00 0.  1.
</event>
<event>
 5    1  0.1668518E-003  0.9118800E+02  0.7818608E-02  0.1130116E+00
         25   -1    0    0    0    0  0.00000000000E+00  0.00000000000E+00  0.99999998245E-14  0.12500000000E+03  0.12500000000E+03 0.  0.
        -13    1    3    3    0    0 -0.50575929646E+02  0.29454299328E+01 -0.93344327511E+01  0.51514493261E+02  0.10566000000E+00 0.  1.
         23    2    1    0    0    0 -0.14121270597E+02  0.23264197897E+02 -0.15466483057E+02  0.93697519504E+02  0.88314097832E+02 0.  0.
         13    1    3    3    0    0  0.36454659050E+02  0.20318767965E+02 -0.61320503062E+01  0.42183026243E+02  0.10566000000E+00 0. -1.
         22    1    1    0    0    0  0.14121270597E+02 -0.23264197897E+02  0.15466483057E+02  0.31302480496E+02  0.00000000000E+00 0.  1.
</event>
<event>
 5    1  0.1668518E-003  0.9118800E+02  0.7818608E-02  0.1130116E+00
         25   -1    0    0    0    0  0.00000000000E+00  0.00000000000E+00  0.99999998245E-14  0.12500000000E+03  0.12500000000E+03 0.  0.
        -13    1    3    3    0    0 -0.44162445206E+02 -0.10860935594E+02 -0.13528408615E+02  0.47447976693E+02  0.10566000000E+00 0. -1.
         23    2    1    0    0    0 -0.10377940175E+02  0.84309890498E+01  0.21422844253E+02  0.99746852186E+02  0.96497217817E+02 0.  0.
         13    1    3    3    0    0  0.33784505031E+02  0.19291924644E+02  0.34951252869E+02  0.52298875493E+02  0.10566000000E+00 0.  1.
         22    1    1    0    0    0  0.10377940175E+02 -0.84309890498E+01 -0.21422844253E+02  0.25253147814E+02  0.00000000000E+00 0.  1.
</event>
<event>
 5    1  0.1668518E-003  0.9118800E+02  0.7818608E-02  0.1130116E+00
         25   -1    0    0    0    0  0.00000000000E+00  0.00000000000E+00  0.99999998245E-14  0.12500000000E+03  0.12500000000E+03 0.  0.
        -13    1    3    3    0    0 -0.14306466324E+02  0.57197278689E+02  0.20245374722E+01  0.58994182629E+02  0.10566000000E+00 0.  1.
         23    2    1    0    0    0 -0.20544565674E+02  0.21557213507E+02  0.24546681247E+00  0.95219924666E+02  0.90443248319E+02 0.  0.
         13    1    3    3    0    0 -0.62380993505E+01 -0.35640065182E+02 -0.17790706597E+01  0.36225742037E+02  0.10566000000E+00 0. -1.
         22    1    1    0    0    0  0.20544565674E+02 -0.21557213507E+02 -0.24546681247E+00  0.29780075334E+02  0.00000000000E+00 0.  1.
</event>
<event>
 5    1  0.1668518E-003  0.9118800E+02  0.7818608E-02  0.1130116E+00
         25   -1    0    0    0    0  0.00000000000E+00  0.00000000000E+00  0.99999998245E-14  0.12500000000E+03  0.12500000000E+03 0.  0.
        -13    1    3    3    0    0  0.36854427238E+00  0.13309610292E+02 -0.29116288543E+02  0.32016417251E+02  0.10566000000E+00 0. -1.
         23    2    1    0    0    0  0.77759221122E+01  0.16988059113E+01  0.30641907872E+02  0.93341234638E+02  0.87808363267E+02 0.  0.
         13    1    3    3    0    0  0.74073778398E+01 -0.11610804381E+02  0.59758196415E+02  0.61324817387E+02  0.10566000000E+00 0.  1.
         22    1    1    0    0    0 -0.77759221122E+01 -0.16988059113E+01 -0.30641907872E+02  0.31658765362E+02  0.00000000000E+00 0.  1.
</event>
<event>
 5    1  0.1668518E-003  0.9118800E+02  0.7818608E-02  0.1130116E+00
         25   -1    0    0    0    0  0.00000000000E+00  0.00000000000E+00  0.99999998245E-14  0.12500000000E+03  0.12500000000E+03 0.  0.
        -13    1    3    3    0    0  0.21067522363E+02  0.38036597345E+02  0.22655027901E+02  0.49029426769E+02  0.10566000000E+00 0. -1.
         23    2    1    0    0    0  0.18575191777E+02  0.14410531357E+02 -0.17504174176E+02  0.95689638741E+02  0.91090118483E+02 0.  0.
         13    1    3    3    0    0 -0.24923305859E+01 -0.23626065988E+02 -0.40159202077E+02  0.46660211972E+02  0.10566000000E+00 0.  1.
         22    1    1    0    0    0 -0.18575191777E+02 -0.14410531357E+02  0.17504174176E+02  0.29310361259E+02  0.00000000000E+00 0. -1.
</event>
<event>
 5    1  0.1668518E-003  0.9118800E+02  0.7818608E-02  0.1130116E+00
         25   -1    0    0    0    0  0.00000000000E+00  0.00000000000E+00  0.99999998245E-14  0.12500000000E+03  0.12500000000E+03 0.  0.
        -13    1    3    3    0    0 -0.18192601814E+02 -0.10486499237E+02  0.30277735225E+02  0.36846843032E+02  0.10566000000E+00 0.  1.
         23    2    1    0    0    0  0.26804304017E+02  0.57981033989E+01 -0.60370121624E+01  0.96919148291E+02  0.92761991531E+02 0.  0.
         13    1    3    3    0    0  0.44996905831E+02  0.16284602636E+02 -0.36314747387E+02  0.60072305260E+02  0.10566000000E+00 0. -1.
         22    1    1    0    0    0 -0.26804304017E+02 -0.57981033989E+01  0.60370121624E+01  0.28080851709E+02  0.00000000000E+00 0. -1.
</event>
<event>
 5    1  0.1668518E-003  0.9118800E+02  0.7818608E-02  0.1130116E+00
         25   -1    0    0    0    0  0.00000000000E+00  0.00000000000E+00  0.99999998245E-14  0.12500000000E+03  0.12500000000E+03 0.  0.
        -13    1    3    3    0    0  0.32906555511E+02 -0.42246625873E+01 -0.42262441883E+02  0.53729082697E+02  0.10566000000E+00 0.  1.
         23    2    1    0    0    0  0.27675937778E+02  0.94864544809E+01 -0.30654668431E+01  0.95583211639E+02  0.90943954773E+02 0.  0.
         13    1    3    3    0    0 -0.52306177324E+01  0.13711117068E+02  0.39196975040E+02  0.41854128941E+02  0.10566000000E+00 0. -1.
         22    1    1    0    0    0 -0.27675937778E+02 -0.94864544809E+01  0.30654668431E+01  0.29416788361E+02  0.00000000000E+00 0.  1.
</event>
<event>
 5    1  0.1668518E-003  0.9118800E+02  0.7818608E-02  0.1130116E+00
         25   -1    0    0    0    0  0.00000000000E+00  0.00000000000E+00  0.99999998245E-14  0.12500000000E+03  0.12500000000E+03 0.  0.
        -13    1    3    3    0    0  0.32898910071E+02 -0.30798331513E+02 -0.23866200689E+02  0.50994923348E+02  0.10566000000E+00 0.  1.
         23    2    1    0    0    0  0.39250437858E+01 -0.28292465722E+02  0.91629179454E+01  0.95002855959E+02  0.90142742302E+02 0.  0.
         13    1    3    3    0    0 -0.28973866285E+02  0.25058657912E+01  0.33029118635E+02  0.44007932611E+02  0.10566000000E+00 0. -1.
         22    1    1    0    0    0 -0.39250437858E+01  0.28292465722E+02 -0.91629179454E+01  0.29997144041E+02  0.00000000000E+00 0.  1.
</event>
<event>
 5    1  0.1668518E-003  0.9118800E+02  0.7818608E-02  0.1130116E+00
         25   -1    0    0    0    0  0.00000000000E+00  0.00000000000E+00  0.99999998245E-14  0.12500000000E+03  0.12500000000E+03 0.  0.
        -13    1    3    3    0    0  0.71729385104E+01  0.26082107118E+01  0.35672850662E+02  0.36480367986E+02  0.10566000000E+00 0. -1.
         23    2    1    0    0    0 -0.21230201315E+02  0.95230462711E+01 -0.16631121621E+02  0.96399229651E+02  0.92058717202E+02 0.  0.
         13    1    3    3    0    0 -0.28403139826E+02  0.69148355593E+01 -0.52303972282E+02  0.59918861666E+02  0.10566000000E+00 0.  1.
         22    1    1    0    0    0  0.21230201315E+02 -0.95230462711E+01  0.16631121621E+02  0.28600770349E+02  0.00000000000E+00 0.  1.
</event>
<event>
 5    1  0.1668518E-003  0.9118800E+02  0.7818608E-02  0.1130116E+00
         25   -1    0    0    0    0  0.00000000000E+00  0.00000000000E+00  0.99999998245E-14  0.12500000000E+03  0.12500000000E+03 0.  0.
        -13    1    3    3    0    0  0.44300167671E+02 -0.18887051316E+02 -0.29180689198E+01  0.48246780757E+02  0.10566000000E+00 0. -1.
         23    2    1    0    0    0  0.20103035910E+02  0.16439933429E+02 -0.17729737955E+02  0.93555651193E+02  0.88113068261E+02 0.  0.
         13    1    3    3    0    0 -0.24197131762E+02  0.35326984744E+02 -0.14811669035E+02  0.45308870437E+02  0.10566000000E+00 0.  1.
         22    1    1    0    0    0 -0.20103035910E+02 -0.16439933429E+02  0.17729737955E+02  0.31444348807E+02  0.00000000000E+00 0. -1.
</event>
<event>
 5    1  0.1668518E-003  0.9118800E+02  0.7818608E-02  0.1130116E+00
         25   -1    0    0    0    0  0.00000000000E+00  0.00000000000E+00  0.99999998245E-14  0.12500000000E+03  0.12500000000E+03 0.  0.
        -13    1    3    3    0    0  0.30495821334E+02 -0.30986336185E+02 -0.58464827232E+01  0.43867307569E+02  0.10566000000E+00 0.  1.
         23    2    1    0    0    0 -0.89275133299E+00 -0.78635411490E+01  0.28251453699E+02  0.95661000009E+02  0.91050810004E+02 0.  0.
         13    1    3    3    0    0 -0.31388572667E+02  0.23122795036E+02  0.34097936422E+02  0.51793692441E+02  0.10566000000E+00 0. -1.
         22    1    1    0    0    0  0.89275133299E+00  0.78635411490E+01 -0.28251453699E+02  0.29338999991E+02  0.00000000000E+00 0. -1.
</event>
<event>
 5    1  0.1668518E-003  0.9118800E+02  0.7818608E-02  0.1130116E+00
         25   -1    0    0    0    0  0.00000000000E+00  0.00000000000E+00  0.99999998245E-14  0.12500000000E+03  0.12500000000E+03 0.  0.
        -13    1    3    3    0    0  0.46282048679E+01  0.35224292398E+02 -0.37980661062E+02  0.52006853721E+02  0.10566000000E+00 0.  1.
         23    2    1    0    0    0  0.50892734868E+01  0.31788972540E+02  0.25684053377E+01  0.92703929252E+02  0.86896388377E+02 0.  0.
         13    1    3    3    0    0  0.46106861893E+00 -0.34353198580E+01  0.40549066400E+02  0.40697075531E+02  0.10566000000E+00 0. -1.
         22    1    1    0    0    0 -0.50892734868E+01 -0.31788972540E+02 -0.25684053377E+01  0.32296070748E+02  0.00000000000E+00 0.  1.
</event>
<event>
 5    1  0.1668518E-003  0.9118800E+02  0.7818608E-02  0.1130116E+00
         25   -1    0    0    0    0  0.00000000000E+00  0.00000000000E+00  0.99999998245E-14  0.12500000000E+03  0.12500000000E+03 0.  0.
        -13    1    3    3    0    0 -0.47434565706E+02  0.20055348728E+02 -0.33028605362E+01  0.51605959811E+02  0.10566000000E+00 0. -1.
         23    2    1    0    0    0 -0.13770062105E+02  0.13465863959E+02  0.23122008088E+02  0.94907287251E+02  0.90010120613E+02 0.  0.
         13    1    3    3    0    0  0.33664503601E+02 -0.65894847687E+01  0.26424868624E+02  0.43301327440E+02  0.10566000000E+00 0.  1.
         22    1    1    0    0    0  0.13770062105E+02 -0.13465863959E+02 -0.23122008088E+02  0.30092712749E+02  0.00000000000E+00 0. -1.
</event>
<event>
 5    1  0.1668518E-003  0.9118800E+02  0.7818608E-02  0.1130116E+00
         25   -1    0    0    0    0  0.00000000000E+00  0.00000000000E+00  0.99999998245E-14  0.12500000000E+03  0.12500000000E+03 0.  0.
        -13    1    3    3    0    0  0.34479958715E+02 -0.77348197709E+01  0.41728841432E+02  0.54680914048E+02  0.10566000000E+00 0.  1.
         23    2    1    0    0    0  0.21789854784E+02 -0.24183692919E+01 -0.42446673001E+01  0.10266922567E+03  0.10021130883E+03 0.  0.
         13    1    3    3    0    0 -0.12690103930E+02  0.53164504790E+01 -0.45973508732E+02  0.47988311625E+02  0.10566000000E+00 0. -1.
         22    1    1    0    0    0 -0.21789854784E+02  0.24183692919E+01  0.42446673001E+01  0.22330774327E+02  0.00000000000E+00 0.  1.
</event>
<event>
 5    1  0.1668518E-003  0.9118800E+02  0.7818608E-02  0.1130116E+00
         25   -1    0    0    0    0  0.00000000000E+00  0.00000000000E+00  0.99999998245E-14  0.12500000000E+03  0.12500000000E+03 0.  0.
        -13    1    3    3    0    0 -0.42216544047E+02  0.32815407689E+02 -0.94880757730E+01  0.54305822146E+02  0.10566000000E+00 0. -1.
         23    2    1    0    0    0 -0.11402156645E+02  0.23006144553E+02  0.15352647547E+02  0.95083522098E+02  0.90254531878E+02 0.  0.
         13    1    3    3    0    0  0.30814387402E+02 -0.98092631356E+01  0.24840723320E+02  0.40777699952E+02  0.10566000000E+00 0.  1.
         22    1    1    0    0    0  0.11402156645E+02 -0.23006144553E+02 -0.15352647547E+02  0.29916477902E+02  0.00000000000E+00 0. -1.
</event>
<event>
 5    1  0.1668518E-003  0.9118800E+02  0.7818608E-02  0.1130116E+00
         25   -1    0    0    0    0  0.00000000000E+00  0.00000000000E+00  0.99999998245E-14  0.12500000000E+03  0.12500000000E+03 0.  0.
        -13    1    3    3    0    0 -0.12268477857E+02 -0.24490102005E+02 -0.19866820784E+02  0.33837588231E+02  0.10566000000E+00 0. -1.
         23    2    1    0    0    0  0.27178599063E+02 -0.38378640457E+02 -0.81224900580E+01  0.77276094721E+02  0.60778480404E+02 0.  0.
         13    1    3    3    0    0  0.39447076920E+02 -0.13888538452E+02  0.11744330726E+02  0.43438506490E+02  0.10566000000E+00 0.  1.
         22    1    1    0    0    0 -0.27178599063E+02  0.38378640457E+02  0.81224900580E+01  0.47723905279E+02  0.00000000000E+00 0. -1.
</event>
<event>
 5    1  0.1668518E-003  0.9118800E+02  0.7818608E-02  0.1130116E+00
         25   -1    0    0    0    0  0.00000000000E+00  0.00000000000E+00  0.99999998245E-14  0.12500000000E+03  0.12500000000E+03 0.  0.
        -13    1    3    3    0    0  0.12710391215E+02 -0.18392729149E+02  0.33369735425E+02  0.40167112627E+02  0.10566000000E+00 0. -1.
         23    2    1    0    0    0 -0.20439883320E+02 -0.12706456315E+02 -0.13151495475E+02  0.97573649615E+02  0.93639801387E+02 0.  0.
         13    1    3    3    0    0 -0.33150274535E+02  0.56862728337E+01 -0.46521230900E+02  0.57406536988E+02  0.10566000000E+00 0.  1.
         22    1    1    0    0    0  0.20439883320E+02  0.12706456315E+02  0.13151495475E+02  0.27426350385E+02  0.00000000000E+00 0.  1.
</event>
<event>
 5    1  0.1668518E-003  0.9118800E+02  0.7818608E-02  0.1130116E+00
         25   -1    0    0    0    0  0.00000000000E+00  0.00000000000E+00  0.99999998245E-14  0.12500000000E+03  0.12500000000E+03 0.  0.
        -13    1    3    3    0    0  0.17930009475E+01  0.99750695901E+01  0.45326080451E+02  0.46445469088E+02  0.10566000000E+00 0. -1.
         23    2    1    0    0    0  0.28570950272E+02 -0.23799131581E+01  0.58194817822E+01  0.95745435326E+02  0.91166654164E+02 0.  0.
         13    1    3    3    0    0  0.26777949324E+02 -0.12354982748E+02 -0.39506598668E+02  0.49299966238E+02  0.10566000000E+00 0.  1.
         22    1    1    0    0    0 -0.28570950272E+02  0.23799131581E+01 -0.58194817822E+01  0.29254564674E+02  0.00000000000E+00 0.  1.
</event>
<event>
 5    1  0.1668518E-003  0.9118800E+02  0.7818608E-02  0.1130116E+00
         25   -1    0    0    0    0  0.00000000000E+00  0.00000000000E+00  0.99999998245E-14  0.12500000000E+03  0.12500000000E+03 0.  0.
        -13    1    3    3    0    0 -0.40598630304E+02  0.28057995131E+02  0.28136064476E+02  0.56808002619E+02  0.10566000000E+00 0. -1.
         23    2    1    0    0    0 -0.59915412040E+01  0.15041335665E+02  0.26656336793E+02  0.93811851036E+02  0.88475774984E+02 0.  0.
         13    1    3    3    0    0  0.34607089100E+02 -0.13016659466E+02 -0.14797276825E+01  0.37003848417E+02  0.10566000000E+00 0.  1.
         22    1    1    0    0    0  0.59915412040E+01 -0.15041335665E+02 -0.26656336793E+02  0.31188148964E+02  0.00000000000E+00 0. -1.
</event>
<event>
 5    1  0.1668518E-003  0.9118800E+02  0.7818608E-02  0.1130116E+00
         25   -1    0    0    0    0  0.00000000000E+00  0.00000000000E+00  0.99999998245E-14  0.12500000000E+03  0.12500000000E+03 0.  0.
        -13    1    3    3    0    0 -0.41847915092E+02  0.12046024808E+01  0.55568379672E+01  0.42232554706E+02  0.10566000000E+00 0.  1.
         23    2    1    0    0    0  0.31978385959E-01 -0.29261248994E+02 -0.55949121134E+01  0.95208646273E+02  0.90427659310E+02 0.  0.
         13    1    3    3    0    0  0.41879893478E+02 -0.30465851475E+02 -0.11151750081E+02  0.52976091568E+02  0.10566000000E+00 0. -1.
         22    1    1    0    0    0 -0.31978385959E-01  0.29261248994E+02  0.55949121134E+01  0.29791353727E+02  0.00000000000E+00 0.  1.
</event>
<event>
 5    1  0.1668518E-003  0.9118800E+02  0.7818608E-02  0.1130116E+00
         25   -1    0    0    0    0  0.00000000000E+00  0.00000000000E+00  0.99999998245E-14  0.12500000000E+03  0.12500000000E+03 0.  0.
        -13    1    3    3    0    0  0.21719131351E+02 -0.24711550447E+02 -0.27821664398E+02  0.43086396531E+02  0.10566000000E+00 0. -1.
         23    2    1    0    0    0  0.20741624524E+01  0.22008080169E+02 -0.21503710395E+02  0.94160620898E+02  0.88967158124E+02 0.  0.
         13    1    3    3    0    0 -0.19644968898E+02  0.46719630616E+02  0.63179540028E+01  0.51074224367E+02  0.10566000000E+00 0.  1.
         22    1    1    0    0    0 -0.20741624524E+01 -0.22008080169E+02  0.21503710395E+02  0.30839379102E+02  0.00000000000E+00 0.  1.
</event>
<event>
 5    1  0.1668518E-003  0.9118800E+02  0.7818608E-02  0.1130116E+00
         25   -1    0    0    0    0  0.00000000000E+00  0.00000000000E+00  0.99999998245E-14  0.12500000000E+03  0.12500000000E+03 0.  0.
        -13    1    3    3    0    0  0.25286378549E+01 -0.25894668308E+02 -0.34389195229E+02  0.43122566815E+02  0.10566000000E+00 0. -1.
         23    2    1    0    0    0  0.24835806827E+02 -0.96736779102E+01  0.10944242262E+02  0.96187263515E+02  0.91770452101E+02 0.  0.
         13    1    3    3    0    0  0.22307168972E+02  0.16220990398E+02  0.45333437492E+02  0.53064696700E+02  0.10566000000E+00 0.  1.
         22    1    1    0    0    0 -0.24835806827E+02  0.96736779102E+01 -0.10944242262E+02  0.28812736485E+02  0.00000000000E+00 0.  1.
</event>
<event>
 5    1  0.1668518E-003  0.9118800E+02  0.7818608E-02  0.1130116E+00
         25   -1    0    0    0    0  0.00000000000E+00  0.00000000000E+00  0.99999998245E-14  0.12500000000E+03  0.12500000000E+03 0.  0.
        -13    1    3    3    0    0 -0.11481696210E+02  0.30930107040E+01  0.34564818374E+02  0.36553165339E+02  0.10566000000E+00 0.  1.
         23    2    1    0    0    0  0.13847964067E-01 -0.24480504793E+02 -0.16333401346E+02  0.95570842584E+02  0.90926952253E+02 0.  0.
         13    1    3    3    0    0  0.11495544174E+02 -0.27573515497E+02 -0.50898219720E+02  0.59017677245E+02  0.10566000000E+00 0. -1.
         22    1    1    0    0    0 -0.13847964067E-01  0.24480504793E+02  0.16333401346E+02  0.29429157416E+02  0.00000000000E+00 0. -1.
</event>
<event>
 5    1  0.1668518E-003  0.9118800E+02  0.7818608E-02  0.1130116E+00
         25   -1    0    0    0    0  0.00000000000E+00  0.00000000000E+00  0.99999998245E-14  0.12500000000E+03  0.12500000000E+03 0.  0.
        -13    1    3    3    0    0  0.32452137993E+02  0.20344114180E+02 -0.24423177789E+02  0.45426061016E+02  0.10566000000E+00 0. -1.
         23    2    1    0    0    0 -0.12742281090E+02 -0.43251361658E+01 -0.24650805315E+02  0.96915578466E+02  0.92757180943E+02 0.  0.
         13    1    3    3    0    0 -0.45194419083E+02 -0.24669250346E+02 -0.22762752599E+00  0.51489517450E+02  0.10566000000E+00 0.  1.
         22    1    1    0    0    0  0.12742281090E+02  0.43251361658E+01  0.24650805315E+02  0.28084421534E+02  0.00000000000E+00 0.  1.
</event>
<event>
 5    1  0.1668518E-003  0.9118800E+02  0.7818608E-02  0.1130116E+00
         25   -1    0    0    0    0  0.00000000000E+00  0.00000000000E+00  0.99999998245E-14  0.12500000000E+03  0.12500000000E+03 0.  0.
        -13    1    3    3    0    0  0.30474041795E+02 -0.28600911462E+02  0.10085162416E+02  0.42993034608E+02  0.10566000000E+00 0. -1.
         23    2    1    0    0    0  0.16396363487E+02  0.22020771912E+02  0.10685466039E+02  0.95539275032E+02  0.90883545034E+02 0.  0.
         13    1    3    3    0    0 -0.14077678309E+02  0.50621683374E+02  0.60030362234E+00  0.52546240424E+02  0.10566000000E+00 0.  1.
         22    1    1    0    0    0 -0.16396363487E+02 -0.22020771912E+02 -0.10685466039E+02  0.29460724968E+02  0.00000000000E+00 0.  1.
</event>
<event>
 5    1  0.1668518E-003  0.9118800E+02  0.7818608E-02  0.1130116E+00
         25   -1    0    0    0    0  0.00000000000E+00  0.00000000000E+00  0.99999998245E-14  0.12500000000E+03  0.12500000000E+03 0.  0.
        -13    1    3    3    0    0 -0.42065749450E+02 -0.86007498715E+01 -0.30546360208E+02  0.52693372080E+02  0.10566000000E+00 0.  1.
         23    2    1    0    0    0 -0.19068306054E+02  0.20435678812E+02 -0.85576685347E+01  0.95769006944E+02  0.91198967845E+02 0.  0.
         13    1    3    3    0    0  0.22997443396E+02  0.29036428684E+02  0.21988691673E+02  0.43075634865E+02  0.10566000000E+00 0. -1.
         22    1    1    0    0    0  0.19068306054E+02 -0.20435678812E+02  0.85576685347E+01  0.29230993056E+02  0.00000000000E+00 0. -1.
</event>
<event>
 5    1  0.1668518E-003  0.9118800E+02  0.7818608E-02  0.1130116E+00
         25   -1    0    0    0    0  0.00000000000E+00  0.00000000000E+00  0.99999998245E-14  0.12500000000E+03  0.12500000000E+03 0.  0.
        -13    1    3    3    0    0 -0.25734776286E+02  0.26121714932E+02 -0.17893784917E+02  0.40802223029E+02  0.10566000000E+00 0.  1.
         23    2    1    0    0    0  0.17116030390E+02  0.89948756312E+01  0.17469988362E+02  0.98941090251E+02  0.95447747814E+02 0.  0.
         13    1    3    3    0    0  0.42850806676E+02 -0.17126839300E+02  0.35363773279E+02  0.58138867221E+02  0.10566000000E+00 0. -1.
         22    1    1    0    0    0 -0.17116030390E+02 -0.89948756312E+01 -0.17469988362E+02  0.26058909749E+02  0.00000000000E+00 0. -1.
</event>
<event>
 5    1  0.1668518E-003  0.9118800E+02  0.7818608E-02  0.1130116E+00
         25   -1    0    0    0    0  0.00000000000E+00  0.00000000000E+00  0.99999998245E-14  0.12500000000E+03  0.12500000000E+03 0.  0.
        -13    1    3    3    0    0  0.17047612627E+02  0.44791012777E+02  0.30177272539E+02  0.56635102753E+02  0.10566000000E+00 0.  1.
         23    2    1    0    0    0  0.11266144778E+02  0.55647262020E+01  0.25515303562E+02  0.96558429865E+02  0.92274630675E+02 0.  0.
         13    1    3    3    0    0 -0.57814678480E+01 -0.39226286575E+02 -0.46619689770E+01  0.39923327112E+02  0.10566000000E+00 0. -1.
         22    1    1    0    0    0 -0.11266144778E+02 -0.55647262020E+01 -0.25515303562E+02  0.28441570135E+02  0.00000000000E+00 0. -1.
</event>
<event>
 5    1  0.1668518E-003  0.9118800E+02  0.7818608E-02  0.1130116E+00
         25   -1    0    0    0    0  0.00000000000E+00  0.00000000000E+00  0.99999998245E-14  0.12500000000E+03  0.12500000000E+03 0.  0.
        -13    1    3    3    0    0 -0.34880562481E+02  0.18713887892E+02  0.22952540885E+02  0.45756896050E+02  0.10566000000E+00 0. -1.
         23    2    1    0    0    0 -0.80122229218E+01 -0.13724255477E+02  0.32389581089E+02  0.88921808974E+02  0.81273933358E+02 0.  0.
         13    1    3    3    0    0  0.26868339559E+02 -0.32438143369E+02  0.94370402045E+01  0.43164912924E+02  0.10566000000E+00 0.  1.
         22    1    1    0    0    0  0.80122229218E+01  0.13724255477E+02 -0.32389581089E+02  0.36078191026E+02  0.00000000000E+00 0. -1.
</event>
<event>
 5    1  0.1668518E-003  0.9118800E+02  0.7818608E-02  0.1130116E+00
         25   -1    0    0    0    0  0.00000000000E+00  0.00000000000E+00  0.99999998245E-14  0.12500000000E+03  0.12500000000E+03 0.  0.
        -13    1    3    3    0    0  0.25930294448E+02 -0.36236631490E+02 -0.38109201805E+02  0.58632721736E+02  0.10566000000E+00 0.  1.
         23    2    1    0    0    0  0.15444044657E+01 -0.97627271746E+01 -0.26915711886E+02  0.96326814384E+02  0.91960337080E+02 0.  0.
         13    1    3    3    0    0 -0.24385889982E+02  0.26473904316E+02  0.11193489919E+02  0.37694092648E+02  0.10566000000E+00 0. -1.
         22    1    1    0    0    0 -0.15444044657E+01  0.97627271746E+01  0.26915711886E+02  0.28673185616E+02  0.00000000000E+00 0.  1.
</event>
<event>
 5    1  0.1668518E-003  0.9118800E+02  0.7818608E-02  0.1130116E+00
         25   -1    0    0    0    0  0.00000000000E+00  0.00000000000E+00  0.99999998245E-14  0.12500000000E+03  0.12500000000E+03 0.  0.
        -13    1    3    3    0    0  0.12713168362E+01 -0.16825144336E+02  0.38567785914E+02  0.42097351494E+02  0.10566000000E+00 0. -1.
         23    2    1    0    0    0  0.15844083989E+02 -0.21954493105E+02 -0.12302085996E+02  0.95261538627E+02  0.90500743957E+02 0.  0.
         13    1    3    3    0    0  0.14572767153E+02 -0.51293487693E+01 -0.50869871911E+02  0.53164187133E+02  0.10566000000E+00 0.  1.
         22    1    1    0    0    0 -0.15844083989E+02  0.21954493105E+02  0.12302085996E+02  0.29738461373E+02  0.00000000000E+00 0.  1.
</event>
<event>
 5    1  0.1668518E-003  0.9118800E+02  0.7818608E-02  0.1130116E+00
         25   -1    0    0    0    0  0.00000000000E+00  0.00000000000E+00  0.99999998245E-14  0.12500000000E+03  0.12500000000E+03 0.  0.
        -13    1    3    3    0    0  0.29312702883E+02 -0.48514131067E+02 -0.25367275917E+02  0.62099640216E+02  0.10566000000E+00 0. -1.
         23    2    1    0    0    0  0.19412168034E+02 -0.23898907313E+02 -0.10774967551E+02  0.92379608153E+02  0.86428595026E+02 0.  0.
         13    1    3    3    0    0 -0.99005348492E+01  0.24615223754E+02  0.14592308365E+02  0.30279967937E+02  0.10566000000E+00 0.  1.
         22    1    1    0    0    0 -0.19412168034E+02  0.23898907313E+02  0.10774967551E+02  0.32620391847E+02  0.00000000000E+00 0. -1.
</event>
<event>
 5    1  0.1668518E-003  0.9118800E+02  0.7818608E-02  0.1130116E+00
         25   -1    0    0    0    0  0.00000000000E+00  0.00000000000E+00  0.99999998245E-14  0.12500000000E+03  0.12500000000E+03 0.  0.
        -13    1    3    3    0    0 -0.20237976085E+02  0.29318549824E+02 -0.30186409854E+02  0.46694577241E+02  0.10566000000E+00 0.  1.
         23    2    1    0    0    0  0.15915743269E+02 -0.21429523134E+01 -0.25519992388E+02  0.94847501929E+02  0.89927056452E+02 0.  0.
         13    1    3    3    0    0  0.36153719355E+02 -0.31461502138E+02  0.46664174656E+01  0.48152924687E+02  0.10566000000E+00 0. -1.
         22    1    1    0    0    0 -0.15915743269E+02  0.21429523134E+01  0.25519992388E+02  0.30152498071E+02  0.00000000000E+00 0.  1.
</event>
<event>
 5    1  0.1668518E-003  0.9118800E+02  0.7818608E-02  0.1130116E+00
         25   -1    0    0    0    0  0.00000000000E+00  0.00000000000E+00  0.99999998245E-14  0.12500000000E+03  0.12500000000E+03 0.  0.
        -13    1    3    3    0    0  0.21210704867E+02 -0.13419245753E+02  0.29824224079E+02  0.38980324056E+02  0.10566000000E+00 0. -1.
         23    2    1    0    0    0  0.14033938180E+02  0.29064002469E+02 -0.21798623104E+01  0.92651592620E+02  0.86821069764E+02 0.  0.
         13    1    3    3    0    0 -0.71767666876E+01  0.42483248222E+02 -0.32004086390E+02  0.53671268564E+02  0.10566000000E+00 0.  1.
         22    1    1    0    0    0 -0.14033938180E+02 -0.29064002469E+02  0.21798623104E+01  0.32348407380E+02  0.00000000000E+00 0.  1.
</event>
<event>
 5    1  0.1668518E-003  0.9118800E+02  0.7818608E-02  0.1130116E+00
         25   -1    0    0    0    0  0.00000000000E+00  0.00000000000E+00  0.99999998245E-14  0.12500000000E+03  0.12500000000E+03 0.  0.
        -13    1    3    3    0    0 -0.40174260412E+02 -0.22582759272E+02  0.60164569746E+01  0.46477533653E+02  0.10566000000E+00 0. -1.
         23    2    1    0    0    0  0.45739078976E+01 -0.13832831345E+02  0.25157670532E+02  0.95928084977E+02  0.91416744879E+02 0.  0.
         13    1    3    3    0    0  0.44748168309E+02  0.87499279264E+01  0.19141213558E+02  0.49450551324E+02  0.10566000000E+00 0.  1.
         22    1    1    0    0    0 -0.45739078976E+01  0.13832831345E+02 -0.25157670532E+02  0.29071915023E+02  0.00000000000E+00 0.  1.
</event>
<event>
 5    1  0.1668518E-003  0.9118800E+02  0.7818608E-02  0.1130116E+00
         25   -1    0    0    0    0  0.00000000000E+00  0.00000000000E+00  0.99999998245E-14  0.12500000000E+03  0.12500000000E+03 0.  0.
        -13    1    3    3    0    0 -0.33462691489E+02  0.17880810570E+02  0.10656126229E+01  0.37955524006E+02  0.10566000000E+00 0.  1.
         23    2    1    0    0    0 -0.25895675304E+01 -0.26557360670E+02 -0.14986089401E+02  0.94396370456E+02  0.89297774967E+02 0.  0.
         13    1    3    3    0    0  0.30873123958E+02 -0.44438171240E+02 -0.16051702024E+02  0.56440846450E+02  0.10566000000E+00 0. -1.
         22    1    1    0    0    0  0.25895675304E+01  0.26557360670E+02  0.14986089401E+02  0.30603629544E+02  0.00000000000E+00 0. -1.
</event>
<event>
 5    1  0.1668518E-003  0.9118800E+02  0.7818608E-02  0.1130116E+00
         25   -1    0    0    0    0  0.00000000000E+00  0.00000000000E+00  0.99999998245E-14  0.12500000000E+03  0.12500000000E+03 0.  0.
        -13    1    3    3    0    0  0.58807637809E+02  0.85187814405E+01  0.81422640656E+01  0.59976791595E+02  0.10566000000E+00 0.  1.
         23    2    1    0    0    0  0.16095985853E+02  0.14103951663E+02  0.37127985120E+01  0.10327933965E+03  0.10096947516E+03 0.  0.
         13    1    3    3    0    0 -0.42711651956E+02  0.55851702228E+01 -0.44294655537E+01  0.43302548059E+02  0.10566000000E+00 0. -1.
         22    1    1    0    0    0 -0.16095985853E+02 -0.14103951663E+02 -0.37127985120E+01  0.21720660346E+02  0.00000000000E+00 0.  1.
</event>
<event>
 5    1  0.1668518E-003  0.9118800E+02  0.7818608E-02  0.1130116E+00
         25   -1    0    0    0    0  0.00000000000E+00  0.00000000000E+00  0.99999998245E-14  0.12500000000E+03  0.12500000000E+03 0.  0.
        -13    1    3    3    0    0  0.23806221703E+02 -0.39486165922E+02 -0.21865266115E+00  0.46108052052E+02  0.10566000000E+00 0.  1.
         23    2    1    0    0    0 -0.16961507178E+01  0.63141383117E+00  0.25009578573E+02  0.99925019819E+02  0.96727736223E+02 0.  0.
         13    1    3    3    0    0 -0.25502372421E+02  0.40117579754E+02  0.25228231234E+02  0.53816967767E+02  0.10566000000E+00 0. -1.
         22    1    1    0    0    0  0.16961507178E+01 -0.63141383117E+00 -0.25009578573E+02  0.25074980181E+02  0.00000000000E+00 0. -1.
</event>
<event>
 5    1  0.1668518E-003  0.9118800E+02  0.7818608E-02  0.1130116E+00
         25   -1    0    0    0    0  0.00000000000E+00  0.00000000000E+00  0.99999998245E-14  0.12500000000E+03  0.12500000000E+03 0.  0.
        -13    1    3    3    0    0 -0.18803791121E+02 -0.29351456958E+02 -0.12978988984E+02  0.37196181325E+02  0.10566000000E+00 0.  1.
         23    2    1    0    0    0 -0.56506720727E+01  0.27528718656E+02 -0.79545156699E+01  0.95793241103E+02  0.91232177853E+02 0.  0.
         13    1    3    3    0    0  0.13153119049E+02  0.56880175614E+02  0.50244733139E+01  0.58597059778E+02  0.10566000000E+00 0. -1.
         22    1    1    0    0    0  0.56506720727E+01 -0.27528718656E+02  0.79545156699E+01  0.29206758897E+02  0.00000000000E+00 0. -1.
</event>
<event>
 5    1  0.1668518E-003  0.9118800E+02  0.7818608E-02  0.1130116E+00
         25   -1    0    0    0    0  0.00000000000E+00  0.00000000000E+00  0.99999998245E-14  0.12500000000E+03  0.12500000000E+03 0.  0.
        -13    1    3    3    0    0  0.42730194249E+02  0.15839989895E+02 -0.41640873203E+02  0.61731258415E+02  0.10566000000E+00 0.  1.
         23    2    1    0    0    0  0.18405485055E+02  0.13903799419E+02 -0.17608849640E+02  0.95980194625E+02  0.91487970008E+02 0.  0.
         13    1    3    3    0    0 -0.24324709194E+02 -0.19361904768E+01  0.24032023563E+02  0.34248936210E+02  0.10566000000E+00 0. -1.
         22    1    1    0    0    0 -0.18405485055E+02 -0.13903799419E+02  0.17608849640E+02  0.29019805375E+02  0.00000000000E+00 0.  1.
</event>
<event>
 5    1  0.1668518E-003  0.9118800E+02  0.7818608E-02  0.1130116E+00
         25   -1    0    0    0    0  0.00000000000E+00  0.00000000000E+00  0.99999998245E-14  0.12500000000E+03  0.12500000000E+03 0.  0.
        -13    1    3    3    0    0  0.15219941076E+02 -0.37138685028E+02  0.18768603609E+02  0.44308014822E+02  0.10566000000E+00 0.  1.
         23    2    1    0    0    0  0.25539189163E+02 -0.16638763258E+01 -0.15815310829E+02  0.94914410025E+02  0.90020011699E+02 0.  0.
         13    1    3    3    0    0  0.10319248088E+02  0.35474808702E+02 -0.34583914438E+02  0.50606395203E+02  0.10566000000E+00 0. -1.
         22    1    1    0    0    0 -0.25539189163E+02  0.16638763258E+01  0.15815310829E+02  0.30085589975E+02  0.00000000000E+00 0.  1.
</event>
<event>
 5    1  0.1668518E-003  0.9118800E+02  0.7818608E-02  0.1130116E+00
         25   -1    0    0    0    0  0.00000000000E+00  0.00000000000E+00  0.99999998245E-14  0.12500000000E+03  0.12500000000E+03 0.  0.
        -13    1    3    3    0    0 -0.21366212511E+02 -0.49057992545E+02 -0.25604125784E+02  0.59319339939E+02  0.10566000000E+00 0.  1.
         23    2    1    0    0    0 -0.20650084714E+02 -0.14234750325E+02 -0.15207952673E+02  0.95668516232E+02  0.91061128139E+02 0.  0.
         13    1    3    3    0    0  0.71612779713E+00  0.34823242221E+02  0.10396173111E+02  0.36349176293E+02  0.10566000000E+00 0. -1.
         22    1    1    0    0    0  0.20650084714E+02  0.14234750325E+02  0.15207952673E+02  0.29331483768E+02  0.00000000000E+00 0.  1.
</event>
<event>
 5    1  0.1668518E-003  0.9118800E+02  0.7818608E-02  0.1130116E+00
         25   -1    0    0    0    0  0.00000000000E+00  0.00000000000E+00  0.99999998245E-14  0.12500000000E+03  0.12500000000E+03 0.  0.
        -13    1    3    3    0    0 -0.33744399965E+02  0.12177304087E+02  0.63051949448E+01  0.36424413669E+02  0.10566000000E+00 0.  1.
         23    2    1    0    0    0  0.20055643402E+02  0.11593656454E+02 -0.18194848987E+02  0.95543349955E+02  0.90889149455E+02 0.  0.
         13    1    3    3    0    0  0.53800043367E+02 -0.58364763367E+00 -0.24500043932E+02  0.59118936285E+02  0.10566000000E+00 0. -1.
         22    1    1    0    0    0 -0.20055643402E+02 -0.11593656454E+02  0.18194848987E+02  0.29456650045E+02  0.00000000000E+00 0. -1.
</event>
<event>
 5    1  0.1668518E-003  0.9118800E+02  0.7818608E-02  0.1130116E+00
         25   -1    0    0    0    0  0.00000000000E+00  0.00000000000E+00  0.99999998245E-14  0.12500000000E+03  0.12500000000E+03 0.  0.
        -13    1    3    3    0    0 -0.55220852910E+02 -0.25629013587E+02  0.29479443727E+01  0.60949901342E+02  0.10566000000E+00 0. -1.
         23    2    1    0    0    0 -0.20585062970E+02 -0.19316787274E+02  0.54670987900E+01  0.96246352279E+02  0.91850901301E+02 0.  0.
         13    1    3    3    0    0  0.34635789940E+02  0.63122263123E+01  0.25191544172E+01  0.35296450938E+02  0.10566000000E+00 0.  1.
         22    1    1    0    0    0  0.20585062970E+02  0.19316787274E+02 -0.54670987900E+01  0.28753647721E+02  0.00000000000E+00 0. -1.
</event>
<event>
 5    1  0.1668518E-003  0.9118800E+02  0.7818608E-02  0.1130116E+00
         25   -1    0    0    0    0  0.00000000000E+00  0.00000000000E+00  0.99999998245E-14  0.12500000000E+03  0.12500000000E+03 0.  0.
        -13    1    3    3    0    0  0.41101462530E+02 -0.22146205846E+01  0.26776911183E+02  0.49104469277E+02  0.10566000000E+00 0. -1.
         23    2    1    0    0    0 -0.47706666416E+01  0.39052185954E+01  0.28917465413E+02  0.95432622734E+02  0.90736738333E+02 0.  0.
         13    1    3    3    0    0 -0.45872129171E+02  0.61198391800E+01  0.21405542306E+01  0.46328153457E+02  0.10566000000E+00 0.  1.
         22    1    1    0    0    0  0.47706666416E+01 -0.39052185954E+01 -0.28917465413E+02  0.29567377266E+02  0.00000000000E+00 0. -1.
</event>
<event>
 5    1  0.1668518E-003  0.9118800E+02  0.7818608E-02  0.1130116E+00
         25   -1    0    0    0    0  0.00000000000E+00  0.00000000000E+00  0.99999998245E-14  0.12500000000E+03  0.12500000000E+03 0.  0.
        -13    1    3    3    0    0 -0.35610465458E+01  0.12604764506E+02  0.59035462378E+02  0.60471134626E+02  0.10566000000E+00 0.  1.
         23    2    1    0    0    0  0.92876775720E+01  0.82730963283E+01  0.26139856936E+02  0.96051818741E+02  0.91585777746E+02 0.  0.
         13    1    3    3    0    0  0.12848724118E+02 -0.43316681778E+01 -0.32895605442E+02  0.35580684115E+02  0.10566000000E+00 0. -1.
         22    1    1    0    0    0 -0.92876775720E+01 -0.82730963283E+01 -0.26139856936E+02  0.28948181259E+02  0.00000000000E+00 0.  1.
</event>
<event>
 5    1  0.1668518E-003  0.9118800E+02  0.7818608E-02  0.1130116E+00
         25   -1    0    0    0    0  0.00000000000E+00  0.00000000000E+00  0.99999998245E-14  0.12500000000E+03  0.12500000000E+03 0.  0.
        -13    1    3    3    0    0 -0.87133248133E+01  0.19432430230E+02 -0.41786863663E+02  0.46900900980E+02  0.10566000000E+00 0.  1.
         23    2    1    0    0    0 -0.20357364415E+02 -0.16701508950E+02 -0.86749397730E+01  0.97276052460E+02  0.93241691936E+02 0.  0.
         13    1    3    3    0    0 -0.11644039602E+02 -0.36133939180E+02  0.33111923890E+02  0.50375151480E+02  0.10566000000E+00 0. -1.
         22    1    1    0    0    0  0.20357364415E+02  0.16701508950E+02  0.86749397730E+01  0.27723947540E+02  0.00000000000E+00 0. -1.
</event>
<event>
 5    1  0.1668518E-003  0.9118800E+02  0.7818608E-02  0.1130116E+00
         25   -1    0    0    0    0  0.00000000000E+00  0.00000000000E+00  0.99999998245E-14  0.12500000000E+03  0.12500000000E+03 0.  0.
        -13    1    3    3    0    0 -0.17562740514E+02  0.21698604786E+02 -0.19607079347E+02  0.34113458174E+02  0.10566000000E+00 0. -1.
         23    2    1    0    0    0  0.24949800763E+02 -0.16352602104E+02  0.19510946398E+01  0.95105068591E+02  0.90284368235E+02 0.  0.
         13    1    3    3    0    0  0.42512541276E+02 -0.38051206890E+02  0.21558173987E+02  0.60991610417E+02  0.10566000000E+00 0.  1.
         22    1    1    0    0    0 -0.24949800763E+02  0.16352602104E+02 -0.19510946398E+01  0.29894931409E+02  0.00000000000E+00 0.  1.
</event>
<event>
 5    1  0.1668518E-003  0.9118800E+02  0.7818608E-02  0.1130116E+00
         25   -1    0    0    0    0  0.00000000000E+00  0.00000000000E+00  0.99999998245E-14  0.12500000000E+03  0.12500000000E+03 0.  0.
        -13    1    3    3    0    0 -0.28749662765E+01 -0.15117085794E+02 -0.40812001025E+02  0.43616766337E+02  0.10566000000E+00 0.  1.
         23    2    1    0    0    0 -0.23839629106E+01  0.27303823974E+02 -0.11003163529E+02  0.95466092531E+02  0.90782835011E+02 0.  0.
         13    1    3    3    0    0  0.49100336591E+00  0.42420909768E+02  0.29808837496E+02  0.51849326194E+02  0.10566000000E+00 0. -1.
         22    1    1    0    0    0  0.23839629106E+01 -0.27303823974E+02  0.11003163529E+02  0.29533907469E+02  0.00000000000E+00 0. -1.
</event>
<event>
 5    1  0.1668518E-003  0.9118800E+02  0.7818608E-02  0.1130116E+00
         25   -1    0    0    0    0  0.00000000000E+00  0.00000000000E+00  0.99999998245E-14  0.12500000000E+03  0.12500000000E+03 0.  0.
        -13    1    3    3    0    0 -0.31050474876E+02  0.29006922986E+02 -0.42364909777E+01  0.42702372194E+02  0.10566000000E+00 0. -1.
         23    2    1    0    0    0  0.19991042190E+02 -0.47064041760E+01 -0.49387397381E+01  0.10387695196E+03  0.10170662708E+03 0.  0.
         13    1    3    3    0    0  0.51041517066E+02 -0.33713327162E+02 -0.70224876033E+00  0.61174579771E+02  0.10566000000E+00 0.  1.
         22    1    1    0    0    0 -0.19991042190E+02  0.47064041760E+01  0.49387397381E+01  0.21123048036E+02  0.00000000000E+00 0.  1.
</event>
<event>
 5    1  0.1668518E-003  0.9118800E+02  0.7818608E-02  0.1130116E+00
         25   -1    0    0    0    0  0.00000000000E+00  0.00000000000E+00  0.99999998245E-14  0.12500000000E+03  0.12500000000E+03 0.  0.
        -13    1    3    3    0    0 -0.37151742934E+02 -0.10826510217E+02 -0.41072281678E+02  0.56430566299E+02  0.10566000000E+00 0.  1.
         23    2    1    0    0    0 -0.28656817759E+02 -0.49772113598E+00 -0.37279161652E+01  0.96097434554E+02  0.91648014919E+02 0.  0.
         13    1    3    3    0    0  0.84949251752E+01  0.10328789081E+02  0.37344365513E+02  0.39666868255E+02  0.10566000000E+00 0. -1.
         22    1    1    0    0    0  0.28656817759E+02  0.49772113598E+00  0.37279161652E+01  0.28902565446E+02  0.00000000000E+00 0.  1.
</event>
<event>
 5    1  0.1668518E-003  0.9118800E+02  0.7818608E-02  0.1130116E+00
         25   -1    0    0    0    0  0.00000000000E+00  0.00000000000E+00  0.99999998245E-14  0.12500000000E+03  0.12500000000E+03 0.  0.
        -13    1    3    3    0    0 -0.34614813283E+02  0.19266541656E+02 -0.45415499902E+02  0.60265775705E+02  0.10566000000E+00 0. -1.
         23    2    1    0    0    0 -0.21072637702E+02  0.19126809284E+02 -0.16728872880E+02  0.91988697678E+02  0.85861367445E+02 0.  0.
         13    1    3    3    0    0  0.13542175580E+02 -0.13973237118E+00  0.28686627022E+02  0.31722921973E+02  0.10566000000E+00 0.  1.
         22    1    1    0    0    0  0.21072637702E+02 -0.19126809284E+02  0.16728872880E+02  0.33011302322E+02  0.00000000000E+00 0. -1.
</event>
<event>
 5    1  0.1668518E-003  0.9118800E+02  0.7818608E-02  0.1130116E+00
         25   -1    0    0    0    0  0.00000000000E+00  0.00000000000E+00  0.99999998245E-14  0.12500000000E+03  0.12500000000E+03 0.  0.
        -13    1    3    3    0    0 -0.42009884282E+02  0.21243147352E+02  0.27867970081E+00  0.47076432673E+02  0.10566000000E+00 0.  1.
         23    2    1    0    0    0  0.30025137471E+01  0.21273847461E+02 -0.19259600609E+02  0.96146509912E+02  0.91714925056E+02 0.  0.
         13    1    3    3    0    0  0.45012398029E+02  0.30700108686E-01 -0.19538280310E+02  0.49070077240E+02  0.10566000000E+00 0. -1.
         22    1    1    0    0    0 -0.30025137471E+01 -0.21273847461E+02  0.19259600609E+02  0.28853490088E+02  0.00000000000E+00 0. -1.
</event>
<event>
 5    1  0.1668518E-003  0.9118800E+02  0.7818608E-02  0.1130116E+00
         25   -1    0    0    0    0  0.00000000000E+00  0.00000000000E+00  0.99999998245E-14  0.12500000000E+03  0.12500000000E+03 0.  0.
        -13    1    3    3    0    0 -0.17034983352E+02 -0.14797881206E+02 -0.57388359310E+02  0.61665248676E+02  0.10566000000E+00 0.  1.
         23    2    1    0    0    0 -0.87792698109E+01 -0.13338372019E+02 -0.23412155039E+02  0.96660685433E+02  0.92413047555E+02 0.  0.
         13    1    3    3    0    0  0.82557135408E+01  0.14595091869E+01  0.33976204271E+02  0.34995436757E+02  0.10566000000E+00 0. -1.
         22    1    1    0    0    0  0.87792698109E+01  0.13338372019E+02  0.23412155039E+02  0.28339314567E+02  0.00000000000E+00 0.  1.
</event>
<event>
 5    1  0.1668518E-003  0.9118800E+02  0.7818608E-02  0.1130116E+00
         25   -1    0    0    0    0  0.00000000000E+00  0.00000000000E+00  0.99999998245E-14  0.12500000000E+03  0.12500000000E+03 0.  0.
        -13    1    3    3    0    0  0.17943821119E+02 -0.11992157138E+02  0.30969840479E+02  0.37748307678E+02  0.10566000000E+00 0.  1.
         23    2    1    0    0    0 -0.15392224000E+02  0.24921317179E+02  0.12662272812E+01  0.95681133359E+02  0.91078446076E+02 0.  0.
         13    1    3    3    0    0 -0.33336045119E+02  0.36913474317E+02 -0.29703613198E+02  0.57932825681E+02  0.10566000000E+00 0. -1.
         22    1    1    0    0    0  0.15392224000E+02 -0.24921317179E+02 -0.12662272812E+01  0.29318866641E+02  0.00000000000E+00 0. -1.
</event>
<event>
 5    1  0.1668518E-003  0.9118800E+02  0.7818608E-02  0.1130116E+00
         25   -1    0    0    0    0  0.00000000000E+00  0.00000000000E+00  0.99999998245E-14  0.12500000000E+03  0.12500000000E+03 0.  0.
        -13    1    3    3    0    0 -0.27035007276E+02 -0.28812654037E+02  0.24484717239E+02  0.46481966324E+02  0.10566000000E+00 0. -1.
         23    2    1    0    0    0 -0.23027974594E+02 -0.23721445088E+01 -0.17305789314E+02  0.96096626023E+02  0.91646912146E+02 0.  0.
         13    1    3    3    0    0  0.40070326828E+01  0.26440509528E+02 -0.41790506553E+02  0.49614659699E+02  0.10566000000E+00 0.  1.
         22    1    1    0    0    0  0.23027974594E+02  0.23721445088E+01  0.17305789314E+02  0.28903373977E+02  0.00000000000E+00 0.  1.
</event>
<event>
 5    1  0.1668518E-003  0.9118800E+02  0.7818608E-02  0.1130116E+00
         25   -1    0    0    0    0  0.00000000000E+00  0.00000000000E+00  0.99999998245E-14  0.12500000000E+03  0.12500000000E+03 0.  0.
        -13    1    3    3    0    0  0.21626804362E+02 -0.54468003497E+02  0.12617654367E+02  0.59947463980E+02  0.10566000000E+00 0. -1.
         23    2    1    0    0    0 -0.33701135748E+01 -0.23976166294E+02  0.71580285362E+01  0.99752196369E+02  0.96504140285E+02 0.  0.
         13    1    3    3    0    0 -0.24996917937E+02  0.30491837202E+02 -0.54596258306E+01  0.39804732389E+02  0.10566000000E+00 0.  1.
         22    1    1    0    0    0  0.33701135748E+01  0.23976166294E+02 -0.71580285362E+01  0.25247803631E+02  0.00000000000E+00 0. -1.
</event>
<event>
 5    1  0.1668518E-003  0.9118800E+02  0.7818608E-02  0.1130116E+00
         25   -1    0    0    0    0  0.00000000000E+00  0.00000000000E+00  0.99999998245E-14  0.12500000000E+03  0.12500000000E+03 0.  0.
        -13    1    3    3    0    0 -0.28778519533E+02 -0.28437327751E+02 -0.90361301984E+01  0.41455368882E+02  0.10566000000E+00 0.  1.
         23    2    1    0    0    0  0.15282878663E+02 -0.16071842041E+02  0.19568198595E+02  0.95423237448E+02  0.90723808132E+02 0.  0.
         13    1    3    3    0    0  0.44061398196E+02  0.12365485710E+02  0.28604328793E+02  0.53967868566E+02  0.10566000000E+00 0. -1.
         22    1    1    0    0    0 -0.15282878663E+02  0.16071842041E+02 -0.19568198595E+02  0.29576762552E+02  0.00000000000E+00 0. -1.
</event>
<event>
 5    1  0.1668518E-003  0.9118800E+02  0.7818608E-02  0.1130116E+00
         25   -1    0    0    0    0  0.00000000000E+00  0.00000000000E+00  0.99999998245E-14  0.12500000000E+03  0.12500000000E+03 0.  0.
        -13    1    3    3    0    0 -0.24543733868E+02  0.24884175351E+02  0.21335037900E+02  0.40948895727E+02  0.10566000000E+00 0.  1.
         23    2    1    0    0    0 -0.47682615673E+01  0.10667421601E+02 -0.27279578692E+02  0.95323315286E+02  0.90586029947E+02 0.  0.
         13    1    3    3    0    0  0.19775472300E+02 -0.14216753750E+02 -0.48614616592E+02  0.54374419559E+02  0.10566000000E+00 0. -1.
         22    1    1    0    0    0  0.47682615673E+01 -0.10667421601E+02  0.27279578692E+02  0.29676684714E+02  0.00000000000E+00 0. -1.
</event>
<event>
 5    1  0.1668518E-003  0.9118800E+02  0.7818608E-02  0.1130116E+00
         25   -1    0    0    0    0  0.00000000000E+00  0.00000000000E+00  0.99999998245E-14  0.12500000000E+03  0.12500000000E+03 0.  0.
        -13    1    3    3    0    0  0.33485056225E+02  0.25350345930E+02 -0.34228258218E+01  0.42138057974E+02  0.10566000000E+00 0.  1.
         23    2    1    0    0    0 -0.12371436752E+02  0.14670500007E+02  0.22129385259E+02  0.95708606900E+02  0.91116144151E+02 0.  0.
         13    1    3    3    0    0 -0.45856492977E+02 -0.10679845922E+02  0.25552211081E+02  0.53570548926E+02  0.10566000000E+00 0. -1.
         22    1    1    0    0    0  0.12371436752E+02 -0.14670500007E+02 -0.22129385259E+02  0.29291393100E+02  0.00000000000E+00 0.  1.
</event>
<event>
 5    1  0.1668518E-003  0.9118800E+02  0.7818608E-02  0.1130116E+00
         25   -1    0    0    0    0  0.00000000000E+00  0.00000000000E+00  0.99999998245E-14  0.12500000000E+03  0.12500000000E+03 0.  0.
        -13    1    3    3    0    0  0.30527806711E+02 -0.24543012355E+02  0.31044116886E+02  0.49980544168E+02  0.10566000000E+00 0.  1.
         23    2    1    0    0    0 -0.73399257552E+01  0.10992094375E+01  0.28241844856E+02  0.95799236785E+02  0.91240392350E+02 0.  0.
         13    1    3    3    0    0 -0.37867732466E+02  0.25642221793E+02 -0.28022720299E+01  0.45818692617E+02  0.10566000000E+00 0. -1.
         22    1    1    0    0    0  0.73399257552E+01 -0.10992094375E+01 -0.28241844856E+02  0.29200763215E+02  0.00000000000E+00 0.  1.
</event>
<event>
 5    1  0.1668518E-003  0.9118800E+02  0.7818608E-02  0.1130116E+00
         25   -1    0    0    0    0  0.00000000000E+00  0.00000000000E+00  0.99999998245E-14  0.12500000000E+03  0.12500000000E+03 0.  0.
        -13    1    3    3    0    0  0.43455960650E+02 -0.13921391017E+02 -0.20693853203E+02  0.50104614241E+02  0.10566000000E+00 0.  1.
         23    2    1    0    0    0  0.11935182823E+02  0.18635771181E+02 -0.19606856704E+02  0.95433644351E+02  0.90738145714E+02 0.  0.
         13    1    3    3    0    0 -0.31520777826E+02  0.32557162199E+02  0.10869964988E+01  0.45329030109E+02  0.10566000000E+00 0. -1.
         22    1    1    0    0    0 -0.11935182823E+02 -0.18635771181E+02  0.19606856704E+02  0.29566355649E+02  0.00000000000E+00 0.  1.
</event>
<event>
 5    1  0.1668518E-003  0.9118800E+02  0.7818608E-02  0.1130116E+00
         25   -1    0    0    0    0  0.00000000000E+00  0.00000000000E+00  0.99999998245E-14  0.12500000000E+03  0.12500000000E+03 0.  0.
        -13    1    3    3    0    0 -0.35919168104E+02 -0.34954856486E+02  0.29029424540E+02  0.57920180269E+02  0.10566000000E+00 0.  1.
         23    2    1    0    0    0 -0.14100900864E+02 -0.27286669555E+02  0.98631839058E+00  0.94269387176E+02  0.89119845118E+02 0.  0.
         13    1    3    3    0    0  0.21818267240E+02  0.76681869309E+01 -0.28043106149E+02  0.36349206906E+02  0.10566000000E+00 0. -1.
         22    1    1    0    0    0  0.14100900864E+02  0.27286669555E+02 -0.98631839058E+00  0.30730612824E+02  0.00000000000E+00 0.  1.
</event>
<event>
 5    1  0.1668518E-003  0.9118800E+02  0.7818608E-02  0.1130116E+00
         25   -1    0    0    0    0  0.00000000000E+00  0.00000000000E+00  0.99999998245E-14  0.12500000000E+03  0.12500000000E+03 0.  0.
        -13    1    3    3    0    0  0.69974494952E+01 -0.57462809905E+02 -0.48759344066E+01  0.58092380929E+02  0.10566000000E+00 0. -1.
         23    2    1    0    0    0 -0.38013250613E+01 -0.24986334960E+02 -0.17155646742E+02  0.94453589047E+02  0.89377834287E+02 0.  0.
         13    1    3    3    0    0 -0.10798774557E+02  0.32476474945E+02 -0.12279712336E+02  0.36361208119E+02  0.10566000000E+00 0.  1.
         22    1    1    0    0    0  0.38013250613E+01  0.24986334960E+02  0.17155646742E+02  0.30546410953E+02  0.00000000000E+00 0. -1.
</event>
<event>
 5    1  0.1668518E-003  0.9118800E+02  0.7818608E-02  0.1130116E+00
         25   -1    0    0    0    0  0.00000000000E+00  0.00000000000E+00  0.99999998245E-14  0.12500000000E+03  0.12500000000E+03 0.  0.
        -13    1    3    3    0    0  0.22555446675E+02  0.21543605599E+02  0.11688389037E+02  0.33309228739E+02  0.10566000000E+00 0.  1.
         23    2    1    0    0    0 -0.10169954678E+02 -0.28934080360E+02  0.17657843226E+01  0.94279860373E+02  0.89134533674E+02 0.  0.
         13    1    3    3    0    0 -0.32725401352E+02 -0.50477685959E+02 -0.99226047148E+01  0.60970631634E+02  0.10566000000E+00 0. -1.
         22    1    1    0    0    0  0.10169954678E+02  0.28934080360E+02 -0.17657843226E+01  0.30720139627E+02  0.00000000000E+00 0. -1.
</event>
<event>
 5    1  0.1668518E-003  0.9118800E+02  0.7818608E-02  0.1130116E+00
         25   -1    0    0    0    0  0.00000000000E+00  0.00000000000E+00  0.99999998245E-14  0.12500000000E+03  0.12500000000E+03 0.  0.
        -13    1    3    3    0    0 -0.45096031956E+02  0.31734720820E+02 -0.27570147372E+02  0.61651186475E+02  0.10566000000E+00 0.  1.
         23    2    1    0    0    0 -0.19008209118E+02  0.97725200310E+01 -0.17964289701E+02  0.97079937928E+02  0.92978408687E+02 0.  0.
         13    1    3    3    0    0  0.26087822838E+02 -0.21962200789E+02  0.96058576707E+01  0.35428751453E+02  0.10566000000E+00 0. -1.
         22    1    1    0    0    0  0.19008209118E+02 -0.97725200310E+01  0.17964289701E+02  0.27920062072E+02  0.00000000000E+00 0.  1.
</event>
<event>
 5    1  0.1668518E-003  0.9118800E+02  0.7818608E-02  0.1130116E+00
         25   -1    0    0    0    0  0.00000000000E+00  0.00000000000E+00  0.99999998245E-14  0.12500000000E+03  0.12500000000E+03 0.  0.
        -13    1    3    3    0    0 -0.14044647630E+02  0.44421689564E+02 -0.31001031622E+01  0.46692188152E+02  0.10566000000E+00 0.  1.
         23    2    1    0    0    0 -0.52897869051E+01  0.83105895763E+01 -0.30557565264E+02  0.92893730527E+02  0.87168988933E+02 0.  0.
         13    1    3    3    0    0  0.87548607248E+01 -0.36111099988E+02 -0.27457462102E+02  0.46201542374E+02  0.10566000000E+00 0. -1.
         22    1    1    0    0    0  0.52897869051E+01 -0.83105895763E+01  0.30557565264E+02  0.32106269473E+02  0.00000000000E+00 0. -1.
</event>
<event>
 5    1  0.1668518E-003  0.9118800E+02  0.7818608E-02  0.1130116E+00
         25   -1    0    0    0    0  0.00000000000E+00  0.00000000000E+00  0.99999998245E-14  0.12500000000E+03  0.12500000000E+03 0.  0.
        -13    1    3    3    0    0 -0.51232628283E+02 -0.43570281356E+00 -0.25217254942E+02  0.57104230567E+02  0.10566000000E+00 0.  1.
         23    2    1    0    0    0 -0.26767916510E+02  0.95903934195E+01  0.37455329360E+01  0.96320285615E+02  0.91951462217E+02 0.  0.
         13    1    3    3    0    0  0.24464711774E+02  0.10026096233E+02  0.28962787878E+02  0.39216055048E+02  0.10566000000E+00 0. -1.
         22    1    1    0    0    0  0.26767916510E+02 -0.95903934195E+01 -0.37455329360E+01  0.28679714385E+02  0.00000000000E+00 0.  1.
</event>
<event>
 5    1  0.1668518E-003  0.9118800E+02  0.7818608E-02  0.1130116E+00
         25   -1    0    0    0    0  0.00000000000E+00  0.00000000000E+00  0.99999998245E-14  0.12500000000E+03  0.12500000000E+03 0.  0.
        -13    1    3    3    0    0 -0.31268414456E+02 -0.11520383768E+02 -0.28967458061E+01  0.33448995278E+02  0.10566000000E+00 0.  1.
         23    2    1    0    0    0  0.28157045937E+02  0.50947749155E+01 -0.77811491024E+01  0.95346631748E+02  0.90618198708E+02 0.  0.
         13    1    3    3    0    0  0.59425460393E+02  0.16615158684E+02 -0.48844032963E+01  0.61897636470E+02  0.10566000000E+00 0. -1.
         22    1    1    0    0    0 -0.28157045937E+02 -0.50947749155E+01  0.77811491024E+01  0.29653368252E+02  0.00000000000E+00 0. -1.
</event>
<event>
 5    1  0.1668518E-003  0.9118800E+02  0.7818608E-02  0.1130116E+00
         25   -1    0    0    0    0  0.00000000000E+00  0.00000000000E+00  0.99999998245E-14  0.12500000000E+03  0.12500000000E+03 0.  0.
        -13    1    3    3    0    0 -0.28036469108E+02 -0.16480831830E+02 -0.14328372696E+02  0.35538357390E+02  0.10566000000E+00 0.  1.
         23    2    1    0    0    0  0.19933638114E+02  0.19833948399E+02 -0.54758303573E+01  0.96351786170E+02  0.91994274509E+02 0.  0.
         13    1    3    3    0    0  0.47970107222E+02  0.36314780229E+02  0.88525423384E+01  0.60813428779E+02  0.10566000000E+00 0. -1.
         22    1    1    0    0    0 -0.19933638114E+02 -0.19833948399E+02  0.54758303573E+01  0.28648213830E+02  0.00000000000E+00 0. -1.
</event>
<event>
 5    1  0.1668518E-003  0.9118800E+02  0.7818608E-02  0.1130116E+00
         25   -1    0    0    0    0  0.00000000000E+00  0.00000000000E+00  0.99999998245E-14  0.12500000000E+03  0.12500000000E+03 0.  0.
        -13    1    3    3    0    0 -0.37563313824E+02  0.28186079003E+02 -0.36692506540E+02  0.59597053578E+02  0.10566000000E+00 0. -1.
         23    2    1    0    0    0 -0.22032156248E+02  0.21894422840E+02 -0.78367744095E+01  0.92965695051E+02  0.87272124775E+02 0.  0.
         13    1    3    3    0    0  0.15531157576E+02 -0.62916561627E+01  0.28855732130E+02  0.33368641473E+02  0.10566000000E+00 0.  1.
         22    1    1    0    0    0  0.22032156248E+02 -0.21894422840E+02  0.78367744095E+01  0.32034304949E+02  0.00000000000E+00 0. -1.
</event>
<event>
 5    1  0.1668518E-003  0.9118800E+02  0.7818608E-02  0.1130116E+00
         25   -1    0    0    0    0  0.00000000000E+00  0.00000000000E+00  0.99999998245E-14  0.12500000000E+03  0.12500000000E+03 0.  0.
        -13    1    3    3    0    0 -0.22885748740E+02 -0.12496992826E+02  0.23436834990E+02  0.35060358290E+02  0.10566000000E+00 0. -1.
         23    2    1    0    0    0  0.30090691433E+02  0.57508292551E+01  0.56413600541E+01  0.93849611699E+02  0.88529107782E+02 0.  0.
         13    1    3    3    0    0  0.52976440173E+02  0.18247822081E+02 -0.17795474936E+02  0.58789253409E+02  0.10566000000E+00 0.  1.
         22    1    1    0    0    0 -0.30090691433E+02 -0.57508292551E+01 -0.56413600541E+01  0.31150388301E+02  0.00000000000E+00 0.  1.
</event>
<event>
 5    1  0.1668518E-003  0.9118800E+02  0.7818608E-02  0.1130116E+00
         25   -1    0    0    0    0  0.00000000000E+00  0.00000000000E+00  0.99999998245E-14  0.12500000000E+03  0.12500000000E+03 0.  0.
        -13    1    3    3    0    0  0.46348667733E+01  0.15673086944E+02 -0.43008794683E+02  0.46009729716E+02  0.10566000000E+00 0. -1.
         23    2    1    0    0    0  0.28670061745E+02 -0.22583776793E+01 -0.28913382867E+01  0.96096149957E+02  0.91646262822E+02 0.  0.
         13    1    3    3    0    0  0.24035194972E+02 -0.17931464624E+02  0.40117456396E+02  0.50086420242E+02  0.10566000000E+00 0.  1.
         22    1    1    0    0    0 -0.28670061745E+02  0.22583776793E+01  0.28913382867E+01  0.28903850043E+02  0.00000000000E+00 0. -1.
</event>
<event>
 5    1  0.1668518E-003  0.9118800E+02  0.7818608E-02  0.1130116E+00
         25   -1    0    0    0    0  0.00000000000E+00  0.00000000000E+00  0.99999998245E-14  0.12500000000E+03  0.12500000000E+03 0.  0.
        -13    1    3    3    0    0  0.52166624981E+02 -0.30473977789E+02 -0.11821696293E+02  0.61561219542E+02  0.10566000000E+00 0.  1.
         23    2    1    0    0    0  0.21268533319E+02 -0.13979601027E+02 -0.12611254373E+02  0.96595361448E+02  0.92324646558E+02 0.  0.
         13    1    3    3    0    0 -0.30898091662E+02  0.16494376763E+02 -0.78955808006E+00  0.35034141907E+02  0.10566000000E+00 0. -1.
         22    1    1    0    0    0 -0.21268533319E+02  0.13979601027E+02  0.12611254373E+02  0.28404638552E+02  0.00000000000E+00 0.  1.
</event>
<event>
 5    1  0.1668518E-003  0.9118800E+02  0.7818608E-02  0.1130116E+00
         25   -1    0    0    0    0  0.00000000000E+00  0.00000000000E+00  0.99999998245E-14  0.12500000000E+03  0.12500000000E+03 0.  0.
        -13    1    3    3    0    0 -0.37307378030E+01  0.14248081253E+02  0.35062603981E+02  0.38030561209E+02  0.10566000000E+00 0.  1.
         23    2    1    0    0    0 -0.24146131851E+02 -0.48124393623E+01 -0.15579267099E+02  0.95863960130E+02  0.91329020757E+02 0.  0.
         13    1    3    3    0    0 -0.20415394048E+02 -0.19060520615E+02 -0.50641871080E+02  0.57833398921E+02  0.10566000000E+00 0. -1.
         22    1    1    0    0    0  0.24146131851E+02  0.48124393623E+01  0.15579267099E+02  0.29136039870E+02  0.00000000000E+00 0. -1.
</event>
<event>
 5    1  0.1668518E-003  0.9118800E+02  0.7818608E-02  0.1130116E+00
         25   -1    0    0    0    0  0.00000000000E+00  0.00000000000E+00  0.99999998245E-14  0.12500000000E+03  0.12500000000E+03 0.  0.
        -13    1    3    3    0    0 -0.19703921125E+02  0.43925808802E+02  0.30766279580E+02  0.57134020599E+02  0.10566000000E+00 0.  1.
         23    2    1    0    0    0  0.69309601668E+01  0.18686550276E+02  0.22862964435E+02  0.94669478857E+02  0.89679260224E+02 0.  0.
         13    1    3    3    0    0  0.26634881291E+02 -0.25239258526E+02 -0.79033151450E+01  0.37535458258E+02  0.10566000000E+00 0. -1.
         22    1    1    0    0    0 -0.69309601668E+01 -0.18686550276E+02 -0.22862964435E+02  0.30330521143E+02  0.00000000000E+00 0.  1.
</event>
<event>
 5    1  0.1668518E-003  0.9118800E+02  0.7818608E-02  0.1130116E+00
         25   -1    0    0    0    0  0.00000000000E+00  0.00000000000E+00  0.99999998245E-14  0.12500000000E+03  0.12500000000E+03 0.  0.
        -13    1    3    3    0    0  0.49982738783E+02 -0.35019218422E+01 -0.19776488880E+02  0.53867042886E+02  0.10566000000E+00 0.  1.
         23    2    1    0    0    0  0.17319686571E+02  0.21113329653E+02 -0.99928615656E+01  0.95920771774E+02  0.91406744519E+02 0.  0.
         13    1    3    3    0    0 -0.32663052212E+02  0.24615251495E+02  0.97836273143E+01  0.42053728888E+02  0.10566000000E+00 0. -1.
         22    1    1    0    0    0 -0.17319686571E+02 -0.21113329653E+02  0.99928615656E+01  0.29079228226E+02  0.00000000000E+00 0.  1.
</event>
<event>
 5    1  0.1668518E-003  0.9118800E+02  0.7818608E-02  0.1130116E+00
         25   -1    0    0    0    0  0.00000000000E+00  0.00000000000E+00  0.99999998245E-14  0.12500000000E+03  0.12500000000E+03 0.  0.
        -13    1    3    3    0    0 -0.23994608200E+02 -0.21050640874E+02  0.61899333219E+01  0.32514568157E+02  0.10566000000E+00 0.  1.
         23    2    1    0    0    0  0.26103311146E+02  0.10998509063E+02  0.15499137379E+02  0.92711096118E+02  0.86906697265E+02 0.  0.
         13    1    3    3    0    0  0.50097919346E+02  0.32049149936E+02  0.93092040576E+01  0.60196527962E+02  0.10566000000E+00 0. -1.
         22    1    1    0    0    0 -0.26103311146E+02 -0.10998509063E+02 -0.15499137379E+02  0.32288903882E+02  0.00000000000E+00 0. -1.
</event>
<event>
 5    1  0.1668518E-003  0.9118800E+02  0.7818608E-02  0.1130116E+00
         25   -1    0    0    0    0  0.00000000000E+00  0.00000000000E+00  0.99999998245E-14  0.12500000000E+03  0.12500000000E+03 0.  0.
        -13    1    3    3    0    0 -0.17166438756E+02 -0.33089409231E+02 -0.16576627076E+00  0.37277798558E+02  0.10566000000E+00 0. -1.
         23    2    1    0    0    0 -0.44622048203E+01  0.20867884468E+02  0.19497104002E+02  0.96094690133E+02  0.91644271688E+02 0.  0.
         13    1    3    3    0    0  0.12704233936E+02  0.53957293698E+02  0.19662870273E+02  0.58816891575E+02  0.10566000000E+00 0.  1.
         22    1    1    0    0    0  0.44622048203E+01 -0.20867884468E+02 -0.19497104002E+02  0.28905309867E+02  0.00000000000E+00 0.  1.
</event>
<event>
 5    1  0.1668518E-003  0.9118800E+02  0.7818608E-02  0.1130116E+00
         25   -1    0    0    0    0  0.00000000000E+00  0.00000000000E+00  0.99999998245E-14  0.12500000000E+03  0.12500000000E+03 0.  0.
        -13    1    3    3    0    0 -0.39321581037E+02 -0.12423089057E+02 -0.39840467681E+02  0.57339287631E+02  0.10566000000E+00 0.  1.
         23    2    1    0    0    0 -0.23522894127E+02  0.11357084971E+02 -0.19859457275E+02  0.92186771412E+02  0.86149247547E+02 0.  0.
         13    1    3    3    0    0  0.15798686910E+02  0.23780174029E+02  0.19981010407E+02  0.34847483780E+02  0.10566000000E+00 0. -1.
         22    1    1    0    0    0  0.23522894127E+02 -0.11357084971E+02  0.19859457275E+02  0.32813228588E+02  0.00000000000E+00 0.  1.
</event>
<event>
 5    1  0.1668518E-003  0.9118800E+02  0.7818608E-02  0.1130116E+00
         25   -1    0    0    0    0  0.00000000000E+00  0.00000000000E+00  0.99999998245E-14  0.12500000000E+03  0.12500000000E+03 0.  0.
        -13    1    3    3    0    0 -0.22083075728E+01 -0.27704741251E+02 -0.23267173562E+02  0.36246404507E+02  0.10566000000E+00 0. -1.
         23    2    1    0    0    0 -0.26073884746E+02  0.11196134784E+02  0.12265950610E+02  0.94086338874E+02  0.88862729637E+02 0.  0.
         13    1    3    3    0    0 -0.23865577174E+02  0.38900876035E+02  0.35533124171E+02  0.57839934366E+02  0.10566000000E+00 0.  1.
         22    1    1    0    0    0  0.26073884746E+02 -0.11196134784E+02 -0.12265950610E+02  0.30913661126E+02  0.00000000000E+00 0.  1.
</event>
<event>
 5    1  0.1668518E-003  0.9118800E+02  0.7818608E-02  0.1130116E+00
         25   -1    0    0    0    0  0.00000000000E+00  0.00000000000E+00  0.99999998245E-14  0.12500000000E+03  0.12500000000E+03 0.  0.
        -13    1    3    3    0    0 -0.43072774754E+02  0.34751882482E+02  0.28172947084E+02  0.62102201027E+02  0.10566000000E+00 0.  1.
         23    2    1    0    0    0 -0.21317339628E+02  0.12396624451E+02  0.16093316160E+02  0.95553436675E+02  0.90903020680E+02 0.  0.
         13    1    3    3    0    0  0.21755435125E+02 -0.22355258030E+02 -0.12079630924E+02  0.33451235648E+02  0.10566000000E+00 0. -1.
         22    1    1    0    0    0  0.21317339628E+02 -0.12396624451E+02 -0.16093316160E+02  0.29446563325E+02  0.00000000000E+00 0.  1.
</event>
<event>
 5    1  0.1668518E-003  0.9118800E+02  0.7818608E-02  0.1130116E+00
         25   -1    0    0    0    0  0.00000000000E+00  0.00000000000E+00  0.99999998245E-14  0.12500000000E+03  0.12500000000E+03 0.  0.
        -13    1    3    3    0    0  0.34019976739E+02 -0.19284417178E+02 -0.46780574121E+02  0.60972787720E+02  0.10566000000E+00 0.  1.
         23    2    1    0    0    0  0.12441577788E+02 -0.22829312082E+01 -0.28071716200E+02  0.94209971043E+02  0.89036468712E+02 0.  0.
         13    1    3    3    0    0 -0.21578398951E+02  0.17001485970E+02  0.18708857921E+02  0.33237183322E+02  0.10566000000E+00 0. -1.
         22    1    1    0    0    0 -0.12441577788E+02  0.22829312082E+01  0.28071716200E+02  0.30790028957E+02  0.00000000000E+00 0.  1.
</event>
<event>
 5    1  0.1668518E-003  0.9118800E+02  0.7818608E-02  0.1130116E+00
         25   -1    0    0    0    0  0.00000000000E+00  0.00000000000E+00  0.99999998245E-14  0.12500000000E+03  0.12500000000E+03 0.  0.
        -13    1    3    3    0    0 -0.66269594354E+01 -0.40388085184E+01  0.37733569652E+02  0.38523525388E+02  0.10566000000E+00 0.  1.
         23    2    1    0    0    0 -0.20468905020E+02  0.11687382072E+02 -0.16210547799E+02  0.96393133126E+02  0.92050438790E+02 0.  0.
         13    1    3    3    0    0 -0.13841945585E+02  0.15726190590E+02 -0.53944117451E+02  0.57869607738E+02  0.10566000000E+00 0. -1.
         22    1    1    0    0    0  0.20468905020E+02 -0.11687382072E+02  0.16210547799E+02  0.28606866874E+02  0.00000000000E+00 0. -1.
</event>
<event>
 5    1  0.1668518E-003  0.9118800E+02  0.7818608E-02  0.1130116E+00
         25   -1    0    0    0    0  0.00000000000E+00  0.00000000000E+00  0.99999998245E-14  0.12500000000E+03  0.12500000000E+03 0.  0.
        -13    1    3    3    0    0 -0.39553629230E+02 -0.29562337057E+02 -0.36168674603E+02  0.61209521678E+02  0.10566000000E+00 0.  1.
         23    2    1    0    0    0 -0.10532592592E+02 -0.11955849149E+02 -0.21626339390E+02  0.98137826019E+02  0.94389917389E+02 0.  0.
         13    1    3    3    0    0  0.29021036638E+02  0.17606487908E+02  0.14542335213E+02  0.36928304341E+02  0.10566000000E+00 0. -1.
         22    1    1    0    0    0  0.10532592592E+02  0.11955849149E+02  0.21626339390E+02  0.26862173981E+02  0.00000000000E+00 0.  1.
</event>
<event>
 5    1  0.1668518E-003  0.9118800E+02  0.7818608E-02  0.1130116E+00
         25   -1    0    0    0    0  0.00000000000E+00  0.00000000000E+00  0.99999998245E-14  0.12500000000E+03  0.12500000000E+03 0.  0.
        -13    1    3    3    0    0 -0.44026299275E+01  0.40965189051E+02  0.30050348969E+02  0.50995730228E+02  0.10566000000E+00 0. -1.
         23    2    1    0    0    0 -0.21698301665E+02  0.17112516340E+02 -0.51397924537E+01  0.96891780969E+02  0.92725105782E+02 0.  0.
         13    1    3    3    0    0 -0.17295671737E+02 -0.23852672711E+02 -0.35190141422E+02  0.45896050742E+02  0.10566000000E+00 0.  1.
         22    1    1    0    0    0  0.21698301665E+02 -0.17112516340E+02  0.51397924537E+01  0.28108219031E+02  0.00000000000E+00 0. -1.
</event>
<event>
 5    1  0.1668518E-003  0.9118800E+02  0.7818608E-02  0.1130116E+00
         25   -1    0    0    0    0  0.00000000000E+00  0.00000000000E+00  0.99999998245E-14  0.12500000000E+03  0.12500000000E+03 0.  0.
        -13    1    3    3    0    0 -0.17486152690E+02  0.15742167129E+02  0.29206681110E+02  0.37504969635E+02  0.10566000000E+00 0. -1.
         23    2    1    0    0    0  0.19157532768E+02 -0.21053515614E+02  0.11905659120E+01  0.96510018802E+02  0.92209027219E+02 0.  0.
         13    1    3    3    0    0  0.36643685457E+02 -0.36795682743E+02 -0.28016115198E+02  0.59005049168E+02  0.10566000000E+00 0.  1.
         22    1    1    0    0    0 -0.19157532768E+02  0.21053515614E+02 -0.11905659120E+01  0.28489981198E+02  0.00000000000E+00 0.  1.
</event>
<event>
 5    1  0.1668518E-003  0.9118800E+02  0.7818608E-02  0.1130116E+00
         25   -1    0    0    0    0  0.00000000000E+00  0.00000000000E+00  0.99999998245E-14  0.12500000000E+03  0.12500000000E+03 0.  0.
        -13    1    3    3    0    0 -0.84003643589E+01  0.19906927647E+02 -0.31388273664E+02  0.38106256407E+02  0.10566000000E+00 0. -1.
         23    2    1    0    0    0  0.11739217386E+02  0.15079081770E+02  0.22289017107E+02  0.95640364180E+02  0.91022475494E+02 0.  0.
         13    1    3    3    0    0  0.20139581745E+02 -0.48278458773E+01  0.53677290771E+02  0.57534107773E+02  0.10566000000E+00 0.  1.
         22    1    1    0    0    0 -0.11739217386E+02 -0.15079081770E+02 -0.22289017107E+02  0.29359635820E+02  0.00000000000E+00 0.  1.
</event>
<event>
 5    1  0.1668518E-003  0.9118800E+02  0.7818608E-02  0.1130116E+00
         25   -1    0    0    0    0  0.00000000000E+00  0.00000000000E+00  0.99999998245E-14  0.12500000000E+03  0.12500000000E+03 0.  0.
        -13    1    3    3    0    0  0.47767106521E+02 -0.81097497860E+01 -0.35985822935E+02  0.60352755723E+02  0.10566000000E+00 0. -1.
         23    2    1    0    0    0  0.30036752723E+02  0.54378672152E+01 -0.14984356768E+02  0.90995472923E+02  0.84403010792E+02 0.  0.
         13    1    3    3    0    0 -0.17730353798E+02  0.13547617001E+02  0.21001466167E+02  0.30642717200E+02  0.10566000000E+00 0.  1.
         22    1    1    0    0    0 -0.30036752723E+02 -0.54378672152E+01  0.14984356768E+02  0.34004527077E+02  0.00000000000E+00 0. -1.
</event>
<event>
 5    1  0.1668518E-003  0.9118800E+02  0.7818608E-02  0.1130116E+00
         25   -1    0    0    0    0  0.00000000000E+00  0.00000000000E+00  0.99999998245E-14  0.12500000000E+03  0.12500000000E+03 0.  0.
        -13    1    3    3    0    0 -0.11872883167E+02  0.12225889942E+02  0.26305841536E+02  0.31343997871E+02  0.10566000000E+00 0. -1.
         23    2    1    0    0    0  0.20519724887E+02 -0.10057587392E+02 -0.21762068739E+02  0.93443672435E+02  0.87954068176E+02 0.  0.
         13    1    3    3    0    0  0.32392608054E+02 -0.22283477334E+02 -0.48067910276E+02  0.62099674564E+02  0.10566000000E+00 0.  1.
         22    1    1    0    0    0 -0.20519724887E+02  0.10057587392E+02  0.21762068739E+02  0.31556327565E+02  0.00000000000E+00 0.  1.
</event>
<event>
 5    1  0.1668518E-003  0.9118800E+02  0.7818608E-02  0.1130116E+00
         25   -1    0    0    0    0  0.00000000000E+00  0.00000000000E+00  0.99999998245E-14  0.12500000000E+03  0.12500000000E+03 0.  0.
        -13    1    3    3    0    0 -0.18555722159E+02  0.20398879086E+02  0.27644773248E+02  0.39047070886E+02  0.10566000000E+00 0.  1.
         23    2    1    0    0    0 -0.39190111937E+01 -0.27753476543E+02 -0.99546073509E+00  0.96953519810E+02  0.92808296788E+02 0.  0.
         13    1    3    3    0    0  0.14636710965E+02 -0.48152355629E+02 -0.28640233983E+02  0.57906448925E+02  0.10566000000E+00 0. -1.
         22    1    1    0    0    0  0.39190111937E+01  0.27753476543E+02  0.99546073509E+00  0.28046480190E+02  0.00000000000E+00 0. -1.
</event>
<event>
 5    1  0.1668518E-003  0.9118800E+02  0.7818608E-02  0.1130116E+00
         25   -1    0    0    0    0  0.00000000000E+00  0.00000000000E+00  0.99999998245E-14  0.12500000000E+03  0.12500000000E+03 0.  0.
        -13    1    3    3    0    0  0.45191070342E+02 -0.11920708475E+01 -0.14389000911E+02  0.47441631325E+02  0.10566000000E+00 0.  1.
         23    2    1    0    0    0  0.64810691282E+01 -0.26605224468E+02  0.41165731462E+01  0.97309055623E+02  0.93285925550E+02 0.  0.
         13    1    3    3    0    0 -0.38710001214E+02 -0.25413153620E+02  0.18505574057E+02  0.49867424298E+02  0.10566000000E+00 0. -1.
         22    1    1    0    0    0 -0.64810691282E+01  0.26605224468E+02 -0.41165731462E+01  0.27690944377E+02  0.00000000000E+00 0. -1.
</event>
<event>
 5    1  0.1668518E-003  0.9118800E+02  0.7818608E-02  0.1130116E+00
         25   -1    0    0    0    0  0.00000000000E+00  0.00000000000E+00  0.99999998245E-14  0.12500000000E+03  0.12500000000E+03 0.  0.
        -13    1    3    3    0    0  0.10296481594E+02 -0.21804041680E+02  0.41444939484E+02  0.47949222514E+02  0.10566000000E+00 0. -1.
         23    2    1    0    0    0 -0.21528242448E+02  0.53044539161E+01  0.20899668866E+02  0.94530365723E+02  0.89485146425E+02 0.  0.
         13    1    3    3    0    0 -0.31824724042E+02  0.27108495596E+02 -0.20545270618E+02  0.46581143209E+02  0.10566000000E+00 0.  1.
         22    1    1    0    0    0  0.21528242448E+02 -0.53044539161E+01 -0.20899668866E+02  0.30469634277E+02  0.00000000000E+00 0.  1.
</event>
<event>
 5    1  0.1668518E-003  0.9118800E+02  0.7818608E-02  0.1130116E+00
         25   -1    0    0    0    0  0.00000000000E+00  0.00000000000E+00  0.99999998245E-14  0.12500000000E+03  0.12500000000E+03 0.  0.
        -13    1    3    3    0    0  0.69554928528E+01 -0.11186890740E+02  0.36713896146E+02  0.39005727009E+02  0.10566000000E+00 0. -1.
         23    2    1    0    0    0  0.21555809375E+02 -0.11175611289E+02 -0.17447610953E+02  0.95100730219E+02  0.90278361497E+02 0.  0.
         13    1    3    3    0    0  0.14600316522E+02  0.11279451030E-01 -0.54161507099E+02  0.56095003210E+02  0.10566000000E+00 0.  1.
         22    1    1    0    0    0 -0.21555809375E+02  0.11175611289E+02  0.17447610953E+02  0.29899269781E+02  0.00000000000E+00 0.  1.
</event>
<event>
 5    1  0.1668518E-003  0.9118800E+02  0.7818608E-02  0.1130116E+00
         25   -1    0    0    0    0  0.00000000000E+00  0.00000000000E+00  0.99999998245E-14  0.12500000000E+03  0.12500000000E+03 0.  0.
        -13    1    3    3    0    0 -0.25713096817E+02  0.35372603473E+02  0.76608412382E+00  0.43737655096E+02  0.10566000000E+00 0.  1.
         23    2    1    0    0    0  0.15375080148E+02  0.15057193358E+02 -0.21398714253E+02  0.94651735914E+02  0.89654525699E+02 0.  0.
         13    1    3    3    0    0  0.41088176965E+02 -0.20315410115E+02 -0.22164798377E+02  0.50914080818E+02  0.10566000000E+00 0. -1.
         22    1    1    0    0    0 -0.15375080148E+02 -0.15057193358E+02  0.21398714253E+02  0.30348264086E+02  0.00000000000E+00 0. -1.
</event>
<event>
 5    1  0.1668518E-003  0.9118800E+02  0.7818608E-02  0.1130116E+00
         25   -1    0    0    0    0  0.00000000000E+00  0.00000000000E+00  0.99999998245E-14  0.12500000000E+03  0.12500000000E+03 0.  0.
        -13    1    3    3    0    0 -0.38684890635E+02  0.44660757987E+02  0.15897161746E+02  0.61186885711E+02  0.10566000000E+00 0.  1.
         23    2    1    0    0    0 -0.10582978659E+02  0.25990176464E+02  0.72488375631E+01  0.96016653817E+02  0.91537770643E+02 0.  0.
         13    1    3    3    0    0  0.28101911976E+02 -0.18670581523E+02 -0.86483241828E+01  0.34829768106E+02  0.10566000000E+00 0. -1.
         22    1    1    0    0    0  0.10582978659E+02 -0.25990176464E+02 -0.72488375631E+01  0.28983346183E+02  0.00000000000E+00 0.  1.
</event>
<event>
 5    1  0.1668518E-003  0.9118800E+02  0.7818608E-02  0.1130116E+00
         25   -1    0    0    0    0  0.00000000000E+00  0.00000000000E+00  0.99999998245E-14  0.12500000000E+03  0.12500000000E+03 0.  0.
        -13    1    3    3    0    0 -0.41462321410E+02  0.28941757155E+02  0.10388022127E+02  0.51620456911E+02  0.10566000000E+00 0. -1.
         23    2    1    0    0    0 -0.24481946645E+02 -0.12637444540E+02  0.14748048879E+01  0.97409317416E+02  0.93420176375E+02 0.  0.
         13    1    3    3    0    0  0.16980374765E+02 -0.41579201695E+02 -0.89132172393E+01  0.45788860505E+02  0.10566000000E+00 0.  1.
         22    1    1    0    0    0  0.24481946645E+02  0.12637444540E+02 -0.14748048879E+01  0.27590682584E+02  0.00000000000E+00 0. -1.
</event>
<event>
 5    1  0.1668518E-003  0.9118800E+02  0.7818608E-02  0.1130116E+00
         25   -1    0    0    0    0  0.00000000000E+00  0.00000000000E+00  0.99999998245E-14  0.12500000000E+03  0.12500000000E+03 0.  0.
        -13    1    3    3    0    0  0.48131871676E+02  0.31528825196E+02  0.16809809702E+02  0.59944347153E+02  0.10566000000E+00 0.  1.
         23    2    1    0    0    0  0.21977063065E+02  0.19457073812E+02 -0.38536783038E+01  0.95395610819E+02  0.90685735950E+02 0.  0.
         13    1    3    3    0    0 -0.26154808611E+02 -0.12071751384E+02 -0.20663488006E+02  0.35451263667E+02  0.10566000000E+00 0. -1.
         22    1    1    0    0    0 -0.21977063065E+02 -0.19457073812E+02  0.38536783038E+01  0.29604389181E+02  0.00000000000E+00 0.  1.
</event>
<event>
 5    1  0.1668518E-003  0.9118800E+02  0.7818608E-02  0.1130116E+00
         25   -1    0    0    0    0  0.00000000000E+00  0.00000000000E+00  0.99999998245E-14  0.12500000000E+03  0.12500000000E+03 0.  0.
        -13    1    3    3    0    0  0.14734687282E+02  0.16759926097E+02  0.28874654761E+02  0.36493327934E+02  0.10566000000E+00 0. -1.
         23    2    1    0    0    0 -0.84685992428E+01 -0.29366604325E+02  0.28804554455E+01  0.94301276145E+02  0.89164561550E+02 0.  0.
         13    1    3    3    0    0 -0.23203286525E+02 -0.46126530422E+02 -0.25994199315E+02  0.57807948212E+02  0.10566000000E+00 0.  1.
         22    1    1    0    0    0  0.84685992428E+01  0.29366604325E+02 -0.28804554455E+01  0.30698723855E+02  0.00000000000E+00 0.  1.
</event>
<event>
 5    1  0.1668518E-003  0.9118800E+02  0.7818608E-02  0.1130116E+00
         25   -1    0    0    0    0  0.00000000000E+00  0.00000000000E+00  0.99999998245E-14  0.12500000000E+03  0.12500000000E+03 0.  0.
        -13    1    3    3    0    0  0.29018336245E+00  0.17205046615E+02  0.27228995540E+02  0.32210669002E+02  0.10566000000E+00 0.  1.
         23    2    1    0    0    0 -0.31043175184E+02 -0.17928801840E+02 -0.43364735086E+01  0.88890089125E+02  0.81225133309E+02 0.  0.
         13    1    3    3    0    0 -0.31333358547E+02 -0.35133848455E+02 -0.31565469049E+02  0.56679420122E+02  0.10566000000E+00 0. -1.
         22    1    1    0    0    0  0.31043175184E+02  0.17928801840E+02  0.43364735086E+01  0.36109910875E+02  0.00000000000E+00 0. -1.
</event>
<event>
 5    1  0.1668518E-003  0.9118800E+02  0.7818608E-02  0.1130116E+00
         25   -1    0    0    0    0  0.00000000000E+00  0.00000000000E+00  0.99999998245E-14  0.12500000000E+03  0.12500000000E+03 0.  0.
        -13    1    3    3    0    0 -0.30095661314E+01  0.22450027654E+02 -0.32576682887E+02  0.39677609075E+02  0.10566000000E+00 0.  1.
         23    2    1    0    0    0 -0.64903934871E+01 -0.26593722099E+02 -0.20536169476E+01  0.97548795923E+02  0.93606618253E+02 0.  0.
         13    1    3    3    0    0 -0.34808273557E+01 -0.49043749752E+02  0.30523065940E+02  0.57871186848E+02  0.10566000000E+00 0. -1.
         22    1    1    0    0    0  0.64903934871E+01  0.26593722099E+02  0.20536169476E+01  0.27451204077E+02  0.00000000000E+00 0.  1.
</event>
<event>
 5    1  0.1668518E-003  0.9118800E+02  0.7818608E-02  0.1130116E+00
         25   -1    0    0    0    0  0.00000000000E+00  0.00000000000E+00  0.99999998245E-14  0.12500000000E+03  0.12500000000E+03 0.  0.
        -13    1    3    3    0    0 -0.19948351640E+02 -0.38485564676E+02  0.24353559179E+02  0.49721046151E+02  0.10566000000E+00 0.  1.
         23    2    1    0    0    0  0.13475291697E+02 -0.25429056723E+02 -0.46343140930E+01  0.95850432606E+02  0.91310504059E+02 0.  0.
         13    1    3    3    0    0  0.33423643337E+02  0.13056507953E+02 -0.28987873272E+02  0.46129386455E+02  0.10566000000E+00 0. -1.
         22    1    1    0    0    0 -0.13475291697E+02  0.25429056723E+02  0.46343140930E+01  0.29149567394E+02  0.00000000000E+00 0.  1.
</event>
<event>
 5    1  0.1668518E-003  0.9118800E+02  0.7818608E-02  0.1130116E+00
         25   -1    0    0    0    0  0.00000000000E+00  0.00000000000E+00  0.99999998245E-14  0.12500000000E+03  0.12500000000E+03 0.  0.
        -13    1    3    3    0    0  0.44580913289E+02 -0.45257346831E+01 -0.18188407582E+02  0.48360825453E+02  0.10566000000E+00 0. -1.
         23    2    1    0    0    0  0.37955497645E+02 -0.83735922245E+01  0.15682219094E+02  0.83087366536E+02  0.71741491718E+02 0.  0.
         13    1    3    3    0    0 -0.66254156438E+01 -0.38478575414E+01  0.33870626676E+02  0.34726541083E+02  0.10566000000E+00 0.  1.
         22    1    1    0    0    0 -0.37955497645E+02  0.83735922245E+01 -0.15682219094E+02  0.41912633464E+02  0.00000000000E+00 0. -1.
</event>
<event>
 5    1  0.1668518E-003  0.9118800E+02  0.7818608E-02  0.1130116E+00
         25   -1    0    0    0    0  0.00000000000E+00  0.00000000000E+00  0.99999998245E-14  0.12500000000E+03  0.12500000000E+03 0.  0.
        -13    1    3    3    0    0 -0.12690823020E+02  0.31756470640E+02 -0.44621550136E+02  0.56219430067E+02  0.10566000000E+00 0.  1.
         23    2    1    0    0    0 -0.37863380777E+00 -0.29510497582E+01 -0.28372897947E+02  0.96471533582E+02  0.92156841285E+02 0.  0.
         13    1    3    3    0    0  0.12312189212E+02 -0.34707520398E+02  0.16248652189E+02  0.40252103515E+02  0.10566000000E+00 0. -1.
         22    1    1    0    0    0  0.37863380777E+00  0.29510497582E+01  0.28372897947E+02  0.28528466418E+02  0.00000000000E+00 0.  1.
</event>
<event>
 5    1  0.1668518E-003  0.9118800E+02  0.7818608E-02  0.1130116E+00
         25   -1    0    0    0    0  0.00000000000E+00  0.00000000000E+00  0.99999998245E-14  0.12500000000E+03  0.12500000000E+03 0.  0.
        -13    1    3    3    0    0 -0.21443170411E+02 -0.12860045384E+02 -0.55469913328E+02  0.60844989713E+02  0.10566000000E+00 0.  1.
         23    2    1    0    0    0 -0.85314813263E+01 -0.15596512905E+02 -0.22742098243E+02  0.96134095875E+02  0.91698004171E+02 0.  0.
         13    1    3    3    0    0  0.12911689084E+02 -0.27364675210E+01  0.32727815085E+02  0.35289106163E+02  0.10566000000E+00 0. -1.
         22    1    1    0    0    0  0.85314813263E+01  0.15596512905E+02  0.22742098243E+02  0.28865904125E+02  0.00000000000E+00 0.  1.
</event>
<event>
 5    1  0.1668518E-003  0.9118800E+02  0.7818608E-02  0.1130116E+00
         25   -1    0    0    0    0  0.00000000000E+00  0.00000000000E+00  0.99999998245E-14  0.12500000000E+03  0.12500000000E+03 0.  0.
        -13    1    3    3    0    0 -0.41710437001E+02 -0.38670433924E+02 -0.17384964165E+02  0.59476139399E+02  0.10566000000E+00 0. -1.
         23    2    1    0    0    0 -0.20020119807E+02 -0.28534775283E+02  0.17107790038E+01  0.90100639514E+02  0.83067200979E+02 0.  0.
         13    1    3    3    0    0  0.21690317195E+02  0.10135658641E+02  0.19095743168E+02  0.30624500115E+02  0.10566000000E+00 0.  1.
         22    1    1    0    0    0  0.20020119807E+02  0.28534775283E+02 -0.17107790038E+01  0.34899360486E+02  0.00000000000E+00 0. -1.
</event>
<event>
 5    1  0.1668518E-003  0.9118800E+02  0.7818608E-02  0.1130116E+00
         25   -1    0    0    0    0  0.00000000000E+00  0.00000000000E+00  0.99999998245E-14  0.12500000000E+03  0.12500000000E+03 0.  0.
        -13    1    3    3    0    0  0.23285655190E+02 -0.26727843895E+02  0.53761462645E+01  0.35854058202E+02  0.10566000000E+00 0. -1.
         23    2    1    0    0    0  0.16500316776E+02  0.28518172719E+02 -0.19465266426E+01  0.91994915620E+02  0.85870419267E+02 0.  0.
         13    1    3    3    0    0 -0.67853384141E+01  0.55246016614E+02 -0.73226729071E+01  0.56140857418E+02  0.10566000000E+00 0.  1.
         22    1    1    0    0    0 -0.16500316776E+02 -0.28518172719E+02  0.19465266426E+01  0.33005084380E+02  0.00000000000E+00 0.  1.
</event>
<event>
 5    1  0.1668518E-003  0.9118800E+02  0.7818608E-02  0.1130116E+00
         25   -1    0    0    0    0  0.00000000000E+00  0.00000000000E+00  0.99999998245E-14  0.12500000000E+03  0.12500000000E+03 0.  0.
        -13    1    3    3    0    0 -0.36449608610E+02  0.13827912228E+02 -0.38135881250E+01  0.39170648997E+02  0.10566000000E+00 0.  1.
         23    2    1    0    0    0 -0.11887105652E+02 -0.29875146255E+02  0.10274326557E+02  0.91245156929E+02  0.84771983770E+02 0.  0.
         13    1    3    3    0    0  0.24562502958E+02 -0.43703058483E+02  0.14087914682E+02  0.52074507933E+02  0.10566000000E+00 0. -1.
         22    1    1    0    0    0  0.11887105652E+02  0.29875146255E+02 -0.10274326557E+02  0.33754843071E+02  0.00000000000E+00 0.  1.
</event>
<event>
 5    1  0.1668518E-003  0.9118800E+02  0.7818608E-02  0.1130116E+00
         25   -1    0    0    0    0  0.00000000000E+00  0.00000000000E+00  0.99999998245E-14  0.12500000000E+03  0.12500000000E+03 0.  0.
        -13    1    3    3    0    0  0.23183877342E+02  0.42288735705E+01 -0.29962265347E+02  0.38119864232E+02  0.10566000000E+00 0. -1.
         23    2    1    0    0    0 -0.23611227947E+02 -0.14695981893E+02  0.69973308392E+00  0.97180014462E+02  0.93112854190E+02 0.  0.
         13    1    3    3    0    0 -0.46795105289E+02 -0.18924855464E+02  0.30661998431E+02  0.59060150230E+02  0.10566000000E+00 0.  1.
         22    1    1    0    0    0  0.23611227947E+02  0.14695981893E+02 -0.69973308392E+00  0.27819985538E+02  0.00000000000E+00 0.  1.
</event>
<event>
 5    1  0.1668518E-003  0.9118800E+02  0.7818608E-02  0.1130116E+00
         25   -1    0    0    0    0  0.00000000000E+00  0.00000000000E+00  0.99999998245E-14  0.12500000000E+03  0.12500000000E+03 0.  0.
        -13    1    3    3    0    0  0.66539226782E+01 -0.18931674358E+02 -0.30091262216E+02  0.36168746270E+02  0.10566000000E+00 0.  1.
         23    2    1    0    0    0 -0.12070090712E+02  0.18048844620E+02  0.15903840231E+02  0.98085691240E+02  0.94320850347E+02 0.  0.
         13    1    3    3    0    0 -0.18724013391E+02  0.36980518978E+02  0.45995102447E+02  0.61916944970E+02  0.10566000000E+00 0. -1.
         22    1    1    0    0    0  0.12070090712E+02 -0.18048844620E+02 -0.15903840231E+02  0.26914308760E+02  0.00000000000E+00 0. -1.
</event>
<event>
 5    1  0.1668518E-003  0.9118800E+02  0.7818608E-02  0.1130116E+00
         25   -1    0    0    0    0  0.00000000000E+00  0.00000000000E+00  0.99999998245E-14  0.12500000000E+03  0.12500000000E+03 0.  0.
        -13    1    3    3    0    0  0.30671970684E+02  0.31350518983E+02 -0.15114838321E+02  0.46390670696E+02  0.10566000000E+00 0.  1.
         23    2    1    0    0    0  0.19231126763E+01  0.18210689209E+02  0.22802040925E+02  0.95755160555E+02  0.91179987600E+02 0.  0.
         13    1    3    3    0    0 -0.28748858008E+02 -0.13139829773E+02  0.37916879246E+02  0.49364489859E+02  0.10566000000E+00 0. -1.
         22    1    1    0    0    0 -0.19231126763E+01 -0.18210689209E+02 -0.22802040925E+02  0.29244839445E+02  0.00000000000E+00 0. -1.
</event>
<event>
 5    1  0.1668518E-003  0.9118800E+02  0.7818608E-02  0.1130116E+00
         25   -1    0    0    0    0  0.00000000000E+00  0.00000000000E+00  0.99999998245E-14  0.12500000000E+03  0.12500000000E+03 0.  0.
        -13    1    3    3    0    0  0.37487107552E+02 -0.77964149818E+01  0.17117921373E+01  0.38327649492E+02  0.10566000000E+00 0. -1.
         23    2    1    0    0    0 -0.12045043721E+02 -0.37488680295E+01  0.27811215271E+02  0.94461486863E+02  0.89388879151E+02 0.  0.
         13    1    3    3    0    0 -0.49532151273E+02  0.40475469522E+01  0.26099423134E+02  0.56133837372E+02  0.10566000000E+00 0.  1.
         22    1    1    0    0    0  0.12045043721E+02  0.37488680295E+01 -0.27811215271E+02  0.30538513137E+02  0.00000000000E+00 0.  1.
</event>
<event>
 5    1  0.1668518E-003  0.9118800E+02  0.7818608E-02  0.1130116E+00
         25   -1    0    0    0    0  0.00000000000E+00  0.00000000000E+00  0.99999998245E-14  0.12500000000E+03  0.12500000000E+03 0.  0.
        -13    1    3    3    0    0  0.43581418910E+02 -0.35352006307E+02  0.88574135705E+01  0.56811700936E+02  0.10566000000E+00 0. -1.
         23    2    1    0    0    0  0.16197902927E+02 -0.18548700404E+02 -0.14398808371E+02  0.96473660796E+02  0.92159726556E+02 0.  0.
         13    1    3    3    0    0 -0.27383515983E+02  0.16803305903E+02 -0.23256221942E+02  0.39661959859E+02  0.10566000000E+00 0.  1.
         22    1    1    0    0    0 -0.16197902927E+02  0.18548700404E+02  0.14398808371E+02  0.28526339204E+02  0.00000000000E+00 0. -1.
</event>
<event>
 5    1  0.1668518E-003  0.9118800E+02  0.7818608E-02  0.1130116E+00
         25   -1    0    0    0    0  0.00000000000E+00  0.00000000000E+00  0.99999998245E-14  0.12500000000E+03  0.12500000000E+03 0.  0.
        -13    1    3    3    0    0  0.27247450708E+02 -0.17757811372E+02  0.10294008513E+02  0.34113651374E+02  0.10566000000E+00 0. -1.
         23    2    1    0    0    0 -0.12188634862E+02  0.10110968651E+02 -0.26024010154E+02  0.94536191779E+02  0.89493284355E+02 0.  0.
         13    1    3    3    0    0 -0.39436085570E+02  0.27868780024E+02 -0.36318018666E+02  0.60422540404E+02  0.10566000000E+00 0.  1.
         22    1    1    0    0    0  0.12188634862E+02 -0.10110968651E+02  0.26024010154E+02  0.30463808221E+02  0.00000000000E+00 0.  1.
</event>
<event>
 5    1  0.1668518E-003  0.9118800E+02  0.7818608E-02  0.1130116E+00
         25   -1    0    0    0    0  0.00000000000E+00  0.00000000000E+00  0.99999998245E-14  0.12500000000E+03  0.12500000000E+03 0.  0.
        -13    1    3    3    0    0  0.19468125809E+02  0.16542197229E+02  0.24219130236E+02  0.35202693719E+02  0.10566000000E+00 0. -1.
         23    2    1    0    0    0 -0.17299227373E+02  0.55117903741E+01 -0.22769697140E+02  0.95877805566E+02  0.91347968732E+02 0.  0.
         13    1    3    3    0    0 -0.36767353182E+02 -0.11030406855E+02 -0.46988827376E+02  0.60675111846E+02  0.10566000000E+00 0.  1.
         22    1    1    0    0    0  0.17299227373E+02 -0.55117903741E+01  0.22769697140E+02  0.29122194434E+02  0.00000000000E+00 0.  1.
</event>
<event>
 5    1  0.1668518E-003  0.9118800E+02  0.7818608E-02  0.1130116E+00
         25   -1    0    0    0    0  0.00000000000E+00  0.00000000000E+00  0.99999998245E-14  0.12500000000E+03  0.12500000000E+03 0.  0.
        -13    1    3    3    0    0 -0.20003874462E+02 -0.25252872312E+02  0.92386540362E+01  0.33514570651E+02  0.10566000000E+00 0.  1.
         23    2    1    0    0    0  0.23617229037E+02  0.12404089149E+02 -0.13051152915E+02  0.95302061900E+02  0.90556697571E+02 0.  0.
         13    1    3    3    0    0  0.43621103499E+02  0.37656961461E+02 -0.22289806951E+02  0.61787491249E+02  0.10566000000E+00 0. -1.
         22    1    1    0    0    0 -0.23617229037E+02 -0.12404089149E+02  0.13051152915E+02  0.29697938100E+02  0.00000000000E+00 0. -1.
</event>
<event>
 5    1  0.1668518E-003  0.9118800E+02  0.7818608E-02  0.1130116E+00
         25   -1    0    0    0    0  0.00000000000E+00  0.00000000000E+00  0.99999998245E-14  0.12500000000E+03  0.12500000000E+03 0.  0.
        -13    1    3    3    0    0  0.16700094030E+02  0.31375807185E+02 -0.32429970263E+02  0.48114951444E+02  0.10566000000E+00 0.  1.
         23    2    1    0    0    0  0.21490108231E+02  0.20114131313E+02  0.11258778575E+02  0.93485509282E+02  0.88013506466E+02 0.  0.
         13    1    3    3    0    0  0.47900142006E+01 -0.11261675872E+02  0.43688748838E+02  0.45370557838E+02  0.10566000000E+00 0. -1.
         22    1    1    0    0    0 -0.21490108231E+02 -0.20114131313E+02 -0.11258778575E+02  0.31514490718E+02  0.00000000000E+00 0. -1.
</event>
<event>
 5    1  0.1668518E-003  0.9118800E+02  0.7818608E-02  0.1130116E+00
         25   -1    0    0    0    0  0.00000000000E+00  0.00000000000E+00  0.99999998245E-14  0.12500000000E+03  0.12500000000E+03 0.  0.
        -13    1    3    3    0    0  0.11600365997E+02  0.46782900990E+01 -0.60184225410E+02  0.61470375318E+02  0.10566000000E+00 0.  1.
         23    2    1    0    0    0  0.47024820548E+01 -0.57787315558E+01 -0.28524773285E+02  0.95518314722E+02  0.90854711934E+02 0.  0.
         13    1    3    3    0    0 -0.68978839417E+01 -0.10457021655E+02  0.31659452125E+02  0.34047939404E+02  0.10566000000E+00 0. -1.
         22    1    1    0    0    0 -0.47024820548E+01  0.57787315558E+01  0.28524773285E+02  0.29481685278E+02  0.00000000000E+00 0.  1.
</event>
<event>
 5    1  0.1668518E-003  0.9118800E+02  0.7818608E-02  0.1130116E+00
         25   -1    0    0    0    0  0.00000000000E+00  0.00000000000E+00  0.99999998245E-14  0.12500000000E+03  0.12500000000E+03 0.  0.
        -13    1    3    3    0    0 -0.31583649442E+02 -0.51012586810E+02 -0.44250680804E+00  0.60000149179E+02  0.10566000000E+00 0. -1.
         23    2    1    0    0    0 -0.40524205301E+01 -0.27105544581E+02  0.57810182951E+01  0.96990129745E+02  0.92857592238E+02 0.  0.
         13    1    3    3    0    0  0.27531228912E+02  0.23907042230E+02  0.62235251032E+01  0.36989980567E+02  0.10566000000E+00 0.  1.
         22    1    1    0    0    0  0.40524205301E+01  0.27105544581E+02 -0.57810182951E+01  0.28009870255E+02  0.00000000000E+00 0. -1.
</event>
<event>
 5    1  0.1668518E-003  0.9118800E+02  0.7818608E-02  0.1130116E+00
         25   -1    0    0    0    0  0.00000000000E+00  0.00000000000E+00  0.99999998245E-14  0.12500000000E+03  0.12500000000E+03 0.  0.
        -13    1    3    3    0    0  0.10669665402E+02 -0.73943862869E+01  0.31763643276E+02  0.34314121095E+02  0.10566000000E+00 0. -1.
         23    2    1    0    0    0  0.35851189749E+01  0.17409984652E+02 -0.23636398994E+02  0.95425686803E+02  0.90727182811E+02 0.  0.
         13    1    3    3    0    0 -0.70845464271E+01  0.24804370939E+02 -0.55400042270E+02  0.61111565708E+02  0.10566000000E+00 0.  1.
         22    1    1    0    0    0 -0.35851189749E+01 -0.17409984652E+02  0.23636398994E+02  0.29574313197E+02  0.00000000000E+00 0.  1.
</event>
<event>
 5    1  0.1668518E-003  0.9118800E+02  0.7818608E-02  0.1130116E+00
         25   -1    0    0    0    0  0.00000000000E+00  0.00000000000E+00  0.99999998245E-14  0.12500000000E+03  0.12500000000E+03 0.  0.
        -13    1    3    3    0    0 -0.29652294924E+01 -0.32434398482E+02  0.39873353006E+02  0.51484737882E+02  0.10566000000E+00 0. -1.
         23    2    1    0    0    0 -0.11361179254E+02 -0.26784188791E+02 -0.31993462332E+01  0.95730476951E+02  0.91146142199E+02 0.  0.
         13    1    3    3    0    0 -0.83959497614E+01  0.56502096914E+01 -0.43072699239E+02  0.44245739069E+02  0.10566000000E+00 0.  1.
         22    1    1    0    0    0  0.11361179254E+02  0.26784188791E+02  0.31993462332E+01  0.29269523049E+02  0.00000000000E+00 0. -1.
</event>
<event>
 5    1  0.1668518E-003  0.9118800E+02  0.7818608E-02  0.1130116E+00
         25   -1    0    0    0    0  0.00000000000E+00  0.00000000000E+00  0.99999998245E-14  0.12500000000E+03  0.12500000000E+03 0.  0.
        -13    1    3    3    0    0 -0.51451722599E+01 -0.21153279263E+02 -0.29042476444E+02  0.36296151631E+02  0.10566000000E+00 0. -1.
         23    2    1    0    0    0 -0.59425969425E+01 -0.71177269692E+01  0.28239029855E+02  0.95277629590E+02  0.90522966133E+02 0.  0.
         13    1    3    3    0    0 -0.79742468268E+00  0.14035552294E+02  0.57281506299E+02  0.58981477959E+02  0.10566000000E+00 0.  1.
         22    1    1    0    0    0  0.59425969425E+01  0.71177269692E+01 -0.28239029855E+02  0.29722370410E+02  0.00000000000E+00 0.  1.
</event>
<event>
 5    1  0.1668518E-003  0.9118800E+02  0.7818608E-02  0.1130116E+00
         25   -1    0    0    0    0  0.00000000000E+00  0.00000000000E+00  0.99999998245E-14  0.12500000000E+03  0.12500000000E+03 0.  0.
        -13    1    3    3    0    0 -0.30323316497E+02 -0.17597047468E+02  0.49670274829E+02  0.60797261193E+02  0.10566000000E+00 0. -1.
         23    2    1    0    0    0 -0.18423349178E+02 -0.36673006332E+00  0.31422941198E+02  0.88572599332E+02  0.80735059504E+02 0.  0.
         13    1    3    3    0    0  0.11899967319E+02  0.17230317405E+02 -0.18247333631E+02  0.27775338139E+02  0.10566000000E+00 0.  1.
         22    1    1    0    0    0  0.18423349178E+02  0.36673006332E+00 -0.31422941198E+02  0.36427400668E+02  0.00000000000E+00 0. -1.
</event>
<event>
 5    1  0.1668518E-003  0.9118800E+02  0.7818608E-02  0.1130116E+00
         25   -1    0    0    0    0  0.00000000000E+00  0.00000000000E+00  0.99999998245E-14  0.12500000000E+03  0.12500000000E+03 0.  0.
        -13    1    3    3    0    0  0.39472763251E+02  0.29583872037E+02  0.44042812302E+00  0.49330615893E+02  0.10566000000E+00 0. -1.
         23    2    1    0    0    0  0.19210914335E+02 -0.47521202594E+01 -0.22264809250E+02  0.95211351029E+02  0.90431398072E+02 0.  0.
         13    1    3    3    0    0 -0.20261848916E+02 -0.34335992297E+02 -0.22705237373E+02  0.45880735137E+02  0.10566000000E+00 0.  1.
         22    1    1    0    0    0 -0.19210914335E+02  0.47521202594E+01  0.22264809250E+02  0.29788648971E+02  0.00000000000E+00 0. -1.
</event>
<event>
 5    1  0.1668518E-003  0.9118800E+02  0.7818608E-02  0.1130116E+00
         25   -1    0    0    0    0  0.00000000000E+00  0.00000000000E+00  0.99999998245E-14  0.12500000000E+03  0.12500000000E+03 0.  0.
        -13    1    3    3    0    0 -0.26813225661E+02 -0.27806094465E+02 -0.43759781242E+01  0.38875291746E+02  0.10566000000E+00 0.  1.
         23    2    1    0    0    0  0.15839333263E+02 -0.60882187396E+01  0.24814834161E+02  0.94937949503E+02  0.90052692218E+02 0.  0.
         13    1    3    3    0    0  0.42652558925E+02  0.21717875726E+02  0.29190812285E+02  0.56062657757E+02  0.10566000000E+00 0. -1.
         22    1    1    0    0    0 -0.15839333263E+02  0.60882187396E+01 -0.24814834161E+02  0.30062050497E+02  0.00000000000E+00 0. -1.
</event>
<event>
 5    1  0.1668518E-003  0.9118800E+02  0.7818608E-02  0.1130116E+00
         25   -1    0    0    0    0  0.00000000000E+00  0.00000000000E+00  0.99999998245E-14  0.12500000000E+03  0.12500000000E+03 0.  0.
        -13    1    3    3    0    0  0.12048951076E+02 -0.25207410483E+02 -0.29324871895E+02  0.40503704040E+02  0.10566000000E+00 0.  1.
         23    2    1    0    0    0  0.12192775239E+02  0.25536644457E+02 -0.13410382775E+02  0.93685109862E+02  0.88296531447E+02 0.  0.
         13    1    3    3    0    0  0.14382416329E+00  0.50744054940E+02  0.15914489121E+02  0.53181405822E+02  0.10566000000E+00 0. -1.
         22    1    1    0    0    0 -0.12192775239E+02 -0.25536644457E+02  0.13410382775E+02  0.31314890138E+02  0.00000000000E+00 0. -1.
</event>
<event>
 5    1  0.1668518E-003  0.9118800E+02  0.7818608E-02  0.1130116E+00
         25   -1    0    0    0    0  0.00000000000E+00  0.00000000000E+00  0.99999998245E-14  0.12500000000E+03  0.12500000000E+03 0.  0.
        -13    1    3    3    0    0 -0.34661570006E+02  0.59738823193E+01 -0.23356155066E+02  0.42221236940E+02  0.10566000000E+00 0.  1.
         23    2    1    0    0    0  0.16697080682E+02  0.15540292609E+02 -0.20154867794E+02  0.94561342122E+02  0.89528406276E+02 0.  0.
         13    1    3    3    0    0  0.51358650687E+02  0.95664102893E+01  0.32012872721E+01  0.52340105182E+02  0.10566000000E+00 0. -1.
         22    1    1    0    0    0 -0.16697080682E+02 -0.15540292609E+02  0.20154867794E+02  0.30438657878E+02  0.00000000000E+00 0. -1.
</event>
<event>
 5    1  0.1668518E-003  0.9118800E+02  0.7818608E-02  0.1130116E+00
         25   -1    0    0    0    0  0.00000000000E+00  0.00000000000E+00  0.99999998245E-14  0.12500000000E+03  0.12500000000E+03 0.  0.
        -13    1    3    3    0    0 -0.26518170357E+02 -0.26694970363E+01 -0.46150476129E+02  0.53293688036E+02  0.10566000000E+00 0. -1.
         23    2    1    0    0    0  0.36446997381E+01  0.17349481412E+02 -0.21700444602E+02  0.96978621780E+02  0.92842099529E+02 0.  0.
         13    1    3    3    0    0  0.30162870095E+02  0.20018978448E+02  0.24450031527E+02  0.43684933744E+02  0.10566000000E+00 0.  1.
         22    1    1    0    0    0 -0.36446997381E+01 -0.17349481412E+02  0.21700444602E+02  0.28021378220E+02  0.00000000000E+00 0.  1.
</event>
<event>
 5    1  0.1668518E-003  0.9118800E+02  0.7818608E-02  0.1130116E+00
         25   -1    0    0    0    0  0.00000000000E+00  0.00000000000E+00  0.99999998245E-14  0.12500000000E+03  0.12500000000E+03 0.  0.
        -13    1    3    3    0    0  0.50942093633E+02  0.25881520336E+02 -0.78597575682E+01  0.57677872288E+02  0.10566000000E+00 0. -1.
         23    2    1    0    0    0  0.27598439348E+02 -0.50973848837E+01 -0.37788476091E+01  0.96681509992E+02  0.92441211037E+02 0.  0.
         13    1    3    3    0    0 -0.23343654285E+02 -0.30978905220E+02  0.40809099591E+01  0.39003637704E+02  0.10566000000E+00 0.  1.
         22    1    1    0    0    0 -0.27598439348E+02  0.50973848837E+01  0.37788476091E+01  0.28318490008E+02  0.00000000000E+00 0. -1.
</event>
<event>
 5    1  0.1668518E-003  0.9118800E+02  0.7818608E-02  0.1130116E+00
         25   -1    0    0    0    0  0.00000000000E+00  0.00000000000E+00  0.99999998245E-14  0.12500000000E+03  0.12500000000E+03 0.  0.
        -13    1    3    3    0    0  0.30524297653E+00 -0.14392716462E+02  0.30648697862E+02  0.33861442750E+02  0.10566000000E+00 0. -1.
         23    2    1    0    0    0 -0.48845185134E+01  0.65771410844E+01 -0.27717438069E+02  0.96097168321E+02  0.91647651799E+02 0.  0.
         13    1    3    3    0    0 -0.51897614899E+01  0.20969857547E+02 -0.58366135931E+02  0.62235725571E+02  0.10566000000E+00 0.  1.
         22    1    1    0    0    0  0.48845185134E+01 -0.65771410844E+01  0.27717438069E+02  0.28902831679E+02  0.00000000000E+00 0.  1.
</event>
<event>
 5    1  0.1668518E-003  0.9118800E+02  0.7818608E-02  0.1130116E+00
         25   -1    0    0    0    0  0.00000000000E+00  0.00000000000E+00  0.99999998245E-14  0.12500000000E+03  0.12500000000E+03 0.  0.
        -13    1    3    3    0    0  0.32045080812E+01 -0.10528175087E+02 -0.44157879737E+02  0.45508689825E+02  0.10566000000E+00 0.  1.
         23    2    1    0    0    0 -0.15046048245E+01 -0.34970995577E+02 -0.85280052350E+01  0.88972770845E+02  0.81352275391E+02 0.  0.
         13    1    3    3    0    0 -0.47091129057E+01 -0.24442820490E+02  0.35629874502E+02  0.43464081020E+02  0.10566000000E+00 0. -1.
         22    1    1    0    0    0  0.15046048245E+01  0.34970995577E+02  0.85280052350E+01  0.36027229155E+02  0.00000000000E+00 0.  1.
</event>
<event>
 5    1  0.1668518E-003  0.9118800E+02  0.7818608E-02  0.1130116E+00
         25   -1    0    0    0    0  0.00000000000E+00  0.00000000000E+00  0.99999998245E-14  0.12500000000E+03  0.12500000000E+03 0.  0.
        -13    1    3    3    0    0 -0.16104621551E+02  0.24004813696E+02  0.49185687210E+02  0.57051142900E+02  0.10566000000E+00 0.  1.
         23    2    1    0    0    0  0.10202962856E+02  0.16003798959E+02  0.24538265463E+02  0.93978257558E+02  0.88710565265E+02 0.  0.
         13    1    3    3    0    0  0.26307584408E+02 -0.80010147366E+01 -0.24647421747E+02  0.36927114658E+02  0.10566000000E+00 0. -1.
         22    1    1    0    0    0 -0.10202962856E+02 -0.16003798959E+02 -0.24538265463E+02  0.31021742442E+02  0.00000000000E+00 0.  1.
</event>
<event>
 5    1  0.1668518E-003  0.9118800E+02  0.7818608E-02  0.1130116E+00
         25   -1    0    0    0    0  0.00000000000E+00  0.00000000000E+00  0.99999998245E-14  0.12500000000E+03  0.12500000000E+03 0.  0.
        -13    1    3    3    0    0 -0.40068717675E+02 -0.20776777033E+02 -0.95176579969E+01  0.46127796151E+02  0.10566000000E+00 0.  1.
         23    2    1    0    0    0  0.64561540334E+01 -0.11753220781E+02 -0.25538934835E+02  0.96154596274E+02  0.91725945449E+02 0.  0.
         13    1    3    3    0    0  0.46524871709E+02  0.90235562516E+01 -0.16021276838E+02  0.50026800122E+02  0.10566000000E+00 0. -1.
         22    1    1    0    0    0 -0.64561540334E+01  0.11753220781E+02  0.25538934835E+02  0.28845403726E+02  0.00000000000E+00 0.  1.
</event>
<event>
 5    1  0.1668518E-003  0.9118800E+02  0.7818608E-02  0.1130116E+00
         25   -1    0    0    0    0  0.00000000000E+00  0.00000000000E+00  0.99999998245E-14  0.12500000000E+03  0.12500000000E+03 0.  0.
        -13    1    3    3    0    0  0.39286084837E+02  0.35945830729E+02 -0.20515861914E+02  0.57064971416E+02  0.10566000000E+00 0.  1.
         23    2    1    0    0    0  0.20155701059E+02  0.24062539152E+01 -0.21153934928E+02  0.95682235658E+02  0.91079958907E+02 0.  0.
         13    1    3    3    0    0 -0.19130383778E+02 -0.33539576814E+02 -0.63807301352E+00  0.38617264242E+02  0.10566000000E+00 0. -1.
         22    1    1    0    0    0 -0.20155701059E+02 -0.24062539152E+01  0.21153934928E+02  0.29317764342E+02  0.00000000000E+00 0.  1.
</event>
<event>
 5    1  0.1668518E-003  0.9118800E+02  0.7818608E-02  0.1130116E+00
         25   -1    0    0    0    0  0.00000000000E+00  0.00000000000E+00  0.99999998245E-14  0.12500000000E+03  0.12500000000E+03 0.  0.
        -13    1    3    3    0    0 -0.46737705503E+02  0.15048015956E+02 -0.12027509922E+02  0.50552230998E+02  0.10566000000E+00 0.  1.
         23    2    1    0    0    0 -0.11319868452E+02  0.26222886753E+02  0.11159783051E+02  0.94335362888E+02  0.89212335033E+02 0.  0.
         13    1    3    3    0    0  0.35417837051E+02  0.11174870797E+02  0.23187292973E+02  0.43783131891E+02  0.10566000000E+00 0. -1.
         22    1    1    0    0    0  0.11319868452E+02 -0.26222886753E+02 -0.11159783051E+02  0.30664637112E+02  0.00000000000E+00 0.  1.
</event>
<event>
 5    1  0.1668518E-003  0.9118800E+02  0.7818608E-02  0.1130116E+00
         25   -1    0    0    0    0  0.00000000000E+00  0.00000000000E+00  0.99999998245E-14  0.12500000000E+03  0.12500000000E+03 0.  0.
        -13    1    3    3    0    0 -0.19106409062E+02 -0.35617064809E+02  0.23726419837E+01  0.40487908897E+02  0.10566000000E+00 0.  1.
         23    2    1    0    0    0 -0.29299710035E+01  0.12196363259E+02 -0.24355965480E+02  0.97603849517E+02  0.93680106635E+02 0.  0.
         13    1    3    3    0    0  0.16176438059E+02  0.47813428068E+02 -0.26728607464E+02  0.57115940620E+02  0.10566000000E+00 0. -1.
         22    1    1    0    0    0  0.29299710035E+01 -0.12196363259E+02  0.24355965480E+02  0.27396150483E+02  0.00000000000E+00 0. -1.
</event>
<event>
 5    1  0.1668518E-003  0.9118800E+02  0.7818608E-02  0.1130116E+00
         25   -1    0    0    0    0  0.00000000000E+00  0.00000000000E+00  0.99999998245E-14  0.12500000000E+03  0.12500000000E+03 0.  0.
        -13    1    3    3    0    0 -0.18230633330E+02  0.19061487340E+02  0.37027261005E+02  0.45461252873E+02  0.10566000000E+00 0. -1.
         23    2    1    0    0    0  0.77022151306E+01  0.28389734990E+02 -0.44392380733E+01  0.95250915890E+02  0.90486070599E+02 0.  0.
         13    1    3    3    0    0  0.25932848460E+02  0.93282476495E+01 -0.41466499078E+02  0.49789663017E+02  0.10566000000E+00 0.  1.
         22    1    1    0    0    0 -0.77022151306E+01 -0.28389734990E+02  0.44392380733E+01  0.29749084110E+02  0.00000000000E+00 0.  1.
</event>
<event>
 5    1  0.1668518E-003  0.9118800E+02  0.7818608E-02  0.1130116E+00
         25   -1    0    0    0    0  0.00000000000E+00  0.00000000000E+00  0.99999998245E-14  0.12500000000E+03  0.12500000000E+03 0.  0.
        -13    1    3    3    0    0  0.41000575772E+02 -0.28974462449E+02  0.24963360583E+02  0.56069128970E+02  0.10566000000E+00 0.  1.
         23    2    1    0    0    0  0.75653186150E+01 -0.92880815627E+01  0.27552537255E+02  0.94955952103E+02  0.90077677733E+02 0.  0.
         13    1    3    3    0    0 -0.33435257156E+02  0.19686380886E+02  0.25891766718E+01  0.38886823133E+02  0.10566000000E+00 0. -1.
         22    1    1    0    0    0 -0.75653186150E+01  0.92880815627E+01 -0.27552537255E+02  0.30044047897E+02  0.00000000000E+00 0.  1.
</event>
<event>
 5    1  0.1668518E-003  0.9118800E+02  0.7818608E-02  0.1130116E+00
         25   -1    0    0    0    0  0.00000000000E+00  0.00000000000E+00  0.99999998245E-14  0.12500000000E+03  0.12500000000E+03 0.  0.
        -13    1    3    3    0    0 -0.30778198633E+02  0.19698986395E+02 -0.41758218824E+02  0.55489706969E+02  0.10566000000E+00 0. -1.
         23    2    1    0    0    0 -0.65655979838E+01 -0.10223136975E+02 -0.24458185960E+02  0.97690249599E+02  0.93795321844E+02 0.  0.
         13    1    3    3    0    0  0.24212600650E+02 -0.29922123370E+02  0.17300032864E+02  0.42200542630E+02  0.10566000000E+00 0.  1.
         22    1    1    0    0    0  0.65655979838E+01  0.10223136975E+02  0.24458185960E+02  0.27309750401E+02  0.00000000000E+00 0. -1.
</event>
<event>
 5    1  0.1668518E-003  0.9118800E+02  0.7818608E-02  0.1130116E+00
         25   -1    0    0    0    0  0.00000000000E+00  0.00000000000E+00  0.99999998245E-14  0.12500000000E+03  0.12500000000E+03 0.  0.
        -13    1    3    3    0    0 -0.45129670744E+02  0.42052280198E+02 -0.82187273474E+01  0.62230539887E+02  0.10566000000E+00 0.  1.
         23    2    1    0    0    0 -0.22482208147E+02  0.17241522722E+02 -0.68496007798E+01  0.95851469681E+02  0.91311923757E+02 0.  0.
         13    1    3    3    0    0  0.22647462598E+02 -0.24810757476E+02  0.13691265675E+01  0.33620929794E+02  0.10566000000E+00 0. -1.
         22    1    1    0    0    0  0.22482208147E+02 -0.17241522722E+02  0.68496007798E+01  0.29148530319E+02  0.00000000000E+00 0.  1.
</event>
<event>
 5    1  0.1668518E-003  0.9118800E+02  0.7818608E-02  0.1130116E+00
         25   -1    0    0    0    0  0.00000000000E+00  0.00000000000E+00  0.99999998245E-14  0.12500000000E+03  0.12500000000E+03 0.  0.
        -13    1    3    3    0    0 -0.14375294613E+02  0.34066033251E+02 -0.31577045295E+02  0.48623704819E+02  0.10566000000E+00 0. -1.
         23    2    1    0    0    0 -0.13231744528E+02 -0.12695696070E+02 -0.21982256435E+02  0.96373450087E+02  0.92023706303E+02 0.  0.
         13    1    3    3    0    0  0.11435500857E+01 -0.46761729321E+02  0.95947888602E+01  0.47749745268E+02  0.10566000000E+00 0.  1.
         22    1    1    0    0    0  0.13231744528E+02  0.12695696070E+02  0.21982256435E+02  0.28626549913E+02  0.00000000000E+00 0. -1.
</event>
<event>
 5    1  0.1668518E-003  0.9118800E+02  0.7818608E-02  0.1130116E+00
         25   -1    0    0    0    0  0.00000000000E+00  0.00000000000E+00  0.99999998245E-14  0.12500000000E+03  0.12500000000E+03 0.  0.
        -13    1    3    3    0    0  0.10743876577E+02 -0.70599422145E+01  0.59386629829E+02  0.60762296159E+02  0.10566000000E+00 0.  1.
         23    2    1    0    0    0  0.31510994613E+01  0.69099366516E+01  0.28553190196E+02  0.95454081115E+02  0.90766294839E+02 0.  0.
         13    1    3    3    0    0 -0.75927771160E+01  0.13969878866E+02 -0.30833439633E+02  0.34691784957E+02  0.10566000000E+00 0. -1.
         22    1    1    0    0    0 -0.31510994613E+01 -0.69099366516E+01 -0.28553190196E+02  0.29545918885E+02  0.00000000000E+00 0.  1.
</event>
<event>
 5    1  0.1668518E-003  0.9118800E+02  0.7818608E-02  0.1130116E+00
         25   -1    0    0    0    0  0.00000000000E+00  0.00000000000E+00  0.99999998245E-14  0.12500000000E+03  0.12500000000E+03 0.  0.
        -13    1    3    3    0    0 -0.96229007325E+01 -0.42643540344E+02 -0.17105064853E+02  0.46943222719E+02  0.10566000000E+00 0.  1.
         23    2    1    0    0    0  0.18013356051E+02 -0.51032838433E+01 -0.24524498181E+02  0.94145899572E+02  0.88946472065E+02 0.  0.
         13    1    3    3    0    0  0.27636256784E+02  0.37540256500E+02 -0.74194333279E+01  0.47202676853E+02  0.10566000000E+00 0. -1.
         22    1    1    0    0    0 -0.18013356051E+02  0.51032838433E+01  0.24524498181E+02  0.30854100428E+02  0.00000000000E+00 0. -1.
</event>
<event>
 5    1  0.1668518E-003  0.9118800E+02  0.7818608E-02  0.1130116E+00
         25   -1    0    0    0    0  0.00000000000E+00  0.00000000000E+00  0.99999998245E-14  0.12500000000E+03  0.12500000000E+03 0.  0.
        -13    1    3    3    0    0 -0.23258494896E+02 -0.28811284520E+02  0.41999059673E+02  0.55990891027E+02  0.10566000000E+00 0.  1.
         23    2    1    0    0    0  0.31441457473E+01 -0.15226014032E+02  0.35296779569E+02  0.86430843881E+02  0.77347986207E+02 0.  0.
         13    1    3    3    0    0  0.26402640643E+02  0.13585270488E+02 -0.67022801040E+01  0.30439952855E+02  0.10566000000E+00 0. -1.
         22    1    1    0    0    0 -0.31441457473E+01  0.15226014032E+02 -0.35296779569E+02  0.38569156119E+02  0.00000000000E+00 0.  1.
</event>
<event>
 5    1  0.1668518E-003  0.9118800E+02  0.7818608E-02  0.1130116E+00
         25   -1    0    0    0    0  0.00000000000E+00  0.00000000000E+00  0.99999998245E-14  0.12500000000E+03  0.12500000000E+03 0.  0.
        -13    1    3    3    0    0  0.41440435574E+02  0.28514963462E+02 -0.21538078053E+02  0.54720314437E+02  0.10566000000E+00 0. -1.
         23    2    1    0    0    0  0.19927295493E+01  0.27021971371E+02 -0.12193812602E+02  0.95287259069E+02  0.90536262168E+02 0.  0.
         13    1    3    3    0    0 -0.39447706024E+02 -0.14929920906E+01  0.93442654512E+01  0.40566944633E+02  0.10566000000E+00 0.  1.
         22    1    1    0    0    0 -0.19927295493E+01 -0.27021971371E+02  0.12193812602E+02  0.29712740931E+02  0.00000000000E+00 0. -1.
</event>
<event>
 5    1  0.1668518E-003  0.9118800E+02  0.7818608E-02  0.1130116E+00
         25   -1    0    0    0    0  0.00000000000E+00  0.00000000000E+00  0.99999998245E-14  0.12500000000E+03  0.12500000000E+03 0.  0.
        -13    1    3    3    0    0 -0.46763970532E+02 -0.19645303189E+01  0.32148807043E+02  0.56782790329E+02  0.10566000000E+00 0. -1.
         23    2    1    0    0    0 -0.27853090462E+02  0.88866549977E+01 -0.16352544760E+00  0.95763139261E+02  0.91190925070E+02 0.  0.
         13    1    3    3    0    0  0.18910880070E+02  0.10851185317E+02 -0.32312332490E+02  0.38980348931E+02  0.10566000000E+00 0.  1.
         22    1    1    0    0    0  0.27853090462E+02 -0.88866549977E+01  0.16352544760E+00  0.29236860739E+02  0.00000000000E+00 0. -1.
</event>
<event>
 5    1  0.1668518E-003  0.9118800E+02  0.7818608E-02  0.1130116E+00
         25   -1    0    0    0    0  0.00000000000E+00  0.00000000000E+00  0.99999998245E-14  0.12500000000E+03  0.12500000000E+03 0.  0.
        -13    1    3    3    0    0 -0.39049420237E+02  0.32900871156E+01  0.65755777016E+01  0.39735768273E+02  0.10566000000E+00 0.  1.
         23    2    1    0    0    0  0.19097695579E+02 -0.12322231526E+02 -0.65305498315E+01  0.10135243253E+03  0.98555102010E+02 0.  0.
         13    1    3    3    0    0  0.58147115816E+02 -0.15612318641E+02 -0.13106127533E+02  0.61616664256E+02  0.10566000000E+00 0. -1.
         22    1    1    0    0    0 -0.19097695579E+02  0.12322231526E+02  0.65305498315E+01  0.23647567471E+02  0.00000000000E+00 0. -1.
</event>
<event>
 5    1  0.1668518E-003  0.9118800E+02  0.7818608E-02  0.1130116E+00
         25   -1    0    0    0    0  0.00000000000E+00  0.00000000000E+00  0.99999998245E-14  0.12500000000E+03  0.12500000000E+03 0.  0.
        -13    1    3    3    0    0 -0.41872736735E+02  0.18542238187E+02  0.87717042496E+01  0.46627187757E+02  0.10566000000E+00 0.  1.
         23    2    1    0    0    0  0.61533731682E+01  0.24962997215E+02  0.14605795634E+02  0.95430683177E+02  0.90734066338E+02 0.  0.
         13    1    3    3    0    0  0.48026109903E+02  0.64207590279E+01  0.58340913845E+01  0.48803495420E+02  0.10566000000E+00 0. -1.
         22    1    1    0    0    0 -0.61533731682E+01 -0.24962997215E+02 -0.14605795634E+02  0.29569316823E+02  0.00000000000E+00 0. -1.
</event>
<event>
 5    1  0.1668518E-003  0.9118800E+02  0.7818608E-02  0.1130116E+00
         25   -1    0    0    0    0  0.00000000000E+00  0.00000000000E+00  0.99999998245E-14  0.12500000000E+03  0.12500000000E+03 0.  0.
        -13    1    3    3    0    0  0.43760221636E+02 -0.27634671028E+02  0.32821560718E+02  0.61285382045E+02  0.10566000000E+00 0. -1.
         23    2    1    0    0    0  0.22602259460E+02 -0.16567177699E+02  0.77149772927E+01  0.95933621068E+02  0.91424314419E+02 0.  0.
         13    1    3    3    0    0 -0.21157962177E+02  0.11067493329E+02 -0.25106583425E+02  0.34648239022E+02  0.10566000000E+00 0.  1.
         22    1    1    0    0    0 -0.22602259460E+02  0.16567177699E+02 -0.77149772927E+01  0.29066378932E+02  0.00000000000E+00 0. -1.
</event>
<event>
 5    1  0.1668518E-003  0.9118800E+02  0.7818608E-02  0.1130116E+00
         25   -1    0    0    0    0  0.00000000000E+00  0.00000000000E+00  0.99999998245E-14  0.12500000000E+03  0.12500000000E+03 0.  0.
        -13    1    3    3    0    0 -0.30877237228E+02 -0.45786155803E+02 -0.22686034850E+02  0.59702957911E+02  0.10566000000E+00 0.  1.
         23    2    1    0    0    0 -0.18634034675E+02 -0.22863083249E+02  0.18547907674E+01  0.95446860189E+02  0.90756349900E+02 0.  0.
         13    1    3    3    0    0  0.12243202553E+02  0.22923072554E+02  0.24540825617E+02  0.35743902278E+02  0.10566000000E+00 0. -1.
         22    1    1    0    0    0  0.18634034675E+02  0.22863083249E+02 -0.18547907674E+01  0.29553139811E+02  0.00000000000E+00 0.  1.
</event>
<event>
 5    1  0.1668518E-003  0.9118800E+02  0.7818608E-02  0.1130116E+00
         25   -1    0    0    0    0  0.00000000000E+00  0.00000000000E+00  0.99999998245E-14  0.12500000000E+03  0.12500000000E+03 0.  0.
        -13    1    3    3    0    0 -0.17298323075E+02 -0.64956853463E+01 -0.26025715839E+02  0.31918254312E+02  0.10566000000E+00 0.  1.
         23    2    1    0    0    0  0.17910415303E+02  0.31269743332E+00  0.24975202254E+02  0.94264979524E+02  0.89113662707E+02 0.  0.
         13    1    3    3    0    0  0.35208738378E+02  0.68083827796E+01  0.51000918094E+02  0.62346725212E+02  0.10566000000E+00 0. -1.
         22    1    1    0    0    0 -0.17910415303E+02 -0.31269743332E+00 -0.24975202254E+02  0.30735020476E+02  0.00000000000E+00 0. -1.
</event>
<event>
 5    1  0.1668518E-003  0.9118800E+02  0.7818608E-02  0.1130116E+00
         25   -1    0    0    0    0  0.00000000000E+00  0.00000000000E+00  0.99999998245E-14  0.12500000000E+03  0.12500000000E+03 0.  0.
        -13    1    3    3    0    0 -0.28407374704E+02 -0.11079786806E+02 -0.52486463602E+02  0.60700746608E+02  0.10566000000E+00 0. -1.
         23    2    1    0    0    0 -0.52517840963E+01 -0.68031249490E+01 -0.31848668372E+02  0.92012101881E+02  0.85895433349E+02 0.  0.
         13    1    3    3    0    0  0.23155590608E+02  0.42766618569E+01  0.20637795230E+02  0.31311355273E+02  0.10566000000E+00 0.  1.
         22    1    1    0    0    0  0.52517840963E+01  0.68031249490E+01  0.31848668372E+02  0.32987898119E+02  0.00000000000E+00 0. -1.
</event>
<event>
 5    1  0.1668518E-003  0.9118800E+02  0.7818608E-02  0.1130116E+00
         25   -1    0    0    0    0  0.00000000000E+00  0.00000000000E+00  0.99999998245E-14  0.12500000000E+03  0.12500000000E+03 0.  0.
        -13    1    3    3    0    0  0.34505070298E+02  0.21123123788E+02  0.12540416816E+02  0.42356338992E+02  0.10566000000E+00 0. -1.
         23    2    1    0    0    0  0.55345214464E+01 -0.25365999092E+02  0.99536985681E+01  0.97194587708E+02  0.93132416091E+02 0.  0.
         13    1    3    3    0    0 -0.28970548851E+02 -0.46489122880E+02 -0.25867182478E+01  0.54838248716E+02  0.10566000000E+00 0.  1.
         22    1    1    0    0    0 -0.55345214464E+01  0.25365999092E+02 -0.99536985681E+01  0.27805412292E+02  0.00000000000E+00 0.  1.
</event>
<event>
 5    1  0.1668518E-003  0.9118800E+02  0.7818608E-02  0.1130116E+00
         25   -1    0    0    0    0  0.00000000000E+00  0.00000000000E+00  0.99999998245E-14  0.12500000000E+03  0.12500000000E+03 0.  0.
        -13    1    3    3    0    0  0.17802164926E+02  0.10406672290E+02 -0.28839193281E+02  0.35453154124E+02  0.10566000000E+00 0.  1.
         23    2    1    0    0    0 -0.18725453974E+02 -0.22731819540E+02  0.48102764228E+01  0.95158468448E+02  0.90358270855E+02 0.  0.
         13    1    3    3    0    0 -0.36527618899E+02 -0.33138491830E+02  0.33649469703E+02  0.59705314324E+02  0.10566000000E+00 0. -1.
         22    1    1    0    0    0  0.18725453974E+02  0.22731819540E+02 -0.48102764228E+01  0.29841531552E+02  0.00000000000E+00 0. -1.
</event>
<event>
 5    1  0.1668518E-003  0.9118800E+02  0.7818608E-02  0.1130116E+00
         25   -1    0    0    0    0  0.00000000000E+00  0.00000000000E+00  0.99999998245E-14  0.12500000000E+03  0.12500000000E+03 0.  0.
        -13    1    3    3    0    0 -0.27263378114E+01 -0.38756506870E+02 -0.71762037924E+01  0.39509603991E+02  0.10566000000E+00 0. -1.
         23    2    1    0    0    0  0.23529270343E+01  0.53126658728E+01  0.28174083451E+02  0.96233010887E+02  0.91832743190E+02 0.  0.
         13    1    3    3    0    0  0.50792648457E+01  0.44069172743E+02  0.35350287244E+02  0.56723406896E+02  0.10566000000E+00 0.  1.
         22    1    1    0    0    0 -0.23529270343E+01 -0.53126658728E+01 -0.28174083451E+02  0.28766989113E+02  0.00000000000E+00 0.  1.
</event>
<event>
 5    1  0.1668518E-003  0.9118800E+02  0.7818608E-02  0.1130116E+00
         25   -1    0    0    0    0  0.00000000000E+00  0.00000000000E+00  0.99999998245E-14  0.12500000000E+03  0.12500000000E+03 0.  0.
        -13    1    3    3    0    0 -0.14376187151E+01  0.16053119719E+02 -0.54271595511E+02  0.56614367820E+02  0.10566000000E+00 0. -1.
         23    2    1    0    0    0 -0.13043344284E+02 -0.76831731162E+01 -0.21359653967E+02  0.98819954224E+02  0.95288973947E+02 0.  0.
         13    1    3    3    0    0 -0.11605725569E+02 -0.23736292835E+02  0.32911941544E+02  0.42205586404E+02  0.10566000000E+00 0.  1.
         22    1    1    0    0    0  0.13043344284E+02  0.76831731162E+01  0.21359653967E+02  0.26180045776E+02  0.00000000000E+00 0. -1.
</event>
<event>
 5    1  0.1668518E-003  0.9118800E+02  0.7818608E-02  0.1130116E+00
         25   -1    0    0    0    0  0.00000000000E+00  0.00000000000E+00  0.99999998245E-14  0.12500000000E+03  0.12500000000E+03 0.  0.
        -13    1    3    3    0    0 -0.27122440851E+02 -0.11697476883E+02 -0.15679465066E+02  0.33441210384E+02  0.10566000000E+00 0.  1.
         23    2    1    0    0    0  0.24255881729E+02 -0.82883397328E+01  0.16829393996E+02  0.94336130769E+02  0.89213410944E+02 0.  0.
         13    1    3    3    0    0  0.51378322580E+02  0.34091371502E+01  0.32508859061E+02  0.60894920385E+02  0.10566000000E+00 0. -1.
         22    1    1    0    0    0 -0.24255881729E+02  0.82883397328E+01 -0.16829393996E+02  0.30663869231E+02  0.00000000000E+00 0. -1.
</event>
<event>
 5    1  0.1668518E-003  0.9118800E+02  0.7818608E-02  0.1130116E+00
         25   -1    0    0    0    0  0.00000000000E+00  0.00000000000E+00  0.99999998245E-14  0.12500000000E+03  0.12500000000E+03 0.  0.
        -13    1    3    3    0    0 -0.15007679314E+01 -0.77429935755E+01  0.37637430264E+02  0.38455085162E+02  0.10566000000E+00 0. -1.
         23    2    1    0    0    0  0.16775498130E+02 -0.19005653632E+02 -0.15168577874E+02  0.95458199746E+02  0.90771966689E+02 0.  0.
         13    1    3    3    0    0  0.18276266061E+02 -0.11262660057E+02 -0.52806008139E+02  0.57003114584E+02  0.10566000000E+00 0.  1.
         22    1    1    0    0    0 -0.16775498130E+02  0.19005653632E+02  0.15168577874E+02  0.29541800254E+02  0.00000000000E+00 0.  1.
</event>
<event>
 5    1  0.1668518E-003  0.9118800E+02  0.7818608E-02  0.1130116E+00
         25   -1    0    0    0    0  0.00000000000E+00  0.00000000000E+00  0.99999998245E-14  0.12500000000E+03  0.12500000000E+03 0.  0.
        -13    1    3    3    0    0  0.32396375523E+02 -0.13291803787E+00  0.15903296918E+02  0.36089733043E+02  0.10566000000E+00 0. -1.
         23    2    1    0    0    0 -0.15552889701E+02  0.26005386723E+02 -0.44569517938E+01  0.94372611343E+02  0.89264510505E+02 0.  0.
         13    1    3    3    0    0 -0.47949265224E+02  0.26138304761E+02 -0.20360248712E+02  0.58282878300E+02  0.10566000000E+00 0.  1.
         22    1    1    0    0    0  0.15552889701E+02 -0.26005386723E+02  0.44569517938E+01  0.30627388657E+02  0.00000000000E+00 0.  1.
</event>
<event>
 5    1  0.1668518E-003  0.9118800E+02  0.7818608E-02  0.1130116E+00
         25   -1    0    0    0    0  0.00000000000E+00  0.00000000000E+00  0.99999998245E-14  0.12500000000E+03  0.12500000000E+03 0.  0.
        -13    1    3    3    0    0  0.26475587308E+02 -0.19389606622E+02  0.15815665306E+02  0.36428834751E+02  0.10566000000E+00 0.  1.
         23    2    1    0    0    0 -0.56008139029E+01  0.12971688113E+02 -0.24138765376E+02  0.97030126872E+02  0.92911418664E+02 0.  0.
         13    1    3    3    0    0 -0.32076401210E+02  0.32361294736E+02 -0.39954430682E+02  0.60601292121E+02  0.10566000000E+00 0. -1.
         22    1    1    0    0    0  0.56008139029E+01 -0.12971688113E+02  0.24138765376E+02  0.27969873128E+02  0.00000000000E+00 0. -1.
</event>
<event>
 5    1  0.1668518E-003  0.9118800E+02  0.7818608E-02  0.1130116E+00
         25   -1    0    0    0    0  0.00000000000E+00  0.00000000000E+00  0.99999998245E-14  0.12500000000E+03  0.12500000000E+03 0.  0.
        -13    1    3    3    0    0  0.43614064742E+01 -0.47254936264E+02  0.30864195753E+01  0.47556156463E+02  0.10566000000E+00 0.  1.
         23    2    1    0    0    0 -0.26942130242E+02 -0.13218486094E+02  0.76688859110E+01  0.94025517475E+02  0.88777133141E+02 0.  0.
         13    1    3    3    0    0 -0.31303536716E+02  0.34036450169E+02  0.45824663357E+01  0.46469361012E+02  0.10566000000E+00 0. -1.
         22    1    1    0    0    0  0.26942130242E+02  0.13218486094E+02 -0.76688859110E+01  0.30974482525E+02  0.00000000000E+00 0. -1.
</event>
<event>
 5    1  0.1668518E-003  0.9118800E+02  0.7818608E-02  0.1130116E+00
         25   -1    0    0    0    0  0.00000000000E+00  0.00000000000E+00  0.99999998245E-14  0.12500000000E+03  0.12500000000E+03 0.  0.
        -13    1    3    3    0    0 -0.29005829724E+02  0.38380371184E+02 -0.19192548230E+02  0.51795329150E+02  0.10566000000E+00 0. -1.
         23    2    1    0    0    0 -0.26257575207E+02  0.15350889931E+02  0.13371787658E+02  0.91774786945E+02  0.85549381857E+02 0.  0.
         13    1    3    3    0    0  0.27482545171E+01 -0.23029481253E+02  0.32564335888E+02  0.39979457794E+02  0.10566000000E+00 0.  1.
         22    1    1    0    0    0  0.26257575207E+02 -0.15350889931E+02 -0.13371787658E+02  0.33225213055E+02  0.00000000000E+00 0.  1.
</event>
<event>
 5    1  0.1668518E-003  0.9118800E+02  0.7818608E-02  0.1130116E+00
         25   -1    0    0    0    0  0.00000000000E+00  0.00000000000E+00  0.99999998245E-14  0.12500000000E+03  0.12500000000E+03 0.  0.
        -13    1    3    3    0    0  0.20402044544E+02  0.34073480612E+01  0.37978964392E+02  0.43246576080E+02  0.10566000000E+00 0. -1.
         23    2    1    0    0    0 -0.25011625353E+02 -0.65762675823E+01  0.12338246979E+02  0.96345837359E+02  0.91986191028E+02 0.  0.
         13    1    3    3    0    0 -0.45413669897E+02 -0.99836156435E+01 -0.25640717413E+02  0.53099261279E+02  0.10566000000E+00 0.  1.
         22    1    1    0    0    0  0.25011625353E+02  0.65762675823E+01 -0.12338246979E+02  0.28654162641E+02  0.00000000000E+00 0.  1.
</event>
<event>
 5    1  0.1668518E-003  0.9118800E+02  0.7818608E-02  0.1130116E+00
         25   -1    0    0    0    0  0.00000000000E+00  0.00000000000E+00  0.99999998245E-14  0.12500000000E+03  0.12500000000E+03 0.  0.
        -13    1    3    3    0    0 -0.29614966547E+02 -0.10124591959E+02  0.47592533589E+02  0.56961513528E+02  0.10566000000E+00 0.  1.
         23    2    1    0    0    0 -0.11637570507E+02  0.13856130569E+02  0.23028607435E+02  0.95712764521E+02  0.91121847710E+02 0.  0.
         13    1    3    3    0    0  0.17977396040E+02  0.23980722528E+02 -0.24563926155E+02  0.38751250993E+02  0.10566000000E+00 0. -1.
         22    1    1    0    0    0  0.11637570507E+02 -0.13856130569E+02 -0.23028607435E+02  0.29287235479E+02  0.00000000000E+00 0.  1.
</event>
<event>
 5    1  0.1668518E-003  0.9118800E+02  0.7818608E-02  0.1130116E+00
         25   -1    0    0    0    0  0.00000000000E+00  0.00000000000E+00  0.99999998245E-14  0.12500000000E+03  0.12500000000E+03 0.  0.
        -13    1    3    3    0    0 -0.12108915607E+02  0.49251640173E+02 -0.19965122367E+01  0.50757729678E+02  0.10566000000E+00 0. -1.
         23    2    1    0    0    0 -0.22137237322E+02  0.10158407109E+02  0.16933002892E+02  0.95335592064E+02  0.90602969135E+02 0.  0.
         13    1    3    3    0    0 -0.10028321715E+02 -0.39093233064E+02  0.18929515129E+02  0.44577862386E+02  0.10566000000E+00 0.  1.
         22    1    1    0    0    0  0.22137237322E+02 -0.10158407109E+02 -0.16933002892E+02  0.29664407936E+02  0.00000000000E+00 0.  1.
</event>
<event>
 5    1  0.1668518E-003  0.9118800E+02  0.7818608E-02  0.1130116E+00
         25   -1    0    0    0    0  0.00000000000E+00  0.00000000000E+00  0.99999998245E-14  0.12500000000E+03  0.12500000000E+03 0.  0.
        -13    1    3    3    0    0  0.19022600474E+02 -0.74547170735E+01  0.25708223882E+02  0.32838332398E+02  0.10566000000E+00 0. -1.
         23    2    1    0    0    0  0.49346805193E+00  0.18831244603E+02 -0.25493094239E+02  0.93302095686E+02  0.87752629143E+02 0.  0.
         13    1    3    3    0    0 -0.18529132423E+02  0.26285961676E+02 -0.51201318121E+02  0.60463763288E+02  0.10566000000E+00 0.  1.
         22    1    1    0    0    0 -0.49346805193E+00 -0.18831244603E+02  0.25493094239E+02  0.31697904314E+02  0.00000000000E+00 0.  1.
</event>
<event>
 5    1  0.1668518E-003  0.9118800E+02  0.7818608E-02  0.1130116E+00
         25   -1    0    0    0    0  0.00000000000E+00  0.00000000000E+00  0.99999998245E-14  0.12500000000E+03  0.12500000000E+03 0.  0.
        -13    1    3    3    0    0  0.42186253193E+02  0.10796974805E+02  0.38646264619E+02  0.58221985164E+02  0.10566000000E+00 0. -1.
         23    2    1    0    0    0  0.28853110717E+02  0.60056587561E+01  0.45052831667E+01  0.95186118811E+02  0.90396513775E+02 0.  0.
         13    1    3    3    0    0 -0.13333142476E+02 -0.47913160484E+01 -0.34140981452E+02  0.36964133647E+02  0.10566000000E+00 0.  1.
         22    1    1    0    0    0 -0.28853110717E+02 -0.60056587561E+01 -0.45052831667E+01  0.29813881189E+02  0.00000000000E+00 0. -1.
</event>
<event>
 5    1  0.1668518E-003  0.9118800E+02  0.7818608E-02  0.1130116E+00
         25   -1    0    0    0    0  0.00000000000E+00  0.00000000000E+00  0.99999998245E-14  0.12500000000E+03  0.12500000000E+03 0.  0.
        -13    1    3    3    0    0 -0.66595596401E+01 -0.20698870094E+02 -0.58150532403E+02  0.62082916656E+02  0.10566000000E+00 0. -1.
         23    2    1    0    0    0  0.18272888705E+01 -0.10651379886E+02 -0.28506862098E+02  0.94513411723E+02  0.89461460590E+02 0.  0.
         13    1    3    3    0    0  0.84868485106E+01  0.10047490208E+02  0.29643670305E+02  0.32430495067E+02  0.10566000000E+00 0.  1.
         22    1    1    0    0    0 -0.18272888705E+01  0.10651379886E+02  0.28506862098E+02  0.30486588277E+02  0.00000000000E+00 0. -1.
</event>
<event>
 5    1  0.1668518E-003  0.9118800E+02  0.7818608E-02  0.1130116E+00
         25   -1    0    0    0    0  0.00000000000E+00  0.00000000000E+00  0.99999998245E-14  0.12500000000E+03  0.12500000000E+03 0.  0.
        -13    1    3    3    0    0  0.91473383471E+01 -0.35001706345E+02  0.12580871330E+02  0.38302516019E+02  0.10566000000E+00 0.  1.
         23    2    1    0    0    0  0.34874807620E+01  0.49463506384E+01 -0.28488954051E+02  0.95875278377E+02  0.91344510476E+02 0.  0.
         13    1    3    3    0    0 -0.56598575851E+01  0.39948056983E+02 -0.41069825382E+02  0.57572762358E+02  0.10566000000E+00 0. -1.
         22    1    1    0    0    0 -0.34874807620E+01 -0.49463506384E+01  0.28488954051E+02  0.29124721623E+02  0.00000000000E+00 0. -1.
</event>
<event>
 5    1  0.1668518E-003  0.9118800E+02  0.7818608E-02  0.1130116E+00
         25   -1    0    0    0    0  0.00000000000E+00  0.00000000000E+00  0.99999998245E-14  0.12500000000E+03  0.12500000000E+03 0.  0.
        -13    1    3    3    0    0  0.18676937756E+01  0.35116235613E+02  0.30061059277E+01  0.35294278865E+02  0.10566000000E+00 0.  1.
         23    2    1    0    0    0  0.34941610606E+01 -0.24852793072E+02  0.13966313156E+02  0.96278433396E+02  0.91894550159E+02 0.  0.
         13    1    3    3    0    0  0.16264672851E+01 -0.59969028686E+02  0.10960207229E+02  0.60984154531E+02  0.10566000000E+00 0. -1.
         22    1    1    0    0    0 -0.34941610606E+01  0.24852793072E+02 -0.13966313156E+02  0.28721566604E+02  0.00000000000E+00 0. -1.
</event>
<event>
 5    1  0.1668518E-003  0.9118800E+02  0.7818608E-02  0.1130116E+00
         25   -1    0    0    0    0  0.00000000000E+00  0.00000000000E+00  0.99999998245E-14  0.12500000000E+03  0.12500000000E+03 0.  0.
        -13    1    3    3    0    0  0.37069895611E+02 -0.14706182616E+02  0.44534391693E+02  0.59781035247E+02  0.10566000000E+00 0.  1.
         23    2    1    0    0    0  0.22079608431E+02  0.51165909790E+01  0.18850834462E+02  0.95520471991E+02  0.90857679905E+02 0.  0.
         13    1    3    3    0    0 -0.14990287180E+02  0.19822773595E+02 -0.25683557231E+02  0.35739436744E+02  0.10566000000E+00 0. -1.
         22    1    1    0    0    0 -0.22079608431E+02 -0.51165909790E+01 -0.18850834462E+02  0.29479528009E+02  0.00000000000E+00 0.  1.
</event>
<event>
 5    1  0.1668518E-003  0.9118800E+02  0.7818608E-02  0.1130116E+00
         25   -1    0    0    0    0  0.00000000000E+00  0.00000000000E+00  0.99999998245E-14  0.12500000000E+03  0.12500000000E+03 0.  0.
        -13    1    3    3    0    0  0.11710120684E+02  0.39350084843E+02  0.22023785006E+02  0.46589852689E+02  0.10566000000E+00 0. -1.
         23    2    1    0    0    0  0.41741865172E+01 -0.49776133302E+01  0.31748850283E+02  0.92593365466E+02  0.86737197133E+02 0.  0.
         13    1    3    3    0    0 -0.75359341663E+01 -0.44327698173E+02  0.97250652772E+01  0.46003512777E+02  0.10566000000E+00 0.  1.
         22    1    1    0    0    0 -0.41741865172E+01  0.49776133302E+01 -0.31748850283E+02  0.32406634534E+02  0.00000000000E+00 0. -1.
</event>
<event>
 5    1  0.1668518E-003  0.9118800E+02  0.7818608E-02  0.1130116E+00
         25   -1    0    0    0    0  0.00000000000E+00  0.00000000000E+00  0.99999998245E-14  0.12500000000E+03  0.12500000000E+03 0.  0.
        -13    1    3    3    0    0 -0.10444001973E+02 -0.15996461126E+02  0.25508411644E+02  0.31869329683E+02  0.10566000000E+00 0. -1.
         23    2    1    0    0    0 -0.39178128990E+02 -0.30605373554E+02 -0.34006836830E+01  0.75168490580E+02  0.56277194716E+02 0.  0.
         13    1    3    3    0    0 -0.28734127017E+02 -0.14608912428E+02 -0.28909095327E+02  0.43299160897E+02  0.10566000000E+00 0.  1.
         22    1    1    0    0    0  0.39178128990E+02  0.30605373554E+02  0.34006836830E+01  0.49831509420E+02  0.00000000000E+00 0.  1.
</event>
<event>
 5    1  0.1668518E-003  0.9118800E+02  0.7818608E-02  0.1130116E+00
         25   -1    0    0    0    0  0.00000000000E+00  0.00000000000E+00  0.99999998245E-14  0.12500000000E+03  0.12500000000E+03 0.  0.
        -13    1    3    3    0    0 -0.23947891330E+02  0.35192172097E+02 -0.43188301549E+02  0.60640176705E+02  0.10566000000E+00 0.  1.
         23    2    1    0    0    0 -0.21667948169E+02  0.12715469583E+02 -0.22458147921E+02  0.91302054178E+02  0.84855839778E+02 0.  0.
         13    1    3    3    0    0  0.22799431608E+01 -0.22476702513E+02  0.20730153628E+02  0.30661877473E+02  0.10566000000E+00 0. -1.
         22    1    1    0    0    0  0.21667948169E+02 -0.12715469583E+02  0.22458147921E+02  0.33697945822E+02  0.00000000000E+00 0.  1.
</event>
<event>
 5    1  0.1668518E-003  0.9118800E+02  0.7818608E-02  0.1130116E+00
         25   -1    0    0    0    0  0.00000000000E+00  0.00000000000E+00  0.99999998245E-14  0.12500000000E+03  0.12500000000E+03 0.  0.
        -13    1    3    3    0    0 -0.34717003505E+02  0.17943772288E+02  0.40415797088E+02  0.56220077504E+02  0.10566000000E+00 0.  1.
         23    2    1    0    0    0 -0.31228024572E+02  0.21857566704E+01  0.76060436899E+01  0.92784802476E+02  0.87012646316E+02 0.  0.
         13    1    3    3    0    0  0.34889789327E+01 -0.15758015617E+02 -0.32809753398E+02  0.36564724972E+02  0.10566000000E+00 0. -1.
         22    1    1    0    0    0  0.31228024572E+02 -0.21857566704E+01 -0.76060436899E+01  0.32215197524E+02  0.00000000000E+00 0. -1.
</event>
<event>
 5    1  0.1668518E-003  0.9118800E+02  0.7818608E-02  0.1130116E+00
         25   -1    0    0    0    0  0.00000000000E+00  0.00000000000E+00  0.99999998245E-14  0.12500000000E+03  0.12500000000E+03 0.  0.
        -13    1    3    3    0    0  0.11064411328E+01 -0.44933580278E+02 -0.32075938300E+02  0.55218908269E+02  0.10566000000E+00 0.  1.
         23    2    1    0    0    0 -0.74009123989E+01 -0.46049623552E+01 -0.26856488945E+02  0.96764380987E+02  0.92553202250E+02 0.  0.
         13    1    3    3    0    0 -0.85073535317E+01  0.40328617923E+02  0.52194493550E+01  0.41545472717E+02  0.10566000000E+00 0. -1.
         22    1    1    0    0    0  0.74009123989E+01  0.46049623552E+01  0.26856488945E+02  0.28235619013E+02  0.00000000000E+00 0. -1.
</event>
<event>
 5    1  0.1668518E-003  0.9118800E+02  0.7818608E-02  0.1130116E+00
         25   -1    0    0    0    0  0.00000000000E+00  0.00000000000E+00  0.99999998245E-14  0.12500000000E+03  0.12500000000E+03 0.  0.
        -13    1    3    3    0    0  0.16361639721E+02  0.37192805318E+01 -0.30389651132E+02  0.34714238606E+02  0.10566000000E+00 0.  1.
         23    2    1    0    0    0 -0.16632733223E+02  0.15728928962E+02  0.18956829023E+02  0.95277813213E+02  0.90523219691E+02 0.  0.
         13    1    3    3    0    0 -0.32994372944E+02  0.12009648430E+02  0.49346480155E+02  0.60563574607E+02  0.10566000000E+00 0. -1.
         22    1    1    0    0    0  0.16632733223E+02 -0.15728928962E+02 -0.18956829023E+02  0.29722186787E+02  0.00000000000E+00 0. -1.
</event>
<event>
 5    1  0.1668518E-003  0.9118800E+02  0.7818608E-02  0.1130116E+00
         25   -1    0    0    0    0  0.00000000000E+00  0.00000000000E+00  0.99999998245E-14  0.12500000000E+03  0.12500000000E+03 0.  0.
        -13    1    3    3    0    0  0.45932395816E+02 -0.94045061062E+01  0.23815768160E+02  0.52587372036E+02  0.10566000000E+00 0. -1.
         23    2    1    0    0    0  0.26237657882E+02 -0.48465258829E+01 -0.13552899923E+02  0.95073680470E+02  0.90240900470E+02 0.  0.
         13    1    3    3    0    0 -0.19694737934E+02  0.45579802233E+01 -0.37368668083E+02  0.42486308434E+02  0.10566000000E+00 0.  1.
         22    1    1    0    0    0 -0.26237657882E+02  0.48465258829E+01  0.13552899923E+02  0.29926319530E+02  0.00000000000E+00 0. -1.
</event>
<event>
 5    1  0.1668518E-003  0.9118800E+02  0.7818608E-02  0.1130116E+00
         25   -1    0    0    0    0  0.00000000000E+00  0.00000000000E+00  0.99999998245E-14  0.12500000000E+03  0.12500000000E+03 0.  0.
        -13    1    3    3    0    0 -0.40495020530E+02 -0.45668471393E+02 -0.91193663286E+01  0.61714098660E+02  0.10566000000E+00 0.  1.
         23    2    1    0    0    0 -0.17878433848E+02 -0.20429564894E+02 -0.11120047216E+02  0.95662976144E+02  0.91053522919E+02 0.  0.
         13    1    3    3    0    0  0.22616586682E+02  0.25238906499E+02 -0.20006808878E+01  0.33948877484E+02  0.10566000000E+00 0. -1.
         22    1    1    0    0    0  0.17878433848E+02  0.20429564894E+02  0.11120047216E+02  0.29337023856E+02  0.00000000000E+00 0.  1.
</event>
<event>
 5    1  0.1668518E-003  0.9118800E+02  0.7818608E-02  0.1130116E+00
         25   -1    0    0    0    0  0.00000000000E+00  0.00000000000E+00  0.99999998245E-14  0.12500000000E+03  0.12500000000E+03 0.  0.
        -13    1    3    3    0    0 -0.33751019425E+02  0.23904930800E+02 -0.21406218369E+02  0.46570531215E+02  0.10566000000E+00 0. -1.
         23    2    1    0    0    0  0.16064492086E+02  0.99294344672E+01 -0.18765267569E+02  0.98376761246E+02  0.94705809281E+02 0.  0.
         13    1    3    3    0    0  0.49815511511E+02 -0.13975496333E+02  0.26409508004E+01  0.51806230031E+02  0.10566000000E+00 0.  1.
         22    1    1    0    0    0 -0.16064492086E+02 -0.99294344672E+01  0.18765267569E+02  0.26623238754E+02  0.00000000000E+00 0. -1.
</event>
<event>
 5    1  0.1668518E-003  0.9118800E+02  0.7818608E-02  0.1130116E+00
         25   -1    0    0    0    0  0.00000000000E+00  0.00000000000E+00  0.99999998245E-14  0.12500000000E+03  0.12500000000E+03 0.  0.
        -13    1    3    3    0    0 -0.10799901005E+02 -0.16765156146E+02 -0.33048371805E+02  0.38599408873E+02  0.10566000000E+00 0.  1.
         23    2    1    0    0    0  0.15225719702E+02  0.24578009312E+02 -0.30495944347E+01  0.95927657329E+02  0.91416160126E+02 0.  0.
         13    1    3    3    0    0  0.26025620707E+02  0.41343165458E+02  0.29998777370E+02  0.57328248456E+02  0.10566000000E+00 0. -1.
         22    1    1    0    0    0 -0.15225719702E+02 -0.24578009312E+02  0.30495944347E+01  0.29072342671E+02  0.00000000000E+00 0. -1.
</event>
<event>
 5    1  0.1668518E-003  0.9118800E+02  0.7818608E-02  0.1130116E+00
         25   -1    0    0    0    0  0.00000000000E+00  0.00000000000E+00  0.99999998245E-14  0.12500000000E+03  0.12500000000E+03 0.  0.
        -13    1    3    3    0    0  0.51084881120E+02 -0.24111729305E+01  0.21263378158E+02  0.55386110611E+02  0.10566000000E+00 0.  1.
         23    2    1    0    0    0  0.24977806392E+02 -0.75426071680E+01 -0.10547247453E+02  0.96857040598E+02  0.92678261472E+02 0.  0.
         13    1    3    3    0    0 -0.26107074727E+02 -0.51314342375E+01 -0.31810625611E+02  0.41470929987E+02  0.10566000000E+00 0. -1.
         22    1    1    0    0    0 -0.24977806392E+02  0.75426071680E+01  0.10547247453E+02  0.28142959402E+02  0.00000000000E+00 0.  1.
</event>
<event>
 5    1  0.1668518E-003  0.9118800E+02  0.7818608E-02  0.1130116E+00
         25   -1    0    0    0    0  0.00000000000E+00  0.00000000000E+00  0.99999998245E-14  0.12500000000E+03  0.12500000000E+03 0.  0.
        -13    1    3    3    0    0  0.11282920948E+02 -0.27027931463E+02 -0.53282398893E+02  0.60801633038E+02  0.10566000000E+00 0.  1.
         23    2    1    0    0    0  0.57875482631E+01 -0.28461632436E+01 -0.28194360234E+02  0.96077373751E+02  0.91620649626E+02 0.  0.
         13    1    3    3    0    0 -0.54953726847E+01  0.24181768219E+02  0.25088038658E+02  0.35275740714E+02  0.10566000000E+00 0. -1.
         22    1    1    0    0    0 -0.57875482631E+01  0.28461632436E+01  0.28194360234E+02  0.28922626249E+02  0.00000000000E+00 0.  1.
</event>
<event>
 5    1  0.1668518E-003  0.9118800E+02  0.7818608E-02  0.1130116E+00
         25   -1    0    0    0    0  0.00000000000E+00  0.00000000000E+00  0.99999998245E-14  0.12500000000E+03  0.12500000000E+03 0.  0.
        -13    1    3    3    0    0  0.30424604717E+02  0.73322025469E+01 -0.45542008774E+02  0.55258515123E+02  0.10566000000E+00 0. -1.
         23    2    1    0    0    0  0.27053556528E+01  0.21483882855E+02 -0.20060629549E+02  0.95482123558E+02  0.90804905646E+02 0.  0.
         13    1    3    3    0    0 -0.27719249064E+02  0.14151680309E+02  0.25481379225E+02  0.40223608435E+02  0.10566000000E+00 0.  1.
         22    1    1    0    0    0 -0.27053556528E+01 -0.21483882855E+02  0.20060629549E+02  0.29517876442E+02  0.00000000000E+00 0. -1.
</event>
<event>
 5    1  0.1668518E-003  0.9118800E+02  0.7818608E-02  0.1130116E+00
         25   -1    0    0    0    0  0.00000000000E+00  0.00000000000E+00  0.99999998245E-14  0.12500000000E+03  0.12500000000E+03 0.  0.
        -13    1    3    3    0    0  0.13841464862E+02  0.41817449913E+02 -0.16220233867E+02  0.46940306960E+02  0.10566000000E+00 0. -1.
         23    2    1    0    0    0  0.26057803886E+02 -0.59080932175E+01 -0.94052011827E+01  0.96673819211E+02  0.92430810895E+02 0.  0.
         13    1    3    3    0    0  0.12216339024E+02 -0.47725543131E+02  0.68150326839E+01  0.49733512251E+02  0.10566000000E+00 0.  1.
         22    1    1    0    0    0 -0.26057803886E+02  0.59080932175E+01  0.94052011827E+01  0.28326180789E+02  0.00000000000E+00 0.  1.
</event>
<event>
 4    1  0.1668518E-003  0.9118800E+02  0.7818608E-02  0.1130116E+00
         25   -1    0    0    0    0  0.00000000000E+00  0.00000000000E+00  0.99999998245E-14  0.12500000000E+03  0.12500000000E+03 0.  0.
        -13    1    1    0    0    0 -0.61127160195E+01  0.10548369239E+02 -0.19551667252E+02  0.23041533089E+02  0.10566000000E+00 0.  1.
         13    1    1    0    0    0 -0.32884447883E+02  0.20669300347E+02  0.32173181301E+02  0.50435420574E+02  0.10566000000E+00 0. -1.
         22    1    1    0    0    0  0.38997163903E+02 -0.31217669587E+02 -0.12621514050E+02  0.51523046336E+02  0.00000000000E+00 0. -1.
</event>
<event>
 5    1  0.1668518E-003  0.9118800E+02  0.7818608E-02  0.1130116E+00
         25   -1    0    0    0    0  0.00000000000E+00  0.00000000000E+00  0.99999998245E-14  0.12500000000E+03  0.12500000000E+03 0.  0.
        -13    1    3    3    0    0 -0.24093204475E+02 -0.23645583118E+02 -0.93842344031E+01  0.35038138110E+02  0.10566000000E+00 0.  1.
         23    2    1    0    0    0  0.19108334248E+02  0.26137692410E+01  0.22928648591E+02  0.95038638990E+02  0.90192348608E+02 0.  0.
         13    1    3    3    0    0  0.43201538723E+02  0.26259352359E+02  0.32312882994E+02  0.60000500879E+02  0.10566000000E+00 0. -1.
         22    1    1    0    0    0 -0.19108334248E+02 -0.26137692410E+01 -0.22928648591E+02  0.29961361010E+02  0.00000000000E+00 0. -1.
</event>
<event>
 5    1  0.1668518E-003  0.9118800E+02  0.7818608E-02  0.1130116E+00
         25   -1    0    0    0    0  0.00000000000E+00  0.00000000000E+00  0.99999998245E-14  0.12500000000E+03  0.12500000000E+03 0.  0.
        -13    1    3    3    0    0  0.98073595629E+01 -0.44664090854E+02  0.12904712279E+02  0.47514293391E+02  0.10566000000E+00 0.  1.
         23    2    1    0    0    0  0.35344433588E+01 -0.14101586393E+02 -0.24677014842E+02  0.96359083636E+02  0.92004189627E+02 0.  0.
         13    1    3    3    0    0 -0.62729162042E+01  0.30562504461E+02 -0.37581727121E+02  0.48844790245E+02  0.10566000000E+00 0. -1.
         22    1    1    0    0    0 -0.35344433588E+01  0.14101586393E+02  0.24677014842E+02  0.28640916364E+02  0.00000000000E+00 0.  1.
</event>
<event>
 5    1  0.1668518E-003  0.9118800E+02  0.7818608E-02  0.1130116E+00
         25   -1    0    0    0    0  0.00000000000E+00  0.00000000000E+00  0.99999998245E-14  0.12500000000E+03  0.12500000000E+03 0.  0.
        -13    1    3    3    0    0 -0.16919082217E+02 -0.33520137734E+02 -0.31474257224E+01  0.37679867694E+02  0.10566000000E+00 0.  1.
         23    2    1    0    0    0  0.23770983931E+02  0.10316212121E+02 -0.84973351448E+01  0.97729345183E+02  0.93847409638E+02 0.  0.
         13    1    3    3    0    0  0.40690066148E+02  0.43836349855E+02 -0.53499094224E+01  0.60049477488E+02  0.10566000000E+00 0. -1.
         22    1    1    0    0    0 -0.23770983931E+02 -0.10316212121E+02  0.84973351448E+01  0.27270654817E+02  0.00000000000E+00 0. -1.
</event>
<event>
 5    1  0.1668518E-003  0.9118800E+02  0.7818608E-02  0.1130116E+00
         25   -1    0    0    0    0  0.00000000000E+00  0.00000000000E+00  0.99999998245E-14  0.12500000000E+03  0.12500000000E+03 0.  0.
        -13    1    3    3    0    0 -0.36554462740E+02 -0.35627083450E+01  0.33415568482E+02  0.49654133946E+02  0.10566000000E+00 0.  1.
         23    2    1    0    0    0 -0.11218740637E+02 -0.26280751678E+02  0.13784805081E+01  0.96391640055E+02  0.92048411250E+02 0.  0.
         13    1    3    3    0    0  0.25335722103E+02 -0.22718043333E+02 -0.32037087973E+02  0.46737506109E+02  0.10566000000E+00 0. -1.
         22    1    1    0    0    0  0.11218740637E+02  0.26280751678E+02 -0.13784805081E+01  0.28608359945E+02  0.00000000000E+00 0.  1.
</event>
<event>
 5    1  0.1668518E-003  0.9118800E+02  0.7818608E-02  0.1130116E+00
         25   -1    0    0    0    0  0.00000000000E+00  0.00000000000E+00  0.99999998245E-14  0.12500000000E+03  0.12500000000E+03 0.  0.
        -13    1    3    3    0    0  0.11403123983E+00  0.17802967133E+02  0.36522882459E+02  0.40631154906E+02  0.10566000000E+00 0.  1.
         23    2    1    0    0    0  0.22352845128E+02 -0.98101758174E+01 -0.95678038532E+01  0.98781073526E+02  0.95237956622E+02 0.  0.
         13    1    3    3    0    0  0.22238813888E+02 -0.27613142950E+02 -0.46090686312E+02  0.58149918620E+02  0.10566000000E+00 0. -1.
         22    1    1    0    0    0 -0.22352845128E+02  0.98101758174E+01  0.95678038532E+01  0.26218926474E+02  0.00000000000E+00 0. -1.
</event>
<event>
 5    1  0.1668518E-003  0.9118800E+02  0.7818608E-02  0.1130116E+00
         25   -1    0    0    0    0  0.00000000000E+00  0.00000000000E+00  0.99999998245E-14  0.12500000000E+03  0.12500000000E+03 0.  0.
        -13    1    3    3    0    0 -0.15773983257E+02 -0.24423455577E+02  0.25689260010E+02  0.38797847544E+02  0.10566000000E+00 0. -1.
         23    2    1    0    0    0 -0.17598640325E+02  0.17931603648E+02 -0.13454168115E+02  0.96499663329E+02  0.92194988108E+02 0.  0.
         13    1    3    3    0    0 -0.18246570674E+01  0.42355059225E+02 -0.39143428126E+02  0.57701815785E+02  0.10566000000E+00 0.  1.
         22    1    1    0    0    0  0.17598640325E+02 -0.17931603648E+02  0.13454168115E+02  0.28500336671E+02  0.00000000000E+00 0.  1.
</event>
<event>
 5    1  0.1668518E-003  0.9118800E+02  0.7818608E-02  0.1130116E+00
         25   -1    0    0    0    0  0.00000000000E+00  0.00000000000E+00  0.99999998245E-14  0.12500000000E+03  0.12500000000E+03 0.  0.
        -13    1    3    3    0    0 -0.38158270893E+02  0.82925039264E+01  0.31121857350E+01  0.39172900365E+02  0.10566000000E+00 0. -1.
         23    2    1    0    0    0  0.15511596551E+02  0.24488633123E+02 -0.42039053847E+01  0.95708779467E+02  0.91116380892E+02 0.  0.
         13    1    3    3    0    0  0.53669867445E+02  0.16196129197E+02 -0.73160911197E+01  0.56535879102E+02  0.10566000000E+00 0.  1.
         22    1    1    0    0    0 -0.15511596551E+02 -0.24488633123E+02  0.42039053847E+01  0.29291220533E+02  0.00000000000E+00 0.  1.
</event>
<event>
 5    1  0.1668518E-003  0.9118800E+02  0.7818608E-02  0.1130116E+00
         25   -1    0    0    0    0  0.00000000000E+00  0.00000000000E+00  0.99999998245E-14  0.12500000000E+03  0.12500000000E+03 0.  0.
        -13    1    3    3    0    0 -0.18632064179E+02 -0.51361825135E+02  0.59615711557E+01  0.54961280839E+02  0.10566000000E+00 0.  1.
         23    2    1    0    0    0  0.68103012906E+00 -0.25392469603E+02 -0.16815701685E+02  0.94536757597E+02  0.89494074660E+02 0.  0.
         13    1    3    3    0    0  0.19313094309E+02  0.25969355532E+02 -0.22777272840E+02  0.39575476758E+02  0.10566000000E+00 0. -1.
         22    1    1    0    0    0 -0.68103012906E+00  0.25392469603E+02  0.16815701685E+02  0.30463242403E+02  0.00000000000E+00 0.  1.
</event>
<event>
 5    1  0.1668518E-003  0.9118800E+02  0.7818608E-02  0.1130116E+00
         25   -1    0    0    0    0  0.00000000000E+00  0.00000000000E+00  0.99999998245E-14  0.12500000000E+03  0.12500000000E+03 0.  0.
        -13    1    3    3    0    0 -0.30670610719E+02  0.23878714030E+01  0.16995674100E+02  0.35146157597E+02  0.10566000000E+00 0.  1.
         23    2    1    0    0    0  0.23744501233E+02 -0.17425292834E+02 -0.17117145860E+00  0.95547131399E+02  0.90894349933E+02 0.  0.
         13    1    3    3    0    0  0.54415111952E+02 -0.19813164237E+02 -0.17166845559E+02  0.60400973802E+02  0.10566000000E+00 0. -1.
         22    1    1    0    0    0 -0.23744501233E+02  0.17425292834E+02  0.17117145860E+00  0.29452868601E+02  0.00000000000E+00 0. -1.
</event>
<event>
 5    1  0.1668518E-003  0.9118800E+02  0.7818608E-02  0.1130116E+00
         25   -1    0    0    0    0  0.00000000000E+00  0.00000000000E+00  0.99999998245E-14  0.12500000000E+03  0.12500000000E+03 0.  0.
        -13    1    3    3    0    0 -0.64878216942E+00  0.49297019215E+02 -0.50438313164E+01  0.49558737072E+02  0.10566000000E+00 0. -1.
         23    2    1    0    0    0  0.12416615702E+02  0.20400710888E+02 -0.27619860661E+02  0.88486741406E+02  0.80602018284E+02 0.  0.
         13    1    3    3    0    0  0.13065397872E+02 -0.28896308326E+02 -0.22576029345E+02  0.38928004334E+02  0.10566000000E+00 0.  1.
         22    1    1    0    0    0 -0.12416615702E+02 -0.20400710888E+02  0.27619860661E+02  0.36513258594E+02  0.00000000000E+00 0.  1.
</event>
<event>
 5    1  0.1668518E-003  0.9118800E+02  0.7818608E-02  0.1130116E+00
         25   -1    0    0    0    0  0.00000000000E+00  0.00000000000E+00  0.99999998245E-14  0.12500000000E+03  0.12500000000E+03 0.  0.
        -13    1    3    3    0    0  0.11260230942E+02 -0.72305779422E+01  0.38512489672E+02  0.40771277672E+02  0.10566000000E+00 0.  1.
         23    2    1    0    0    0  0.64386513345E+00  0.45602354301E+01 -0.21585623876E+02  0.10292853726E+03  0.10053424449E+03 0.  0.
         13    1    3    3    0    0 -0.10616365808E+02  0.11790813372E+02 -0.60098113549E+02  0.62157259585E+02  0.10566000000E+00 0. -1.
         22    1    1    0    0    0 -0.64386513345E+00 -0.45602354301E+01  0.21585623876E+02  0.22071462743E+02  0.00000000000E+00 0. -1.
</event>
<event>
 5    1  0.1668518E-003  0.9118800E+02  0.7818608E-02  0.1130116E+00
         25   -1    0    0    0    0  0.00000000000E+00  0.00000000000E+00  0.99999998245E-14  0.12500000000E+03  0.12500000000E+03 0.  0.
        -13    1    3    3    0    0 -0.69075852887E+01 -0.25949301253E+02 -0.52169966198E+02  0.58675356898E+02  0.10566000000E+00 0. -1.
         23    2    1    0    0    0 -0.15791710440E+02 -0.17936032923E+02 -0.17419817514E+02  0.95427556106E+02  0.90729758219E+02 0.  0.
         13    1    3    3    0    0 -0.88841251516E+01  0.80132683296E+01  0.34750148684E+02  0.36752199208E+02  0.10566000000E+00 0.  1.
         22    1    1    0    0    0  0.15791710440E+02  0.17936032923E+02  0.17419817514E+02  0.29572443894E+02  0.00000000000E+00 0. -1.
</event>
<event>
 5    1  0.1668518E-003  0.9118800E+02  0.7818608E-02  0.1130116E+00
         25   -1    0    0    0    0  0.00000000000E+00  0.00000000000E+00  0.99999998245E-14  0.12500000000E+03  0.12500000000E+03 0.  0.
        -13    1    3    3    0    0  0.27836568715E+02  0.33545471794E+02  0.22160806425E+02  0.48900774444E+02  0.10566000000E+00 0.  1.
         23    2    1    0    0    0 -0.10678186784E+02  0.29432442011E+02 -0.32568833015E+00  0.93688685933E+02  0.88301593888E+02 0.  0.
         13    1    3    3    0    0 -0.38514755499E+02 -0.41130297832E+01 -0.22486494756E+02  0.44787911489E+02  0.10566000000E+00 0. -1.
         22    1    1    0    0    0  0.10678186784E+02 -0.29432442011E+02  0.32568833015E+00  0.31311314067E+02  0.00000000000E+00 0.  1.
</event>
<event>
 5    1  0.1668518E-003  0.9118800E+02  0.7818608E-02  0.1130116E+00
         25   -1    0    0    0    0  0.00000000000E+00  0.00000000000E+00  0.99999998245E-14  0.12500000000E+03  0.12500000000E+03 0.  0.
        -13    1    3    3    0    0 -0.59680690043E+01  0.44443668284E+02  0.71330593096E+01  0.45406488494E+02  0.10566000000E+00 0. -1.
         23    2    1    0    0    0  0.21652697233E+02  0.39784584437E+01  0.19115688932E+02  0.95843920147E+02  0.91301588358E+02 0.  0.
         13    1    3    3    0    0  0.27620766238E+02 -0.40465209841E+02  0.11982629623E+02  0.50437431653E+02  0.10566000000E+00 0.  1.
         22    1    1    0    0    0 -0.21652697233E+02 -0.39784584437E+01 -0.19115688932E+02  0.29156079853E+02  0.00000000000E+00 0.  1.
</event>
<event>
 5    1  0.1668518E-003  0.9118800E+02  0.7818608E-02  0.1130116E+00
         25   -1    0    0    0    0  0.00000000000E+00  0.00000000000E+00  0.99999998245E-14  0.12500000000E+03  0.12500000000E+03 0.  0.
        -13    1    3    3    0    0 -0.14785433071E+02  0.40232193174E+02  0.22541155536E+02  0.48428847350E+02  0.10566000000E+00 0.  1.
         23    2    1    0    0    0 -0.16983391407E+02  0.15500317454E+02 -0.17884007341E+02  0.95870407771E+02  0.91337845074E+02 0.  0.
         13    1    3    3    0    0 -0.21979583355E+01 -0.24731875720E+02 -0.40425162877E+02  0.47441560421E+02  0.10566000000E+00 0. -1.
         22    1    1    0    0    0  0.16983391407E+02 -0.15500317454E+02  0.17884007341E+02  0.29129592229E+02  0.00000000000E+00 0.  1.
</event>
<event>
 5    1  0.1668518E-003  0.9118800E+02  0.7818608E-02  0.1130116E+00
         25   -1    0    0    0    0  0.00000000000E+00  0.00000000000E+00  0.99999998245E-14  0.12500000000E+03  0.12500000000E+03 0.  0.
        -13    1    3    3    0    0  0.30199732046E+02 -0.25429150176E+02  0.15964308477E+02  0.42585629073E+02  0.10566000000E+00 0.  1.
         23    2    1    0    0    0  0.13199193570E+01 -0.93505327902E+01 -0.26770993049E+02  0.96612313948E+02  0.92347595999E+02 0.  0.
         13    1    3    3    0    0 -0.28879812689E+02  0.16078617386E+02 -0.42735301526E+02  0.54026684875E+02  0.10566000000E+00 0. -1.
         22    1    1    0    0    0 -0.13199193570E+01  0.93505327902E+01  0.26770993049E+02  0.28387686052E+02  0.00000000000E+00 0. -1.
</event>
<event>
 5    1  0.1668518E-003  0.9118800E+02  0.7818608E-02  0.1130116E+00
         25   -1    0    0    0    0  0.00000000000E+00  0.00000000000E+00  0.99999998245E-14  0.12500000000E+03  0.12500000000E+03 0.  0.
        -13    1    3    3    0    0  0.15525194890E+02 -0.22157710364E+02 -0.56160366237E+02  0.62337739009E+02  0.10566000000E+00 0.  1.
         23    2    1    0    0    0  0.78896945482E+01 -0.16379285675E+02 -0.35190706830E+02  0.85390479346E+02  0.75647999554E+02 0.  0.
         13    1    3    3    0    0 -0.76355003417E+01  0.57784246888E+01  0.20969659407E+02  0.23052740337E+02  0.10566000000E+00 0. -1.
         22    1    1    0    0    0 -0.78896945482E+01  0.16379285675E+02  0.35190706830E+02  0.39609520654E+02  0.00000000000E+00 0.  1.
</event>
<event>
 5    1  0.1668518E-003  0.9118800E+02  0.7818608E-02  0.1130116E+00
         25   -1    0    0    0    0  0.00000000000E+00  0.00000000000E+00  0.99999998245E-14  0.12500000000E+03  0.12500000000E+03 0.  0.
        -13    1    3    3    0    0  0.14299851657E+02  0.41754292030E+02  0.21904186459E+02  0.49271809474E+02  0.10566000000E+00 0.  1.
         23    2    1    0    0    0  0.22945684277E+02 -0.41400454720E+01  0.16821315566E+02  0.96249329385E+02  0.91854952758E+02 0.  0.
         13    1    3    3    0    0  0.86458326197E+01 -0.45894337502E+02 -0.50828708932E+01  0.46977519911E+02  0.10566000000E+00 0. -1.
         22    1    1    0    0    0 -0.22945684277E+02  0.41400454720E+01 -0.16821315566E+02  0.28750670615E+02  0.00000000000E+00 0.  1.
</event>
<event>
 5    1  0.1668518E-003  0.9118800E+02  0.7818608E-02  0.1130116E+00
         25   -1    0    0    0    0  0.00000000000E+00  0.00000000000E+00  0.99999998245E-14  0.12500000000E+03  0.12500000000E+03 0.  0.
        -13    1    3    3    0    0  0.42666986202E+02 -0.21144920011E+02  0.22687947466E+02  0.52747829131E+02  0.10566000000E+00 0. -1.
         23    2    1    0    0    0  0.72635913293E+00 -0.23114802566E+02 -0.25458566983E+01  0.10173407897E+03  0.99037971210E+02 0.  0.
         13    1    3    3    0    0 -0.41940627069E+02 -0.19698825555E+01 -0.25233804164E+02  0.48986249834E+02  0.10566000000E+00 0.  1.
         22    1    1    0    0    0 -0.72635913293E+00  0.23114802566E+02  0.25458566983E+01  0.23265921035E+02  0.00000000000E+00 0. -1.
</event>
<event>
 5    1  0.1668518E-003  0.9118800E+02  0.7818608E-02  0.1130116E+00
         25   -1    0    0    0    0  0.00000000000E+00  0.00000000000E+00  0.99999998245E-14  0.12500000000E+03  0.12500000000E+03 0.  0.
        -13    1    3    3    0    0  0.11407763665E+02  0.74910409141E+01 -0.30753075314E+02  0.33645439083E+02  0.10566000000E+00 0. -1.
         23    2    1    0    0    0  0.88367194513E+00 -0.90899668186E+01  0.27975896332E+02  0.95571117105E+02  0.90927329645E+02 0.  0.
         13    1    3    3    0    0 -0.10524091720E+02 -0.16581007733E+02  0.58728971645E+02  0.61925678022E+02  0.10566000000E+00 0.  1.
         22    1    1    0    0    0 -0.88367194513E+00  0.90899668186E+01 -0.27975896332E+02  0.29428882895E+02  0.00000000000E+00 0.  1.
</event>
<event>
 5    1  0.1668518E-003  0.9118800E+02  0.7818608E-02  0.1130116E+00
         25   -1    0    0    0    0  0.00000000000E+00  0.00000000000E+00  0.99999998245E-14  0.12500000000E+03  0.12500000000E+03 0.  0.
        -13    1    3    3    0    0  0.22494116038E+02 -0.16296069856E+02 -0.24551555673E+02  0.37072054152E+02  0.10566000000E+00 0. -1.
         23    2    1    0    0    0 -0.12628654221E+02 -0.40065641838E+02 -0.12954429776E+02  0.81039155898E+02  0.68079284474E+02 0.  0.
         13    1    3    3    0    0 -0.35122770258E+02 -0.23769571982E+02  0.11597125896E+02  0.43967101746E+02  0.10566000000E+00 0.  1.
         22    1    1    0    0    0  0.12628654221E+02  0.40065641838E+02  0.12954429776E+02  0.43960844102E+02  0.00000000000E+00 0.  1.
</event>
<event>
 5    1  0.1668518E-003  0.9118800E+02  0.7818608E-02  0.1130116E+00
         25   -1    0    0    0    0  0.00000000000E+00  0.00000000000E+00  0.99999998245E-14  0.12500000000E+03  0.12500000000E+03 0.  0.
        -13    1    3    3    0    0 -0.24318066008E+02 -0.12547740820E+01 -0.26449803593E+02  0.35951996698E+02  0.10566000000E+00 0.  1.
         23    2    1    0    0    0  0.20470827708E+02  0.23982209398E+02 -0.19744623678E+02  0.87797159801E+02  0.79525404434E+02 0.  0.
         13    1    3    3    0    0  0.44788893717E+02  0.25236983480E+02  0.67051799154E+01  0.51845163104E+02  0.10566000000E+00 0. -1.
         22    1    1    0    0    0 -0.20470827708E+02 -0.23982209398E+02  0.19744623678E+02  0.37202840199E+02  0.00000000000E+00 0.  1.
</event>
<event>
 4    1  0.1668518E-003  0.9118800E+02  0.7818608E-02  0.1130116E+00
         25   -1    0    0    0    0  0.00000000000E+00  0.00000000000E+00  0.99999998245E-14  0.12500000000E+03  0.12500000000E+03 0.  0.
        -13    1    1    0    0    0 -0.78636357741E+01 -0.10804141613E+02 -0.17257742559E+02  0.21826751610E+02  0.10566000000E+00 0. -1.
         13    1    1    0    0    0 -0.55735926917E+01  0.44561683009E+02 -0.21721391120E+02  0.49886255866E+02  0.10566000000E+00 0.  1.
         22    1    1    0    0    0  0.13437228466E+02 -0.33757541396E+02  0.38979133679E+02  0.53286992525E+02  0.00000000000E+00 0. -1.
</event>
<event>
 5    1  0.1668518E-003  0.9118800E+02  0.7818608E-02  0.1130116E+00
         25   -1    0    0    0    0  0.00000000000E+00  0.00000000000E+00  0.99999998245E-14  0.12500000000E+03  0.12500000000E+03 0.  0.
        -13    1    3    3    0    0  0.39831600236E+02 -0.21065435071E+02  0.34778831836E+02  0.56920007379E+02  0.10566000000E+00 0. -1.
         23    2    1    0    0    0  0.20114302560E+02 -0.19729022743E+02  0.11130164949E+00  0.96824977481E+02  0.92635006182E+02 0.  0.
         13    1    3    3    0    0 -0.19717297676E+02  0.13364123276E+01 -0.34667530187E+02  0.39904970102E+02  0.10566000000E+00 0.  1.
         22    1    1    0    0    0 -0.20114302560E+02  0.19729022743E+02 -0.11130164949E+00  0.28175022519E+02  0.00000000000E+00 0. -1.
</event>
<event>
 5    1  0.1668518E-003  0.9118800E+02  0.7818608E-02  0.1130116E+00
         25   -1    0    0    0    0  0.00000000000E+00  0.00000000000E+00  0.99999998245E-14  0.12500000000E+03  0.12500000000E+03 0.  0.
        -13    1    3    3    0    0 -0.22182159806E+02  0.65966563749E+01 -0.53682907517E+02  0.58458787299E+02  0.10566000000E+00 0. -1.
         23    2    1    0    0    0 -0.20820320268E+02 -0.87204986108E+01 -0.23032944924E+02  0.92750203350E+02  0.86962927949E+02 0.  0.
         13    1    3    3    0    0  0.13618395385E+01 -0.15317154986E+02  0.30649962593E+02  0.34291416050E+02  0.10566000000E+00 0.  1.
         22    1    1    0    0    0  0.20820320268E+02  0.87204986108E+01  0.23032944924E+02  0.32249796650E+02  0.00000000000E+00 0. -1.
</event>
<event>
 5    1  0.1668518E-003  0.9118800E+02  0.7818608E-02  0.1130116E+00
         25   -1    0    0    0    0  0.00000000000E+00  0.00000000000E+00  0.99999998245E-14  0.12500000000E+03  0.12500000000E+03 0.  0.
        -13    1    3    3    0    0  0.31051014931E+02 -0.73369692074E+01 -0.24151669816E+02  0.40016383699E+02  0.10566000000E+00 0.  1.
         23    2    1    0    0    0 -0.91489226805E+01  0.27023785670E+02 -0.68482602735E+01  0.95659133501E+02  0.91048247513E+02 0.  0.
         13    1    3    3    0    0 -0.40199937611E+02  0.34360754877E+02  0.17303409543E+02  0.55642749802E+02  0.10566000000E+00 0. -1.
         22    1    1    0    0    0  0.91489226805E+01 -0.27023785670E+02  0.68482602735E+01  0.29340866499E+02  0.00000000000E+00 0. -1.
</event>
<event>
 5    1  0.1668518E-003  0.9118800E+02  0.7818608E-02  0.1130116E+00
         25   -1    0    0    0    0  0.00000000000E+00  0.00000000000E+00  0.99999998245E-14  0.12500000000E+03  0.12500000000E+03 0.  0.
        -13    1    3    3    0    0  0.33351250896E+02 -0.38509466452E+02 -0.29308577978E+02  0.58773198398E+02  0.10566000000E+00 0. -1.
         23    2    1    0    0    0  0.11636349998E+02 -0.32717703286E+02 -0.88503158162E+01  0.89164530984E+02  0.81646388444E+02 0.  0.
         13    1    3    3    0    0 -0.21714900899E+02  0.57917631665E+01  0.20458262162E+02  0.30391332586E+02  0.10566000000E+00 0.  1.
         22    1    1    0    0    0 -0.11636349998E+02  0.32717703286E+02  0.88503158162E+01  0.35835469016E+02  0.00000000000E+00 0. -1.
</event>
<event>
 5    1  0.1668518E-003  0.9118800E+02  0.7818608E-02  0.1130116E+00
         25   -1    0    0    0    0  0.00000000000E+00  0.00000000000E+00  0.99999998245E-14  0.12500000000E+03  0.12500000000E+03 0.  0.
        -13    1    3    3    0    0 -0.12451062733E+02  0.24070824503E+02 -0.27035486389E+02  0.38280050206E+02  0.10566000000E+00 0.  1.
         23    2    1    0    0    0  0.84018411862E+01 -0.25197969963E+02  0.46445792767E+00  0.98434150743E+02  0.94781526078E+02 0.  0.
         13    1    3    3    0    0  0.20852903919E+02 -0.49268794466E+02  0.27499944316E+02  0.60154100537E+02  0.10566000000E+00 0. -1.
         22    1    1    0    0    0 -0.84018411862E+01  0.25197969963E+02 -0.46445792767E+00  0.26565849257E+02  0.00000000000E+00 0. -1.
</event>
<event>
 5    1  0.1668518E-003  0.9118800E+02  0.7818608E-02  0.1130116E+00
         25   -1    0    0    0    0  0.00000000000E+00  0.00000000000E+00  0.99999998245E-14  0.12500000000E+03  0.12500000000E+03 0.  0.
        -13    1    3    3    0    0  0.22488006850E+01  0.33087097455E+02  0.12349388345E+02  0.35388298618E+02  0.10566000000E+00 0.  1.
         23    2    1    0    0    0  0.10186415027E+02 -0.26075984653E+02  0.10470119668E+02  0.95111148691E+02  0.90292785828E+02 0.  0.
         13    1    3    3    0    0  0.79376143419E+01 -0.59163082108E+02 -0.18792686769E+01  0.59722850073E+02  0.10566000000E+00 0. -1.
         22    1    1    0    0    0 -0.10186415027E+02  0.26075984653E+02 -0.10470119668E+02  0.29888851309E+02  0.00000000000E+00 0. -1.
</event>
<event>
 5    1  0.1668518E-003  0.9118800E+02  0.7818608E-02  0.1130116E+00
         25   -1    0    0    0    0  0.00000000000E+00  0.00000000000E+00  0.99999998245E-14  0.12500000000E+03  0.12500000000E+03 0.  0.
        -13    1    3    3    0    0 -0.20153544280E+02 -0.31074706184E+02 -0.48649126190E+01  0.37356140731E+02  0.10566000000E+00 0. -1.
         23    2    1    0    0    0 -0.99991760688E+01  0.26555623169E+02  0.32675337364E+01  0.96436712012E+02  0.92109597779E+02 0.  0.
         13    1    3    3    0    0  0.10154368211E+02  0.57630329354E+02  0.81324463554E+01  0.59080571281E+02  0.10566000000E+00 0.  1.
         22    1    1    0    0    0  0.99991760688E+01 -0.26555623169E+02 -0.32675337364E+01  0.28563287988E+02  0.00000000000E+00 0.  1.
</event>
<event>
 5    1  0.1668518E-003  0.9118800E+02  0.7818608E-02  0.1130116E+00
         25   -1    0    0    0    0  0.00000000000E+00  0.00000000000E+00  0.99999998245E-14  0.12500000000E+03  0.12500000000E+03 0.  0.
        -13    1    3    3    0    0  0.81001967823E+01 -0.32738814664E+02  0.41756007680E+02  0.53675120073E+02  0.10566000000E+00 0.  1.
         23    2    1    0    0    0 -0.60753053200E+01  0.10318484362E+02  0.12838515602E+02  0.10744414807E+03  0.10600017461E+03 0.  0.
         13    1    3    3    0    0 -0.14175502102E+02  0.43057299025E+02 -0.28917492077E+02  0.53769027993E+02  0.10566000000E+00 0. -1.
         22    1    1    0    0    0  0.60753053200E+01 -0.10318484362E+02 -0.12838515602E+02  0.17555851934E+02  0.00000000000E+00 0. -1.
</event>
<event>
 5    1  0.1668518E-003  0.9118800E+02  0.7818608E-02  0.1130116E+00
         25   -1    0    0    0    0  0.00000000000E+00  0.00000000000E+00  0.99999998245E-14  0.12500000000E+03  0.12500000000E+03 0.  0.
        -13    1    3    3    0    0 -0.14902029293E+02 -0.96594357392E+00  0.47914548546E+02  0.50187833689E+02  0.10566000000E+00 0.  1.
         23    2    1    0    0    0  0.14680568105E+01  0.24955000578E+02  0.12429050019E+02  0.97082469145E+02  0.92981811588E+02 0.  0.
         13    1    3    3    0    0  0.16370086103E+02  0.25920944152E+02 -0.35485498527E+02  0.46894635456E+02  0.10566000000E+00 0. -1.
         22    1    1    0    0    0 -0.14680568105E+01 -0.24955000578E+02 -0.12429050019E+02  0.27917530855E+02  0.00000000000E+00 0.  1.
</event>
<event>
 5    1  0.1668518E-003  0.9118800E+02  0.7818608E-02  0.1130116E+00
         25   -1    0    0    0    0  0.00000000000E+00  0.00000000000E+00  0.99999998245E-14  0.12500000000E+03  0.12500000000E+03 0.  0.
        -13    1    3    3    0    0 -0.54140284285E+02  0.16488389102E+02  0.12484173802E+02  0.57956044699E+02  0.10566000000E+00 0.  1.
         23    2    1    0    0    0 -0.26116347234E+02 -0.80494127560E+01 -0.12161779707E+01  0.97644274321E+02  0.93734031069E+02 0.  0.
         13    1    3    3    0    0  0.28023937051E+02 -0.24537801858E+02 -0.13700351772E+02  0.39688229623E+02  0.10566000000E+00 0. -1.
         22    1    1    0    0    0  0.26116347234E+02  0.80494127560E+01  0.12161779707E+01  0.27355725679E+02  0.00000000000E+00 0.  1.
</event>
<event>
 5    1  0.1668518E-003  0.9118800E+02  0.7818608E-02  0.1130116E+00
         25   -1    0    0    0    0  0.00000000000E+00  0.00000000000E+00  0.99999998245E-14  0.12500000000E+03  0.12500000000E+03 0.  0.
        -13    1    3    3    0    0  0.47695036324E+00 -0.43404570753E+02  0.80936415391E+01  0.44155435014E+02  0.10566000000E+00 0.  1.
         23    2    1    0    0    0  0.24242582988E+02 -0.44326331414E+01 -0.15847769562E+02  0.95699780434E+02  0.91104034535E+02 0.  0.
         13    1    3    3    0    0  0.23765632625E+02  0.38971937611E+02 -0.23941411101E+02  0.51544345420E+02  0.10566000000E+00 0. -1.
         22    1    1    0    0    0 -0.24242582988E+02  0.44326331414E+01  0.15847769562E+02  0.29300219566E+02  0.00000000000E+00 0. -1.
</event>
<event>
 5    1  0.1668518E-003  0.9118800E+02  0.7818608E-02  0.1130116E+00
         25   -1    0    0    0    0  0.00000000000E+00  0.00000000000E+00  0.99999998245E-14  0.12500000000E+03  0.12500000000E+03 0.  0.
        -13    1    3    3    0    0 -0.13975571577E+02 -0.29719478425E+02  0.13569271941E+02  0.35534494562E+02  0.10566000000E+00 0. -1.
         23    2    1    0    0    0  0.50576719940E+01  0.49524571110E+01 -0.29881497421E+02  0.94291519647E+02  0.89150882844E+02 0.  0.
         13    1    3    3    0    0  0.19033243571E+02  0.34671935536E+02 -0.43450769362E+02  0.58757025085E+02  0.10566000000E+00 0.  1.
         22    1    1    0    0    0 -0.50576719940E+01 -0.49524571110E+01  0.29881497421E+02  0.30708480353E+02  0.00000000000E+00 0.  1.
</event>
<event>
 5    1  0.1668518E-003  0.9118800E+02  0.7818608E-02  0.1130116E+00
         25   -1    0    0    0    0  0.00000000000E+00  0.00000000000E+00  0.99999998245E-14  0.12500000000E+03  0.12500000000E+03 0.  0.
        -13    1    3    3    0    0 -0.70137432856E+01  0.27072114512E+02  0.47135060094E+02  0.54807089260E+02  0.10566000000E+00 0.  1.
         23    2    1    0    0    0 -0.15496502102E+02 -0.56603848707E+01  0.24372111328E+02  0.95569041047E+02  0.90924475593E+02 0.  0.
         13    1    3    3    0    0 -0.84827588168E+01 -0.32732499383E+02 -0.22762948766E+02  0.40761951788E+02  0.10566000000E+00 0. -1.
         22    1    1    0    0    0  0.15496502102E+02  0.56603848707E+01 -0.24372111328E+02  0.29430958953E+02  0.00000000000E+00 0.  1.
</event>
<event>
 5    1  0.1668518E-003  0.9118800E+02  0.7818608E-02  0.1130116E+00
         25   -1    0    0    0    0  0.00000000000E+00  0.00000000000E+00  0.99999998245E-14  0.12500000000E+03  0.12500000000E+03 0.  0.
        -13    1    3    3    0    0 -0.59826824925E+01 -0.23786176240E+02 -0.40289298698E+01  0.24855947173E+02  0.10566000000E+00 0.  1.
         23    2    1    0    0    0 -0.13735887012E+02  0.10910169592E+01 -0.47501748537E+02  0.75540106914E+02  0.57096643759E+02 0.  0.
         13    1    3    3    0    0 -0.77532045192E+01  0.24877193199E+02 -0.43472818667E+02  0.50684159741E+02  0.10566000000E+00 0. -1.
         22    1    1    0    0    0  0.13735887012E+02 -0.10910169592E+01  0.47501748537E+02  0.49459893086E+02  0.00000000000E+00 0. -1.
</event>
<event>
 5    1  0.1668518E-003  0.9118800E+02  0.7818608E-02  0.1130116E+00
         25   -1    0    0    0    0  0.00000000000E+00  0.00000000000E+00  0.99999998245E-14  0.12500000000E+03  0.12500000000E+03 0.  0.
        -13    1    3    3    0    0 -0.34921358736E+02  0.91937444242E+01 -0.18010142650E+02  0.40353471162E+02  0.10566000000E+00 0.  1.
         23    2    1    0    0    0 -0.73325960133E+01 -0.14285702602E+02  0.24186645968E+02  0.95968256919E+02  0.91471658069E+02 0.  0.
         13    1    3    3    0    0  0.27588762722E+02 -0.23479447026E+02  0.42196788618E+02  0.55614785758E+02  0.10566000000E+00 0. -1.
         22    1    1    0    0    0  0.73325960133E+01  0.14285702602E+02 -0.24186645968E+02  0.29031743081E+02  0.00000000000E+00 0. -1.
</event>
<event>
 5    1  0.1668518E-003  0.9118800E+02  0.7818608E-02  0.1130116E+00
         25   -1    0    0    0    0  0.00000000000E+00  0.00000000000E+00  0.99999998245E-14  0.12500000000E+03  0.12500000000E+03 0.  0.
        -13    1    3    3    0    0 -0.21581525053E+01 -0.32469559892E+02 -0.34046613550E+02  0.47096847030E+02  0.10566000000E+00 0.  1.
         23    2    1    0    0    0  0.20753895821E+02 -0.19529438632E+02  0.68154484242E+01  0.95698575081E+02  0.91102380706E+02 0.  0.
         13    1    3    3    0    0  0.22912048327E+02  0.12940121260E+02  0.40862061975E+02  0.48601728052E+02  0.10566000000E+00 0. -1.
         22    1    1    0    0    0 -0.20753895821E+02  0.19529438632E+02 -0.68154484242E+01  0.29301424919E+02  0.00000000000E+00 0. -1.
</event>
<event>
 5    1  0.1668518E-003  0.9118800E+02  0.7818608E-02  0.1130116E+00
         25   -1    0    0    0    0  0.00000000000E+00  0.00000000000E+00  0.99999998245E-14  0.12500000000E+03  0.12500000000E+03 0.  0.
        -13    1    3    3    0    0 -0.26184234531E+02 -0.56045319756E+02  0.83173060936E+01  0.62416990870E+02  0.10566000000E+00 0. -1.
         23    2    1    0    0    0 -0.12150342727E+02 -0.26975609423E+02  0.62362662890E+01  0.94764171099E+02  0.89811150615E+02 0.  0.
         13    1    3    3    0    0  0.14033891804E+02  0.29069710334E+02 -0.20810398046E+01  0.32347180229E+02  0.10566000000E+00 0.  1.
         22    1    1    0    0    0  0.12150342727E+02  0.26975609423E+02 -0.62362662890E+01  0.30235828901E+02  0.00000000000E+00 0. -1.
</event>
<event>
 5    1  0.1668518E-003  0.9118800E+02  0.7818608E-02  0.1130116E+00
         25   -1    0    0    0    0  0.00000000000E+00  0.00000000000E+00  0.99999998245E-14  0.12500000000E+03  0.12500000000E+03 0.  0.
        -13    1    3    3    0    0  0.70688798055E+01  0.41036989814E+02  0.20847588394E+02  0.46568623563E+02  0.10566000000E+00 0. -1.
         23    2    1    0    0    0  0.27317177604E+02 -0.26243838558E+01  0.63653600008E+01  0.96828500380E+02  0.92639759796E+02 0.  0.
         13    1    3    3    0    0  0.20248297799E+02 -0.43661373670E+02 -0.14482228393E+02  0.50259876818E+02  0.10566000000E+00 0.  1.
         22    1    1    0    0    0 -0.27317177604E+02  0.26243838558E+01 -0.63653600008E+01  0.28171499620E+02  0.00000000000E+00 0. -1.
</event>
<event>
 5    1  0.1668518E-003  0.9118800E+02  0.7818608E-02  0.1130116E+00
         25   -1    0    0    0    0  0.00000000000E+00  0.00000000000E+00  0.99999998245E-14  0.12500000000E+03  0.12500000000E+03 0.  0.
        -13    1    3    3    0    0 -0.21915877185E+02  0.32220159678E+02 -0.27454764177E+02  0.47667804675E+02  0.10566000000E+00 0. -1.
         23    2    1    0    0    0 -0.16725469490E+01  0.25973495495E+02  0.14888506642E+02  0.95015211997E+02  0.90159874663E+02 0.  0.
         13    1    3    3    0    0  0.20243330236E+02 -0.62466641832E+01  0.42343270819E+02  0.47347407322E+02  0.10566000000E+00 0.  1.
         22    1    1    0    0    0  0.16725469490E+01 -0.25973495495E+02 -0.14888506642E+02  0.29984788003E+02  0.00000000000E+00 0. -1.
</event>
<event>
 5    1  0.1668518E-003  0.9118800E+02  0.7818608E-02  0.1130116E+00
         25   -1    0    0    0    0  0.00000000000E+00  0.00000000000E+00  0.99999998245E-14  0.12500000000E+03  0.12500000000E+03 0.  0.
        -13    1    3    3    0    0 -0.30073501478E+02  0.49326964819E+02  0.21654840137E+02  0.61696906039E+02  0.10566000000E+00 0.  1.
         23    2    1    0    0    0 -0.19683047359E+02  0.21654943018E+02  0.60661950382E+01  0.95114257034E+02  0.90297088870E+02 0.  0.
         13    1    3    3    0    0  0.10390454120E+02 -0.27672021802E+02 -0.15588645099E+02  0.33417350994E+02  0.10566000000E+00 0. -1.
         22    1    1    0    0    0  0.19683047359E+02 -0.21654943018E+02 -0.60661950382E+01  0.29885742966E+02  0.00000000000E+00 0.  1.
</event>
<event>
 5    1  0.1668518E-003  0.9118800E+02  0.7818608E-02  0.1130116E+00
         25   -1    0    0    0    0  0.00000000000E+00  0.00000000000E+00  0.99999998245E-14  0.12500000000E+03  0.12500000000E+03 0.  0.
        -13    1    3    3    0    0 -0.33528047151E+02  0.10732506194E+01  0.35071337305E+02  0.48531347365E+02  0.10566000000E+00 0. -1.
         23    2    1    0    0    0 -0.13849177307E+02  0.23297814204E+02 -0.40029332482E+01  0.97602713029E+02  0.93678590176E+02 0.  0.
         13    1    3    3    0    0  0.19678869844E+02  0.22224563585E+02 -0.39074270553E+02  0.49071365664E+02  0.10566000000E+00 0.  1.
         22    1    1    0    0    0  0.13849177307E+02 -0.23297814204E+02  0.40029332482E+01  0.27397286971E+02  0.00000000000E+00 0.  1.
</event>
<event>
 5    1  0.1668518E-003  0.9118800E+02  0.7818608E-02  0.1130116E+00
         25   -1    0    0    0    0  0.00000000000E+00  0.00000000000E+00  0.99999998245E-14  0.12500000000E+03  0.12500000000E+03 0.  0.
        -13    1    3    3    0    0  0.44485566297E+02  0.10699744592E+02  0.17692833458E+02  0.49056066525E+02  0.10566000000E+00 0.  1.
         23    2    1    0    0    0  0.13233902721E+02  0.21917025266E+02 -0.14728290892E+02  0.95463332444E+02  0.90779034534E+02 0.  0.
         13    1    3    3    0    0 -0.31251663576E+02  0.11217280674E+02 -0.32421124350E+02  0.46407265919E+02  0.10566000000E+00 0. -1.
         22    1    1    0    0    0 -0.13233902721E+02 -0.21917025266E+02  0.14728290892E+02  0.29536667556E+02  0.00000000000E+00 0.  1.
</event>
<event>
 5    1  0.1668518E-003  0.9118800E+02  0.7818608E-02  0.1130116E+00
         25   -1    0    0    0    0  0.00000000000E+00  0.00000000000E+00  0.99999998245E-14  0.12500000000E+03  0.12500000000E+03 0.  0.
        -13    1    3    3    0    0  0.26607590703E+02 -0.56737658774E+01 -0.33221555867E+02  0.42939939922E+02  0.10566000000E+00 0.  1.
         23    2    1    0    0    0  0.36936527901E+01  0.30421356169E+02 -0.55800394365E+01  0.93851343171E+02  0.88531552527E+02 0.  0.
         13    1    3    3    0    0 -0.22913937913E+02  0.36095122047E+02  0.27641516430E+02  0.50911403250E+02  0.10566000000E+00 0. -1.
         22    1    1    0    0    0 -0.36936527901E+01 -0.30421356169E+02  0.55800394365E+01  0.31148656829E+02  0.00000000000E+00 0.  1.
</event>
<event>
 5    1  0.1668518E-003  0.9118800E+02  0.7818608E-02  0.1130116E+00
         25   -1    0    0    0    0  0.00000000000E+00  0.00000000000E+00  0.99999998245E-14  0.12500000000E+03  0.12500000000E+03 0.  0.
        -13    1    3    3    0    0 -0.34474184141E+02 -0.19432297707E+02  0.13869200888E+02  0.41933870125E+02  0.10566000000E+00 0. -1.
         23    2    1    0    0    0  0.18291960564E+02 -0.18021381885E+02 -0.64986648662E+01  0.98512292070E+02  0.94884524648E+02 0.  0.
         13    1    3    3    0    0  0.52766144704E+02  0.14109158216E+01 -0.20367865754E+02  0.56578421945E+02  0.10566000000E+00 0.  1.
         22    1    1    0    0    0 -0.18291960564E+02  0.18021381885E+02  0.64986648662E+01  0.26487707930E+02  0.00000000000E+00 0.  1.
</event>
<event>
 5    1  0.1668518E-003  0.9118800E+02  0.7818608E-02  0.1130116E+00
         25   -1    0    0    0    0  0.00000000000E+00  0.00000000000E+00  0.99999998245E-14  0.12500000000E+03  0.12500000000E+03 0.  0.
        -13    1    3    3    0    0 -0.26379368200E+02 -0.22424167984E+02  0.70388302656E+01  0.35330874203E+02  0.10566000000E+00 0.  1.
         23    2    1    0    0    0  0.20194433422E+02  0.14647935693E+02  0.15757118154E+02  0.95492985007E+02  0.90819856043E+02 0.  0.
         13    1    3    3    0    0  0.46573801622E+02  0.37072103678E+02  0.87182878880E+01  0.60162110803E+02  0.10566000000E+00 0. -1.
         22    1    1    0    0    0 -0.20194433422E+02 -0.14647935693E+02 -0.15757118154E+02  0.29507014993E+02  0.00000000000E+00 0. -1.
</event>
<event>
 5    1  0.1668518E-003  0.9118800E+02  0.7818608E-02  0.1130116E+00
         25   -1    0    0    0    0  0.00000000000E+00  0.00000000000E+00  0.99999998245E-14  0.12500000000E+03  0.12500000000E+03 0.  0.
        -13    1    3    3    0    0  0.93790242406E+01 -0.18050802955E+02  0.30384149351E+02  0.36565082782E+02  0.10566000000E+00 0. -1.
         23    2    1    0    0    0  0.20351265048E+02 -0.10067797235E+02 -0.23613320930E+02  0.92241436913E+02  0.86228529085E+02 0.  0.
         13    1    3    3    0    0  0.10972240807E+02  0.79830057194E+01 -0.53997470280E+02  0.55676354131E+02  0.10566000000E+00 0.  1.
         22    1    1    0    0    0 -0.20351265048E+02  0.10067797235E+02  0.23613320930E+02  0.32758563087E+02  0.00000000000E+00 0.  1.
</event>
<event>
 5    1  0.1668518E-003  0.9118800E+02  0.7818608E-02  0.1130116E+00
         25   -1    0    0    0    0  0.00000000000E+00  0.00000000000E+00  0.99999998245E-14  0.12500000000E+03  0.12500000000E+03 0.  0.
        -13    1    3    3    0    0 -0.41187499318E+02 -0.28444852404E+02 -0.28605026830E+02  0.57652219839E+02  0.10566000000E+00 0.  1.
         23    2    1    0    0    0 -0.10629091937E+02 -0.67165648214E+01 -0.27038692503E+02  0.95180866366E+02  0.90389250420E+02 0.  0.
         13    1    3    3    0    0  0.30558407381E+02  0.21728287582E+02  0.15663343272E+01  0.37528646527E+02  0.10566000000E+00 0. -1.
         22    1    1    0    0    0  0.10629091937E+02  0.67165648214E+01  0.27038692503E+02  0.29819133634E+02  0.00000000000E+00 0.  1.
</event>
<event>
 5    1  0.1668518E-003  0.9118800E+02  0.7818608E-02  0.1130116E+00
         25   -1    0    0    0    0  0.00000000000E+00  0.00000000000E+00  0.99999998245E-14  0.12500000000E+03  0.12500000000E+03 0.  0.
        -13    1    3    3    0    0 -0.38255561023E+02 -0.56418524937E+01  0.45836969632E+02  0.59969637299E+02  0.10566000000E+00 0. -1.
         23    2    1    0    0    0 -0.25225694350E+02 -0.41215667167E+00  0.44201583093E+02  0.74105152751E+02  0.53863607267E+02 0.  0.
         13    1    3    3    0    0  0.13029866674E+02  0.52296958220E+01 -0.16353865385E+01  0.14135515452E+02  0.10566000000E+00 0.  1.
         22    1    1    0    0    0  0.25225694350E+02  0.41215667167E+00 -0.44201583093E+02  0.50894847249E+02  0.00000000000E+00 0. -1.
</event>
<event>
 5    1  0.1668518E-003  0.9118800E+02  0.7818608E-02  0.1130116E+00
         25   -1    0    0    0    0  0.00000000000E+00  0.00000000000E+00  0.99999998245E-14  0.12500000000E+03  0.12500000000E+03 0.  0.
        -13    1    3    3    0    0 -0.87360085970E+01  0.37922392145E+02 -0.23499724144E+02  0.45460684894E+02  0.10566000000E+00 0.  1.
         23    2    1    0    0    0 -0.23616600716E+02  0.80832339467E+01  0.14593121883E+02  0.96085614191E+02  0.91631891543E+02 0.  0.
         13    1    3    3    0    0 -0.14880592119E+02 -0.29839158198E+02  0.38092846027E+02  0.50624929296E+02  0.10566000000E+00 0. -1.
         22    1    1    0    0    0  0.23616600716E+02 -0.80832339467E+01 -0.14593121883E+02  0.28914385809E+02  0.00000000000E+00 0. -1.
</event>
<event>
 5    1  0.1668518E-003  0.9118800E+02  0.7818608E-02  0.1130116E+00
         25   -1    0    0    0    0  0.00000000000E+00  0.00000000000E+00  0.99999998245E-14  0.12500000000E+03  0.12500000000E+03 0.  0.
        -13    1    3    3    0    0  0.15045591615E+02 -0.60398555211E+01 -0.49287332499E+02  0.51885469938E+02  0.10566000000E+00 0. -1.
         23    2    1    0    0    0  0.27609349874E+02  0.31880094784E+00 -0.69154723106E+01  0.96535959672E+02  0.92244186364E+02 0.  0.
         13    1    3    3    0    0  0.12563758259E+02  0.63586564689E+01  0.42371860188E+02  0.44650489734E+02  0.10566000000E+00 0.  1.
         22    1    1    0    0    0 -0.27609349874E+02 -0.31880094784E+00  0.69154723106E+01  0.28464040328E+02  0.00000000000E+00 0. -1.
</event>
<event>
 5    1  0.1668518E-003  0.9118800E+02  0.7818608E-02  0.1130116E+00
         25   -1    0    0    0    0  0.00000000000E+00  0.00000000000E+00  0.99999998245E-14  0.12500000000E+03  0.12500000000E+03 0.  0.
        -13    1    3    3    0    0  0.20294341248E+02  0.24043970117E+01  0.27754800444E+02  0.34467107848E+02  0.10566000000E+00 0.  1.
         23    2    1    0    0    0 -0.27731324704E+02 -0.10016616409E+01 -0.98451830985E+01  0.95555860921E+02  0.90906354179E+02 0.  0.
         13    1    3    3    0    0 -0.48025665952E+02 -0.34060586525E+01 -0.37599983542E+02  0.61088753073E+02  0.10566000000E+00 0. -1.
         22    1    1    0    0    0  0.27731324704E+02  0.10016616409E+01  0.98451830985E+01  0.29444139079E+02  0.00000000000E+00 0. -1.
</event>
<event>
 5    1  0.1668518E-003  0.9118800E+02  0.7818608E-02  0.1130116E+00
         25   -1    0    0    0    0  0.00000000000E+00  0.00000000000E+00  0.99999998245E-14  0.12500000000E+03  0.12500000000E+03 0.  0.
        -13    1    3    3    0    0  0.28317854041E+02  0.31138064646E+02  0.37461452296E+01  0.42255469415E+02  0.10566000000E+00 0.  1.
         23    2    1    0    0    0 -0.22764731639E+02  0.16951368651E+02  0.81948587898E+01  0.95457867099E+02  0.90771508607E+02 0.  0.
         13    1    3    3    0    0 -0.51082585680E+02 -0.14186695995E+02  0.44487135602E+01  0.53202397684E+02  0.10566000000E+00 0. -1.
         22    1    1    0    0    0  0.22764731639E+02 -0.16951368651E+02 -0.81948587898E+01  0.29542132901E+02  0.00000000000E+00 0. -1.
</event>
<event>
 5    1  0.1668518E-003  0.9118800E+02  0.7818608E-02  0.1130116E+00
         25   -1    0    0    0    0  0.00000000000E+00  0.00000000000E+00  0.99999998245E-14  0.12500000000E+03  0.12500000000E+03 0.  0.
        -13    1    3    3    0    0 -0.27749465796E+02 -0.12506110865E+02 -0.53119620261E+02  0.61222062050E+02  0.10566000000E+00 0.  1.
         23    2    1    0    0    0 -0.19955746054E+02 -0.10031159587E+02 -0.21082927429E+02  0.94286065179E+02  0.89143234710E+02 0.  0.
         13    1    3    3    0    0  0.77937197413E+01  0.24749512786E+01  0.32036692832E+02  0.33064003129E+02  0.10566000000E+00 0. -1.
         22    1    1    0    0    0  0.19955746054E+02  0.10031159587E+02  0.21082927429E+02  0.30713934821E+02  0.00000000000E+00 0.  1.
</event>
<event>
 5    1  0.1668518E-003  0.9118800E+02  0.7818608E-02  0.1130116E+00
         25   -1    0    0    0    0  0.00000000000E+00  0.00000000000E+00  0.99999998245E-14  0.12500000000E+03  0.12500000000E+03 0.  0.
        -13    1    3    3    0    0 -0.12802584211E+02  0.31514041078E+02 -0.33116482703E+02  0.47473714182E+02  0.10566000000E+00 0. -1.
         23    2    1    0    0    0 -0.28824229705E+02 -0.18893329924E+01 -0.16733439356E+01  0.96065489857E+02  0.91604434742E+02 0.  0.
         13    1    3    3    0    0 -0.16021645495E+02 -0.33403374071E+02  0.31443138768E+02  0.48591775675E+02  0.10566000000E+00 0.  1.
         22    1    1    0    0    0  0.28824229705E+02  0.18893329924E+01  0.16733439356E+01  0.28934510143E+02  0.00000000000E+00 0. -1.
</event>
<event>
 5    1  0.1668518E-003  0.9118800E+02  0.7818608E-02  0.1130116E+00
         25   -1    0    0    0    0  0.00000000000E+00  0.00000000000E+00  0.99999998245E-14  0.12500000000E+03  0.12500000000E+03 0.  0.
        -13    1    3    3    0    0  0.38298524708E+02 -0.21577132607E+02 -0.22258040673E+02  0.49272519572E+02  0.10566000000E+00 0.  1.
         23    2    1    0    0    0 -0.43035074828E+00  0.29359374415E+01 -0.29217114076E+02  0.95632591443E+02  0.91011800668E+02 0.  0.
         13    1    3    3    0    0 -0.38728875456E+02  0.24513070048E+02 -0.69590734025E+01  0.46360071871E+02  0.10566000000E+00 0. -1.
         22    1    1    0    0    0  0.43035074828E+00 -0.29359374415E+01  0.29217114076E+02  0.29367408557E+02  0.00000000000E+00 0.  1.
</event>
<event>
 5    1  0.1668518E-003  0.9118800E+02  0.7818608E-02  0.1130116E+00
         25   -1    0    0    0    0  0.00000000000E+00  0.00000000000E+00  0.99999998245E-14  0.12500000000E+03  0.12500000000E+03 0.  0.
        -13    1    3    3    0    0 -0.62158184589E+01 -0.37090599647E+02 -0.43990016401E+02  0.57874706809E+02  0.10566000000E+00 0.  1.
         23    2    1    0    0    0  0.30472335637E+01 -0.28540171980E+02 -0.92301795052E+01  0.94849987351E+02  0.89930511161E+02 0.  0.
         13    1    3    3    0    0  0.92630520226E+01  0.85504276663E+01  0.34759836896E+02  0.36975280541E+02  0.10566000000E+00 0. -1.
         22    1    1    0    0    0 -0.30472335637E+01  0.28540171980E+02  0.92301795052E+01  0.30150012649E+02  0.00000000000E+00 0.  1.
</event>
<event>
 5    1  0.1668518E-003  0.9118800E+02  0.7818608E-02  0.1130116E+00
         25   -1    0    0    0    0  0.00000000000E+00  0.00000000000E+00  0.99999998245E-14  0.12500000000E+03  0.12500000000E+03 0.  0.
        -13    1    3    3    0    0 -0.40202571389E+02 -0.76863245718E+01 -0.19060871773E+02  0.45151459871E+02  0.10566000000E+00 0.  1.
         23    2    1    0    0    0 -0.11958095036E+02  0.19731111514E+02  0.15228660993E+02  0.97355381824E+02  0.93347980460E+02 0.  0.
         13    1    3    3    0    0  0.28244476353E+02  0.27417436086E+02  0.34289532766E+02  0.52203921953E+02  0.10566000000E+00 0. -1.
         22    1    1    0    0    0  0.11958095036E+02 -0.19731111514E+02 -0.15228660993E+02  0.27644618176E+02  0.00000000000E+00 0. -1.
</event>
<event>
 5    1  0.1668518E-003  0.9118800E+02  0.7818608E-02  0.1130116E+00
         25   -1    0    0    0    0  0.00000000000E+00  0.00000000000E+00  0.99999998245E-14  0.12500000000E+03  0.12500000000E+03 0.  0.
        -13    1    3    3    0    0  0.88846722126E+01  0.33328873172E+02  0.26601992647E+02  0.43559480760E+02  0.10566000000E+00 0.  1.
         23    2    1    0    0    0  0.18510683317E+02  0.12814521230E+02 -0.19683954108E+02  0.95094893404E+02  0.90270279444E+02 0.  0.
         13    1    3    3    0    0  0.96260111047E+01 -0.20514351942E+02 -0.46285946755E+02  0.51535412644E+02  0.10566000000E+00 0. -1.
         22    1    1    0    0    0 -0.18510683317E+02 -0.12814521230E+02  0.19683954108E+02  0.29905106596E+02  0.00000000000E+00 0. -1.
</event>
<event>
 5    1  0.1668518E-003  0.9118800E+02  0.7818608E-02  0.1130116E+00
         25   -1    0    0    0    0  0.00000000000E+00  0.00000000000E+00  0.99999998245E-14  0.12500000000E+03  0.12500000000E+03 0.  0.
        -13    1    3    3    0    0 -0.38360788853E+02  0.19455579963E+02 -0.62801587336E+01  0.43468623982E+02  0.10566000000E+00 0.  1.
         23    2    1    0    0    0  0.13141622949E+02  0.26231163419E+02 -0.26482232401E+01  0.95541736739E+02  0.90886930769E+02 0.  0.
         13    1    3    3    0    0  0.51502411802E+02  0.67755834557E+01  0.36319354935E+01  0.52073112756E+02  0.10566000000E+00 0. -1.
         22    1    1    0    0    0 -0.13141622949E+02 -0.26231163419E+02  0.26482232401E+01  0.29458263261E+02  0.00000000000E+00 0. -1.
</event>
<event>
 5    1  0.1668518E-003  0.9118800E+02  0.7818608E-02  0.1130116E+00
         25   -1    0    0    0    0  0.00000000000E+00  0.00000000000E+00  0.99999998245E-14  0.12500000000E+03  0.12500000000E+03 0.  0.
        -13    1    3    3    0    0  0.14437046793E+02 -0.59822913366E+01  0.32091743877E+02  0.35694639918E+02  0.10566000000E+00 0.  1.
         23    2    1    0    0    0  0.11357706585E+02  0.73069307069E+01 -0.26179993164E+02  0.95541880961E+02  0.90887129124E+02 0.  0.
         13    1    3    3    0    0 -0.30793402081E+01  0.13289222044E+02 -0.58271737041E+02  0.59847241043E+02  0.10566000000E+00 0. -1.
         22    1    1    0    0    0 -0.11357706585E+02 -0.73069307069E+01  0.26179993164E+02  0.29458119039E+02  0.00000000000E+00 0. -1.
</event>
<event>
 5    1  0.1668518E-003  0.9118800E+02  0.7818608E-02  0.1130116E+00
         25   -1    0    0    0    0  0.00000000000E+00  0.00000000000E+00  0.99999998245E-14  0.12500000000E+03  0.12500000000E+03 0.  0.
        -13    1    3    3    0    0 -0.17073725162E+02  0.20859527967E+02 -0.46260164764E+02  0.53541068405E+02  0.10566000000E+00 0.  1.
         23    2    1    0    0    0 -0.24234700114E+02 -0.65640984506E+01 -0.14934189640E+02  0.95786337129E+02  0.91222718017E+02 0.  0.
         13    1    3    3    0    0 -0.71609749528E+01 -0.27423626418E+02  0.31325975123E+02  0.42245268725E+02  0.10566000000E+00 0. -1.
         22    1    1    0    0    0  0.24234700114E+02  0.65640984506E+01  0.14934189640E+02  0.29213662871E+02  0.00000000000E+00 0.  1.
</event>
<event>
 5    1  0.1668518E-003  0.9118800E+02  0.7818608E-02  0.1130116E+00
         25   -1    0    0    0    0  0.00000000000E+00  0.00000000000E+00  0.99999998245E-14  0.12500000000E+03  0.12500000000E+03 0.  0.
        -13    1    3    3    0    0  0.88452344625E+01  0.51017974775E+02 -0.10850876677E+02  0.52903918679E+02  0.10566000000E+00 0.  1.
         23    2    1    0    0    0  0.25273797029E+02  0.10880160632E+02 -0.78904880643E+01  0.96374792341E+02  0.92025529529E+02 0.  0.
         13    1    3    3    0    0  0.16428562567E+02 -0.40137814143E+02  0.29603886124E+01  0.43470873662E+02  0.10566000000E+00 0. -1.
         22    1    1    0    0    0 -0.25273797029E+02 -0.10880160632E+02  0.78904880643E+01  0.28625207659E+02  0.00000000000E+00 0.  1.
</event>
<event>
 5    1  0.1668518E-003  0.9118800E+02  0.7818608E-02  0.1130116E+00
         25   -1    0    0    0    0  0.00000000000E+00  0.00000000000E+00  0.99999998245E-14  0.12500000000E+03  0.12500000000E+03 0.  0.
        -13    1    3    3    0    0  0.16594773906E+02  0.48435246933E+02 -0.54324732513E+01  0.51486722523E+02  0.10566000000E+00 0.  1.
         23    2    1    0    0    0 -0.19001943872E+02  0.21233200852E+02 -0.28946709267E+01  0.96359088543E+02  0.92004196294E+02 0.  0.
         13    1    3    3    0    0 -0.35596717777E+02 -0.27202046081E+02  0.25378023246E+01  0.44872366020E+02  0.10566000000E+00 0. -1.
         22    1    1    0    0    0  0.19001943872E+02 -0.21233200852E+02  0.28946709267E+01  0.28640911457E+02  0.00000000000E+00 0. -1.
</event>
<event>
 5    1  0.1668518E-003  0.9118800E+02  0.7818608E-02  0.1130116E+00
         25   -1    0    0    0    0  0.00000000000E+00  0.00000000000E+00  0.99999998245E-14  0.12500000000E+03  0.12500000000E+03 0.  0.
        -13    1    3    3    0    0 -0.29652609088E+02 -0.24405311305E+02  0.87599611031E+01  0.39390919362E+02  0.10566000000E+00 0.  1.
         23    2    1    0    0    0  0.20853494409E+02 -0.12939677612E+02 -0.14855544957E+02  0.96312185484E+02  0.91940450134E+02 0.  0.
         13    1    3    3    0    0  0.50506103497E+02  0.11465633693E+02 -0.23615506060E+02  0.56921266122E+02  0.10566000000E+00 0. -1.
         22    1    1    0    0    0 -0.20853494409E+02  0.12939677612E+02  0.14855544957E+02  0.28687814516E+02  0.00000000000E+00 0. -1.
</event>
<event>
 5    1  0.1668518E-003  0.9118800E+02  0.7818608E-02  0.1130116E+00
         25   -1    0    0    0    0  0.00000000000E+00  0.00000000000E+00  0.99999998245E-14  0.12500000000E+03  0.12500000000E+03 0.  0.
        -13    1    3    3    0    0  0.32771551415E+02 -0.41950119654E+01  0.15814052186E+02  0.36628788106E+02  0.10566000000E+00 0.  1.
         23    2    1    0    0    0 -0.57324211459E+01  0.48013350191E+01 -0.28217328405E+02  0.95808715470E+02  0.91253377294E+02 0.  0.
         13    1    3    3    0    0 -0.38503972561E+02  0.89963469845E+01 -0.44031380592E+02  0.59179927364E+02  0.10566000000E+00 0. -1.
         22    1    1    0    0    0  0.57324211459E+01 -0.48013350191E+01  0.28217328405E+02  0.29191284530E+02  0.00000000000E+00 0. -1.
</event>
<event>
 5    1  0.1668518E-003  0.9118800E+02  0.7818608E-02  0.1130116E+00
         25   -1    0    0    0    0  0.00000000000E+00  0.00000000000E+00  0.99999998245E-14  0.12500000000E+03  0.12500000000E+03 0.  0.
        -13    1    3    3    0    0 -0.24858823655E+02 -0.27549982566E+02 -0.40190068445E+02  0.54701146410E+02  0.10566000000E+00 0.  1.
         23    2    1    0    0    0 -0.19269744716E+02  0.79558534921E+01 -0.89907560952E+01  0.10229642404E+03  0.99745205449E+02 0.  0.
         13    1    3    3    0    0  0.55890789393E+01  0.35505836058E+02  0.31199312350E+02  0.47595277631E+02  0.10566000000E+00 0. -1.
         22    1    1    0    0    0  0.19269744716E+02 -0.79558534921E+01  0.89907560952E+01  0.22703575960E+02  0.00000000000E+00 0.  1.
</event>
<event>
 5    1  0.1668518E-003  0.9118800E+02  0.7818608E-02  0.1130116E+00
         25   -1    0    0    0    0  0.00000000000E+00  0.00000000000E+00  0.99999998245E-14  0.12500000000E+03  0.12500000000E+03 0.  0.
        -13    1    3    3    0    0 -0.40975799356E+02  0.86978617556E+01  0.29892920469E+02  0.51461313529E+02  0.10566000000E+00 0.  1.
         23    2    1    0    0    0 -0.18388526328E+02 -0.21565628654E+02  0.63695979501E+01  0.95952004926E+02  0.91449446316E+02 0.  0.
         13    1    3    3    0    0  0.22587273028E+02 -0.30263490410E+02 -0.23523322518E+02  0.44490691397E+02  0.10566000000E+00 0. -1.
         22    1    1    0    0    0  0.18388526328E+02  0.21565628654E+02 -0.63695979501E+01  0.29047995074E+02  0.00000000000E+00 0. -1.
</event>
<event>
 5    1  0.1668518E-003  0.9118800E+02  0.7818608E-02  0.1130116E+00
         25   -1    0    0    0    0  0.00000000000E+00  0.00000000000E+00  0.99999998245E-14  0.12500000000E+03  0.12500000000E+03 0.  0.
        -13    1    3    3    0    0 -0.21422566988E+02 -0.76261408891E-01  0.35604671251E+02  0.41552809425E+02  0.10566000000E+00 0.  1.
         23    2    1    0    0    0  0.10518216121E+02  0.28050276819E+02  0.35511619359E+01  0.94832771903E+02  0.89906579157E+02 0.  0.
         13    1    3    3    0    0  0.31940783109E+02  0.28126538228E+02 -0.32053509315E+02  0.53279962478E+02  0.10566000000E+00 0. -1.
         22    1    1    0    0    0 -0.10518216121E+02 -0.28050276819E+02 -0.35511619359E+01  0.30167228097E+02  0.00000000000E+00 0. -1.
</event>
<event>
 5    1  0.1668518E-003  0.9118800E+02  0.7818608E-02  0.1130116E+00
         25   -1    0    0    0    0  0.00000000000E+00  0.00000000000E+00  0.99999998245E-14  0.12500000000E+03  0.12500000000E+03 0.  0.
        -13    1    3    3    0    0  0.32292609091E+02 -0.45870543141E+01  0.11697031154E+02  0.34650907218E+02  0.10566000000E+00 0. -1.
         23    2    1    0    0    0 -0.15303865188E+02  0.93312454259E+01 -0.23487246504E+02  0.95454591233E+02  0.90766997351E+02 0.  0.
         13    1    3    3    0    0 -0.47596474279E+02  0.13918299740E+02 -0.35184277657E+02  0.60803684015E+02  0.10566000000E+00 0.  1.
         22    1    1    0    0    0  0.15303865188E+02 -0.93312454259E+01  0.23487246504E+02  0.29545408767E+02  0.00000000000E+00 0.  1.
</event>
<event>
 5    1  0.1668518E-003  0.9118800E+02  0.7818608E-02  0.1130116E+00
         25   -1    0    0    0    0  0.00000000000E+00  0.00000000000E+00  0.99999998245E-14  0.12500000000E+03  0.12500000000E+03 0.  0.
        -13    1    3    3    0    0 -0.35309235901E+02 -0.84953304980E+01  0.31020135648E+02  0.47761624342E+02  0.10566000000E+00 0.  1.
         23    2    1    0    0    0  0.13166937156E+02 -0.11443187572E+02  0.21604678159E+02  0.97231728641E+02  0.93182252389E+02 0.  0.
         13    1    3    3    0    0  0.48476173057E+02 -0.29478570738E+01 -0.94154574885E+01  0.49470104299E+02  0.10566000000E+00 0. -1.
         22    1    1    0    0    0 -0.13166937156E+02  0.11443187572E+02 -0.21604678159E+02  0.27768271359E+02  0.00000000000E+00 0. -1.
</event>
<event>
 5    1  0.1668518E-003  0.9118800E+02  0.7818608E-02  0.1130116E+00
         25   -1    0    0    0    0  0.00000000000E+00  0.00000000000E+00  0.99999998245E-14  0.12500000000E+03  0.12500000000E+03 0.  0.
        -13    1    3    3    0    0 -0.11001888093E+02  0.27623016226E+02 -0.35737230880E+02  0.46489067554E+02  0.10566000000E+00 0.  1.
         23    2    1    0    0    0  0.16015691649E+02  0.24100013645E+02  0.51360741700E+01  0.95611357729E+02  0.90982632585E+02 0.  0.
         13    1    3    3    0    0  0.27017579741E+02 -0.35230025810E+01  0.40873305050E+02  0.49122290175E+02  0.10566000000E+00 0. -1.
         22    1    1    0    0    0 -0.16015691649E+02 -0.24100013645E+02 -0.51360741700E+01  0.29388642271E+02  0.00000000000E+00 0. -1.
</event>
<event>
 5    1  0.1668518E-003  0.9118800E+02  0.7818608E-02  0.1130116E+00
         25   -1    0    0    0    0  0.00000000000E+00  0.00000000000E+00  0.99999998245E-14  0.12500000000E+03  0.12500000000E+03 0.  0.
        -13    1    3    3    0    0 -0.11565522605E+02  0.41346004219E+02 -0.10346310276E+02  0.44162321931E+02  0.10566000000E+00 0.  1.
         23    2    1    0    0    0  0.12056725683E+02  0.10479910829E+02  0.24092355492E+02  0.96092652174E+02  0.91641491932E+02 0.  0.
         13    1    3    3    0    0  0.23622248288E+02 -0.30866093389E+02  0.34438665768E+02  0.51930330243E+02  0.10566000000E+00 0. -1.
         22    1    1    0    0    0 -0.12056725683E+02 -0.10479910829E+02 -0.24092355492E+02  0.28907347826E+02  0.00000000000E+00 0. -1.
</event>
<event>
 5    1  0.1668518E-003  0.9118800E+02  0.7818608E-02  0.1130116E+00
         25   -1    0    0    0    0  0.00000000000E+00  0.00000000000E+00  0.99999998245E-14  0.12500000000E+03  0.12500000000E+03 0.  0.
        -13    1    3    3    0    0  0.30742670744E+02 -0.10184925343E+02  0.91161733129E+01  0.33644617528E+02  0.10566000000E+00 0.  1.
         23    2    1    0    0    0 -0.27876908814E+02  0.80254921294E+01 -0.15586508461E+01  0.95949011008E+02  0.91445353912E+02 0.  0.
         13    1    3    3    0    0 -0.58619579558E+02  0.18210417472E+02 -0.10674824159E+02  0.62304393480E+02  0.10566000000E+00 0. -1.
         22    1    1    0    0    0  0.27876908814E+02 -0.80254921294E+01  0.15586508461E+01  0.29050988992E+02  0.00000000000E+00 0. -1.
</event>
<event>
 5    1  0.1668518E-003  0.9118800E+02  0.7818608E-02  0.1130116E+00
         25   -1    0    0    0    0  0.00000000000E+00  0.00000000000E+00  0.99999998245E-14  0.12500000000E+03  0.12500000000E+03 0.  0.
        -13    1    3    3    0    0 -0.15147950613E+02 -0.42409751864E+02 -0.40411050847E+02  0.60507120701E+02  0.10566000000E+00 0. -1.
         23    2    1    0    0    0 -0.25909560250E+01 -0.25930101634E+02 -0.10473642071E+02  0.96914765408E+02  0.92756085256E+02 0.  0.
         13    1    3    3    0    0  0.12556994588E+02  0.16479650230E+02  0.29937408777E+02  0.36407644707E+02  0.10566000000E+00 0.  1.
         22    1    1    0    0    0  0.25909560250E+01  0.25930101634E+02  0.10473642071E+02  0.28085234592E+02  0.00000000000E+00 0. -1.
</event>
<event>
 5    1  0.1668518E-003  0.9118800E+02  0.7818608E-02  0.1130116E+00
         25   -1    0    0    0    0  0.00000000000E+00  0.00000000000E+00  0.99999998245E-14  0.12500000000E+03  0.12500000000E+03 0.  0.
        -13    1    3    3    0    0  0.21710449072E+02  0.10860755175E+02 -0.48607923705E+02  0.54332688253E+02  0.10566000000E+00 0. -1.
         23    2    1    0    0    0  0.93455184124E+00  0.23997845582E+02 -0.12743682522E+02  0.97812292779E+02  0.93957826682E+02 0.  0.
         13    1    3    3    0    0 -0.20775897231E+02  0.13137090406E+02  0.35864241183E+02  0.43479604526E+02  0.10566000000E+00 0.  1.
         22    1    1    0    0    0 -0.93455184124E+00 -0.23997845582E+02  0.12743682522E+02  0.27187707221E+02  0.00000000000E+00 0. -1.
</event>
<event>
 5    1  0.1668518E-003  0.9118800E+02  0.7818608E-02  0.1130116E+00
         25   -1    0    0    0    0  0.00000000000E+00  0.00000000000E+00  0.99999998245E-14  0.12500000000E+03  0.12500000000E+03 0.  0.
        -13    1    3    3    0    0  0.38095708017E+02  0.16945054787E+02 -0.16197352530E+02  0.44730115628E+02  0.10566000000E+00 0. -1.
         23    2    1    0    0    0 -0.11991684574E+02  0.13618836087E+02 -0.23342646916E+02  0.95433932282E+02  0.90738542365E+02 0.  0.
         13    1    3    3    0    0 -0.50087392591E+02 -0.33262187004E+01 -0.71452943854E+01  0.50703816654E+02  0.10566000000E+00 0.  1.
         22    1    1    0    0    0  0.11991684574E+02 -0.13618836087E+02  0.23342646916E+02  0.29566067718E+02  0.00000000000E+00 0.  1.
</event>
<event>
 5    1  0.1668518E-003  0.9118800E+02  0.7818608E-02  0.1130116E+00
         25   -1    0    0    0    0  0.00000000000E+00  0.00000000000E+00  0.99999998245E-14  0.12500000000E+03  0.12500000000E+03 0.  0.
        -13    1    3    3    0    0  0.45999769568E+02  0.10417271300E+02  0.24134374280E+02  0.52980916636E+02  0.10566000000E+00 0.  1.
         23    2    1    0    0    0  0.39536184839E+01  0.16483120177E+02  0.24189620181E+02  0.95462531009E+02  0.90777930976E+02 0.  0.
         13    1    3    3    0    0 -0.42046151084E+02  0.60658488765E+01  0.55245901339E-01  0.42481614373E+02  0.10566000000E+00 0. -1.
         22    1    1    0    0    0 -0.39536184839E+01 -0.16483120177E+02 -0.24189620181E+02  0.29537468991E+02  0.00000000000E+00 0.  1.
</event>
<event>
 5    1  0.1668518E-003  0.9118800E+02  0.7818608E-02  0.1130116E+00
         25   -1    0    0    0    0  0.00000000000E+00  0.00000000000E+00  0.99999998245E-14  0.12500000000E+03  0.12500000000E+03 0.  0.
        -13    1    3    3    0    0  0.22233976646E+02  0.29658136559E+02 -0.12747307100E+02  0.39197701259E+02  0.10566000000E+00 0.  1.
         23    2    1    0    0    0 -0.10165386469E+02 -0.14654585500E+02 -0.23865691567E+02  0.95206322950E+02  0.90424447675E+02 0.  0.
         13    1    3    3    0    0 -0.32399363114E+02 -0.44312722059E+02 -0.11118384467E+02  0.56008621691E+02  0.10566000000E+00 0. -1.
         22    1    1    0    0    0  0.10165386469E+02  0.14654585500E+02  0.23865691567E+02  0.29793677050E+02  0.00000000000E+00 0. -1.
</event>
<event>
 5    1  0.1668518E-003  0.9118800E+02  0.7818608E-02  0.1130116E+00
         25   -1    0    0    0    0  0.00000000000E+00  0.00000000000E+00  0.99999998245E-14  0.12500000000E+03  0.12500000000E+03 0.  0.
        -13    1    3    3    0    0  0.12621803416E+02 -0.47113584566E+02 -0.33592264211E+01  0.48890646736E+02  0.10566000000E+00 0.  1.
         23    2    1    0    0    0 -0.18457433960E+02 -0.14304325726E+02 -0.17021436319E+02  0.96103289163E+02  0.91655999753E+02 0.  0.
         13    1    3    3    0    0 -0.31079237376E+02  0.32809258840E+02 -0.13662209898E+02  0.47212642426E+02  0.10566000000E+00 0. -1.
         22    1    1    0    0    0  0.18457433960E+02  0.14304325726E+02  0.17021436319E+02  0.28896710837E+02  0.00000000000E+00 0.  1.
</event>
<event>
 5    1  0.1668518E-003  0.9118800E+02  0.7818608E-02  0.1130116E+00
         25   -1    0    0    0    0  0.00000000000E+00  0.00000000000E+00  0.99999998245E-14  0.12500000000E+03  0.12500000000E+03 0.  0.
        -13    1    3    3    0    0  0.43748218511E+02  0.82895353447E+01 -0.54484265736E+01  0.44858884686E+02  0.10566000000E+00 0.  1.
         23    2    1    0    0    0 -0.19700945730E+01  0.29140917136E+02 -0.63254024171E+01  0.95115471563E+02  0.90298770151E+02 0.  0.
         13    1    3    3    0    0 -0.45718313084E+02  0.20851381791E+02 -0.87697584353E+00  0.50256586877E+02  0.10566000000E+00 0. -1.
         22    1    1    0    0    0  0.19700945730E+01 -0.29140917136E+02  0.63254024171E+01  0.29884528437E+02  0.00000000000E+00 0. -1.
</event>
<event>
 5    1  0.1668518E-003  0.9118800E+02  0.7818608E-02  0.1130116E+00
         25   -1    0    0    0    0  0.00000000000E+00  0.00000000000E+00  0.99999998245E-14  0.12500000000E+03  0.12500000000E+03 0.  0.
        -13    1    3    3    0    0  0.25597488800E+02 -0.23122297168E+02  0.13642838306E+02  0.37094612281E+02  0.10566000000E+00 0.  1.
         23    2    1    0    0    0 -0.22959844523E+02  0.12719606335E+02  0.71508688891E+01  0.97795629548E+02  0.93935655567E+02 0.  0.
         13    1    3    3    0    0 -0.48557333323E+02  0.35841903504E+02 -0.64919694170E+01  0.60701017266E+02  0.10566000000E+00 0. -1.
         22    1    1    0    0    0  0.22959844523E+02 -0.12719606335E+02 -0.71508688891E+01  0.27204370452E+02  0.00000000000E+00 0. -1.
</event>
<event>
 5    1  0.1668518E-003  0.9118800E+02  0.7818608E-02  0.1130116E+00
         25   -1    0    0    0    0  0.00000000000E+00  0.00000000000E+00  0.99999998245E-14  0.12500000000E+03  0.12500000000E+03 0.  0.
        -13    1    3    3    0    0  0.45010849721E+02  0.99545042454E+00 -0.10730294915E+02  0.46283019641E+02  0.10566000000E+00 0. -1.
         23    2    1    0    0    0  0.65116434106E+01  0.22009357349E+02  0.15420824625E+02  0.97348324771E+02  0.93338530055E+02 0.  0.
         13    1    3    3    0    0 -0.38499206310E+02  0.21013906925E+02  0.26151119541E+02  0.51065305130E+02  0.10566000000E+00 0.  1.
         22    1    1    0    0    0 -0.65116434106E+01 -0.22009357349E+02 -0.15420824625E+02  0.27651675229E+02  0.00000000000E+00 0. -1.
</event>
<event>
 5    1  0.1668518E-003  0.9118800E+02  0.7818608E-02  0.1130116E+00
         25   -1    0    0    0    0  0.00000000000E+00  0.00000000000E+00  0.99999998245E-14  0.12500000000E+03  0.12500000000E+03 0.  0.
        -13    1    3    3    0    0 -0.36458166799E+02  0.15678314307E+02  0.43736915439E+02  0.59058753814E+02  0.10566000000E+00 0. -1.
         23    2    1    0    0    0 -0.56536727616E+01  0.10221243446E+02  0.29189808042E+02  0.93559854854E+02  0.88119031505E+02 0.  0.
         13    1    3    3    0    0  0.30804494038E+02 -0.54570708612E+01 -0.14547107397E+02  0.34501101040E+02  0.10566000000E+00 0.  1.
         22    1    1    0    0    0  0.56536727616E+01 -0.10221243446E+02 -0.29189808042E+02  0.31440145146E+02  0.00000000000E+00 0. -1.
</event>
<event>
 5    1  0.1668518E-003  0.9118800E+02  0.7818608E-02  0.1130116E+00
         25   -1    0    0    0    0  0.00000000000E+00  0.00000000000E+00  0.99999998245E-14  0.12500000000E+03  0.12500000000E+03 0.  0.
        -13    1    3    3    0    0  0.21347145037E+02 -0.14134561399E+02 -0.98377257129E+01  0.27427694734E+02  0.10566000000E+00 0. -1.
         23    2    1    0    0    0 -0.31329755822E+01 -0.10340732011E+01  0.40206569442E+02  0.84658296148E+02  0.74428314753E+02 0.  0.
         13    1    3    3    0    0 -0.24480120620E+02  0.13100488198E+02  0.50044295155E+02  0.57230601414E+02  0.10566000000E+00 0.  1.
         22    1    1    0    0    0  0.31329755822E+01  0.10340732011E+01 -0.40206569442E+02  0.40341703852E+02  0.00000000000E+00 0.  1.
</event>
<event>
 4    1  0.1668518E-003  0.9118800E+02  0.7818608E-02  0.1130116E+00
         25   -1    0    0    0    0  0.00000000000E+00  0.00000000000E+00  0.99999998245E-14  0.12500000000E+03  0.12500000000E+03 0.  0.
        -13    1    1    0    0    0 -0.53589490016E+01  0.88277181979E+01  0.53347108857E+01  0.11623994462E+02  0.10566000000E+00 0. -1.
         13    1    1    0    0    0  0.49473096379E+02 -0.95074309004E+01 -0.33985453393E+02  0.60770064292E+02  0.10566000000E+00 0.  1.
         22    1    1    0    0    0 -0.44114147377E+02  0.67971270247E+00  0.28650742508E+02  0.52605941246E+02  0.00000000000E+00 0.  1.
</event>
<event>
 5    1  0.1668518E-003  0.9118800E+02  0.7818608E-02  0.1130116E+00
         25   -1    0    0    0    0  0.00000000000E+00  0.00000000000E+00  0.99999998245E-14  0.12500000000E+03  0.12500000000E+03 0.  0.
        -13    1    3    3    0    0  0.29576106644E+02  0.19084617027E+02 -0.66143111740E+01  0.35815205816E+02  0.10566000000E+00 0.  1.
         23    2    1    0    0    0 -0.63439996344E+01 -0.11594424784E+02  0.27771889906E+02  0.94243620395E+02  0.89083697155E+02 0.  0.
         13    1    3    3    0    0 -0.35920106279E+02 -0.30679041811E+02  0.34386201080E+02  0.58428414579E+02  0.10566000000E+00 0. -1.
         22    1    1    0    0    0  0.63439996344E+01  0.11594424784E+02 -0.27771889906E+02  0.30756379605E+02  0.00000000000E+00 0.  1.
</event>
<event>
 5    1  0.1668518E-003  0.9118800E+02  0.7818608E-02  0.1130116E+00
         25   -1    0    0    0    0  0.00000000000E+00  0.00000000000E+00  0.99999998245E-14  0.12500000000E+03  0.12500000000E+03 0.  0.
        -13    1    3    3    0    0 -0.42938653983E+02 -0.33529640378E+02 -0.21382194444E+02  0.58524987766E+02  0.10566000000E+00 0.  1.
         23    2    1    0    0    0 -0.64643394497E+01 -0.22065175200E+02 -0.15651427313E+02  0.97185852196E+02  0.93120690767E+02 0.  0.
         13    1    3    3    0    0  0.36474314533E+02  0.11464465178E+02  0.57307671310E+01  0.38660864430E+02  0.10566000000E+00 0. -1.
         22    1    1    0    0    0  0.64643394497E+01  0.22065175200E+02  0.15651427313E+02  0.27814147804E+02  0.00000000000E+00 0.  1.
</event>
<event>
 5    1  0.1668518E-003  0.9118800E+02  0.7818608E-02  0.1130116E+00
         25   -1    0    0    0    0  0.00000000000E+00  0.00000000000E+00  0.99999998245E-14  0.12500000000E+03  0.12500000000E+03 0.  0.
        -13    1    3    3    0    0 -0.20360333718E+02 -0.14903882105E+02 -0.33569379305E+02  0.41995038777E+02  0.10566000000E+00 0.  1.
         23    2    1    0    0    0  0.25474756426E+02 -0.14479666091E+02 -0.73950057823E+01  0.94778979905E+02  0.89831759285E+02 0.  0.
         13    1    3    3    0    0  0.45835090143E+02  0.42421601369E+00  0.26174373523E+02  0.52783941128E+02  0.10566000000E+00 0. -1.
         22    1    1    0    0    0 -0.25474756426E+02  0.14479666091E+02  0.73950057823E+01  0.30221020095E+02  0.00000000000E+00 0. -1.
</event>
<event>
 5    1  0.1668518E-003  0.9118800E+02  0.7818608E-02  0.1130116E+00
         25   -1    0    0    0    0  0.00000000000E+00  0.00000000000E+00  0.99999998245E-14  0.12500000000E+03  0.12500000000E+03 0.  0.
        -13    1    3    3    0    0  0.73464897112E+01  0.14294782466E+02 -0.30802017057E+02  0.34743159551E+02  0.10566000000E+00 0.  1.
         23    2    1    0    0    0 -0.15934795762E+02 -0.16090537304E+02  0.17504567470E+02  0.96377753599E+02  0.92029551774E+02 0.  0.
         13    1    3    3    0    0 -0.23281285473E+02 -0.30385319770E+02  0.48306584527E+02  0.61634594048E+02  0.10566000000E+00 0. -1.
         22    1    1    0    0    0  0.15934795762E+02  0.16090537304E+02 -0.17504567470E+02  0.28622246401E+02  0.00000000000E+00 0. -1.
</event>
<event>
 5    1  0.1668518E-003  0.9118800E+02  0.7818608E-02  0.1130116E+00
         25   -1    0    0    0    0  0.00000000000E+00  0.00000000000E+00  0.99999998245E-14  0.12500000000E+03  0.12500000000E+03 0.  0.
        -13    1    3    3    0    0  0.28620734989E+02 -0.36403242411E+02  0.13650953690E+02  0.48277346965E+02  0.10566000000E+00 0.  1.
         23    2    1    0    0    0  0.82178048108E+01  0.24396175031E+01  0.28999538292E+02  0.94760005446E+02  0.89805352633E+02 0.  0.
         13    1    3    3    0    0 -0.20402930178E+02  0.38842859914E+02  0.15348584602E+02  0.46482658481E+02  0.10566000000E+00 0. -1.
         22    1    1    0    0    0 -0.82178048108E+01 -0.24396175031E+01 -0.28999538292E+02  0.30239994554E+02  0.00000000000E+00 0. -1.
</event>
<event>
 5    1  0.1668518E-003  0.9118800E+02  0.7818608E-02  0.1130116E+00
         25   -1    0    0    0    0  0.00000000000E+00  0.00000000000E+00  0.99999998245E-14  0.12500000000E+03  0.12500000000E+03 0.  0.
        -13    1    3    3    0    0 -0.12183756045E+02 -0.13787875393E+02 -0.59346343891E+02  0.62133317282E+02  0.10566000000E+00 0.  1.
         23    2    1    0    0    0 -0.95807747278E+00 -0.68193221126E+01 -0.28295765051E+02  0.95878334760E+02  0.91348692875E+02 0.  0.
         13    1    3    3    0    0  0.11225678572E+02  0.69685532803E+01  0.31050578840E+02  0.33745017477E+02  0.10566000000E+00 0. -1.
         22    1    1    0    0    0  0.95807747278E+00  0.68193221126E+01  0.28295765051E+02  0.29121665240E+02  0.00000000000E+00 0.  1.
</event>
<event>
 5    1  0.1668518E-003  0.9118800E+02  0.7818608E-02  0.1130116E+00
         25   -1    0    0    0    0  0.00000000000E+00  0.00000000000E+00  0.99999998245E-14  0.12500000000E+03  0.12500000000E+03 0.  0.
        -13    1    3    3    0    0 -0.57127553260E+02 -0.80399760734E+01  0.43478422683E+00  0.57692276417E+02  0.10566000000E+00 0. -1.
         23    2    1    0    0    0 -0.22673809977E+02 -0.93608064329E+01 -0.15820020895E+02  0.95810970947E+02  0.91256466821E+02 0.  0.
         13    1    3    3    0    0  0.34453743284E+02 -0.13208303596E+01 -0.16254805122E+02  0.38118694530E+02  0.10566000000E+00 0.  1.
         22    1    1    0    0    0  0.22673809977E+02  0.93608064329E+01  0.15820020895E+02  0.29189029053E+02  0.00000000000E+00 0. -1.
</event>
<event>
 5    1  0.1668518E-003  0.9118800E+02  0.7818608E-02  0.1130116E+00
         25   -1    0    0    0    0  0.00000000000E+00  0.00000000000E+00  0.99999998245E-14  0.12500000000E+03  0.12500000000E+03 0.  0.
        -13    1    3    3    0    0  0.27579358593E+02 -0.49417887292E+02 -0.53913975603E+01  0.56849159506E+02  0.10566000000E+00 0.  1.
         23    2    1    0    0    0  0.16157378007E+02 -0.15679717217E+02 -0.19552530529E+02  0.95180277564E+02  0.90388436157E+02 0.  0.
         13    1    3    3    0    0 -0.11421980586E+02  0.33738170075E+02 -0.14161132969E+02  0.38331118057E+02  0.10566000000E+00 0. -1.
         22    1    1    0    0    0 -0.16157378007E+02  0.15679717217E+02  0.19552530529E+02  0.29819722436E+02  0.00000000000E+00 0.  1.
</event>
<event>
 5    1  0.1668518E-003  0.9118800E+02  0.7818608E-02  0.1130116E+00
         25   -1    0    0    0    0  0.00000000000E+00  0.00000000000E+00  0.99999998245E-14  0.12500000000E+03  0.12500000000E+03 0.  0.
        -13    1    3    3    0    0 -0.33578089986E+02  0.62858999808E+01 -0.10590625295E+02  0.35765530527E+02  0.10566000000E+00 0. -1.
         23    2    1    0    0    0  0.56462920178E+01  0.19358582806E+02  0.26766109231E+02  0.91487913447E+02  0.85129186310E+02 0.  0.
         13    1    3    3    0    0  0.39224382004E+02  0.13072682825E+02  0.37356734526E+02  0.55722382920E+02  0.10566000000E+00 0.  1.
         22    1    1    0    0    0 -0.56462920178E+01 -0.19358582806E+02 -0.26766109231E+02  0.33512086553E+02  0.00000000000E+00 0.  1.
</event>
<event>
 5    1  0.1668518E-003  0.9118800E+02  0.7818608E-02  0.1130116E+00
         25   -1    0    0    0    0  0.00000000000E+00  0.00000000000E+00  0.99999998245E-14  0.12500000000E+03  0.12500000000E+03 0.  0.
        -13    1    3    3    0    0 -0.37935378804E+02  0.37225922021E+02  0.12115487817E+02  0.54512919977E+02  0.10566000000E+00 0. -1.
         23    2    1    0    0    0 -0.47606573033E+01  0.27173085784E+02 -0.10028579917E+02  0.95646757178E+02  0.91031254493E+02 0.  0.
         13    1    3    3    0    0  0.33174721501E+02 -0.10052836237E+02 -0.22144067735E+02  0.41133837202E+02  0.10566000000E+00 0.  1.
         22    1    1    0    0    0  0.47606573033E+01 -0.27173085784E+02  0.10028579917E+02  0.29353242822E+02  0.00000000000E+00 0. -1.
</event>
<event>
 5    1  0.1668518E-003  0.9118800E+02  0.7818608E-02  0.1130116E+00
         25   -1    0    0    0    0  0.00000000000E+00  0.00000000000E+00  0.99999998245E-14  0.12500000000E+03  0.12500000000E+03 0.  0.
        -13    1    3    3    0    0 -0.20464211607E+02 -0.44363798021E+02  0.13205488448E+02  0.50609550687E+02  0.10566000000E+00 0.  1.
         23    2    1    0    0    0 -0.27838415151E+02 -0.50782346582E+01 -0.76380939019E+01  0.95689484757E+02  0.91089907176E+02 0.  0.
         13    1    3    3    0    0 -0.73742035435E+01  0.39285563363E+02 -0.20843582350E+02  0.45079934071E+02  0.10566000000E+00 0. -1.
         22    1    1    0    0    0  0.27838415151E+02  0.50782346582E+01  0.76380939019E+01  0.29310515243E+02  0.00000000000E+00 0.  1.
</event>
<event>
 5    1  0.1668518E-003  0.9118800E+02  0.7818608E-02  0.1130116E+00
         25   -1    0    0    0    0  0.00000000000E+00  0.00000000000E+00  0.99999998245E-14  0.12500000000E+03  0.12500000000E+03 0.  0.
        -13    1    3    3    0    0 -0.36421175993E+02 -0.14216115872E+02 -0.10736131667E+02  0.40544737000E+02  0.10566000000E+00 0. -1.
         23    2    1    0    0    0 -0.39959135092E+01  0.29241680230E+02 -0.49512994132E+01  0.95074115663E+02  0.90241503289E+02 0.  0.
         13    1    3    3    0    0  0.32425262484E+02  0.43457796102E+02  0.57848322540E+01  0.54529378663E+02  0.10566000000E+00 0.  1.
         22    1    1    0    0    0  0.39959135092E+01 -0.29241680230E+02  0.49512994132E+01  0.29925884337E+02  0.00000000000E+00 0.  1.
</event>
<event>
 5    1  0.1668518E-003  0.9118800E+02  0.7818608E-02  0.1130116E+00
         25   -1    0    0    0    0  0.00000000000E+00  0.00000000000E+00  0.99999998245E-14  0.12500000000E+03  0.12500000000E+03 0.  0.
        -13    1    3    3    0    0 -0.22416661260E+02 -0.16942412877E+02 -0.47723372746E+02  0.55381256093E+02  0.10566000000E+00 0. -1.
         23    2    1    0    0    0 -0.17598646045E+02 -0.21936594619E+02 -0.79234887890E+01  0.95781714617E+02  0.91216383695E+02 0.  0.
         13    1    3    3    0    0  0.48180152149E+01 -0.49941817426E+01  0.39799883957E+02  0.40400458524E+02  0.10566000000E+00 0.  1.
         22    1    1    0    0    0  0.17598646045E+02  0.21936594619E+02  0.79234887890E+01  0.29218285383E+02  0.00000000000E+00 0. -1.
</event>
<event>
 5    1  0.1668518E-003  0.9118800E+02  0.7818608E-02  0.1130116E+00
         25   -1    0    0    0    0  0.00000000000E+00  0.00000000000E+00  0.99999998245E-14  0.12500000000E+03  0.12500000000E+03 0.  0.
        -13    1    3    3    0    0  0.15504361093E+01  0.43130619557E+02 -0.80672614174E+01  0.43906105114E+02  0.10566000000E+00 0.  1.
         23    2    1    0    0    0  0.34530318889E+02  0.19472971038E+02 -0.83152957657E+01  0.84494646436E+02  0.74152960892E+02 0.  0.
         13    1    3    3    0    0  0.32979882780E+02 -0.23657648519E+02 -0.24803434829E+00  0.40588541322E+02  0.10566000000E+00 0. -1.
         22    1    1    0    0    0 -0.34530318889E+02 -0.19472971038E+02  0.83152957657E+01  0.40505353564E+02  0.00000000000E+00 0.  1.
</event>
<event>
 5    1  0.1668518E-003  0.9118800E+02  0.7818608E-02  0.1130116E+00
         25   -1    0    0    0    0  0.00000000000E+00  0.00000000000E+00  0.99999998245E-14  0.12500000000E+03  0.12500000000E+03 0.  0.
        -13    1    3    3    0    0 -0.40111781317E+02 -0.72565481402E+01  0.40743346031E+02  0.57633704559E+02  0.10566000000E+00 0.  1.
         23    2    1    0    0    0 -0.50386050158E+01 -0.90730349796E+01  0.28240034631E+02  0.94913340827E+02  0.90018527020E+02 0.  0.
         13    1    3    3    0    0  0.35073176301E+02 -0.18164868395E+01 -0.12503311401E+02  0.37279636268E+02  0.10566000000E+00 0. -1.
         22    1    1    0    0    0  0.50386050158E+01  0.90730349796E+01 -0.28240034631E+02  0.30086659173E+02  0.00000000000E+00 0.  1.
</event>
<event>
 5    1  0.1668518E-003  0.9118800E+02  0.7818608E-02  0.1130116E+00
         25   -1    0    0    0    0  0.00000000000E+00  0.00000000000E+00  0.99999998245E-14  0.12500000000E+03  0.12500000000E+03 0.  0.
        -13    1    3    3    0    0  0.52936395572E+01 -0.62767613441E+01  0.43058069036E+02  0.43834105738E+02  0.10566000000E+00 0. -1.
         23    2    1    0    0    0  0.12132115833E+02  0.25809964557E+02  0.19704773828E+01  0.96412847533E+02  0.92077206101E+02 0.  0.
         13    1    3    3    0    0  0.68384762759E+01  0.32086725902E+02 -0.41087591653E+02  0.52578741795E+02  0.10566000000E+00 0.  1.
         22    1    1    0    0    0 -0.12132115833E+02 -0.25809964557E+02 -0.19704773828E+01  0.28587152467E+02  0.00000000000E+00 0. -1.
</event>
<event>
 5    1  0.1668518E-003  0.9118800E+02  0.7818608E-02  0.1130116E+00
         25   -1    0    0    0    0  0.00000000000E+00  0.00000000000E+00  0.99999998245E-14  0.12500000000E+03  0.12500000000E+03 0.  0.
        -13    1    3    3    0    0  0.53076094966E+02  0.12528272000E+02  0.13373044752E+02  0.56150502634E+02  0.10566000000E+00 0. -1.
         23    2    1    0    0    0  0.24284287840E+02  0.51254994563E+01 -0.13950966068E+02  0.96528490823E+02  0.92234064780E+02 0.  0.
         13    1    3    3    0    0 -0.28791807125E+02 -0.74027725434E+01 -0.27324010820E+02  0.40377988189E+02  0.10566000000E+00 0.  1.
         22    1    1    0    0    0 -0.24284287840E+02 -0.51254994563E+01  0.13950966068E+02  0.28471509177E+02  0.00000000000E+00 0. -1.
</event>
<event>
 5    1  0.1668518E-003  0.9118800E+02  0.7818608E-02  0.1130116E+00
         25   -1    0    0    0    0  0.00000000000E+00  0.00000000000E+00  0.99999998245E-14  0.12500000000E+03  0.12500000000E+03 0.  0.
        -13    1    3    3    0    0  0.20903671595E+02 -0.54760148516E+02 -0.18861385894E+02  0.61574348502E+02  0.10566000000E+00 0.  1.
         23    2    1    0    0    0  0.15158782368E+02 -0.20736910559E+02 -0.11503019894E+02  0.96855238336E+02  0.92675830636E+02 0.  0.
         13    1    3    3    0    0 -0.57448892269E+01  0.34023237956E+02  0.73583659994E+01  0.35280889834E+02  0.10566000000E+00 0. -1.
         22    1    1    0    0    0 -0.15158782368E+02  0.20736910559E+02  0.11503019894E+02  0.28144761664E+02  0.00000000000E+00 0.  1.
</event>
<event>
 5    1  0.1668518E-003  0.9118800E+02  0.7818608E-02  0.1130116E+00
         25   -1    0    0    0    0  0.00000000000E+00  0.00000000000E+00  0.99999998245E-14  0.12500000000E+03  0.12500000000E+03 0.  0.
        -13    1    3    3    0    0  0.37542478964E+02 -0.92539815469E+01  0.12751831842E+02  0.40714791914E+02  0.10566000000E+00 0.  1.
         23    2    1    0    0    0 -0.15125163227E+02 -0.11302405603E+02  0.23852555322E+02  0.94578636940E+02  0.89552550131E+02 0.  0.
         13    1    3    3    0    0 -0.52667642191E+02 -0.20484240561E+01  0.11100723481E+02  0.53863845025E+02  0.10566000000E+00 0. -1.
         22    1    1    0    0    0  0.15125163227E+02  0.11302405603E+02 -0.23852555322E+02  0.30421363060E+02  0.00000000000E+00 0. -1.
</event>
<event>
 5    1  0.1668518E-003  0.9118800E+02  0.7818608E-02  0.1130116E+00
         25   -1    0    0    0    0  0.00000000000E+00  0.00000000000E+00  0.99999998245E-14  0.12500000000E+03  0.12500000000E+03 0.  0.
        -13    1    3    3    0    0 -0.17603865504E+02  0.26166547839E+02  0.12760955053E+02  0.34021132321E+02  0.10566000000E+00 0. -1.
         23    2    1    0    0    0  0.13586834771E+02 -0.18029521538E+02 -0.17889763912E+02  0.96195323664E+02  0.91781430127E+02 0.  0.
         13    1    3    3    0    0  0.31190700275E+02 -0.44196069377E+02 -0.30650718965E+02  0.62174191343E+02  0.10566000000E+00 0.  1.
         22    1    1    0    0    0 -0.13586834771E+02  0.18029521538E+02  0.17889763912E+02  0.28804676336E+02  0.00000000000E+00 0.  1.
</event>
<event>
 5    1  0.1668518E-003  0.9118800E+02  0.7818608E-02  0.1130116E+00
         25   -1    0    0    0    0  0.00000000000E+00  0.00000000000E+00  0.99999998245E-14  0.12500000000E+03  0.12500000000E+03 0.  0.
        -13    1    3    3    0    0  0.30317095975E+02  0.24444185284E+02  0.38056108807E+02  0.54451107281E+02  0.10566000000E+00 0.  1.
         23    2    1    0    0    0  0.27246499462E+02  0.78368320174E+01 -0.60726993752E+00  0.96642347668E+02  0.92388240145E+02 0.  0.
         13    1    3    3    0    0 -0.30705965131E+01 -0.16607353267E+02 -0.38663378744E+02  0.42191240387E+02  0.10566000000E+00 0. -1.
         22    1    1    0    0    0 -0.27246499462E+02 -0.78368320174E+01  0.60726993752E+00  0.28357652332E+02  0.00000000000E+00 0.  1.
</event>
<event>
 5    1  0.1668518E-003  0.9118800E+02  0.7818608E-02  0.1130116E+00
         25   -1    0    0    0    0  0.00000000000E+00  0.00000000000E+00  0.99999998245E-14  0.12500000000E+03  0.12500000000E+03 0.  0.
        -13    1    3    3    0    0 -0.21225644353E+02 -0.93697941806E+01 -0.35630923965E+02  0.42519347688E+02  0.10566000000E+00 0. -1.
         23    2    1    0    0    0  0.16028150689E+01 -0.70922991144E+01  0.20548665231E+02  0.10320281290E+03  0.10087469070E+03 0.  0.
         13    1    3    3    0    0  0.22828459422E+02  0.22774950662E+01  0.56179589196E+02  0.60683465208E+02  0.10566000000E+00 0.  1.
         22    1    1    0    0    0 -0.16028150689E+01  0.70922991144E+01 -0.20548665231E+02  0.21797187104E+02  0.00000000000E+00 0.  1.
</event>
<event>
 5    1  0.1668518E-003  0.9118800E+02  0.7818608E-02  0.1130116E+00
         25   -1    0    0    0    0  0.00000000000E+00  0.00000000000E+00  0.99999998245E-14  0.12500000000E+03  0.12500000000E+03 0.  0.
        -13    1    3    3    0    0  0.28937058019E+02 -0.56441371819E+01  0.27662879817E+02  0.40428402085E+02  0.10566000000E+00 0.  1.
         23    2    1    0    0    0 -0.25253358039E+02 -0.25843972411E+01  0.12008935735E+02  0.96917519005E+02  0.92759795985E+02 0.  0.
         13    1    3    3    0    0 -0.54190416058E+02  0.30597399408E+01 -0.15653944082E+02  0.56489116920E+02  0.10566000000E+00 0. -1.
         22    1    1    0    0    0  0.25253358039E+02  0.25843972411E+01 -0.12008935735E+02  0.28082480995E+02  0.00000000000E+00 0. -1.
</event>
<event>
 5    1  0.1668518E-003  0.9118800E+02  0.7818608E-02  0.1130116E+00
         25   -1    0    0    0    0  0.00000000000E+00  0.00000000000E+00  0.99999998245E-14  0.12500000000E+03  0.12500000000E+03 0.  0.
        -13    1    3    3    0    0 -0.12704198907E+02  0.47874015942E+01  0.53563059965E+02  0.55256931156E+02  0.10566000000E+00 0. -1.
         23    2    1    0    0    0  0.11950786621E+02  0.13924444489E+02  0.23120852577E+02  0.95482458113E+02  0.90805366186E+02 0.  0.
         13    1    3    3    0    0  0.24654985527E+02  0.91370428951E+01 -0.30442207389E+02  0.40225526957E+02  0.10566000000E+00 0.  1.
         22    1    1    0    0    0 -0.11950786621E+02 -0.13924444489E+02 -0.23120852577E+02  0.29517541887E+02  0.00000000000E+00 0. -1.
</event>
<event>
 5    1  0.1668518E-003  0.9118800E+02  0.7818608E-02  0.1130116E+00
         25   -1    0    0    0    0  0.00000000000E+00  0.00000000000E+00  0.99999998245E-14  0.12500000000E+03  0.12500000000E+03 0.  0.
        -13    1    3    3    0    0 -0.28042800314E+02  0.25670878719E+02  0.28742273993E+01  0.38126959108E+02  0.10566000000E+00 0.  1.
         23    2    1    0    0    0 -0.61815032056E+01 -0.28084049157E+02  0.21759014956E+01  0.96161495423E+02  0.91735346818E+02 0.  0.
         13    1    3    3    0    0  0.21861297109E+02 -0.53754927876E+02 -0.69832590368E+00  0.58034536315E+02  0.10566000000E+00 0. -1.
         22    1    1    0    0    0  0.61815032056E+01  0.28084049157E+02 -0.21759014956E+01  0.28838504577E+02  0.00000000000E+00 0. -1.
</event>
<event>
 5    1  0.1668518E-003  0.9118800E+02  0.7818608E-02  0.1130116E+00
         25   -1    0    0    0    0  0.00000000000E+00  0.00000000000E+00  0.99999998245E-14  0.12500000000E+03  0.12500000000E+03 0.  0.
        -13    1    3    3    0    0  0.31384656259E+02 -0.42059545245E+02 -0.69775331964E+01  0.52940524443E+02  0.10566000000E+00 0.  1.
         23    2    1    0    0    0  0.17030933517E+02 -0.71526475455E+01  0.18798026499E+02  0.98645135864E+02  0.95059370743E+02 0.  0.
         13    1    3    3    0    0 -0.14353722743E+02  0.34906897699E+02  0.25775559695E+02  0.45704611422E+02  0.10566000000E+00 0. -1.
         22    1    1    0    0    0 -0.17030933517E+02  0.71526475455E+01 -0.18798026499E+02  0.26354864136E+02  0.00000000000E+00 0. -1.
</event>
<event>
 5    1  0.1668518E-003  0.9118800E+02  0.7818608E-02  0.1130116E+00
         25   -1    0    0    0    0  0.00000000000E+00  0.00000000000E+00  0.99999998245E-14  0.12500000000E+03  0.12500000000E+03 0.  0.
        -13    1    3    3    0    0  0.44853705789E+02 -0.35990888672E+02 -0.21208964629E+00  0.57508739653E+02  0.10566000000E+00 0.  1.
         23    2    1    0    0    0  0.84165250510E+01 -0.27532192081E+02 -0.66171533674E+01  0.95459414132E+02  0.90773638977E+02 0.  0.
         13    1    3    3    0    0 -0.36437180738E+02  0.84586965914E+01 -0.64050637211E+01  0.37950674479E+02  0.10566000000E+00 0. -1.
         22    1    1    0    0    0 -0.84165250510E+01  0.27532192081E+02  0.66171533674E+01  0.29540585868E+02  0.00000000000E+00 0.  1.
</event>
<event>
 5    1  0.1668518E-003  0.9118800E+02  0.7818608E-02  0.1130116E+00
         25   -1    0    0    0    0  0.00000000000E+00  0.00000000000E+00  0.99999998245E-14  0.12500000000E+03  0.12500000000E+03 0.  0.
        -13    1    3    3    0    0 -0.24602361238E+02  0.77068037434E-01  0.21959339560E+02  0.32977353986E+02  0.10566000000E+00 0. -1.
         23    2    1    0    0    0  0.54266594589E+00  0.11714904018E+02 -0.30510226013E+02  0.92313498905E+02  0.86332929559E+02 0.  0.
         13    1    3    3    0    0  0.25145027184E+02  0.11637835980E+02 -0.52469565573E+02  0.59336144919E+02  0.10566000000E+00 0.  1.
         22    1    1    0    0    0 -0.54266594589E+00 -0.11714904018E+02  0.30510226013E+02  0.32686501095E+02  0.00000000000E+00 0.  1.
</event>
<event>
 5    1  0.1668518E-003  0.9118800E+02  0.7818608E-02  0.1130116E+00
         25   -1    0    0    0    0  0.00000000000E+00  0.00000000000E+00  0.99999998245E-14  0.12500000000E+03  0.12500000000E+03 0.  0.
        -13    1    3    3    0    0 -0.27489747765E+02 -0.38077909570E+02  0.18209359941E+02  0.50370679794E+02  0.10566000000E+00 0.  1.
         23    2    1    0    0    0 -0.11704556843E+02  0.48107688444E+01  0.25388419052E+02  0.96632554402E+02  0.92374989042E+02 0.  0.
         13    1    3    3    0    0  0.15785190922E+02  0.42888678414E+02  0.71790591112E+01  0.46261874609E+02  0.10566000000E+00 0. -1.
         22    1    1    0    0    0  0.11704556843E+02 -0.48107688444E+01 -0.25388419052E+02  0.28367445598E+02  0.00000000000E+00 0.  1.
</event>
<event>
 5    1  0.1668518E-003  0.9118800E+02  0.7818608E-02  0.1130116E+00
         25   -1    0    0    0    0  0.00000000000E+00  0.00000000000E+00  0.99999998245E-14  0.12500000000E+03  0.12500000000E+03 0.  0.
        -13    1    3    3    0    0 -0.24623576746E+02 -0.47980725704E+02 -0.44332055607E+01  0.54112244885E+02  0.10566000000E+00 0.  1.
         23    2    1    0    0    0 -0.18275456776E+02 -0.97857104143E+01 -0.20327042316E+02  0.95966552082E+02  0.91469328305E+02 0.  0.
         13    1    3    3    0    0  0.63481199703E+01  0.38195015290E+02 -0.15893836755E+02  0.41854307198E+02  0.10566000000E+00 0. -1.
         22    1    1    0    0    0  0.18275456776E+02  0.97857104143E+01  0.20327042316E+02  0.29033447918E+02  0.00000000000E+00 0.  1.
</event>
<event>
 5    1  0.1668518E-003  0.9118800E+02  0.7818608E-02  0.1130116E+00
         25   -1    0    0    0    0  0.00000000000E+00  0.00000000000E+00  0.99999998245E-14  0.12500000000E+03  0.12500000000E+03 0.  0.
        -13    1    3    3    0    0  0.48392638405E+02  0.32122629292E+02  0.16315805741E+02  0.60331811223E+02  0.10566000000E+00 0. -1.
         23    2    1    0    0    0  0.30370913599E+02  0.10932990213E+02 -0.27338457554E+00  0.92720015382E+02  0.86919525111E+02 0.  0.
         13    1    3    3    0    0 -0.18021724806E+02 -0.21189639079E+02 -0.16589190316E+02  0.32388204159E+02  0.10566000000E+00 0.  1.
         22    1    1    0    0    0 -0.30370913599E+02 -0.10932990213E+02  0.27338457554E+00  0.32279984618E+02  0.00000000000E+00 0. -1.
</event>
<event>
 5    1  0.1668518E-003  0.9118800E+02  0.7818608E-02  0.1130116E+00
         25   -1    0    0    0    0  0.00000000000E+00  0.00000000000E+00  0.99999998245E-14  0.12500000000E+03  0.12500000000E+03 0.  0.
        -13    1    3    3    0    0  0.18352810237E+02 -0.28275276907E+02 -0.81601982381E+01  0.34683092813E+02  0.10566000000E+00 0.  1.
         23    2    1    0    0    0 -0.97372714068E+01  0.18774366719E+02 -0.25230725792E+02  0.92077654638E+02  0.85990776595E+02 0.  0.
         13    1    3    3    0    0 -0.28090081644E+02  0.47049643626E+02 -0.17070527554E+02  0.57394561825E+02  0.10566000000E+00 0. -1.
         22    1    1    0    0    0  0.97372714068E+01 -0.18774366719E+02  0.25230725792E+02  0.32922345362E+02  0.00000000000E+00 0. -1.
</event>
<event>
 5    1  0.1668518E-003  0.9118800E+02  0.7818608E-02  0.1130116E+00
         25   -1    0    0    0    0  0.00000000000E+00  0.00000000000E+00  0.99999998245E-14  0.12500000000E+03  0.12500000000E+03 0.  0.
        -13    1    3    3    0    0 -0.26372851086E+02 -0.41569330723E+02 -0.13798045784E+02  0.51126644352E+02  0.10566000000E+00 0. -1.
         23    2    1    0    0    0  0.62935594706E+00 -0.41720947692E+01 -0.25854829982E+02  0.98803154826E+02  0.95266933961E+02 0.  0.
         13    1    3    3    0    0  0.27002207033E+02  0.37397235954E+02 -0.12056784198E+02  0.47676510473E+02  0.10566000000E+00 0.  1.
         22    1    1    0    0    0 -0.62935594706E+00  0.41720947692E+01  0.25854829982E+02  0.26196845174E+02  0.00000000000E+00 0. -1.
</event>
<event>
 5    1  0.1668518E-003  0.9118800E+02  0.7818608E-02  0.1130116E+00
         25   -1    0    0    0    0  0.00000000000E+00  0.00000000000E+00  0.99999998245E-14  0.12500000000E+03  0.12500000000E+03 0.  0.
        -13    1    3    3    0    0  0.59233677930E+01 -0.45743459733E+01 -0.57699732752E+02  0.58183169825E+02  0.10566000000E+00 0. -1.
         23    2    1    0    0    0  0.96040687815E+01 -0.15991055657E+02 -0.20432720913E+02  0.97333267593E+02  0.93318363135E+02 0.  0.
         13    1    3    3    0    0  0.36807009885E+01 -0.11416709684E+02  0.37267011839E+02  0.39150097768E+02  0.10566000000E+00 0.  1.
         22    1    1    0    0    0 -0.96040687815E+01  0.15991055657E+02  0.20432720913E+02  0.27666732407E+02  0.00000000000E+00 0. -1.
</event>
<event>
 5    1  0.1668518E-003  0.9118800E+02  0.7818608E-02  0.1130116E+00
         25   -1    0    0    0    0  0.00000000000E+00  0.00000000000E+00  0.99999998245E-14  0.12500000000E+03  0.12500000000E+03 0.  0.
        -13    1    3    3    0    0  0.36063331579E+02 -0.29537246146E+01 -0.30007646342E+02  0.47008067145E+02  0.10566000000E+00 0.  1.
         23    2    1    0    0    0  0.25675555594E+02  0.98975404264E+01  0.14079197451E+02  0.94090142957E+02  0.88868080542E+02 0.  0.
         13    1    3    3    0    0 -0.10387775985E+02  0.12851265041E+02  0.44086843793E+02  0.47082075812E+02  0.10566000000E+00 0. -1.
         22    1    1    0    0    0 -0.25675555594E+02 -0.98975404264E+01 -0.14079197451E+02  0.30909857043E+02  0.00000000000E+00 0.  1.
</event>
<event>
 5    1  0.1668518E-003  0.9118800E+02  0.7818608E-02  0.1130116E+00
         25   -1    0    0    0    0  0.00000000000E+00  0.00000000000E+00  0.99999998245E-14  0.12500000000E+03  0.12500000000E+03 0.  0.
        -13    1    3    3    0    0  0.15078350253E+02  0.39529119993E+02  0.61943774556E+01  0.42758501492E+02  0.10566000000E+00 0.  1.
         23    2    1    0    0    0 -0.13051595137E+02  0.71552492254E+01 -0.25078341498E+02  0.95837267971E+02  0.91292480483E+02 0.  0.
         13    1    3    3    0    0 -0.28129945390E+02 -0.32373870768E+02 -0.31272718954E+02  0.53078766479E+02  0.10566000000E+00 0. -1.
         22    1    1    0    0    0  0.13051595137E+02 -0.71552492254E+01  0.25078341498E+02  0.29162732029E+02  0.00000000000E+00 0. -1.
</event>
<event>
 5    1  0.1668518E-003  0.9118800E+02  0.7818608E-02  0.1130116E+00
         25   -1    0    0    0    0  0.00000000000E+00  0.00000000000E+00  0.99999998245E-14  0.12500000000E+03  0.12500000000E+03 0.  0.
        -13    1    3    3    0    0 -0.37846526874E+02  0.45319273704E+01  0.10405719752E+02  0.39511873275E+02  0.10566000000E+00 0. -1.
         23    2    1    0    0    0  0.16756359813E+02  0.14483702978E+02  0.19176891322E+02  0.95703133155E+02  0.91108634546E+02 0.  0.
         13    1    3    3    0    0  0.54602886686E+02  0.99517756078E+01  0.87711715704E+01  0.56191259881E+02  0.10566000000E+00 0.  1.
         22    1    1    0    0    0 -0.16756359813E+02 -0.14483702978E+02 -0.19176891322E+02  0.29296866845E+02  0.00000000000E+00 0.  1.
</event>
<event>
 5    1  0.1668518E-003  0.9118800E+02  0.7818608E-02  0.1130116E+00
         25   -1    0    0    0    0  0.00000000000E+00  0.00000000000E+00  0.99999998245E-14  0.12500000000E+03  0.12500000000E+03 0.  0.
        -13    1    3    3    0    0 -0.17215464676E+02 -0.10957867348E+02  0.31708348004E+02  0.37707792006E+02  0.10566000000E+00 0. -1.
         23    2    1    0    0    0  0.22046379181E+02  0.18588942716E+02  0.46845658429E-01  0.96162631521E+02  0.91736894870E+02 0.  0.
         13    1    3    3    0    0  0.39261843856E+02  0.29546810063E+02 -0.31661502345E+02  0.58454839515E+02  0.10566000000E+00 0.  1.
         22    1    1    0    0    0 -0.22046379181E+02 -0.18588942716E+02 -0.46845658429E-01  0.28837368479E+02  0.00000000000E+00 0.  1.
</event>
<event>
 5    1  0.1668518E-003  0.9118800E+02  0.7818608E-02  0.1130116E+00
         25   -1    0    0    0    0  0.00000000000E+00  0.00000000000E+00  0.99999998245E-14  0.12500000000E+03  0.12500000000E+03 0.  0.
        -13    1    3    3    0    0 -0.12300988797E+02 -0.30803503297E+02 -0.13802136240E+01  0.33197685077E+02  0.10566000000E+00 0.  1.
         23    2    1    0    0    0  0.89308813947E+01  0.27490977619E+02  0.53548779286E+01  0.95602904726E+02  0.90971018360E+02 0.  0.
         13    1    3    3    0    0  0.21231870192E+02  0.58294480916E+02  0.67350915526E+01  0.62405219649E+02  0.10566000000E+00 0. -1.
         22    1    1    0    0    0 -0.89308813947E+01 -0.27490977619E+02 -0.53548779286E+01  0.29397095274E+02  0.00000000000E+00 0. -1.
</event>
<event>
 5    1  0.1668518E-003  0.9118800E+02  0.7818608E-02  0.1130116E+00
         25   -1    0    0    0    0  0.00000000000E+00  0.00000000000E+00  0.99999998245E-14  0.12500000000E+03  0.12500000000E+03 0.  0.
        -13    1    3    3    0    0 -0.10018311148E+02 -0.21297831573E+02 -0.29420641528E+02  0.37676909373E+02  0.10566000000E+00 0. -1.
         23    2    1    0    0    0  0.69951799151E+01  0.27384511746E+02 -0.65139882150E+00  0.96728665648E+02  0.92504953446E+02 0.  0.
         13    1    3    3    0    0  0.17013491063E+02  0.48682343319E+02  0.28769242707E+02  0.59051756275E+02  0.10566000000E+00 0.  1.
         22    1    1    0    0    0 -0.69951799151E+01 -0.27384511746E+02  0.65139882150E+00  0.28271334352E+02  0.00000000000E+00 0.  1.
</event>
<event>
 5    1  0.1668518E-003  0.9118800E+02  0.7818608E-02  0.1130116E+00
         25   -1    0    0    0    0  0.00000000000E+00  0.00000000000E+00  0.99999998245E-14  0.12500000000E+03  0.12500000000E+03 0.  0.
        -13    1    3    3    0    0 -0.44520795978E+01 -0.12078349276E+02  0.31784780195E+02  0.34292724448E+02  0.10566000000E+00 0.  1.
         23    2    1    0    0    0  0.14320144710E+02  0.94241225812E+01 -0.23145874903E+02  0.96197011336E+02  0.91783728590E+02 0.  0.
         13    1    3    3    0    0  0.18772224308E+02  0.21502471857E+02 -0.54930655099E+02  0.61904286888E+02  0.10566000000E+00 0. -1.
         22    1    1    0    0    0 -0.14320144710E+02 -0.94241225812E+01  0.23145874903E+02  0.28802988664E+02  0.00000000000E+00 0. -1.
</event>
<event>
 5    1  0.1668518E-003  0.9118800E+02  0.7818608E-02  0.1130116E+00
         25   -1    0    0    0    0  0.00000000000E+00  0.00000000000E+00  0.99999998245E-14  0.12500000000E+03  0.12500000000E+03 0.  0.
        -13    1    3    3    0    0  0.41283670573E+02  0.74906394571E+01  0.52261388567E+01  0.42282086358E+02  0.10566000000E+00 0. -1.
         23    2    1    0    0    0 -0.19073429691E+01 -0.26707612144E+02  0.67231127948E+01  0.97393211899E+02  0.93398624051E+02 0.  0.
         13    1    3    3    0    0 -0.43191013542E+02 -0.34198251601E+02  0.14969739381E+01  0.55111125540E+02  0.10566000000E+00 0.  1.
         22    1    1    0    0    0  0.19073429691E+01  0.26707612144E+02 -0.67231127948E+01  0.27606788101E+02  0.00000000000E+00 0.  1.
</event>
<event>
 5    1  0.1668518E-003  0.9118800E+02  0.7818608E-02  0.1130116E+00
         25   -1    0    0    0    0  0.00000000000E+00  0.00000000000E+00  0.99999998245E-14  0.12500000000E+03  0.12500000000E+03 0.  0.
        -13    1    3    3    0    0 -0.50825550010E+02 -0.91334030676E+01 -0.34503370039E+02  0.62105952158E+02  0.10566000000E+00 0. -1.
         23    2    1    0    0    0 -0.23230190201E+02 -0.41090420055E+00 -0.19289363753E+02  0.94802481344E+02  0.89864455353E+02 0.  0.
         13    1    3    3    0    0  0.27595359809E+02  0.87224988671E+01  0.15214006286E+02  0.32696529186E+02  0.10566000000E+00 0.  1.
         22    1    1    0    0    0  0.23230190201E+02  0.41090420055E+00  0.19289363753E+02  0.30197518656E+02  0.00000000000E+00 0. -1.
</event>
<event>
 5    1  0.1668518E-003  0.9118800E+02  0.7818608E-02  0.1130116E+00
         25   -1    0    0    0    0  0.00000000000E+00  0.00000000000E+00  0.99999998245E-14  0.12500000000E+03  0.12500000000E+03 0.  0.
        -13    1    3    3    0    0  0.24309347461E+01  0.31027719158E+02  0.15210723573E+02  0.34641103844E+02  0.10566000000E+00 0. -1.
         23    2    1    0    0    0 -0.17049951306E+02 -0.22859548839E+02 -0.62088286375E+01  0.95814226655E+02  0.91260926271E+02 0.  0.
         13    1    3    3    0    0 -0.19480886053E+02 -0.53887267997E+02 -0.21419552210E+02  0.61173122811E+02  0.10566000000E+00 0.  1.
         22    1    1    0    0    0  0.17049951306E+02  0.22859548839E+02  0.62088286375E+01  0.29185773345E+02  0.00000000000E+00 0.  1.
</event>
<event>
 5    1  0.1668518E-003  0.9118800E+02  0.7818608E-02  0.1130116E+00
         25   -1    0    0    0    0  0.00000000000E+00  0.00000000000E+00  0.99999998245E-14  0.12500000000E+03  0.12500000000E+03 0.  0.
        -13    1    3    3    0    0  0.53720660955E+02 -0.14620101433E+02 -0.13266369841E+02  0.57233421286E+02  0.10566000000E+00 0.  1.
         23    2    1    0    0    0  0.26314877008E+02 -0.22576785661E+02 -0.17629893815E+02  0.86102735846E+02  0.76815909560E+02 0.  0.
         13    1    3    3    0    0 -0.27405783947E+02 -0.79566842276E+01 -0.43635239744E+01  0.28869314560E+02  0.10566000000E+00 0. -1.
         22    1    1    0    0    0 -0.26314877008E+02  0.22576785661E+02  0.17629893815E+02  0.38897264154E+02  0.00000000000E+00 0.  1.
</event>
<event>
 5    1  0.1668518E-003  0.9118800E+02  0.7818608E-02  0.1130116E+00
         25   -1    0    0    0    0  0.00000000000E+00  0.00000000000E+00  0.99999998245E-14  0.12500000000E+03  0.12500000000E+03 0.  0.
        -13    1    3    3    0    0  0.19803107425E+02 -0.55575922095E+01  0.30009570758E+02  0.36381800340E+02  0.10566000000E+00 0. -1.
         23    2    1    0    0    0  0.13246567988E+02 -0.12250010605E+01 -0.27513421448E+02  0.94439231835E+02  0.89357752651E+02 0.  0.
         13    1    3    3    0    0 -0.65565394364E+01  0.43325911490E+01 -0.57522992206E+02  0.58057431495E+02  0.10566000000E+00 0.  1.
         22    1    1    0    0    0 -0.13246567988E+02  0.12250010605E+01  0.27513421448E+02  0.30560768165E+02  0.00000000000E+00 0.  1.
</event>
<event>
 5    1  0.1668518E-003  0.9118800E+02  0.7818608E-02  0.1130116E+00
         25   -1    0    0    0    0  0.00000000000E+00  0.00000000000E+00  0.99999998245E-14  0.12500000000E+03  0.12500000000E+03 0.  0.
        -13    1    3    3    0    0 -0.29205409146E+02 -0.37307174498E+02 -0.37591273993E+02  0.60480544284E+02  0.10566000000E+00 0. -1.
         23    2    1    0    0    0 -0.92236392471E+01 -0.12300494651E+02 -0.26510593330E+02  0.94353805321E+02  0.89238171934E+02 0.  0.
         13    1    3    3    0    0  0.19981769899E+02  0.25006679848E+02  0.11080680662E+02  0.33873261037E+02  0.10566000000E+00 0.  1.
         22    1    1    0    0    0  0.92236392471E+01  0.12300494651E+02  0.26510593330E+02  0.30646194679E+02  0.00000000000E+00 0. -1.
</event>
<event>
 5    1  0.1668518E-003  0.9118800E+02  0.7818608E-02  0.1130116E+00
         25   -1    0    0    0    0  0.00000000000E+00  0.00000000000E+00  0.99999998245E-14  0.12500000000E+03  0.12500000000E+03 0.  0.
        -13    1    3    3    0    0 -0.52416072609E+02 -0.14769903647E+02 -0.30071434113E+02  0.62208496487E+02  0.10566000000E+00 0.  1.
         23    2    1    0    0    0 -0.25136785330E+02 -0.90083941890E+01 -0.10338819040E+02  0.96366098384E+02  0.92013719608E+02 0.  0.
         13    1    3    3    0    0  0.27279287279E+02  0.57615094577E+01  0.19732615073E+02  0.34157601897E+02  0.10566000000E+00 0. -1.
         22    1    1    0    0    0  0.25136785330E+02  0.90083941890E+01  0.10338819040E+02  0.28633901616E+02  0.00000000000E+00 0.  1.
</event>
<event>
 5    1  0.1668518E-003  0.9118800E+02  0.7818608E-02  0.1130116E+00
         25   -1    0    0    0    0  0.00000000000E+00  0.00000000000E+00  0.99999998245E-14  0.12500000000E+03  0.12500000000E+03 0.  0.
        -13    1    3    3    0    0  0.14640450636E+01  0.30821685245E+02 -0.36122455064E+02  0.47507500810E+02  0.10566000000E+00 0. -1.
         23    2    1    0    0    0 -0.25748227523E+02 -0.21098620751E+01 -0.13217793896E+02  0.95980475296E+02  0.91488353488E+02 0.  0.
         13    1    3    3    0    0 -0.27212272587E+02 -0.32931547320E+02  0.22904661169E+02  0.48472974486E+02  0.10566000000E+00 0.  1.
         22    1    1    0    0    0  0.25748227523E+02  0.21098620751E+01  0.13217793896E+02  0.29019524704E+02  0.00000000000E+00 0.  1.
</event>
<event>
 5    1  0.1668518E-003  0.9118800E+02  0.7818608E-02  0.1130116E+00
         25   -1    0    0    0    0  0.00000000000E+00  0.00000000000E+00  0.99999998245E-14  0.12500000000E+03  0.12500000000E+03 0.  0.
        -13    1    3    3    0    0  0.33984494764E+02  0.43592593555E+02 -0.20982334870E+02  0.59123004304E+02  0.10566000000E+00 0. -1.
         23    2    1    0    0    0  0.23610136158E+02  0.90812289708E+01 -0.14816746185E+02  0.95683738019E+02  0.91082020755E+02 0.  0.
         13    1    3    3    0    0 -0.10374358607E+02 -0.34511364584E+02  0.61655886847E+01  0.36560733716E+02  0.10566000000E+00 0.  1.
         22    1    1    0    0    0 -0.23610136158E+02 -0.90812289708E+01  0.14816746185E+02  0.29316261981E+02  0.00000000000E+00 0. -1.
</event>
<event>
 5    1  0.1668518E-003  0.9118800E+02  0.7818608E-02  0.1130116E+00
         25   -1    0    0    0    0  0.00000000000E+00  0.00000000000E+00  0.99999998245E-14  0.12500000000E+03  0.12500000000E+03 0.  0.
        -13    1    3    3    0    0 -0.15692444689E+02  0.45695403420E+02 -0.16932248437E+02  0.51196043941E+02  0.10566000000E+00 0.  1.
         23    2    1    0    0    0  0.14165792249E+02  0.13030399609E+02 -0.22032663050E+02  0.95744244582E+02  0.91165021502E+02 0.  0.
         13    1    3    3    0    0  0.29858236939E+02 -0.32665003811E+02 -0.51004146132E+01  0.44548200641E+02  0.10566000000E+00 0. -1.
         22    1    1    0    0    0 -0.14165792249E+02 -0.13030399609E+02  0.22032663050E+02  0.29255755418E+02  0.00000000000E+00 0.  1.
</event>
<event>
 5    1  0.1668518E-003  0.9118800E+02  0.7818608E-02  0.1130116E+00
         25   -1    0    0    0    0  0.00000000000E+00  0.00000000000E+00  0.99999998245E-14  0.12500000000E+03  0.12500000000E+03 0.  0.
        -13    1    3    3    0    0  0.10741682345E+02  0.26939398086E+02 -0.22333120909E+02  0.36604567507E+02  0.10566000000E+00 0. -1.
         23    2    1    0    0    0  0.50337099558E+01 -0.28810009773E+02 -0.45341057358E+01  0.95404172357E+02  0.90697536292E+02 0.  0.
         13    1    3    3    0    0 -0.57079723891E+01 -0.55749407859E+02  0.17799015173E+02  0.58799604850E+02  0.10566000000E+00 0.  1.
         22    1    1    0    0    0 -0.50337099558E+01  0.28810009773E+02  0.45341057358E+01  0.29595827643E+02  0.00000000000E+00 0.  1.
</event>
<event>
 5    1  0.1668518E-003  0.9118800E+02  0.7818608E-02  0.1130116E+00
         25   -1    0    0    0    0  0.00000000000E+00  0.00000000000E+00  0.99999998245E-14  0.12500000000E+03  0.12500000000E+03 0.  0.
        -13    1    3    3    0    0 -0.18036659536E+02 -0.38875208028E+02 -0.31675745711E+02  0.53291339979E+02  0.10566000000E+00 0. -1.
         23    2    1    0    0    0  0.98784395046E+01 -0.28848910273E+02 -0.33191048103E+01  0.94326564462E+02  0.89200006253E+02 0.  0.
         13    1    3    3    0    0  0.27915099041E+02  0.10026297755E+02  0.28356640900E+02  0.41035224483E+02  0.10566000000E+00 0.  1.
         22    1    1    0    0    0 -0.98784395046E+01  0.28848910273E+02  0.33191048103E+01  0.30673435538E+02  0.00000000000E+00 0. -1.
</event>
<event>
 5    1  0.1668518E-003  0.9118800E+02  0.7818608E-02  0.1130116E+00
         25   -1    0    0    0    0  0.00000000000E+00  0.00000000000E+00  0.99999998245E-14  0.12500000000E+03  0.12500000000E+03 0.  0.
        -13    1    3    3    0    0 -0.25902813534E+02  0.19560182093E+02  0.12713712899E+02  0.34859806829E+02  0.10566000000E+00 0. -1.
         23    2    1    0    0    0 -0.39211039661E+01 -0.31654621269E+02 -0.35223502204E+01  0.92909548849E+02  0.87191669397E+02 0.  0.
         13    1    3    3    0    0  0.21981709568E+02 -0.51214803362E+02 -0.16236063120E+02  0.58049742020E+02  0.10566000000E+00 0.  1.
         22    1    1    0    0    0  0.39211039661E+01  0.31654621269E+02  0.35223502204E+01  0.32090451151E+02  0.00000000000E+00 0.  1.
</event>
<event>
 5    1  0.1668518E-003  0.9118800E+02  0.7818608E-02  0.1130116E+00
         25   -1    0    0    0    0  0.00000000000E+00  0.00000000000E+00  0.99999998245E-14  0.12500000000E+03  0.12500000000E+03 0.  0.
        -13    1    3    3    0    0  0.28888853394E+02  0.24647785812E+01 -0.51395231821E+02  0.59009507724E+02  0.10566000000E+00 0.  1.
         23    2    1    0    0    0  0.28180237148E+02  0.30717998324E+01 -0.20264354329E+02  0.90154544396E+02  0.83148277787E+02 0.  0.
         13    1    3    3    0    0 -0.70861624687E+00  0.60702125121E+00  0.31130877492E+02  0.31145036671E+02  0.10566000000E+00 0. -1.
         22    1    1    0    0    0 -0.28180237148E+02 -0.30717998324E+01  0.20264354329E+02  0.34845455604E+02  0.00000000000E+00 0. -1.
</event>
<event>
 5    1  0.1668518E-003  0.9118800E+02  0.7818608E-02  0.1130116E+00
         25   -1    0    0    0    0  0.00000000000E+00  0.00000000000E+00  0.99999998245E-14  0.12500000000E+03  0.12500000000E+03 0.  0.
        -13    1    3    3    0    0 -0.20221321040E+02  0.59155600556E+01 -0.34525153913E+02  0.40446175248E+02  0.10566000000E+00 0.  1.
         23    2    1    0    0    0  0.26012410935E+02 -0.93372359345E+01 -0.65471450472E+01  0.96597630278E+02  0.92327718316E+02 0.  0.
         13    1    3    3    0    0  0.46233731975E+02 -0.15252795990E+02  0.27978008866E+02  0.56151455030E+02  0.10566000000E+00 0. -1.
         22    1    1    0    0    0 -0.26012410935E+02  0.93372359345E+01  0.65471450472E+01  0.28402369722E+02  0.00000000000E+00 0.  1.
</event>
<event>
 5    1  0.1668518E-003  0.9118800E+02  0.7818608E-02  0.1130116E+00
         25   -1    0    0    0    0  0.00000000000E+00  0.00000000000E+00  0.99999998245E-14  0.12500000000E+03  0.12500000000E+03 0.  0.
        -13    1    3    3    0    0  0.42241073144E+02 -0.59323054636E+01  0.28314211067E+02  0.51197716950E+02  0.10566000000E+00 0.  1.
         23    2    1    0    0    0  0.89543578512E+01 -0.26759427893E+02  0.67863549831E+01  0.95977558344E+02  0.91484367987E+02 0.  0.
         13    1    3    3    0    0 -0.33286715293E+02 -0.20827122430E+02 -0.21527856084E+02  0.44779841394E+02  0.10566000000E+00 0. -1.
         22    1    1    0    0    0 -0.89543578512E+01  0.26759427893E+02 -0.67863549831E+01  0.29022441656E+02  0.00000000000E+00 0. -1.
</event>
<event>
 5    1  0.1668518E-003  0.9118800E+02  0.7818608E-02  0.1130116E+00
         25   -1    0    0    0    0  0.00000000000E+00  0.00000000000E+00  0.99999998245E-14  0.12500000000E+03  0.12500000000E+03 0.  0.
        -13    1    3    3    0    0 -0.22664114352E+02  0.24792831233E+02  0.16077150935E+02  0.37240200135E+02  0.10566000000E+00 0.  1.
         23    2    1    0    0    0 -0.76858567694E+01 -0.13151095096E+02 -0.25378632012E+02  0.95401036178E+02  0.90693213884E+02 0.  0.
         13    1    3    3    0    0  0.14978257582E+02 -0.37943926329E+02 -0.41455782947E+02  0.58160836043E+02  0.10566000000E+00 0. -1.
         22    1    1    0    0    0  0.76858567694E+01  0.13151095096E+02  0.25378632012E+02  0.29598963822E+02  0.00000000000E+00 0. -1.
</event>
<event>
 5    1  0.1668518E-003  0.9118800E+02  0.7818608E-02  0.1130116E+00
         25   -1    0    0    0    0  0.00000000000E+00  0.00000000000E+00  0.99999998245E-14  0.12500000000E+03  0.12500000000E+03 0.  0.
        -13    1    3    3    0    0 -0.43273178713E+01 -0.16752064973E+02  0.51199725236E+02  0.54044244736E+02  0.10566000000E+00 0. -1.
         23    2    1    0    0    0  0.20080298837E+02 -0.10633241407E+01  0.21259953154E+02  0.95736803528E+02  0.91154818206E+02 0.  0.
         13    1    3    3    0    0  0.24407616709E+02  0.15688740832E+02 -0.29939772082E+02  0.41692558792E+02  0.10566000000E+00 0.  1.
         22    1    1    0    0    0 -0.20080298837E+02  0.10633241407E+01 -0.21259953154E+02  0.29263196472E+02  0.00000000000E+00 0. -1.
</event>
<event>
 5    1  0.1668518E-003  0.9118800E+02  0.7818608E-02  0.1130116E+00
         25   -1    0    0    0    0  0.00000000000E+00  0.00000000000E+00  0.99999998245E-14  0.12500000000E+03  0.12500000000E+03 0.  0.
        -13    1    3    3    0    0  0.46455555124E+02  0.31159796300E+01 -0.31492392267E+02  0.56210407094E+02  0.10566000000E+00 0.  1.
         23    2    1    0    0    0  0.38271224902E+01  0.97146589077E+01 -0.22387843839E+02  0.10029702415E+03  0.97207283867E+02 0.  0.
         13    1    3    3    0    0 -0.42628432634E+02  0.65986792777E+01  0.91045484279E+01  0.44086617053E+02  0.10566000000E+00 0. -1.
         22    1    1    0    0    0 -0.38271224902E+01 -0.97146589077E+01  0.22387843839E+02  0.24702975853E+02  0.00000000000E+00 0.  1.
</event>
<event>
 5    1  0.1668518E-003  0.9118800E+02  0.7818608E-02  0.1130116E+00
         25   -1    0    0    0    0  0.00000000000E+00  0.00000000000E+00  0.99999998245E-14  0.12500000000E+03  0.12500000000E+03 0.  0.
        -13    1    3    3    0    0  0.42088567994E+02 -0.12860250413E+02 -0.36981217360E+00  0.44011152240E+02  0.10566000000E+00 0. -1.
         23    2    1    0    0    0 -0.35176904419E+01 -0.17706152516E+02  0.23222287229E+02  0.95586455380E+02  0.90948413098E+02 0.  0.
         13    1    3    3    0    0 -0.45606258435E+02 -0.48459021032E+01  0.23592099403E+02  0.51575303140E+02  0.10566000000E+00 0.  1.
         22    1    1    0    0    0  0.35176904419E+01  0.17706152516E+02 -0.23222287229E+02  0.29413544620E+02  0.00000000000E+00 0.  1.
</event>
<event>
 4    1  0.1668518E-003  0.9118800E+02  0.7818608E-02  0.1130116E+00
         25   -1    0    0    0    0  0.00000000000E+00  0.00000000000E+00  0.99999998245E-14  0.12500000000E+03  0.12500000000E+03 0.  0.
        -13    1    1    0    0    0 -0.34737950778E+02 -0.50162810654E+02  0.10825439585E+02  0.61969622423E+02  0.10566000000E+00 0.  1.
         13    1    1    0    0    0  0.49681847010E+01  0.24091849825E+01  0.76770858995E+00  0.55756230161E+01  0.10566000000E+00 0. -1.
         22    1    1    0    0    0  0.29769766077E+02  0.47753625672E+02 -0.11593148175E+02  0.57454754561E+02  0.00000000000E+00 0.  1.
</event>
<event>
 5    1  0.1668518E-003  0.9118800E+02  0.7818608E-02  0.1130116E+00
         25   -1    0    0    0    0  0.00000000000E+00  0.00000000000E+00  0.99999998245E-14  0.12500000000E+03  0.12500000000E+03 0.  0.
        -13    1    3    3    0    0 -0.39470323773E+02 -0.15025696811E+02  0.10409735767E+02  0.43497721620E+02  0.10566000000E+00 0. -1.
         23    2    1    0    0    0 -0.88061038550E+01  0.18863451161E+02 -0.18142086348E+02  0.97386370179E+02  0.93389466991E+02 0.  0.
         13    1    3    3    0    0  0.30664219918E+02  0.33889147971E+02 -0.28551822116E+02  0.53888648559E+02  0.10566000000E+00 0.  1.
         22    1    1    0    0    0  0.88061038550E+01 -0.18863451161E+02  0.18142086348E+02  0.27613629821E+02  0.00000000000E+00 0.  1.
</event>
<event>
 5    1  0.1668518E-003  0.9118800E+02  0.7818608E-02  0.1130116E+00
         25   -1    0    0    0    0  0.00000000000E+00  0.00000000000E+00  0.99999998245E-14  0.12500000000E+03  0.12500000000E+03 0.  0.
        -13    1    3    3    0    0 -0.10284031352E+02 -0.37711328932E+02  0.42152784777E+02  0.57487164299E+02  0.10566000000E+00 0.  1.
         23    2    1    0    0    0 -0.23904101600E+01 -0.34769251262E+01  0.30063606210E+02  0.94641747622E+02  0.89640598534E+02 0.  0.
         13    1    3    3    0    0  0.78936211918E+01  0.34234403806E+02 -0.12089178566E+02  0.37154583323E+02  0.10566000000E+00 0. -1.
         22    1    1    0    0    0  0.23904101600E+01  0.34769251262E+01 -0.30063606210E+02  0.30358252378E+02  0.00000000000E+00 0.  1.
</event>
<event>
 5    1  0.1668518E-003  0.9118800E+02  0.7818608E-02  0.1130116E+00
         25   -1    0    0    0    0  0.00000000000E+00  0.00000000000E+00  0.99999998245E-14  0.12500000000E+03  0.12500000000E+03 0.  0.
        -13    1    3    3    0    0 -0.17833049533E+02  0.45081525196E+02 -0.58686909613E+01  0.48834560173E+02  0.10566000000E+00 0.  1.
         23    2    1    0    0    0  0.29694121653E+01  0.59959423723E+01 -0.26490087985E+02  0.97677966859E+02  0.93778951341E+02 0.  0.
         13    1    3    3    0    0  0.20802461698E+02 -0.39085582824E+02 -0.20621397023E+02  0.48843406686E+02  0.10566000000E+00 0. -1.
         22    1    1    0    0    0 -0.29694121653E+01 -0.59959423723E+01  0.26490087985E+02  0.27322033141E+02  0.00000000000E+00 0. -1.
</event>
<event>
 5    1  0.1668518E-003  0.9118800E+02  0.7818608E-02  0.1130116E+00
         25   -1    0    0    0    0  0.00000000000E+00  0.00000000000E+00  0.99999998245E-14  0.12500000000E+03  0.12500000000E+03 0.  0.
        -13    1    3    3    0    0 -0.44200247565E+02  0.21652082376E+02  0.23917219865E+02  0.54722199573E+02  0.10566000000E+00 0.  1.
         23    2    1    0    0    0 -0.10331116735E+02 -0.38634305110E+00  0.27822650056E+02  0.95318674388E+02  0.90579625728E+02 0.  0.
         13    1    3    3    0    0  0.33869130830E+02 -0.22038425427E+02  0.39054301911E+01  0.40596474816E+02  0.10566000000E+00 0. -1.
         22    1    1    0    0    0  0.10331116735E+02  0.38634305110E+00 -0.27822650056E+02  0.29681325612E+02  0.00000000000E+00 0.  1.
</event>
<event>
 5    1  0.1668518E-003  0.9118800E+02  0.7818608E-02  0.1130116E+00
         25   -1    0    0    0    0  0.00000000000E+00  0.00000000000E+00  0.99999998245E-14  0.12500000000E+03  0.12500000000E+03 0.  0.
        -13    1    3    3    0    0 -0.16217403317E+02  0.43589461917E+02 -0.22886339858E+02  0.51834747773E+02  0.10566000000E+00 0. -1.
         23    2    1    0    0    0 -0.31420115521E+02  0.10586092417E+02 -0.10684534152E+02  0.90165415432E+02  0.83164619028E+02 0.  0.
         13    1    3    3    0    0 -0.15202712204E+02 -0.33003369500E+02  0.12201805706E+02  0.38330667659E+02  0.10566000000E+00 0.  1.
         22    1    1    0    0    0  0.31420115521E+02 -0.10586092417E+02  0.10684534152E+02  0.34834584568E+02  0.00000000000E+00 0. -1.
</event>
<event>
 5    1  0.1668518E-003  0.9118800E+02  0.7818608E-02  0.1130116E+00
         25   -1    0    0    0    0  0.00000000000E+00  0.00000000000E+00  0.99999998245E-14  0.12500000000E+03  0.12500000000E+03 0.  0.
        -13    1    3    3    0    0  0.41851762582E+02 -0.13622367792E+02  0.16126327833E+02  0.46874391184E+02  0.10566000000E+00 0.  1.
         23    2    1    0    0    0  0.22529491209E+00 -0.68960044036E+01  0.32251261331E+02  0.92018952533E+02  0.85905402236E+02 0.  0.
         13    1    3    3    0    0 -0.41626467669E+02  0.67263633884E+01  0.16124933499E+02  0.45144561350E+02  0.10566000000E+00 0. -1.
         22    1    1    0    0    0 -0.22529491209E+00  0.68960044036E+01 -0.32251261331E+02  0.32981047467E+02  0.00000000000E+00 0. -1.
</event>
<event>
 5    1  0.1668518E-003  0.9118800E+02  0.7818608E-02  0.1130116E+00
         25   -1    0    0    0    0  0.00000000000E+00  0.00000000000E+00  0.99999998245E-14  0.12500000000E+03  0.12500000000E+03 0.  0.
        -13    1    3    3    0    0  0.76345855061E+01 -0.37815254450E+02  0.14858073542E+02  0.41340704860E+02  0.10566000000E+00 0.  1.
         23    2    1    0    0    0  0.23377314876E+02  0.14134886019E+02  0.10260799441E+02  0.95818193017E+02  0.91266358832E+02 0.  0.
         13    1    3    3    0    0  0.15742729370E+02  0.51950140469E+02 -0.45972741005E+01  0.54477488157E+02  0.10566000000E+00 0. -1.
         22    1    1    0    0    0 -0.23377314876E+02 -0.14134886019E+02 -0.10260799441E+02  0.29181806983E+02  0.00000000000E+00 0. -1.
</event>
<event>
 5    1  0.1668518E-003  0.9118800E+02  0.7818608E-02  0.1130116E+00
         25   -1    0    0    0    0  0.00000000000E+00  0.00000000000E+00  0.99999998245E-14  0.12500000000E+03  0.12500000000E+03 0.  0.
        -13    1    3    3    0    0  0.27880579023E+02  0.32714346456E+02 -0.27286134579E+02  0.50912664976E+02  0.10566000000E+00 0.  1.
         23    2    1    0    0    0 -0.12747686484E+02  0.17649864813E+02 -0.21096051967E+02  0.94683920979E+02  0.89699388207E+02 0.  0.
         13    1    3    3    0    0 -0.40628265507E+02 -0.15064481643E+02  0.61900826113E+01  0.43771256002E+02  0.10566000000E+00 0. -1.
         22    1    1    0    0    0  0.12747686484E+02 -0.17649864813E+02  0.21096051967E+02  0.30316079021E+02  0.00000000000E+00 0.  1.
</event>
<event>
 5    1  0.1668518E-003  0.9118800E+02  0.7818608E-02  0.1130116E+00
         25   -1    0    0    0    0  0.00000000000E+00  0.00000000000E+00  0.99999998245E-14  0.12500000000E+03  0.12500000000E+03 0.  0.
        -13    1    3    3    0    0  0.30064631476E+02  0.28698300034E+02 -0.31165864743E+02  0.51949944945E+02  0.10566000000E+00 0. -1.
         23    2    1    0    0    0  0.28770014565E+02 -0.52284282074E+01 -0.38894343884E+01  0.95501222069E+02  0.90831192424E+02 0.  0.
         13    1    3    3    0    0 -0.12946169107E+01 -0.33926728242E+02  0.27276430355E+02  0.43551277123E+02  0.10566000000E+00 0.  1.
         22    1    1    0    0    0 -0.28770014565E+02  0.52284282074E+01  0.38894343884E+01  0.29498777931E+02  0.00000000000E+00 0.  1.
</event>
<event>
 5    1  0.1668518E-003  0.9118800E+02  0.7818608E-02  0.1130116E+00
         25   -1    0    0    0    0  0.00000000000E+00  0.00000000000E+00  0.99999998245E-14  0.12500000000E+03  0.12500000000E+03 0.  0.
        -13    1    3    3    0    0  0.75433491515E+01 -0.69940750068E+01  0.33605356414E+02  0.35144705794E+02  0.10566000000E+00 0. -1.
         23    2    1    0    0    0  0.88847229367E+01  0.18858810675E+01 -0.27052303218E+02  0.96463673003E+02  0.92146178710E+02 0.  0.
         13    1    3    3    0    0  0.13413737853E+01  0.88799560743E+01 -0.60657659632E+02  0.61318967209E+02  0.10566000000E+00 0.  1.
         22    1    1    0    0    0 -0.88847229367E+01 -0.18858810675E+01  0.27052303218E+02  0.28536326997E+02  0.00000000000E+00 0.  1.
</event>
<event>
 5    1  0.1668518E-003  0.9118800E+02  0.7818608E-02  0.1130116E+00
         25   -1    0    0    0    0  0.00000000000E+00  0.00000000000E+00  0.99999998245E-14  0.12500000000E+03  0.12500000000E+03 0.  0.
        -13    1    3    3    0    0  0.14436986358E+02  0.23228111451E+02  0.28747795108E+02  0.39678944344E+02  0.10566000000E+00 0. -1.
         23    2    1    0    0    0 -0.76477944288E+01 -0.25606446867E+02  0.10251970808E+02  0.96376901177E+02  0.92028393957E+02 0.  0.
         13    1    3    3    0    0 -0.22084780786E+02 -0.48834558318E+02 -0.18495824300E+02  0.56697956833E+02  0.10566000000E+00 0.  1.
         22    1    1    0    0    0  0.76477944288E+01  0.25606446867E+02 -0.10251970808E+02  0.28623098823E+02  0.00000000000E+00 0.  1.
</event>
<event>
 5    1  0.1668518E-003  0.9118800E+02  0.7818608E-02  0.1130116E+00
         25   -1    0    0    0    0  0.00000000000E+00  0.00000000000E+00  0.99999998245E-14  0.12500000000E+03  0.12500000000E+03 0.  0.
        -13    1    3    3    0    0 -0.33988750038E+02 -0.12340995055E+02  0.49566437747E+02  0.61354528790E+02  0.10566000000E+00 0.  1.
         23    2    1    0    0    0 -0.10794312776E+02 -0.12771797861E+02  0.20387588621E+02  0.98631651954E+02  0.95041638183E+02 0.  0.
         13    1    3    3    0    0  0.23194437263E+02 -0.43080280565E+00 -0.29178849126E+02  0.37277123163E+02  0.10566000000E+00 0. -1.
         22    1    1    0    0    0  0.10794312776E+02  0.12771797861E+02 -0.20387588621E+02  0.26368348046E+02  0.00000000000E+00 0.  1.
</event>
<event>
 5    1  0.1668518E-003  0.9118800E+02  0.7818608E-02  0.1130116E+00
         25   -1    0    0    0    0  0.00000000000E+00  0.00000000000E+00  0.99999998245E-14  0.12500000000E+03  0.12500000000E+03 0.  0.
        -13    1    3    3    0    0 -0.39275462564E+02  0.14373328112E+02  0.26578554847E+02  0.49553862235E+02  0.10566000000E+00 0.  1.
         23    2    1    0    0    0  0.63975629292E+01  0.23144156485E+02  0.10862796097E+02  0.98645092869E+02  0.95059314206E+02 0.  0.
         13    1    3    3    0    0  0.45673025493E+02  0.87708283725E+01 -0.15715758750E+02  0.49091230634E+02  0.10566000000E+00 0. -1.
         22    1    1    0    0    0 -0.63975629292E+01 -0.23144156485E+02 -0.10862796097E+02  0.26354907131E+02  0.00000000000E+00 0.  1.
</event>
<event>
 5    1  0.1668518E-003  0.9118800E+02  0.7818608E-02  0.1130116E+00
         25   -1    0    0    0    0  0.00000000000E+00  0.00000000000E+00  0.99999998245E-14  0.12500000000E+03  0.12500000000E+03 0.  0.
        -13    1    3    3    0    0  0.94805328206E+01  0.40486348910E+01 -0.52900269801E+02  0.53895469717E+02  0.10566000000E+00 0.  1.
         23    2    1    0    0    0  0.24714371490E+02 -0.33119897342E+01 -0.13796867143E+02  0.96502228559E+02  0.92198466038E+02 0.  0.
         13    1    3    3    0    0  0.15233838670E+02 -0.73606246253E+01  0.39103402658E+02  0.42606758841E+02  0.10566000000E+00 0. -1.
         22    1    1    0    0    0 -0.24714371490E+02  0.33119897342E+01  0.13796867143E+02  0.28497771441E+02  0.00000000000E+00 0.  1.
</event>
<event>
 5    1  0.1668518E-003  0.9118800E+02  0.7818608E-02  0.1130116E+00
         25   -1    0    0    0    0  0.00000000000E+00  0.00000000000E+00  0.99999998245E-14  0.12500000000E+03  0.12500000000E+03 0.  0.
        -13    1    3    3    0    0  0.28254113555E+02  0.41545779994E+02 -0.26593197947E+02  0.56846777473E+02  0.10566000000E+00 0. -1.
         23    2    1    0    0    0  0.29159970969E+02  0.96177985512E+01 -0.11068282621E+02  0.92360869557E+02  0.86401489508E+02 0.  0.
         13    1    3    3    0    0  0.90585741452E+00 -0.31927981442E+02  0.15524915325E+02  0.35514092084E+02  0.10566000000E+00 0.  1.
         22    1    1    0    0    0 -0.29159970969E+02 -0.96177985512E+01  0.11068282621E+02  0.32639130443E+02  0.00000000000E+00 0. -1.
</event>
<event>
 5    1  0.1668518E-003  0.9118800E+02  0.7818608E-02  0.1130116E+00
         25   -1    0    0    0    0  0.00000000000E+00  0.00000000000E+00  0.99999998245E-14  0.12500000000E+03  0.12500000000E+03 0.  0.
        -13    1    3    3    0    0 -0.38107660978E+02 -0.19756490721E+01  0.43449401728E+02  0.57826971986E+02  0.10566000000E+00 0.  1.
         23    2    1    0    0    0 -0.25206936864E+02  0.87366997775E+01  0.78293404278E+01  0.97196795857E+02  0.93135379767E+02 0.  0.
         13    1    3    3    0    0  0.12900724114E+02  0.10712348850E+02 -0.35620061301E+02  0.39369823871E+02  0.10566000000E+00 0. -1.
         22    1    1    0    0    0  0.25206936864E+02 -0.87366997775E+01 -0.78293404278E+01  0.27803204143E+02  0.00000000000E+00 0.  1.
</event>
<event>
 5    1  0.1668518E-003  0.9118800E+02  0.7818608E-02  0.1130116E+00
         25   -1    0    0    0    0  0.00000000000E+00  0.00000000000E+00  0.99999998245E-14  0.12500000000E+03  0.12500000000E+03 0.  0.
        -13    1    3    3    0    0 -0.10563676627E+02  0.26886162914E+02 -0.16319742464E+02  0.33178338992E+02  0.10566000000E+00 0.  1.
         23    2    1    0    0    0  0.12781635887E+02 -0.26218992362E+02  0.57959511550E+01  0.95261156273E+02  0.90500215847E+02 0.  0.
         13    1    3    3    0    0  0.23345312514E+02 -0.53105155276E+02  0.22115693619E+02  0.62082817281E+02  0.10566000000E+00 0. -1.
         22    1    1    0    0    0 -0.12781635887E+02  0.26218992362E+02 -0.57959511550E+01  0.29738843727E+02  0.00000000000E+00 0. -1.
</event>
<event>
 5    1  0.1668518E-003  0.9118800E+02  0.7818608E-02  0.1130116E+00
         25   -1    0    0    0    0  0.00000000000E+00  0.00000000000E+00  0.99999998245E-14  0.12500000000E+03  0.12500000000E+03 0.  0.
        -13    1    3    3    0    0 -0.38090406089E+02  0.29191262243E+02 -0.25675829668E+02  0.54426723404E+02  0.10566000000E+00 0. -1.
         23    2    1    0    0    0 -0.30203701881E+02  0.65636367734E+01  0.53527958478E+01  0.93631267823E+02  0.88220275197E+02 0.  0.
         13    1    3    3    0    0  0.78867042083E+01 -0.22627625469E+02  0.31028625516E+02  0.39204544419E+02  0.10566000000E+00 0.  1.
         22    1    1    0    0    0  0.30203701881E+02 -0.65636367734E+01 -0.53527958478E+01  0.31368732177E+02  0.00000000000E+00 0. -1.
</event>
<event>
 5    1  0.1668518E-003  0.9118800E+02  0.7818608E-02  0.1130116E+00
         25   -1    0    0    0    0  0.00000000000E+00  0.00000000000E+00  0.99999998245E-14  0.12500000000E+03  0.12500000000E+03 0.  0.
        -13    1    3    3    0    0  0.21148531103E+02  0.10527617972E+02  0.57267993626E+02  0.61949377446E+02  0.10566000000E+00 0.  1.
         23    2    1    0    0    0  0.14914960110E+02  0.44153049891E+01  0.23570228260E+02  0.96759840414E+02  0.92547069665E+02 0.  0.
         13    1    3    3    0    0 -0.62335709930E+01 -0.61123129827E+01 -0.33697765366E+02  0.34810462968E+02  0.10566000000E+00 0. -1.
         22    1    1    0    0    0 -0.14914960110E+02 -0.44153049891E+01 -0.23570228260E+02  0.28240159586E+02  0.00000000000E+00 0.  1.
</event>
<event>
 5    1  0.1668518E-003  0.9118800E+02  0.7818608E-02  0.1130116E+00
         25   -1    0    0    0    0  0.00000000000E+00  0.00000000000E+00  0.99999998245E-14  0.12500000000E+03  0.12500000000E+03 0.  0.
        -13    1    3    3    0    0  0.45776404468E+02  0.27600601835E+02  0.25165841183E+02  0.59081326611E+02  0.10566000000E+00 0.  1.
         23    2    1    0    0    0  0.74812923082E+01  0.18273815394E+02  0.16092991171E+02  0.99526750728E+02  0.96211681630E+02 0.  0.
         13    1    3    3    0    0 -0.38295112160E+02 -0.93267864414E+01 -0.90728500119E+01  0.40445424117E+02  0.10566000000E+00 0. -1.
         22    1    1    0    0    0 -0.74812923082E+01 -0.18273815394E+02 -0.16092991171E+02  0.25473249272E+02  0.00000000000E+00 0. -1.
</event>
<event>
 5    1  0.1668518E-003  0.9118800E+02  0.7818608E-02  0.1130116E+00
         25   -1    0    0    0    0  0.00000000000E+00  0.00000000000E+00  0.99999998245E-14  0.12500000000E+03  0.12500000000E+03 0.  0.
        -13    1    3    3    0    0 -0.14297350478E+02 -0.40155884496E+02 -0.22229114062E+02  0.48073422661E+02  0.10566000000E+00 0.  1.
         23    2    1    0    0    0 -0.27097988559E+02  0.30408247004E+01 -0.15522245172E+02  0.93623453122E+02  0.88209201790E+02 0.  0.
         13    1    3    3    0    0 -0.12800638081E+02  0.43196709196E+02  0.67068688897E+01  0.45550030461E+02  0.10566000000E+00 0. -1.
         22    1    1    0    0    0  0.27097988559E+02 -0.30408247004E+01  0.15522245172E+02  0.31376546878E+02  0.00000000000E+00 0. -1.
</event>
<event>
 5    1  0.1668518E-003  0.9118800E+02  0.7818608E-02  0.1130116E+00
         25   -1    0    0    0    0  0.00000000000E+00  0.00000000000E+00  0.99999998245E-14  0.12500000000E+03  0.12500000000E+03 0.  0.
        -13    1    3    3    0    0 -0.34742542588E+02 -0.47722229245E+02 -0.11076596009E+02  0.60059616822E+02  0.10566000000E+00 0. -1.
         23    2    1    0    0    0 -0.21599159296E+02 -0.13392851212E+02 -0.12140774217E+02  0.96834586024E+02  0.92647970868E+02 0.  0.
         13    1    3    3    0    0  0.13143383292E+02  0.34329378033E+02 -0.10641782076E+01  0.36774969202E+02  0.10566000000E+00 0.  1.
         22    1    1    0    0    0  0.21599159296E+02  0.13392851212E+02  0.12140774217E+02  0.28165413976E+02  0.00000000000E+00 0. -1.
</event>
<event>
 5    1  0.1668518E-003  0.9118800E+02  0.7818608E-02  0.1130116E+00
         25   -1    0    0    0    0  0.00000000000E+00  0.00000000000E+00  0.99999998245E-14  0.12500000000E+03  0.12500000000E+03 0.  0.
        -13    1    3    3    0    0 -0.16824071240E+02 -0.23716419125E+01  0.41038562125E+02  0.44416762644E+02  0.10566000000E+00 0. -1.
         23    2    1    0    0    0  0.17829271952E+02 -0.21645056569E+02  0.85392435278E+01  0.95686008593E+02  0.91085136813E+02 0.  0.
         13    1    3    3    0    0  0.34653343191E+02 -0.19273414656E+02 -0.32499318597E+02  0.51269245949E+02  0.10566000000E+00 0.  1.
         22    1    1    0    0    0 -0.17829271952E+02  0.21645056569E+02 -0.85392435278E+01  0.29313991407E+02  0.00000000000E+00 0.  1.
</event>
<event>
 5    1  0.1668518E-003  0.9118800E+02  0.7818608E-02  0.1130116E+00
         25   -1    0    0    0    0  0.00000000000E+00  0.00000000000E+00  0.99999998245E-14  0.12500000000E+03  0.12500000000E+03 0.  0.
        -13    1    3    3    0    0  0.86337906867E+01  0.41711606554E+02 -0.90518140426E+00  0.42605527580E+02  0.10566000000E+00 0.  1.
         23    2    1    0    0    0  0.28260743086E+02  0.48816557902E+01  0.20729558687E+02  0.89613353275E+02  0.82330664511E+02 0.  0.
         13    1    3    3    0    0  0.19626952400E+02 -0.36829950764E+02  0.21634740092E+02  0.47007825696E+02  0.10566000000E+00 0. -1.
         22    1    1    0    0    0 -0.28260743086E+02 -0.48816557902E+01 -0.20729558687E+02  0.35386646725E+02  0.00000000000E+00 0. -1.
</event>
<event>
 5    1  0.1668518E-003  0.9118800E+02  0.7818608E-02  0.1130116E+00
         25   -1    0    0    0    0  0.00000000000E+00  0.00000000000E+00  0.99999998245E-14  0.12500000000E+03  0.12500000000E+03 0.  0.
        -13    1    3    3    0    0  0.47160899704E+02 -0.51396540980E+01 -0.23031889718E+02  0.52735619966E+02  0.10566000000E+00 0.  1.
         23    2    1    0    0    0  0.23107803693E+02 -0.14756906445E+02  0.10959594839E+02  0.95472900610E+02  0.90792208655E+02 0.  0.
         13    1    3    3    0    0 -0.24053096011E+02 -0.96172523472E+01  0.33991484557E+02  0.42737280644E+02  0.10566000000E+00 0. -1.
         22    1    1    0    0    0 -0.23107803693E+02  0.14756906445E+02 -0.10959594839E+02  0.29527099390E+02  0.00000000000E+00 0. -1.
</event>
<event>
 5    1  0.1668518E-003  0.9118800E+02  0.7818608E-02  0.1130116E+00
         25   -1    0    0    0    0  0.00000000000E+00  0.00000000000E+00  0.99999998245E-14  0.12500000000E+03  0.12500000000E+03 0.  0.
        -13    1    3    3    0    0 -0.31178365208E+02 -0.31765246139E+02  0.41347831902E+01  0.44701553836E+02  0.10566000000E+00 0. -1.
         23    2    1    0    0    0  0.15007852880E+02 -0.22769848217E+02 -0.13013709169E+02  0.94783146056E+02  0.89837556256E+02 0.  0.
         13    1    3    3    0    0  0.46186218088E+02  0.89953979219E+01 -0.17148492360E+02  0.50081592220E+02  0.10566000000E+00 0.  1.
         22    1    1    0    0    0 -0.15007852880E+02  0.22769848217E+02  0.13013709169E+02  0.30216853944E+02  0.00000000000E+00 0. -1.
</event>
<event>
 5    1  0.1668518E-003  0.9118800E+02  0.7818608E-02  0.1130116E+00
         25   -1    0    0    0    0  0.00000000000E+00  0.00000000000E+00  0.99999998245E-14  0.12500000000E+03  0.12500000000E+03 0.  0.
        -13    1    3    3    0    0  0.45756198613E+02  0.16149059293E+02  0.20683746141E+02  0.52747041111E+02  0.10566000000E+00 0.  1.
         23    2    1    0    0    0  0.24195172655E+02 -0.16078364846E+02  0.17518616076E+01  0.95896920867E+02  0.91374122249E+02 0.  0.
         13    1    3    3    0    0 -0.21561025958E+02 -0.32227424139E+02 -0.18931884533E+02  0.43149879756E+02  0.10566000000E+00 0. -1.
         22    1    1    0    0    0 -0.24195172655E+02  0.16078364846E+02 -0.17518616076E+01  0.29103079133E+02  0.00000000000E+00 0.  1.
</event>
<event>
 5    1  0.1668518E-003  0.9118800E+02  0.7818608E-02  0.1130116E+00
         25   -1    0    0    0    0  0.00000000000E+00  0.00000000000E+00  0.99999998245E-14  0.12500000000E+03  0.12500000000E+03 0.  0.
        -13    1    3    3    0    0 -0.47273322422E+01  0.29682372143E+02 -0.15099912956E+02  0.33636429975E+02  0.10566000000E+00 0.  1.
         23    2    1    0    0    0  0.32836864514E+02 -0.38359222463E+01 -0.23177407104E+02  0.84624683646E+02  0.74371842195E+02 0.  0.
         13    1    3    3    0    0  0.37564196756E+02 -0.33518294389E+02 -0.80774941480E+01  0.50988253671E+02  0.10566000000E+00 0. -1.
         22    1    1    0    0    0 -0.32836864514E+02  0.38359222463E+01  0.23177407104E+02  0.40375316354E+02  0.00000000000E+00 0. -1.
</event>
<event>
 5    1  0.1668518E-003  0.9118800E+02  0.7818608E-02  0.1130116E+00
         25   -1    0    0    0    0  0.00000000000E+00  0.00000000000E+00  0.99999998245E-14  0.12500000000E+03  0.12500000000E+03 0.  0.
        -13    1    3    3    0    0  0.30027098853E+02  0.39037401287E+02 -0.23764020939E+02  0.54683500436E+02  0.10566000000E+00 0. -1.
         23    2    1    0    0    0  0.51533580807E+01  0.29639707578E+02  0.57092937708E+01  0.94378677361E+02  0.89273004544E+02 0.  0.
         13    1    3    3    0    0 -0.24873740772E+02 -0.93976937090E+01  0.29473314710E+02  0.39695176925E+02  0.10566000000E+00 0.  1.
         22    1    1    0    0    0 -0.51533580807E+01 -0.29639707578E+02 -0.57092937708E+01  0.30621322639E+02  0.00000000000E+00 0. -1.
</event>
<event>
 5    1  0.1668518E-003  0.9118800E+02  0.7818608E-02  0.1130116E+00
         25   -1    0    0    0    0  0.00000000000E+00  0.00000000000E+00  0.99999998245E-14  0.12500000000E+03  0.12500000000E+03 0.  0.
        -13    1    3    3    0    0  0.35069498958E+02  0.93789178987E+01 -0.19552444442E+02  0.41232791632E+02  0.10566000000E+00 0. -1.
         23    2    1    0    0    0 -0.17555138054E+02  0.20195444146E+02 -0.12658071628E+02  0.95398216039E+02  0.90689326879E+02 0.  0.
         13    1    3    3    0    0 -0.52624637011E+02  0.10816526247E+02  0.68943728136E+01  0.54165424407E+02  0.10566000000E+00 0.  1.
         22    1    1    0    0    0  0.17555138054E+02 -0.20195444146E+02  0.12658071628E+02  0.29601783961E+02  0.00000000000E+00 0.  1.
</event>
<event>
 5    1  0.1668518E-003  0.9118800E+02  0.7818608E-02  0.1130116E+00
         25   -1    0    0    0    0  0.00000000000E+00  0.00000000000E+00  0.99999998245E-14  0.12500000000E+03  0.12500000000E+03 0.  0.
        -13    1    3    3    0    0 -0.24493028104E+01 -0.78058830781E+01  0.48201416652E+02  0.48890884898E+02  0.10566000000E+00 0. -1.
         23    2    1    0    0    0 -0.20747033952E+02 -0.20332254240E+02  0.78904460258E+01  0.94898519659E+02  0.89997943947E+02 0.  0.
         13    1    3    3    0    0 -0.18297731141E+02 -0.12526371161E+02 -0.40310970626E+02  0.46007634760E+02  0.10566000000E+00 0.  1.
         22    1    1    0    0    0  0.20747033952E+02  0.20332254240E+02 -0.78904460258E+01  0.30101480341E+02  0.00000000000E+00 0. -1.
</event>
<event>
 5    1  0.1668518E-003  0.9118800E+02  0.7818608E-02  0.1130116E+00
         25   -1    0    0    0    0  0.00000000000E+00  0.00000000000E+00  0.99999998245E-14  0.12500000000E+03  0.12500000000E+03 0.  0.
        -13    1    3    3    0    0 -0.13125520752E+02 -0.15405503004E+02  0.39392905744E+02  0.44287932948E+02  0.10566000000E+00 0. -1.
         23    2    1    0    0    0  0.14202390551E+02  0.20459288334E+02  0.97241814554E+01  0.98263319550E+02  0.94555961671E+02 0.  0.
         13    1    3    3    0    0  0.27327911303E+02  0.35864791338E+02 -0.29668724289E+02  0.53975386602E+02  0.10566000000E+00 0.  1.
         22    1    1    0    0    0 -0.14202390551E+02 -0.20459288334E+02 -0.97241814554E+01  0.26736680450E+02  0.00000000000E+00 0. -1.
</event>
<event>
 5    1  0.1668518E-003  0.9118800E+02  0.7818608E-02  0.1130116E+00
         25   -1    0    0    0    0  0.00000000000E+00  0.00000000000E+00  0.99999998245E-14  0.12500000000E+03  0.12500000000E+03 0.  0.
        -13    1    3    3    0    0  0.23230840345E+02  0.20820995969E+02  0.10054673650E+01  0.31212304383E+02  0.10566000000E+00 0.  1.
         23    2    1    0    0    0 -0.31422980780E+02  0.12021068720E+00 -0.12477181686E+02  0.91190264205E+02  0.84691003366E+02 0.  0.
         13    1    3    3    0    0 -0.54653821125E+02 -0.20700785281E+02 -0.13482649051E+02  0.59977959821E+02  0.10566000000E+00 0. -1.
         22    1    1    0    0    0  0.31422980780E+02 -0.12021068720E+00  0.12477181686E+02  0.33809735795E+02  0.00000000000E+00 0. -1.
</event>
<event>
 5    1  0.1668518E-003  0.9118800E+02  0.7818608E-02  0.1130116E+00
         25   -1    0    0    0    0  0.00000000000E+00  0.00000000000E+00  0.99999998245E-14  0.12500000000E+03  0.12500000000E+03 0.  0.
        -13    1    3    3    0    0 -0.59431287886E+02 -0.11204935521E+02 -0.14437919604E+02  0.62177916066E+02  0.10566000000E+00 0. -1.
         23    2    1    0    0    0 -0.26783054407E+02 -0.52622698817E+01 -0.11114406102E+02  0.95528768083E+02  0.90869092770E+02 0.  0.
         13    1    3    3    0    0  0.32648233479E+02  0.59426656395E+01  0.33235135011E+01  0.33350852017E+02  0.10566000000E+00 0.  1.
         22    1    1    0    0    0  0.26783054407E+02  0.52622698817E+01  0.11114406102E+02  0.29471231917E+02  0.00000000000E+00 0. -1.
</event>
<event>
 5    1  0.1668518E-003  0.9118800E+02  0.7818608E-02  0.1130116E+00
         25   -1    0    0    0    0  0.00000000000E+00  0.00000000000E+00  0.99999998245E-14  0.12500000000E+03  0.12500000000E+03 0.  0.
        -13    1    3    3    0    0  0.25003666039E+01 -0.54012325665E+02 -0.30098245008E+02  0.61882943316E+02  0.10566000000E+00 0.  1.
         23    2    1    0    0    0  0.69756311284E+01 -0.26118288293E+02 -0.12085678474E+02  0.95387704628E+02  0.90674837508E+02 0.  0.
         13    1    3    3    0    0  0.44752645245E+01  0.27894037372E+02  0.18012566533E+02  0.33504761312E+02  0.10566000000E+00 0. -1.
         22    1    1    0    0    0 -0.69756311284E+01  0.26118288293E+02  0.12085678474E+02  0.29612295372E+02  0.00000000000E+00 0.  1.
</event>
<event>
 5    1  0.1668518E-003  0.9118800E+02  0.7818608E-02  0.1130116E+00
         25   -1    0    0    0    0  0.00000000000E+00  0.00000000000E+00  0.99999998245E-14  0.12500000000E+03  0.12500000000E+03 0.  0.
        -13    1    3    3    0    0 -0.32687895524E+02 -0.10151173923E+01  0.75491942619E+01  0.33563826885E+02  0.10566000000E+00 0.  1.
         23    2    1    0    0    0  0.24723412787E+02  0.13004880520E+02  0.15268759140E+02  0.93164342902E+02  0.87556186106E+02 0.  0.
         13    1    3    3    0    0  0.57411308312E+02  0.14019997913E+02  0.77195648779E+01  0.59600516017E+02  0.10566000000E+00 0. -1.
         22    1    1    0    0    0 -0.24723412787E+02 -0.13004880520E+02 -0.15268759140E+02  0.31835657098E+02  0.00000000000E+00 0. -1.
</event>
<event>
 5    1  0.1668518E-003  0.9118800E+02  0.7818608E-02  0.1130116E+00
         25   -1    0    0    0    0  0.00000000000E+00  0.00000000000E+00  0.99999998245E-14  0.12500000000E+03  0.12500000000E+03 0.  0.
        -13    1    3    3    0    0  0.35054327088E+01  0.59959055179E+02 -0.61027859017E+01  0.60370783631E+02  0.10566000000E+00 0. -1.
         23    2    1    0    0    0  0.93033707969E+01  0.26430577286E+02 -0.11291337542E+02  0.94790358702E+02  0.89847591373E+02 0.  0.
         13    1    3    3    0    0  0.57979380881E+01 -0.33528477893E+02 -0.51885516402E+01  0.34419575071E+02  0.10566000000E+00 0.  1.
         22    1    1    0    0    0 -0.93033707969E+01 -0.26430577286E+02  0.11291337542E+02  0.30209641298E+02  0.00000000000E+00 0. -1.
</event>
<event>
 5    1  0.1668518E-003  0.9118800E+02  0.7818608E-02  0.1130116E+00
         25   -1    0    0    0    0  0.00000000000E+00  0.00000000000E+00  0.99999998245E-14  0.12500000000E+03  0.12500000000E+03 0.  0.
        -13    1    3    3    0    0 -0.68083009875E+01 -0.12527198315E+02  0.38327306246E+02  0.40893486377E+02  0.10566000000E+00 0.  1.
         23    2    1    0    0    0  0.19381983099E+02 -0.19973234487E+02 -0.92165045555E+01  0.95682167186E+02  0.91079864934E+02 0.  0.
         13    1    3    3    0    0  0.26190284086E+02 -0.74460361720E+01 -0.47543810801E+02  0.54788680809E+02  0.10566000000E+00 0. -1.
         22    1    1    0    0    0 -0.19381983099E+02  0.19973234487E+02  0.92165045555E+01  0.29317832814E+02  0.00000000000E+00 0. -1.
</event>
<event>
 5    1  0.1668518E-003  0.9118800E+02  0.7818608E-02  0.1130116E+00
         25   -1    0    0    0    0  0.00000000000E+00  0.00000000000E+00  0.99999998245E-14  0.12500000000E+03  0.12500000000E+03 0.  0.
        -13    1    3    3    0    0 -0.23042409766E+02 -0.21352664489E+02  0.14781019259E+02  0.34718563089E+02  0.10566000000E+00 0.  1.
         23    2    1    0    0    0  0.24612695102E+02  0.53190502465E+01 -0.13724448667E+02  0.96321828041E+02  0.91953558986E+02 0.  0.
         13    1    3    3    0    0  0.47655104868E+02  0.26671714735E+02 -0.28505467927E+02  0.61603264951E+02  0.10566000000E+00 0. -1.
         22    1    1    0    0    0 -0.24612695102E+02 -0.53190502465E+01  0.13724448667E+02  0.28678171959E+02  0.00000000000E+00 0. -1.
</event>
<event>
 5    1  0.1668518E-003  0.9118800E+02  0.7818608E-02  0.1130116E+00
         25   -1    0    0    0    0  0.00000000000E+00  0.00000000000E+00  0.99999998245E-14  0.12500000000E+03  0.12500000000E+03 0.  0.
        -13    1    3    3    0    0  0.21764951147E+02  0.23954091973E+02 -0.43675139242E+02  0.54360284883E+02  0.10566000000E+00 0. -1.
         23    2    1    0    0    0 -0.10069601778E+02  0.19224172748E+02 -0.26188444476E+02  0.90988232596E+02  0.84392287261E+02 0.  0.
         13    1    3    3    0    0 -0.31834552926E+02 -0.47299192247E+01  0.17486694766E+02  0.36627947714E+02  0.10566000000E+00 0.  1.
         22    1    1    0    0    0  0.10069601778E+02 -0.19224172748E+02  0.26188444476E+02  0.34011767404E+02  0.00000000000E+00 0. -1.
</event>
<event>
 5    1  0.1668518E-003  0.9118800E+02  0.7818608E-02  0.1130116E+00
         25   -1    0    0    0    0  0.00000000000E+00  0.00000000000E+00  0.99999998245E-14  0.12500000000E+03  0.12500000000E+03 0.  0.
        -13    1    3    3    0    0  0.14034520271E+02 -0.30084614905E+01  0.20611107020E+02  0.25116677654E+02  0.10566000000E+00 0. -1.
         23    2    1    0    0    0 -0.37841389011E+02  0.17644193509E+02  0.61320080941E+01  0.82799409837E+02  0.71237998703E+02 0.  0.
         13    1    3    3    0    0 -0.51875909282E+02  0.20652654999E+02 -0.14479098926E+02  0.57682732183E+02  0.10566000000E+00 0.  1.
         22    1    1    0    0    0  0.37841389011E+02 -0.17644193509E+02 -0.61320080941E+01  0.42200590163E+02  0.00000000000E+00 0.  1.
</event>
<event>
 5    1  0.1668518E-003  0.9118800E+02  0.7818608E-02  0.1130116E+00
         25   -1    0    0    0    0  0.00000000000E+00  0.00000000000E+00  0.99999998245E-14  0.12500000000E+03  0.12500000000E+03 0.  0.
        -13    1    3    3    0    0 -0.35251414767E+02 -0.43531179304E+02  0.60853973696E+01  0.56344201475E+02  0.10566000000E+00 0. -1.
         23    2    1    0    0    0 -0.21078534992E+02 -0.13265213283E+02 -0.15063172153E+02  0.95893820653E+02  0.91369881051E+02 0.  0.
         13    1    3    3    0    0  0.14172879775E+02  0.30265966020E+02 -0.21148569522E+02  0.39549619178E+02  0.10566000000E+00 0.  1.
         22    1    1    0    0    0  0.21078534992E+02  0.13265213283E+02  0.15063172153E+02  0.29106179347E+02  0.00000000000E+00 0. -1.
</event>
<event>
 5    1  0.1668518E-003  0.9118800E+02  0.7818608E-02  0.1130116E+00
         25   -1    0    0    0    0  0.00000000000E+00  0.00000000000E+00  0.99999998245E-14  0.12500000000E+03  0.12500000000E+03 0.  0.
        -13    1    3    3    0    0 -0.23213881739E+02  0.18130191801E+02 -0.41974113089E+02  0.51277924039E+02  0.10566000000E+00 0. -1.
         23    2    1    0    0    0 -0.18300366764E+02  0.22534530826E+02  0.21483297776E+01  0.95891172746E+02  0.91366258469E+02 0.  0.
         13    1    3    3    0    0  0.49135149748E+01  0.44043390258E+01  0.44122442867E+02  0.44613248707E+02  0.10566000000E+00 0.  1.
         22    1    1    0    0    0  0.18300366764E+02 -0.22534530826E+02 -0.21483297776E+01  0.29108827254E+02  0.00000000000E+00 0.  1.
</event>
<event>
 5    1  0.1668518E-003  0.9118800E+02  0.7818608E-02  0.1130116E+00
         25   -1    0    0    0    0  0.00000000000E+00  0.00000000000E+00  0.99999998245E-14  0.12500000000E+03  0.12500000000E+03 0.  0.
        -13    1    3    3    0    0  0.50958603093E+02 -0.21169937400E+02 -0.23167182125E+02  0.59847096591E+02  0.10566000000E+00 0.  1.
         23    2    1    0    0    0  0.14502050787E+02 -0.10893127446E+02 -0.20217183782E+02  0.97839288988E+02  0.93993735148E+02 0.  0.
         13    1    3    3    0    0 -0.36456552306E+02  0.10276809954E+02  0.29499983427E+01  0.37992192397E+02  0.10566000000E+00 0. -1.
         22    1    1    0    0    0 -0.14502050787E+02  0.10893127446E+02  0.20217183782E+02  0.27160711012E+02  0.00000000000E+00 0.  1.
</event>
<event>
 5    1  0.1668518E-003  0.9118800E+02  0.7818608E-02  0.1130116E+00
         25   -1    0    0    0    0  0.00000000000E+00  0.00000000000E+00  0.99999998245E-14  0.12500000000E+03  0.12500000000E+03 0.  0.
        -13    1    3    3    0    0 -0.33480373842E+02  0.10946505763E+02  0.34850274134E+02  0.49551127053E+02  0.10566000000E+00 0.  1.
         23    2    1    0    0    0 -0.13037585964E+02 -0.23449774756E+02  0.12250372926E+02  0.95505217060E+02  0.90836690081E+02 0.  0.
         13    1    3    3    0    0  0.20442787877E+02 -0.34396280518E+02 -0.22599901208E+02  0.45954090007E+02  0.10566000000E+00 0. -1.
         22    1    1    0    0    0  0.13037585964E+02  0.23449774756E+02 -0.12250372926E+02  0.29494782940E+02  0.00000000000E+00 0.  1.
</event>
<event>
 5    1  0.1668518E-003  0.9118800E+02  0.7818608E-02  0.1130116E+00
         25   -1    0    0    0    0  0.00000000000E+00  0.00000000000E+00  0.99999998245E-14  0.12500000000E+03  0.12500000000E+03 0.  0.
        -13    1    3    3    0    0  0.13166337773E+02  0.43228460709E+02 -0.37439188401E+02  0.58683526290E+02  0.10566000000E+00 0. -1.
         23    2    1    0    0    0  0.17377533938E+02  0.22681161695E+02 -0.71155592790E+01  0.95554372728E+02  0.90904307829E+02 0.  0.
         13    1    3    3    0    0  0.42111961648E+01 -0.20547299014E+02  0.30323629122E+02  0.36870846438E+02  0.10566000000E+00 0.  1.
         22    1    1    0    0    0 -0.17377533938E+02 -0.22681161695E+02  0.71155592790E+01  0.29445627272E+02  0.00000000000E+00 0. -1.
</event>
<event>
 5    1  0.1668518E-003  0.9118800E+02  0.7818608E-02  0.1130116E+00
         25   -1    0    0    0    0  0.00000000000E+00  0.00000000000E+00  0.99999998245E-14  0.12500000000E+03  0.12500000000E+03 0.  0.
        -13    1    3    3    0    0  0.19940419065E+02 -0.29389091321E+02  0.22564983361E+02  0.42077650116E+02  0.10566000000E+00 0. -1.
         23    2    1    0    0    0 -0.24063302227E+02 -0.17245180780E+02 -0.43607582672E+01  0.95075846096E+02  0.90243900204E+02 0.  0.
         13    1    3    3    0    0 -0.44003721293E+02  0.12143910540E+02 -0.26925741629E+02  0.52998195980E+02  0.10566000000E+00 0.  1.
         22    1    1    0    0    0  0.24063302227E+02  0.17245180780E+02  0.43607582672E+01  0.29924153904E+02  0.00000000000E+00 0.  1.
</event>
<event>
 5    1  0.1668518E-003  0.9118800E+02  0.7818608E-02  0.1130116E+00
         25   -1    0    0    0    0  0.00000000000E+00  0.00000000000E+00  0.99999998245E-14  0.12500000000E+03  0.12500000000E+03 0.  0.
        -13    1    3    3    0    0  0.20140807377E+02  0.48851538716E+01  0.16262558649E+02  0.26343857501E+02  0.10566000000E+00 0.  1.
         23    2    1    0    0    0 -0.23606938262E+02 -0.16592174353E+02  0.35947125879E+02  0.78904624496E+02  0.64040269551E+02 0.  0.
         13    1    3    3    0    0 -0.43747745639E+02 -0.21477328225E+02  0.19684567230E+02  0.52560766996E+02  0.10566000000E+00 0. -1.
         22    1    1    0    0    0  0.23606938262E+02  0.16592174353E+02 -0.35947125879E+02  0.46095375504E+02  0.00000000000E+00 0. -1.
</event>
<event>
 5    1  0.1668518E-003  0.9118800E+02  0.7818608E-02  0.1130116E+00
         25   -1    0    0    0    0  0.00000000000E+00  0.00000000000E+00  0.99999998245E-14  0.12500000000E+03  0.12500000000E+03 0.  0.
        -13    1    3    3    0    0  0.10220657849E+02 -0.18649345853E+02  0.41663496684E+02  0.46777324289E+02  0.10566000000E+00 0.  1.
         23    2    1    0    0    0  0.31251840163E+02 -0.11487634915E+02  0.27452635307E+01  0.91590723723E+02  0.85280014838E+02 0.  0.
         13    1    3    3    0    0  0.21031182313E+02  0.71617109371E+01 -0.38918233154E+02  0.44813399435E+02  0.10566000000E+00 0. -1.
         22    1    1    0    0    0 -0.31251840163E+02  0.11487634915E+02 -0.27452635307E+01  0.33409276277E+02  0.00000000000E+00 0. -1.
</event>
<event>
 5    1  0.1668518E-003  0.9118800E+02  0.7818608E-02  0.1130116E+00
         25   -1    0    0    0    0  0.00000000000E+00  0.00000000000E+00  0.99999998245E-14  0.12500000000E+03  0.12500000000E+03 0.  0.
        -13    1    3    3    0    0 -0.54341492997E+02  0.15388309650E+00 -0.72750326105E+01  0.54826624961E+02  0.10566000000E+00 0. -1.
         23    2    1    0    0    0 -0.21565115376E+02 -0.16761816080E+02  0.10459098975E+02  0.95752685066E+02  0.91176593852E+02 0.  0.
         13    1    3    3    0    0  0.32776377621E+02 -0.16915699177E+02  0.17734131585E+02  0.40926060105E+02  0.10566000000E+00 0.  1.
         22    1    1    0    0    0  0.21565115376E+02  0.16761816080E+02 -0.10459098975E+02  0.29247314934E+02  0.00000000000E+00 0. -1.
</event>
<event>
 5    1  0.1668518E-003  0.9118800E+02  0.7818608E-02  0.1130116E+00
         25   -1    0    0    0    0  0.00000000000E+00  0.00000000000E+00  0.99999998245E-14  0.12500000000E+03  0.12500000000E+03 0.  0.
        -13    1    3    3    0    0 -0.13753207698E+02  0.24218327048E+02 -0.17456770353E+02  0.32869865868E+02  0.10566000000E+00 0.  1.
         23    2    1    0    0    0  0.14869578122E+02 -0.24384718520E+02  0.88382250648E+01  0.95102958790E+02  0.90281447139E+02 0.  0.
         13    1    3    3    0    0  0.28622785820E+02 -0.48603045568E+02  0.26294995418E+02  0.62233092922E+02  0.10566000000E+00 0. -1.
         22    1    1    0    0    0 -0.14869578122E+02  0.24384718520E+02 -0.88382250648E+01  0.29897041210E+02  0.00000000000E+00 0. -1.
</event>
<event>
 5    1  0.1668518E-003  0.9118800E+02  0.7818608E-02  0.1130116E+00
         25   -1    0    0    0    0  0.00000000000E+00  0.00000000000E+00  0.99999998245E-14  0.12500000000E+03  0.12500000000E+03 0.  0.
        -13    1    3    3    0    0  0.42860085426E+02 -0.36484441733E+02  0.16497805174E+02  0.58653986658E+02  0.10566000000E+00 0.  1.
         23    2    1    0    0    0  0.25312002980E+02 -0.42577029666E+01  0.14762751498E+02  0.95389792956E+02  0.90677716331E+02 0.  0.
         13    1    3    3    0    0 -0.17548082446E+02  0.32226738767E+02 -0.17350536768E+01  0.36735806298E+02  0.10566000000E+00 0. -1.
         22    1    1    0    0    0 -0.25312002980E+02  0.42577029666E+01 -0.14762751498E+02  0.29610207044E+02  0.00000000000E+00 0.  1.
</event>
<event>
 5    1  0.1668518E-003  0.9118800E+02  0.7818608E-02  0.1130116E+00
         25   -1    0    0    0    0  0.00000000000E+00  0.00000000000E+00  0.99999998245E-14  0.12500000000E+03  0.12500000000E+03 0.  0.
        -13    1    3    3    0    0 -0.18477068870E+02  0.31318279648E+02  0.23313980021E+02  0.43194786059E+02  0.10566000000E+00 0. -1.
         23    2    1    0    0    0 -0.18697176771E+02  0.31022728123E+01 -0.21616820417E+02  0.96251166271E+02  0.91857452435E+02 0.  0.
         13    1    3    3    0    0 -0.22010790097E+00 -0.28216006836E+02 -0.44930800438E+02  0.53056380213E+02  0.10566000000E+00 0.  1.
         22    1    1    0    0    0  0.18697176771E+02 -0.31022728123E+01  0.21616820417E+02  0.28748833729E+02  0.00000000000E+00 0.  1.
</event>
<event>
 5    1  0.1668518E-003  0.9118800E+02  0.7818608E-02  0.1130116E+00
         25   -1    0    0    0    0  0.00000000000E+00  0.00000000000E+00  0.99999998245E-14  0.12500000000E+03  0.12500000000E+03 0.  0.
        -13    1    3    3    0    0  0.15285021805E+02  0.33409258454E+01 -0.51315923217E+02  0.53648194907E+02  0.10566000000E+00 0.  1.
         23    2    1    0    0    0  0.13114881327E+02  0.21370576423E+02 -0.11490600328E+02  0.97418565215E+02  0.93432549488E+02 0.  0.
         13    1    3    3    0    0 -0.21701404783E+01  0.18029650578E+02  0.39825322889E+02  0.43770370308E+02  0.10566000000E+00 0. -1.
         22    1    1    0    0    0 -0.13114881327E+02 -0.21370576423E+02  0.11490600328E+02  0.27581434785E+02  0.00000000000E+00 0.  1.
</event>
<event>
 5    1  0.1668518E-003  0.9118800E+02  0.7818608E-02  0.1130116E+00
         25   -1    0    0    0    0  0.00000000000E+00  0.00000000000E+00  0.99999998245E-14  0.12500000000E+03  0.12500000000E+03 0.  0.
        -13    1    3    3    0    0 -0.17383245042E+02  0.52229832659E+02  0.24992252801E+02  0.60454582059E+02  0.10566000000E+00 0.  1.
         23    2    1    0    0    0 -0.15276284362E+02  0.16635614601E+02  0.33446222056E+01  0.10216811364E+03  0.99584277925E+02 0.  0.
         13    1    3    3    0    0  0.21069606793E+01 -0.35594218059E+02 -0.21647630595E+02  0.41713531581E+02  0.10566000000E+00 0. -1.
         22    1    1    0    0    0  0.15276284362E+02 -0.16635614601E+02 -0.33446222056E+01  0.22831886360E+02  0.00000000000E+00 0.  1.
</event>
<event>
 5    1  0.1668518E-003  0.9118800E+02  0.7818608E-02  0.1130116E+00
         25   -1    0    0    0    0  0.00000000000E+00  0.00000000000E+00  0.99999998245E-14  0.12500000000E+03  0.12500000000E+03 0.  0.
        -13    1    3    3    0    0 -0.10599387831E+02 -0.13523260947E+02 -0.32129107205E+02  0.36435097130E+02  0.10566000000E+00 0.  1.
         23    2    1    0    0    0  0.11006149264E+02  0.26178201483E+02  0.64713089836E+01  0.95874214269E+02  0.91343054291E+02 0.  0.
         13    1    3    3    0    0  0.21605537095E+02  0.39701462430E+02  0.38600416189E+02  0.59439117139E+02  0.10566000000E+00 0. -1.
         22    1    1    0    0    0 -0.11006149264E+02 -0.26178201483E+02 -0.64713089836E+01  0.29125785731E+02  0.00000000000E+00 0. -1.
</event>
<event>
 5    1  0.1668518E-003  0.9118800E+02  0.7818608E-02  0.1130116E+00
         25   -1    0    0    0    0  0.00000000000E+00  0.00000000000E+00  0.99999998245E-14  0.12500000000E+03  0.12500000000E+03 0.  0.
        -13    1    3    3    0    0  0.25543730510E+02 -0.36617956019E+02  0.32640828706E+02  0.55306344428E+02  0.10566000000E+00 0. -1.
         23    2    1    0    0    0  0.26087076646E+02 -0.11680330570E+01  0.14465485081E+02  0.95147862258E+02  0.90343597252E+02 0.  0.
         13    1    3    3    0    0  0.54334613632E+00  0.35449922962E+02 -0.18175343625E+02  0.39841517829E+02  0.10566000000E+00 0.  1.
         22    1    1    0    0    0 -0.26087076646E+02  0.11680330570E+01 -0.14465485081E+02  0.29852137742E+02  0.00000000000E+00 0. -1.
</event>
<event>
 5    1  0.1668518E-003  0.9118800E+02  0.7818608E-02  0.1130116E+00
         25   -1    0    0    0    0  0.00000000000E+00  0.00000000000E+00  0.99999998245E-14  0.12500000000E+03  0.12500000000E+03 0.  0.
        -13    1    3    3    0    0  0.46793695960E+02 -0.33995105445E+02 -0.21887411532E+02  0.61841629372E+02  0.10566000000E+00 0.  1.
         23    2    1    0    0    0  0.18791849139E+02 -0.20254048528E+02 -0.14053771634E+02  0.94002119863E+02  0.88744182715E+02 0.  0.
         13    1    3    3    0    0 -0.28001846820E+02  0.13741056917E+02  0.78336398983E+01  0.32160490491E+02  0.10566000000E+00 0. -1.
         22    1    1    0    0    0 -0.18791849139E+02  0.20254048528E+02  0.14053771634E+02  0.30997880137E+02  0.00000000000E+00 0.  1.
</event>
<event>
 5    1  0.1668518E-003  0.9118800E+02  0.7818608E-02  0.1130116E+00
         25   -1    0    0    0    0  0.00000000000E+00  0.00000000000E+00  0.99999998245E-14  0.12500000000E+03  0.12500000000E+03 0.  0.
        -13    1    3    3    0    0  0.36550981957E+02  0.52682885608E+01  0.49490463963E+02  0.61749869099E+02  0.10566000000E+00 0. -1.
         23    2    1    0    0    0  0.21627041093E+02  0.58926834371E+01  0.19353307598E+02  0.95385761203E+02  0.90672158355E+02 0.  0.
         13    1    3    3    0    0 -0.14923940863E+02  0.62439487629E+00 -0.30137156365E+02  0.33635892104E+02  0.10566000000E+00 0.  1.
         22    1    1    0    0    0 -0.21627041093E+02 -0.58926834371E+01 -0.19353307598E+02  0.29614238797E+02  0.00000000000E+00 0. -1.
</event>
<event>
 5    1  0.1668518E-003  0.9118800E+02  0.7818608E-02  0.1130116E+00
         25   -1    0    0    0    0  0.00000000000E+00  0.00000000000E+00  0.99999998245E-14  0.12500000000E+03  0.12500000000E+03 0.  0.
        -13    1    3    3    0    0  0.62790992960E+00 -0.79779891501E+01  0.54256603053E+02  0.54843711770E+02  0.10566000000E+00 0.  1.
         23    2    1    0    0    0  0.20603242293E+02  0.40673129113E+01  0.22849739015E+02  0.93965387060E+02  0.88692427890E+02 0.  0.
         13    1    3    3    0    0  0.19975332363E+02  0.12045302061E+02 -0.31406864038E+02  0.39121675290E+02  0.10566000000E+00 0. -1.
         22    1    1    0    0    0 -0.20603242293E+02 -0.40673129113E+01 -0.22849739015E+02  0.31034612940E+02  0.00000000000E+00 0. -1.
</event>
<event>
 5    1  0.1668518E-003  0.9118800E+02  0.7818608E-02  0.1130116E+00
         25   -1    0    0    0    0  0.00000000000E+00  0.00000000000E+00  0.99999998245E-14  0.12500000000E+03  0.12500000000E+03 0.  0.
        -13    1    3    3    0    0  0.32614259530E+02  0.30689531572E+02  0.56200957402E+01  0.45134619894E+02  0.10566000000E+00 0.  1.
         23    2    1    0    0    0 -0.15289858751E+02  0.24103486753E+02 -0.79724263564E+01  0.95363579226E+02  0.90641573279E+02 0.  0.
         13    1    3    3    0    0 -0.47904118281E+02 -0.65860448189E+01 -0.13592522097E+02  0.50228959332E+02  0.10566000000E+00 0. -1.
         22    1    1    0    0    0  0.15289858751E+02 -0.24103486753E+02  0.79724263564E+01  0.29636420774E+02  0.00000000000E+00 0. -1.
</event>
<event>
 5    1  0.1668518E-003  0.9118800E+02  0.7818608E-02  0.1130116E+00
         25   -1    0    0    0    0  0.00000000000E+00  0.00000000000E+00  0.99999998245E-14  0.12500000000E+03  0.12500000000E+03 0.  0.
        -13    1    3    3    0    0 -0.53172825318E+01 -0.15100092550E+02 -0.39147629844E+02  0.42294614019E+02  0.10566000000E+00 0. -1.
         23    2    1    0    0    0 -0.28903873760E+02 -0.25505836461E+02 -0.34923167600E+01  0.86293697047E+02  0.77126028433E+02 0.  0.
         13    1    3    3    0    0 -0.23586591228E+02 -0.10405743911E+02  0.35655313084E+02  0.43999083028E+02  0.10566000000E+00 0.  1.
         22    1    1    0    0    0  0.28903873760E+02  0.25505836461E+02  0.34923167600E+01  0.38706302953E+02  0.00000000000E+00 0. -1.
</event>
<event>
 5    1  0.1668518E-003  0.9118800E+02  0.7818608E-02  0.1130116E+00
         25   -1    0    0    0    0  0.00000000000E+00  0.00000000000E+00  0.99999998245E-14  0.12500000000E+03  0.12500000000E+03 0.  0.
        -13    1    3    3    0    0 -0.16104778669E+02 -0.22548673159E+02 -0.43784846044E+02  0.51816314654E+02  0.10566000000E+00 0. -1.
         23    2    1    0    0    0  0.18618721655E+02 -0.12610812259E+02 -0.18044203361E+02  0.96168027177E+02  0.91744246655E+02 0.  0.
         13    1    3    3    0    0  0.34723500324E+02  0.99378608992E+01  0.25740642683E+02  0.44351712524E+02  0.10566000000E+00 0.  1.
         22    1    1    0    0    0 -0.18618721655E+02  0.12610812259E+02  0.18044203361E+02  0.28831972823E+02  0.00000000000E+00 0. -1.
</event>
<event>
 5    1  0.1668518E-003  0.9118800E+02  0.7818608E-02  0.1130116E+00
         25   -1    0    0    0    0  0.00000000000E+00  0.00000000000E+00  0.99999998245E-14  0.12500000000E+03  0.12500000000E+03 0.  0.
        -13    1    3    3    0    0 -0.29598421402E+01 -0.59663942413E+01 -0.41078527604E+02  0.41615082841E+02  0.10566000000E+00 0. -1.
         23    2    1    0    0    0 -0.13448115990E+02 -0.25218203354E+02  0.79609237704E+01  0.95332072682E+02  0.90598113504E+02 0.  0.
         13    1    3    3    0    0 -0.10488273850E+02 -0.19251809112E+02  0.49039451374E+02  0.53716989841E+02  0.10566000000E+00 0.  1.
         22    1    1    0    0    0  0.13448115990E+02  0.25218203354E+02 -0.79609237704E+01  0.29667927318E+02  0.00000000000E+00 0.  1.
</event>
<event>
 5    1  0.1668518E-003  0.9118800E+02  0.7818608E-02  0.1130116E+00
         25   -1    0    0    0    0  0.00000000000E+00  0.00000000000E+00  0.99999998245E-14  0.12500000000E+03  0.12500000000E+03 0.  0.
        -13    1    3    3    0    0  0.30956756742E+02 -0.21244673837E+02  0.13983658735E+02  0.40065082430E+02  0.10566000000E+00 0. -1.
         23    2    1    0    0    0  0.12392447018E+02  0.20784787390E+02 -0.16950614637E+02  0.95455060221E+02  0.90767643217E+02 0.  0.
         13    1    3    3    0    0 -0.18564309724E+02  0.42029461228E+02 -0.30934273372E+02  0.55389977791E+02  0.10566000000E+00 0.  1.
         22    1    1    0    0    0 -0.12392447018E+02 -0.20784787390E+02  0.16950614637E+02  0.29544939779E+02  0.00000000000E+00 0.  1.
</event>
<event>
 5    1  0.1668518E-003  0.9118800E+02  0.7818608E-02  0.1130116E+00
         25   -1    0    0    0    0  0.00000000000E+00  0.00000000000E+00  0.99999998245E-14  0.12500000000E+03  0.12500000000E+03 0.  0.
        -13    1    3    3    0    0  0.19527114727E+02  0.46332062196E+01 -0.31614545648E+02  0.37446835246E+02  0.10566000000E+00 0. -1.
         23    2    1    0    0    0  0.17293220777E+02 -0.51467090445E+01  0.24568154950E+02  0.94518229440E+02  0.89468191890E+02 0.  0.
         13    1    3    3    0    0 -0.22338939498E+01 -0.97799152642E+01  0.56182700598E+02  0.57071394194E+02  0.10566000000E+00 0.  1.
         22    1    1    0    0    0 -0.17293220777E+02  0.51467090445E+01 -0.24568154950E+02  0.30481770560E+02  0.00000000000E+00 0.  1.
</event>
<event>
 5    1  0.1668518E-003  0.9118800E+02  0.7818608E-02  0.1130116E+00
         25   -1    0    0    0    0  0.00000000000E+00  0.00000000000E+00  0.99999998245E-14  0.12500000000E+03  0.12500000000E+03 0.  0.
        -13    1    3    3    0    0  0.15905306344E+01  0.56407290525E+02  0.63359193134E+01  0.56784392659E+02  0.10566000000E+00 0.  1.
         23    2    1    0    0    0  0.13272248235E+02  0.23996831687E+02 -0.11123183668E+02  0.95407336735E+02  0.90701897355E+02 0.  0.
         13    1    3    3    0    0  0.11681717601E+02 -0.32410458838E+02 -0.17459102981E+02  0.38622944076E+02  0.10566000000E+00 0. -1.
         22    1    1    0    0    0 -0.13272248235E+02 -0.23996831687E+02  0.11123183668E+02  0.29592663265E+02  0.00000000000E+00 0.  1.
</event>
<event>
 5    1  0.1668518E-003  0.9118800E+02  0.7818608E-02  0.1130116E+00
         25   -1    0    0    0    0  0.00000000000E+00  0.00000000000E+00  0.99999998245E-14  0.12500000000E+03  0.12500000000E+03 0.  0.
        -13    1    3    3    0    0  0.54564716914E+01  0.11345066204E+02 -0.35950108403E+02  0.38090747810E+02  0.10566000000E+00 0. -1.
         23    2    1    0    0    0 -0.14706207317E+02  0.15387131535E+02  0.18816296938E+02  0.96590681441E+02  0.92318309995E+02 0.  0.
         13    1    3    3    0    0 -0.20162679008E+02  0.40420653310E+01  0.54766405341E+02  0.58499933632E+02  0.10566000000E+00 0.  1.
         22    1    1    0    0    0  0.14706207317E+02 -0.15387131535E+02 -0.18816296938E+02  0.28409318559E+02  0.00000000000E+00 0.  1.
</event>
<event>
 5    1  0.1668518E-003  0.9118800E+02  0.7818608E-02  0.1130116E+00
         25   -1    0    0    0    0  0.00000000000E+00  0.00000000000E+00  0.99999998245E-14  0.12500000000E+03  0.12500000000E+03 0.  0.
        -13    1    3    3    0    0 -0.96368980869E+01 -0.13602043951E+02  0.49863502584E+02  0.52576282280E+02  0.10566000000E+00 0. -1.
         23    2    1    0    0    0 -0.23838345480E+02 -0.15158658047E+02  0.98200931774E+01  0.95092043550E+02  0.90266333079E+02 0.  0.
         13    1    3    3    0    0 -0.14201447393E+02 -0.15566140959E+01 -0.40043409407E+02  0.42515761271E+02  0.10566000000E+00 0.  1.
         22    1    1    0    0    0  0.23838345480E+02  0.15158658047E+02 -0.98200931774E+01  0.29907956450E+02  0.00000000000E+00 0.  1.
</event>
<event>
 5    1  0.1668518E-003  0.9118800E+02  0.7818608E-02  0.1130116E+00
         25   -1    0    0    0    0  0.00000000000E+00  0.00000000000E+00  0.99999998245E-14  0.12500000000E+03  0.12500000000E+03 0.  0.
        -13    1    3    3    0    0 -0.29171178427E+02 -0.42375180349E+02  0.31418136619E+02  0.60280378508E+02  0.10566000000E+00 0.  1.
         23    2    1    0    0    0 -0.19810871857E+02 -0.11330222500E+02  0.19990913783E+02  0.94660566592E+02  0.89666836947E+02 0.  0.
         13    1    3    3    0    0  0.93603065700E+01  0.31044957849E+02 -0.11427222836E+02  0.34380188084E+02  0.10566000000E+00 0. -1.
         22    1    1    0    0    0  0.19810871857E+02  0.11330222500E+02 -0.19990913783E+02  0.30339433408E+02  0.00000000000E+00 0.  1.
</event>
<event>
 5    1  0.1668518E-003  0.9118800E+02  0.7818608E-02  0.1130116E+00
         25   -1    0    0    0    0  0.00000000000E+00  0.00000000000E+00  0.99999998245E-14  0.12500000000E+03  0.12500000000E+03 0.  0.
        -13    1    3    3    0    0  0.30864471023E+02 -0.19975390696E+02 -0.46416471001E+01  0.37056549446E+02  0.10566000000E+00 0. -1.
         23    2    1    0    0    0 -0.25172713220E+02 -0.63315418589E+01 -0.14036467101E+02  0.95491080639E+02  0.90817234927E+02 0.  0.
         13    1    3    3    0    0 -0.56037184242E+02  0.13643848838E+02 -0.93948200010E+01  0.58434531194E+02  0.10566000000E+00 0.  1.
         22    1    1    0    0    0  0.25172713220E+02  0.63315418589E+01  0.14036467101E+02  0.29508919361E+02  0.00000000000E+00 0.  1.
</event>
<event>
 5    1  0.1668518E-003  0.9118800E+02  0.7818608E-02  0.1130116E+00
         25   -1    0    0    0    0  0.00000000000E+00  0.00000000000E+00  0.99999998245E-14  0.12500000000E+03  0.12500000000E+03 0.  0.
        -13    1    3    3    0    0 -0.15887066784E+02  0.38132483773E+02 -0.41760720401E+01  0.41520307698E+02  0.10566000000E+00 0. -1.
         23    2    1    0    0    0  0.21430036519E+02  0.60002531910E+01  0.18805892616E+02  0.95863920980E+02  0.91328967174E+02 0.  0.
         13    1    3    3    0    0  0.37317103303E+02 -0.32132230582E+02  0.22981964656E+02  0.54343613282E+02  0.10566000000E+00 0.  1.
         22    1    1    0    0    0 -0.21430036519E+02 -0.60002531910E+01 -0.18805892616E+02  0.29136079020E+02  0.00000000000E+00 0.  1.
</event>
<event>
 5    1  0.1668518E-003  0.9118800E+02  0.7818608E-02  0.1130116E+00
         25   -1    0    0    0    0  0.00000000000E+00  0.00000000000E+00  0.99999998245E-14  0.12500000000E+03  0.12500000000E+03 0.  0.
        -13    1    3    3    0    0 -0.37675146356E+02 -0.26901059258E+02 -0.39480027766E+01  0.46461613534E+02  0.10566000000E+00 0.  1.
         23    2    1    0    0    0  0.10021461364E+02 -0.24794922647E+02  0.10386546876E+02  0.96310311383E+02  0.91937902117E+02 0.  0.
         13    1    3    3    0    0  0.47696607721E+02  0.21061366110E+01  0.14334549652E+02  0.49848697849E+02  0.10566000000E+00 0. -1.
         22    1    1    0    0    0 -0.10021461364E+02  0.24794922647E+02 -0.10386546876E+02  0.28689688617E+02  0.00000000000E+00 0. -1.
</event>
<event>
 5    1  0.1668518E-003  0.9118800E+02  0.7818608E-02  0.1130116E+00
         25   -1    0    0    0    0  0.00000000000E+00  0.00000000000E+00  0.99999998245E-14  0.12500000000E+03  0.12500000000E+03 0.  0.
        -13    1    3    3    0    0  0.28121322837E+02  0.18704305179E+02 -0.14733939124E+02  0.36847794459E+02  0.10566000000E+00 0. -1.
         23    2    1    0    0    0 -0.41462920421E+01 -0.28324250811E+02  0.20508654880E+01  0.96300505737E+02  0.91924569264E+02 0.  0.
         13    1    3    3    0    0 -0.32267614879E+02 -0.47028555989E+02  0.16784804612E+02  0.59452711278E+02  0.10566000000E+00 0.  1.
         22    1    1    0    0    0  0.41462920421E+01  0.28324250811E+02 -0.20508654880E+01  0.28699494263E+02  0.00000000000E+00 0.  1.
</event>
<event>
 5    1  0.1668518E-003  0.9118800E+02  0.7818608E-02  0.1130116E+00
         25   -1    0    0    0    0  0.00000000000E+00  0.00000000000E+00  0.99999998245E-14  0.12500000000E+03  0.12500000000E+03 0.  0.
        -13    1    3    3    0    0 -0.30370372289E+01 -0.18584507192E+02 -0.25923912008E+02  0.32041658517E+02  0.10566000000E+00 0.  1.
         23    2    1    0    0    0 -0.29738110250E+02 -0.16480262076E+02  0.20253985036E+02  0.85425031280E+02  0.75705071296E+02 0.  0.
         13    1    3    3    0    0 -0.26701073021E+02  0.21042451164E+01  0.46177897045E+02  0.53383372762E+02  0.10566000000E+00 0. -1.
         22    1    1    0    0    0  0.29738110250E+02  0.16480262076E+02 -0.20253985036E+02  0.39574968720E+02  0.00000000000E+00 0. -1.
</event>
<event>
 5    1  0.1668518E-003  0.9118800E+02  0.7818608E-02  0.1130116E+00
         25   -1    0    0    0    0  0.00000000000E+00  0.00000000000E+00  0.99999998245E-14  0.12500000000E+03  0.12500000000E+03 0.  0.
        -13    1    3    3    0    0 -0.38267799136E+02  0.35136756821E+02  0.26658751941E+02  0.58392776520E+02  0.10566000000E+00 0. -1.
         23    2    1    0    0    0 -0.16057180017E+02  0.20020975060E+02  0.30060711547E+02  0.85473820686E+02  0.75785586831E+02 0.  0.
         13    1    3    3    0    0  0.22210619119E+02 -0.15115781761E+02  0.34019596064E+01  0.27081044165E+02  0.10566000000E+00 0.  1.
         22    1    1    0    0    0  0.16057180017E+02 -0.20020975060E+02 -0.30060711547E+02  0.39526179314E+02  0.00000000000E+00 0. -1.
</event>
<event>
 5    1  0.1668518E-003  0.9118800E+02  0.7818608E-02  0.1130116E+00
         25   -1    0    0    0    0  0.00000000000E+00  0.00000000000E+00  0.99999998245E-14  0.12500000000E+03  0.12500000000E+03 0.  0.
        -13    1    3    3    0    0 -0.48346466035E+02  0.13384710403E+02  0.34378206890E+02  0.60814500933E+02  0.10566000000E+00 0.  1.
         23    2    1    0    0    0 -0.16378582728E+02  0.14147154026E+02  0.18554639646E+02  0.96492551997E+02  0.92185345904E+02 0.  0.
         13    1    3    3    0    0  0.31967883307E+02  0.76244362329E+00 -0.15823567244E+02  0.35678051065E+02  0.10566000000E+00 0. -1.
         22    1    1    0    0    0  0.16378582728E+02 -0.14147154026E+02 -0.18554639646E+02  0.28507448003E+02  0.00000000000E+00 0.  1.
</event>
<event>
 5    1  0.1668518E-003  0.9118800E+02  0.7818608E-02  0.1130116E+00
         25   -1    0    0    0    0  0.00000000000E+00  0.00000000000E+00  0.99999998245E-14  0.12500000000E+03  0.12500000000E+03 0.  0.
        -13    1    3    3    0    0  0.54076433040E+01 -0.25093873232E+01  0.57798244603E+02  0.58104972886E+02  0.10566000000E+00 0. -1.
         23    2    1    0    0    0  0.15595172373E+02 -0.11487491623E+02  0.26933534282E+02  0.91824901898E+02  0.85622575730E+02 0.  0.
         13    1    3    3    0    0  0.10187529069E+02 -0.89781042999E+01 -0.30864710321E+02  0.33719929012E+02  0.10566000000E+00 0.  1.
         22    1    1    0    0    0 -0.15595172373E+02  0.11487491623E+02 -0.26933534282E+02  0.33175098102E+02  0.00000000000E+00 0. -1.
</event>
<event>
 5    1  0.1668518E-003  0.9118800E+02  0.7818608E-02  0.1130116E+00
         25   -1    0    0    0    0  0.00000000000E+00  0.00000000000E+00  0.99999998245E-14  0.12500000000E+03  0.12500000000E+03 0.  0.
        -13    1    3    3    0    0 -0.29910740657E+02 -0.20862023343E+02  0.11010113944E+01  0.36484240635E+02  0.10566000000E+00 0.  1.
         23    2    1    0    0    0  0.89837313195E+01  0.22201027927E+02  0.15753772556E+02  0.96333391913E+02  0.91969277361E+02 0.  0.
         13    1    3    3    0    0  0.38894471977E+02  0.43063051270E+02  0.14652761162E+02  0.59849151278E+02  0.10566000000E+00 0. -1.
         22    1    1    0    0    0 -0.89837313195E+01 -0.22201027927E+02 -0.15753772556E+02  0.28666608087E+02  0.00000000000E+00 0. -1.
</event>
<event>
 5    1  0.1668518E-003  0.9118800E+02  0.7818608E-02  0.1130116E+00
         25   -1    0    0    0    0  0.00000000000E+00  0.00000000000E+00  0.99999998245E-14  0.12500000000E+03  0.12500000000E+03 0.  0.
        -13    1    3    3    0    0 -0.28959567647E+02 -0.29704466657E+01  0.21345072569E+02  0.36098523498E+02  0.10566000000E+00 0.  1.
         23    2    1    0    0    0  0.89175761204E+01  0.23271241087E+02 -0.15977399278E+02  0.95396771911E+02  0.90687336369E+02 0.  0.
         13    1    3    3    0    0  0.37877143767E+02  0.26241687753E+02 -0.37322471847E+02  0.59298248414E+02  0.10566000000E+00 0. -1.
         22    1    1    0    0    0 -0.89175761204E+01 -0.23271241087E+02  0.15977399278E+02  0.29603228089E+02  0.00000000000E+00 0. -1.
</event>
<event>
 5    1  0.1668518E-003  0.9118800E+02  0.7818608E-02  0.1130116E+00
         25   -1    0    0    0    0  0.00000000000E+00  0.00000000000E+00  0.99999998245E-14  0.12500000000E+03  0.12500000000E+03 0.  0.
        -13    1    3    3    0    0  0.16722137069E+02  0.37361872988E+02 -0.30786000575E+02  0.51218438250E+02  0.10566000000E+00 0. -1.
         23    2    1    0    0    0  0.26873858720E+02  0.97574320263E+01  0.32769289168E+01  0.96222404107E+02  0.91818304421E+02 0.  0.
         13    1    3    3    0    0  0.10151721650E+02 -0.27604440961E+02  0.34062929492E+02  0.45003965857E+02  0.10566000000E+00 0.  1.
         22    1    1    0    0    0 -0.26873858720E+02 -0.97574320263E+01 -0.32769289168E+01  0.28777595893E+02  0.00000000000E+00 0. -1.
</event>
<event>
 5    1  0.1668518E-003  0.9118800E+02  0.7818608E-02  0.1130116E+00
         25   -1    0    0    0    0  0.00000000000E+00  0.00000000000E+00  0.99999998245E-14  0.12500000000E+03  0.12500000000E+03 0.  0.
        -13    1    3    3    0    0  0.52022057395E+02  0.12185769933E+02 -0.15531212475E+01  0.53452883871E+02  0.10566000000E+00 0.  1.
         23    2    1    0    0    0  0.15967480617E+02  0.21515061024E+02  0.15095818299E+02  0.94247081142E+02  0.89088553056E+02 0.  0.
         13    1    3    3    0    0 -0.36054576778E+02  0.93292910915E+01  0.16648939547E+02  0.40794197271E+02  0.10566000000E+00 0. -1.
         22    1    1    0    0    0 -0.15967480617E+02 -0.21515061024E+02 -0.15095818299E+02  0.30752918858E+02  0.00000000000E+00 0.  1.
</event>
<event>
 5    1  0.1668518E-003  0.9118800E+02  0.7818608E-02  0.1130116E+00
         25   -1    0    0    0    0  0.00000000000E+00  0.00000000000E+00  0.99999998245E-14  0.12500000000E+03  0.12500000000E+03 0.  0.
        -13    1    3    3    0    0  0.19852625785E+02  0.72754214883E+01 -0.83203702831E+01  0.22722196947E+02  0.10566000000E+00 0.  1.
         23    2    1    0    0    0 -0.36440491651E+02 -0.17510949903E+02 -0.30932705735E+01  0.84452359857E+02  0.74081643909E+02 0.  0.
         13    1    3    3    0    0 -0.56293117437E+02 -0.24786371392E+02  0.52270997097E+01  0.61730162910E+02  0.10566000000E+00 0. -1.
         22    1    1    0    0    0  0.36440491651E+02  0.17510949903E+02  0.30932705735E+01  0.40547640143E+02  0.00000000000E+00 0. -1.
</event>
<event>
 5    1  0.1668518E-003  0.9118800E+02  0.7818608E-02  0.1130116E+00
         25   -1    0    0    0    0  0.00000000000E+00  0.00000000000E+00  0.99999998245E-14  0.12500000000E+03  0.12500000000E+03 0.  0.
        -13    1    3    3    0    0 -0.35565809682E+02  0.70360927587E+01 -0.16573120401E+02  0.39863679001E+02  0.10566000000E+00 0. -1.
         23    2    1    0    0    0 -0.75623582315E+01 -0.10385269307E+02  0.27345651751E+02  0.94786960592E+02  0.89842863646E+02 0.  0.
         13    1    3    3    0    0  0.28003451450E+02 -0.17421362065E+02  0.43918772152E+02  0.54923281591E+02  0.10566000000E+00 0.  1.
         22    1    1    0    0    0  0.75623582315E+01  0.10385269307E+02 -0.27345651751E+02  0.30213039408E+02  0.00000000000E+00 0.  1.
</event>
<event>
 5    1  0.1668518E-003  0.9118800E+02  0.7818608E-02  0.1130116E+00
         25   -1    0    0    0    0  0.00000000000E+00  0.00000000000E+00  0.99999998245E-14  0.12500000000E+03  0.12500000000E+03 0.  0.
        -13    1    3    3    0    0  0.59176817646E+01  0.30198826072E+02  0.14536387092E+02  0.34033891452E+02  0.10566000000E+00 0. -1.
         23    2    1    0    0    0 -0.13851123756E+02 -0.12957772631E+02 -0.23456092828E+02  0.94834692251E+02  0.89909249039E+02 0.  0.
         13    1    3    3    0    0 -0.19768805520E+02 -0.43156598703E+02 -0.37992479920E+02  0.60800800799E+02  0.10566000000E+00 0.  1.
         22    1    1    0    0    0  0.13851123756E+02  0.12957772631E+02  0.23456092828E+02  0.30165307749E+02  0.00000000000E+00 0.  1.
</event>
<event>
 5    1  0.1668518E-003  0.9118800E+02  0.7818608E-02  0.1130116E+00
         25   -1    0    0    0    0  0.00000000000E+00  0.00000000000E+00  0.99999998245E-14  0.12500000000E+03  0.12500000000E+03 0.  0.
        -13    1    3    3    0    0 -0.31968915733E+02  0.30515662312E+02 -0.44352595777E+01  0.44417337956E+02  0.10566000000E+00 0.  1.
         23    2    1    0    0    0  0.17589177197E+02  0.24898393219E+02 -0.36367149277E+01  0.94299269800E+02  0.89161748805E+02 0.  0.
         13    1    3    3    0    0  0.49558092930E+02 -0.56172690935E+01  0.79854465000E+00  0.49881931844E+02  0.10566000000E+00 0. -1.
         22    1    1    0    0    0 -0.17589177197E+02 -0.24898393219E+02  0.36367149277E+01  0.30700730200E+02  0.00000000000E+00 0.  1.
</event>
<event>
 5    1  0.1668518E-003  0.9118800E+02  0.7818608E-02  0.1130116E+00
         25   -1    0    0    0    0  0.00000000000E+00  0.00000000000E+00  0.99999998245E-14  0.12500000000E+03  0.12500000000E+03 0.  0.
        -13    1    3    3    0    0 -0.80030490894E+01 -0.36767129461E+02  0.89004580743E+01  0.38666521973E+02  0.10566000000E+00 0.  1.
         23    2    1    0    0    0 -0.37287745637E+01  0.21907409335E+02  0.15558838193E+02  0.97872232133E+02  0.94037535235E+02 0.  0.
         13    1    3    3    0    0  0.42742745256E+01  0.58674538796E+02  0.66583801191E+01  0.59205710160E+02  0.10566000000E+00 0. -1.
         22    1    1    0    0    0  0.37287745637E+01 -0.21907409335E+02 -0.15558838193E+02  0.27127767867E+02  0.00000000000E+00 0. -1.
</event>
<event>
 5    1  0.1668518E-003  0.9118800E+02  0.7818608E-02  0.1130116E+00
         25   -1    0    0    0    0  0.00000000000E+00  0.00000000000E+00  0.99999998245E-14  0.12500000000E+03  0.12500000000E+03 0.  0.
        -13    1    3    3    0    0  0.50816326188E+01 -0.38527544874E+02  0.16313867059E+02  0.42146745147E+02  0.10566000000E+00 0. -1.
         23    2    1    0    0    0  0.20265559783E+02  0.11600214254E+02  0.19438944519E+02  0.94616938138E+02  0.89605996086E+02 0.  0.
         13    1    3    3    0    0  0.15183927165E+02  0.50127759128E+02  0.31250774609E+01  0.52470192991E+02  0.10566000000E+00 0.  1.
         22    1    1    0    0    0 -0.20265559783E+02 -0.11600214254E+02 -0.19438944519E+02  0.30383061862E+02  0.00000000000E+00 0. -1.
</event>
<event>
 5    1  0.1668518E-003  0.9118800E+02  0.7818608E-02  0.1130116E+00
         25   -1    0    0    0    0  0.00000000000E+00  0.00000000000E+00  0.99999998245E-14  0.12500000000E+03  0.12500000000E+03 0.  0.
        -13    1    3    3    0    0 -0.28868691271E+01 -0.48968103208E+02  0.11816428684E+02  0.50456399951E+02  0.10566000000E+00 0. -1.
         23    2    1    0    0    0  0.58249144774E+01 -0.91296791084E+01  0.28495937748E+02  0.94515591896E+02  0.89464506784E+02 0.  0.
         13    1    3    3    0    0  0.87117836045E+01  0.39838424099E+02  0.16679509064E+02  0.44059191946E+02  0.10566000000E+00 0.  1.
         22    1    1    0    0    0 -0.58249144774E+01  0.91296791084E+01 -0.28495937748E+02  0.30484408104E+02  0.00000000000E+00 0. -1.
</event>
<event>
 5    1  0.1668518E-003  0.9118800E+02  0.7818608E-02  0.1130116E+00
         25   -1    0    0    0    0  0.00000000000E+00  0.00000000000E+00  0.99999998245E-14  0.12500000000E+03  0.12500000000E+03 0.  0.
        -13    1    3    3    0    0  0.16808067519E+01 -0.35947132669E+02 -0.29950298594E+02  0.46819365740E+02  0.10566000000E+00 0.  1.
         23    2    1    0    0    0 -0.28460907383E+02 -0.54218806328E+01 -0.83588910325E+01  0.94845545969E+02  0.89924337596E+02 0.  0.
         13    1    3    3    0    0 -0.30141714135E+02  0.30525252036E+02  0.21591407561E+02  0.48026180228E+02  0.10566000000E+00 0. -1.
         22    1    1    0    0    0  0.28460907383E+02  0.54218806328E+01  0.83588910325E+01  0.30154454031E+02  0.00000000000E+00 0. -1.
</event>
<event>
 5    1  0.1668518E-003  0.9118800E+02  0.7818608E-02  0.1130116E+00
         25   -1    0    0    0    0  0.00000000000E+00  0.00000000000E+00  0.99999998245E-14  0.12500000000E+03  0.12500000000E+03 0.  0.
        -13    1    3    3    0    0  0.11207317996E+02 -0.12944111337E+02  0.54195823317E+02  0.56836189387E+02  0.10566000000E+00 0. -1.
         23    2    1    0    0    0  0.99199278148E+01  0.83749689511E+01  0.41120267453E+02  0.81878990409E+02  0.69604221152E+02 0.  0.
         13    1    3    3    0    0 -0.12873901808E+01  0.21319080288E+02 -0.13075555864E+02  0.25042801022E+02  0.10566000000E+00 0.  1.
         22    1    1    0    0    0 -0.99199278148E+01 -0.83749689511E+01 -0.41120267453E+02  0.43121009591E+02  0.00000000000E+00 0. -1.
</event>
<event>
 5    1  0.1668518E-003  0.9118800E+02  0.7818608E-02  0.1130116E+00
         25   -1    0    0    0    0  0.00000000000E+00  0.00000000000E+00  0.99999998245E-14  0.12500000000E+03  0.12500000000E+03 0.  0.
        -13    1    3    3    0    0 -0.28868851796E+02  0.78292707973E+01  0.50050372362E+02  0.58307452550E+02  0.10566000000E+00 0. -1.
         23    2    1    0    0    0 -0.31280725564E+01  0.13130698951E+02  0.32221305291E+02  0.90065595647E+02  0.83014450017E+02 0.  0.
         13    1    3    3    0    0  0.25740779239E+02  0.53014281536E+01 -0.17829067071E+02  0.31758143097E+02  0.10566000000E+00 0.  1.
         22    1    1    0    0    0  0.31280725564E+01 -0.13130698951E+02 -0.32221305291E+02  0.34934404353E+02  0.00000000000E+00 0. -1.
</event>
<event>
 5    1  0.1668518E-003  0.9118800E+02  0.7818608E-02  0.1130116E+00
         25   -1    0    0    0    0  0.00000000000E+00  0.00000000000E+00  0.99999998245E-14  0.12500000000E+03  0.12500000000E+03 0.  0.
        -13    1    3    3    0    0  0.26726994078E+02  0.89800982554E+01  0.52008457889E+02  0.59159658832E+02  0.10566000000E+00 0.  1.
         23    2    1    0    0    0  0.10044111329E+02 -0.85585043671E+01  0.31362070688E+02  0.90974838028E+02  0.84372445188E+02 0.  0.
         13    1    3    3    0    0 -0.16682882749E+02 -0.17538602623E+02 -0.20646387201E+02  0.31815179195E+02  0.10566000000E+00 0. -1.
         22    1    1    0    0    0 -0.10044111329E+02  0.85585043671E+01 -0.31362070688E+02  0.34025161972E+02  0.00000000000E+00 0.  1.
</event>
<event>
 5    1  0.1668518E-003  0.9118800E+02  0.7818608E-02  0.1130116E+00
         25   -1    0    0    0    0  0.00000000000E+00  0.00000000000E+00  0.99999998245E-14  0.12500000000E+03  0.12500000000E+03 0.  0.
        -13    1    3    3    0    0 -0.57533529485E+02 -0.52671156609E+01 -0.17553774193E+02  0.60382080742E+02  0.10566000000E+00 0. -1.
         23    2    1    0    0    0 -0.24141033886E+02 -0.13353660052E+02 -0.10655049073E+02  0.95425689786E+02  0.90727186921E+02 0.  0.
         13    1    3    3    0    0  0.33392495599E+02 -0.80865443912E+01  0.68987251196E+01  0.35043609044E+02  0.10566000000E+00 0.  1.
         22    1    1    0    0    0  0.24141033886E+02  0.13353660052E+02  0.10655049073E+02  0.29574310214E+02  0.00000000000E+00 0. -1.
</event>
<event>
 5    1  0.1668518E-003  0.9118800E+02  0.7818608E-02  0.1130116E+00
         25   -1    0    0    0    0  0.00000000000E+00  0.00000000000E+00  0.99999998245E-14  0.12500000000E+03  0.12500000000E+03 0.  0.
        -13    1    3    3    0    0 -0.51241366110E+02 -0.10704045834E+02  0.21759647457E+02  0.56689925203E+02  0.10566000000E+00 0.  1.
         23    2    1    0    0    0 -0.10276331264E+02 -0.12463918310E+02  0.22015514927E+02  0.97693679460E+02  0.93799892671E+02 0.  0.
         13    1    3    3    0    0  0.40965034845E+02 -0.17598724766E+01  0.25586747051E+00  0.41003754258E+02  0.10566000000E+00 0. -1.
         22    1    1    0    0    0  0.10276331264E+02  0.12463918310E+02 -0.22015514927E+02  0.27306320540E+02  0.00000000000E+00 0.  1.
</event>
<event>
 5    1  0.1668518E-003  0.9118800E+02  0.7818608E-02  0.1130116E+00
         25   -1    0    0    0    0  0.00000000000E+00  0.00000000000E+00  0.99999998245E-14  0.12500000000E+03  0.12500000000E+03 0.  0.
        -13    1    3    3    0    0 -0.18273940438E+02  0.52067719733E+01  0.48984081968E+02  0.52540449406E+02  0.10566000000E+00 0.  1.
         23    2    1    0    0    0 -0.99435183261E+01 -0.21991918638E+02  0.16267847577E+02  0.95893971297E+02  0.91370087142E+02 0.  0.
         13    1    3    3    0    0  0.83304221118E+01 -0.27198690611E+02 -0.32716234392E+02  0.43353521891E+02  0.10566000000E+00 0. -1.
         22    1    1    0    0    0  0.99435183261E+01  0.21991918638E+02 -0.16267847577E+02  0.29106028703E+02  0.00000000000E+00 0.  1.
</event>
<event>
 5    1  0.1668518E-003  0.9118800E+02  0.7818608E-02  0.1130116E+00
         25   -1    0    0    0    0  0.00000000000E+00  0.00000000000E+00  0.99999998245E-14  0.12500000000E+03  0.12500000000E+03 0.  0.
        -13    1    3    3    0    0  0.40054765847E+02 -0.92359844460E+01 -0.43756015921E+02  0.60035720776E+02  0.10566000000E+00 0.  1.
         23    2    1    0    0    0  0.99516610399E+01 -0.10395488888E+02 -0.26736403850E+02  0.94636583896E+02  0.89633397648E+02 0.  0.
         13    1    3    3    0    0 -0.30103104807E+02 -0.11595044421E+01  0.17019612071E+02  0.34600863120E+02  0.10566000000E+00 0. -1.
         22    1    1    0    0    0 -0.99516610399E+01  0.10395488888E+02  0.26736403850E+02  0.30363416104E+02  0.00000000000E+00 0.  1.
</event>
<event>
 5    1  0.1668518E-003  0.9118800E+02  0.7818608E-02  0.1130116E+00
         25   -1    0    0    0    0  0.00000000000E+00  0.00000000000E+00  0.99999998245E-14  0.12500000000E+03  0.12500000000E+03 0.  0.
        -13    1    3    3    0    0  0.22538046404E+02 -0.36927080048E+02  0.23907911833E+01  0.43327818121E+02  0.10566000000E+00 0.  1.
         23    2    1    0    0    0  0.21489213824E+02  0.12206762868E+02 -0.15726882236E+02  0.95706208929E+02  0.91112854374E+02 0.  0.
         13    1    3    3    0    0 -0.10488325807E+01  0.49133842916E+02 -0.18117673419E+02  0.52378390808E+02  0.10566000000E+00 0. -1.
         22    1    1    0    0    0 -0.21489213824E+02 -0.12206762868E+02  0.15726882236E+02  0.29293791071E+02  0.00000000000E+00 0. -1.
</event>
<event>
 5    1  0.1668518E-003  0.9118800E+02  0.7818608E-02  0.1130116E+00
         25   -1    0    0    0    0  0.00000000000E+00  0.00000000000E+00  0.99999998245E-14  0.12500000000E+03  0.12500000000E+03 0.  0.
        -13    1    3    3    0    0  0.17953004192E+02 -0.43246368310E+02 -0.31960368115E+02  0.56692460042E+02  0.10566000000E+00 0.  1.
         23    2    1    0    0    0 -0.99802080828E+01 -0.15364398023E+02 -0.19875045577E+02  0.97968782553E+02  0.94165788045E+02 0.  0.
         13    1    3    3    0    0 -0.27933212275E+02  0.27881970287E+02  0.12085322538E+02  0.41276322511E+02  0.10566000000E+00 0. -1.
         22    1    1    0    0    0  0.99802080828E+01  0.15364398023E+02  0.19875045577E+02  0.27031217447E+02  0.00000000000E+00 0.  1.
</event>
<event>
 5    1  0.1668518E-003  0.9118800E+02  0.7818608E-02  0.1130116E+00
         25   -1    0    0    0    0  0.00000000000E+00  0.00000000000E+00  0.99999998245E-14  0.12500000000E+03  0.12500000000E+03 0.  0.
        -13    1    3    3    0    0 -0.15236240374E+02  0.37142821264E+02  0.20831631521E+02  0.45229417728E+02  0.10566000000E+00 0. -1.
         23    2    1    0    0    0 -0.89355885799E+00 -0.91818428407E+01  0.29143819451E+02  0.94430948697E+02  0.89346164854E+02 0.  0.
         13    1    3    3    0    0  0.14342681516E+02 -0.46324664104E+02  0.83121879300E+01  0.49201530969E+02  0.10566000000E+00 0.  1.
         22    1    1    0    0    0  0.89355885799E+00  0.91818428407E+01 -0.29143819451E+02  0.30569051303E+02  0.00000000000E+00 0.  1.
</event>
<event>
 5    1  0.1668518E-003  0.9118800E+02  0.7818608E-02  0.1130116E+00
         25   -1    0    0    0    0  0.00000000000E+00  0.00000000000E+00  0.99999998245E-14  0.12500000000E+03  0.12500000000E+03 0.  0.
        -13    1    3    3    0    0 -0.77027015876E+01 -0.69063579654E+01 -0.32100146576E+02  0.33726250404E+02  0.10566000000E+00 0. -1.
         23    2    1    0    0    0  0.12723657180E+02  0.22420498925E+01  0.25988300874E+02  0.95977422201E+02  0.91484181968E+02 0.  0.
         13    1    3    3    0    0  0.20426358767E+02  0.91484078579E+01  0.58088447451E+02  0.62251171797E+02  0.10566000000E+00 0.  1.
         22    1    1    0    0    0 -0.12723657180E+02 -0.22420498925E+01 -0.25988300874E+02  0.29022577799E+02  0.00000000000E+00 0.  1.
</event>
<event>
 5    1  0.1668518E-003  0.9118800E+02  0.7818608E-02  0.1130116E+00
         25   -1    0    0    0    0  0.00000000000E+00  0.00000000000E+00  0.99999998245E-14  0.12500000000E+03  0.12500000000E+03 0.  0.
        -13    1    3    3    0    0 -0.20322201660E+02  0.35791351319E+02 -0.15891649542E+01  0.41189189344E+02  0.10566000000E+00 0. -1.
         23    2    1    0    0    0  0.19039434127E+02  0.66908008824E+01  0.21672843064E+02  0.95386168860E+02  0.90672720346E+02 0.  0.
         13    1    3    3    0    0  0.39361635787E+02 -0.29100550436E+02  0.23262008018E+02  0.54196979516E+02  0.10566000000E+00 0.  1.
         22    1    1    0    0    0 -0.19039434127E+02 -0.66908008824E+01 -0.21672843064E+02  0.29613831140E+02  0.00000000000E+00 0.  1.
</event>
<event>
 5    1  0.1668518E-003  0.9118800E+02  0.7818608E-02  0.1130116E+00
         25   -1    0    0    0    0  0.00000000000E+00  0.00000000000E+00  0.99999998245E-14  0.12500000000E+03  0.12500000000E+03 0.  0.
        -13    1    3    3    0    0  0.34849796095E+02  0.26059806050E+02 -0.44595848941E+02  0.62309089915E+02  0.10566000000E+00 0. -1.
         23    2    1    0    0    0  0.16868271198E+02  0.86123623601E+01 -0.20906944585E+02  0.96789865464E+02  0.92587614539E+02 0.  0.
         13    1    3    3    0    0 -0.17981524897E+02 -0.17447443690E+02  0.23688904356E+02  0.34480775550E+02  0.10566000000E+00 0.  1.
         22    1    1    0    0    0 -0.16868271198E+02 -0.86123623601E+01  0.20906944585E+02  0.28210134536E+02  0.00000000000E+00 0. -1.
</event>
<event>
 5    1  0.1668518E-003  0.9118800E+02  0.7818608E-02  0.1130116E+00
         25   -1    0    0    0    0  0.00000000000E+00  0.00000000000E+00  0.99999998245E-14  0.12500000000E+03  0.12500000000E+03 0.  0.
        -13    1    3    3    0    0  0.16851906834E+02  0.49556237068E+01  0.28618142072E+02  0.33579073691E+02  0.10566000000E+00 0. -1.
         23    2    1    0    0    0 -0.10655340704E+02 -0.13611172176E+02 -0.23778999164E+02  0.95602022268E+02  0.90969805798E+02 0.  0.
         13    1    3    3    0    0 -0.27507247537E+02 -0.18566795882E+02 -0.52397141236E+02  0.62022948577E+02  0.10566000000E+00 0.  1.
         22    1    1    0    0    0  0.10655340704E+02  0.13611172176E+02  0.23778999164E+02  0.29397977732E+02  0.00000000000E+00 0.  1.
</event>
<event>
 5    1  0.1668518E-003  0.9118800E+02  0.7818608E-02  0.1130116E+00
         25   -1    0    0    0    0  0.00000000000E+00  0.00000000000E+00  0.99999998245E-14  0.12500000000E+03  0.12500000000E+03 0.  0.
        -13    1    3    3    0    0 -0.29038346761E+02  0.15388420250E+02 -0.13610529618E+02  0.35570869274E+02  0.10566000000E+00 0.  1.
         23    2    1    0    0    0 -0.33143505355E+01  0.49753925369E+01  0.33891381226E+02  0.90585393046E+02  0.83793485794E+02 0.  0.
         13    1    3    3    0    0  0.25723996225E+02 -0.10413027713E+02  0.47501910844E+02  0.55014523772E+02  0.10566000000E+00 0. -1.
         22    1    1    0    0    0  0.33143505355E+01 -0.49753925369E+01 -0.33891381226E+02  0.34414606954E+02  0.00000000000E+00 0. -1.
</event>
<event>
 5    1  0.1668518E-003  0.9118800E+02  0.7818608E-02  0.1130116E+00
         25   -1    0    0    0    0  0.00000000000E+00  0.00000000000E+00  0.99999998245E-14  0.12500000000E+03  0.12500000000E+03 0.  0.
        -13    1    3    3    0    0  0.86977893125E+01  0.48230362018E+02 -0.28030377906E+02  0.56458237742E+02  0.10566000000E+00 0.  1.
         23    2    1    0    0    0 -0.13934990872E+02  0.25340667296E+02 -0.60008771614E+01  0.95464531215E+02  0.90780685191E+02 0.  0.
         13    1    3    3    0    0 -0.22632780185E+02 -0.22889694722E+02  0.22029500745E+02  0.39006293473E+02  0.10566000000E+00 0. -1.
         22    1    1    0    0    0  0.13934990872E+02 -0.25340667296E+02  0.60008771614E+01  0.29535468785E+02  0.00000000000E+00 0.  1.
</event>
<event>
 5    1  0.1668518E-003  0.9118800E+02  0.7818608E-02  0.1130116E+00
         25   -1    0    0    0    0  0.00000000000E+00  0.00000000000E+00  0.99999998245E-14  0.12500000000E+03  0.12500000000E+03 0.  0.
        -13    1    3    3    0    0 -0.31040587466E+02  0.21402144214E+02  0.45506349962E+02  0.59096606486E+02  0.10566000000E+00 0. -1.
         23    2    1    0    0    0 -0.14229282626E+02  0.22065960189E+02  0.12993472161E+02  0.95704788754E+02  0.91110905980E+02 0.  0.
         13    1    3    3    0    0  0.16811304840E+02  0.66381597564E+00 -0.32512877801E+02  0.36608182269E+02  0.10566000000E+00 0.  1.
         22    1    1    0    0    0  0.14229282626E+02 -0.22065960189E+02 -0.12993472161E+02  0.29295211246E+02  0.00000000000E+00 0. -1.
</event>
<event>
 5    1  0.1668518E-003  0.9118800E+02  0.7818608E-02  0.1130116E+00
         25   -1    0    0    0    0  0.00000000000E+00  0.00000000000E+00  0.99999998245E-14  0.12500000000E+03  0.12500000000E+03 0.  0.
        -13    1    3    3    0    0 -0.16763071191E+02 -0.17189867553E+02 -0.40066580312E+02  0.46710107302E+02  0.10566000000E+00 0.  1.
         23    2    1    0    0    0 -0.18801837501E+02 -0.22359364549E+02  0.76915463730E+01  0.94790561706E+02  0.89847873800E+02 0.  0.
         13    1    3    3    0    0 -0.20387663102E+01 -0.51694969957E+01  0.47758126685E+02  0.48080454404E+02  0.10566000000E+00 0. -1.
         22    1    1    0    0    0  0.18801837501E+02  0.22359364549E+02 -0.76915463730E+01  0.30209438294E+02  0.00000000000E+00 0.  1.
</event>
<event>
 5    1  0.1668518E-003  0.9118800E+02  0.7818608E-02  0.1130116E+00
         25   -1    0    0    0    0  0.00000000000E+00  0.00000000000E+00  0.99999998245E-14  0.12500000000E+03  0.12500000000E+03 0.  0.
        -13    1    3    3    0    0  0.25553514835E+02  0.19006774682E+02 -0.11555294819E+02  0.33878837150E+02  0.10566000000E+00 0.  1.
         23    2    1    0    0    0 -0.13019368469E+02 -0.16357633024E+02  0.20884981020E+02  0.95449051696E+02  0.90759368244E+02 0.  0.
         13    1    3    3    0    0 -0.38572883304E+02 -0.35364407706E+02  0.32440275839E+02  0.61570214546E+02  0.10566000000E+00 0. -1.
         22    1    1    0    0    0  0.13019368469E+02  0.16357633024E+02 -0.20884981020E+02  0.29550948304E+02  0.00000000000E+00 0. -1.
</event>
<event>
 5    1  0.1668518E-003  0.9118800E+02  0.7818608E-02  0.1130116E+00
         25   -1    0    0    0    0  0.00000000000E+00  0.00000000000E+00  0.99999998245E-14  0.12500000000E+03  0.12500000000E+03 0.  0.
        -13    1    3    3    0    0  0.27522134340E+02 -0.36849010597E+01  0.39555615310E+02  0.48329124149E+02  0.10566000000E+00 0. -1.
         23    2    1    0    0    0 -0.12726493342E+02 -0.18591109468E+02  0.16700499914E+02  0.96955398355E+02  0.92810826894E+02 0.  0.
         13    1    3    3    0    0 -0.40248627682E+02 -0.14906208408E+02 -0.22855115396E+02  0.48626274206E+02  0.10566000000E+00 0.  1.
         22    1    1    0    0    0  0.12726493342E+02  0.18591109468E+02 -0.16700499914E+02  0.28044601645E+02  0.00000000000E+00 0.  1.
</event>
<event>
 5    1  0.1668518E-003  0.9118800E+02  0.7818608E-02  0.1130116E+00
         25   -1    0    0    0    0  0.00000000000E+00  0.00000000000E+00  0.99999998245E-14  0.12500000000E+03  0.12500000000E+03 0.  0.
        -13    1    3    3    0    0  0.39855073962E+02  0.33863963307E+02 -0.25159305412E+02  0.58036167553E+02  0.10566000000E+00 0.  1.
         23    2    1    0    0    0  0.78375266966E+01  0.15638262849E+02 -0.24515757838E+02  0.94883485062E+02  0.89977059662E+02 0.  0.
         13    1    3    3    0    0 -0.32017547266E+02 -0.18225700458E+02  0.64354757391E+00  0.36847317509E+02  0.10566000000E+00 0. -1.
         22    1    1    0    0    0 -0.78375266966E+01 -0.15638262849E+02  0.24515757838E+02  0.30116514938E+02  0.00000000000E+00 0.  1.
</event>
<event>
 5    1  0.1668518E-003  0.9118800E+02  0.7818608E-02  0.1130116E+00
         25   -1    0    0    0    0  0.00000000000E+00  0.00000000000E+00  0.99999998245E-14  0.12500000000E+03  0.12500000000E+03 0.  0.
        -13    1    3    3    0    0 -0.65992730864E+00 -0.33090230258E+02 -0.29592764714E+02  0.44397541937E+02  0.10566000000E+00 0.  1.
         23    2    1    0    0    0 -0.61133764721E+01  0.17384673005E+02 -0.22900613433E+02  0.95605471206E+02  0.90974544800E+02 0.  0.
         13    1    3    3    0    0 -0.54534491635E+01  0.50474903263E+02  0.66921512813E+01  0.51207929269E+02  0.10566000000E+00 0. -1.
         22    1    1    0    0    0  0.61133764721E+01 -0.17384673005E+02  0.22900613433E+02  0.29394528794E+02  0.00000000000E+00 0. -1.
</event>
<event>
 5    1  0.1668518E-003  0.9118800E+02  0.7818608E-02  0.1130116E+00
         25   -1    0    0    0    0  0.00000000000E+00  0.00000000000E+00  0.99999998245E-14  0.12500000000E+03  0.12500000000E+03 0.  0.
        -13    1    3    3    0    0 -0.11074837466E+02 -0.45865087586E+02  0.30874309472E+01  0.47284264593E+02  0.10566000000E+00 0.  1.
         23    2    1    0    0    0  0.13265683432E+02 -0.84200092700E+01  0.23773558899E+02  0.96503385890E+02  0.92200035101E+02 0.  0.
         13    1    3    3    0    0  0.24340520898E+02  0.37445078316E+02  0.20686127951E+02  0.49219121298E+02  0.10566000000E+00 0. -1.
         22    1    1    0    0    0 -0.13265683432E+02  0.84200092700E+01 -0.23773558899E+02  0.28496614110E+02  0.00000000000E+00 0. -1.
</event>
<event>
 5    1  0.1668518E-003  0.9118800E+02  0.7818608E-02  0.1130116E+00
         25   -1    0    0    0    0  0.00000000000E+00  0.00000000000E+00  0.99999998245E-14  0.12500000000E+03  0.12500000000E+03 0.  0.
        -13    1    3    3    0    0 -0.28275207602E+02  0.41816034953E+02  0.45751933878E+01  0.50685419034E+02  0.10566000000E+00 0.  1.
         23    2    1    0    0    0 -0.30638538949E+02 -0.12068067072E+01  0.58154198659E+01  0.93791098072E+02  0.88446450002E+02 0.  0.
         13    1    3    3    0    0 -0.23633313467E+01 -0.43022841660E+02  0.12402264781E+01  0.43105679038E+02  0.10566000000E+00 0. -1.
         22    1    1    0    0    0  0.30638538949E+02  0.12068067072E+01 -0.58154198659E+01  0.31208901928E+02  0.00000000000E+00 0. -1.
</event>
<event>
 5    1  0.1668518E-003  0.9118800E+02  0.7818608E-02  0.1130116E+00
         25   -1    0    0    0    0  0.00000000000E+00  0.00000000000E+00  0.99999998245E-14  0.12500000000E+03  0.12500000000E+03 0.  0.
        -13    1    3    3    0    0  0.22956819906E+02 -0.47000378130E+02  0.31026388241E+02  0.60816930668E+02  0.10566000000E+00 0. -1.
         23    2    1    0    0    0  0.12765901253E+02 -0.25629118127E+02  0.51195032039E+01  0.95913418149E+02  0.91396687780E+02 0.  0.
         13    1    3    3    0    0 -0.10190918653E+02  0.21371260003E+02 -0.25906885037E+02  0.35096487481E+02  0.10566000000E+00 0.  1.
         22    1    1    0    0    0 -0.12765901253E+02  0.25629118127E+02 -0.51195032039E+01  0.29086581851E+02  0.00000000000E+00 0. -1.
</event>
<event>
 5    1  0.1668518E-003  0.9118800E+02  0.7818608E-02  0.1130116E+00
         25   -1    0    0    0    0  0.00000000000E+00  0.00000000000E+00  0.99999998245E-14  0.12500000000E+03  0.12500000000E+03 0.  0.
        -13    1    3    3    0    0  0.31643386468E+02 -0.24941884486E+02 -0.45018654453E+02  0.60415990612E+02  0.10566000000E+00 0.  1.
         23    2    1    0    0    0  0.16396618106E+02 -0.11812131128E+01 -0.25208532171E+02  0.94904909969E+02  0.90006819143E+02 0.  0.
         13    1    3    3    0    0 -0.15246768362E+02  0.23760671373E+02  0.19810122282E+02  0.34488919357E+02  0.10566000000E+00 0. -1.
         22    1    1    0    0    0 -0.16396618106E+02  0.11812131128E+01  0.25208532171E+02  0.30095090031E+02  0.00000000000E+00 0.  1.
</event>
<event>
 5    1  0.1668518E-003  0.9118800E+02  0.7818608E-02  0.1130116E+00
         25   -1    0    0    0    0  0.00000000000E+00  0.00000000000E+00  0.99999998245E-14  0.12500000000E+03  0.12500000000E+03 0.  0.
        -13    1    3    3    0    0  0.83081389576E+01 -0.23255992192E+02 -0.50122258359E+02  0.55875918720E+02  0.10566000000E+00 0.  1.
         23    2    1    0    0    0  0.21572220620E+02 -0.13900667219E+02 -0.13347776090E+02  0.96073327565E+02  0.91615129161E+02 0.  0.
         13    1    3    3    0    0  0.13264081663E+02  0.93553249732E+01  0.36774482268E+02  0.40197408845E+02  0.10566000000E+00 0. -1.
         22    1    1    0    0    0 -0.21572220620E+02  0.13900667219E+02  0.13347776090E+02  0.28926672435E+02  0.00000000000E+00 0.  1.
</event>
<event>
 5    1  0.1668518E-003  0.9118800E+02  0.7818608E-02  0.1130116E+00
         25   -1    0    0    0    0  0.00000000000E+00  0.00000000000E+00  0.99999998245E-14  0.12500000000E+03  0.12500000000E+03 0.  0.
        -13    1    3    3    0    0 -0.23205903046E+02 -0.27269345664E+02 -0.22112946484E+02  0.42084732569E+02  0.10566000000E+00 0.  1.
         23    2    1    0    0    0 -0.90069224159E+01  0.20403516772E+02 -0.24479953022E+02  0.91883595485E+02  0.85708219391E+02 0.  0.
         13    1    3    3    0    0  0.14198980630E+02  0.47672862436E+02 -0.23670065380E+01  0.49798862916E+02  0.10566000000E+00 0. -1.
         22    1    1    0    0    0  0.90069224159E+01 -0.20403516772E+02  0.24479953022E+02  0.33116404515E+02  0.00000000000E+00 0. -1.
</event>
<event>
 5    1  0.1668518E-003  0.9118800E+02  0.7818608E-02  0.1130116E+00
         25   -1    0    0    0    0  0.00000000000E+00  0.00000000000E+00  0.99999998245E-14  0.12500000000E+03  0.12500000000E+03 0.  0.
        -13    1    3    3    0    0 -0.40817877133E+02  0.75565991439E+01  0.44543781120E+02  0.60888101340E+02  0.10566000000E+00 0. -1.
         23    2    1    0    0    0 -0.11918580693E+02  0.15629667651E+01  0.27541516581E+02  0.94949533008E+02  0.90068769571E+02 0.  0.
         13    1    3    3    0    0  0.28899296439E+02 -0.59936323788E+01 -0.17002264539E+02  0.34061431668E+02  0.10566000000E+00 0.  1.
         22    1    1    0    0    0  0.11918580693E+02 -0.15629667651E+01 -0.27541516581E+02  0.30050466992E+02  0.00000000000E+00 0. -1.
</event>
<event>
 5    1  0.1668518E-003  0.9118800E+02  0.7818608E-02  0.1130116E+00
         25   -1    0    0    0    0  0.00000000000E+00  0.00000000000E+00  0.99999998245E-14  0.12500000000E+03  0.12500000000E+03 0.  0.
        -13    1    3    3    0    0 -0.94793737665E+01 -0.30296066214E+02  0.12742399300E+02  0.34206579177E+02  0.10566000000E+00 0.  1.
         23    2    1    0    0    0  0.24077810772E+00  0.26207146141E+02 -0.11405246163E+02  0.96417625659E+02  0.92083692447E+02 0.  0.
         13    1    3    3    0    0  0.97201518742E+01  0.56503212355E+02 -0.24147645463E+02  0.62211046482E+02  0.10566000000E+00 0. -1.
         22    1    1    0    0    0 -0.24077810772E+00 -0.26207146141E+02  0.11405246163E+02  0.28582374341E+02  0.00000000000E+00 0. -1.
</event>
<event>
 5    1  0.1668518E-003  0.9118800E+02  0.7818608E-02  0.1130116E+00
         25   -1    0    0    0    0  0.00000000000E+00  0.00000000000E+00  0.99999998245E-14  0.12500000000E+03  0.12500000000E+03 0.  0.
        -13    1    3    3    0    0 -0.21781016629E+02  0.15092616107E+02 -0.19084604224E+02  0.32656286207E+02  0.10566000000E+00 0. -1.
         23    2    1    0    0    0  0.16418526208E+02 -0.23201322624E+02  0.10968690925E+02  0.94533927806E+02  0.89490122089E+02 0.  0.
         13    1    3    3    0    0  0.38199542837E+02 -0.38293938731E+02  0.30053295149E+02  0.61877641599E+02  0.10566000000E+00 0.  1.
         22    1    1    0    0    0 -0.16418526208E+02  0.23201322624E+02 -0.10968690925E+02  0.30466072194E+02  0.00000000000E+00 0.  1.
</event>
<event>
 5    1  0.1668518E-003  0.9118800E+02  0.7818608E-02  0.1130116E+00
         25   -1    0    0    0    0  0.00000000000E+00  0.00000000000E+00  0.99999998245E-14  0.12500000000E+03  0.12500000000E+03 0.  0.
        -13    1    3    3    0    0  0.22149128754E+01  0.44535549879E+02 -0.30505691086E+02  0.54027117217E+02  0.10566000000E+00 0.  1.
         23    2    1    0    0    0  0.11157355111E+02  0.24043131620E+02 -0.38915495477E+02  0.77915240901E+02  0.62079064308E+02 0.  0.
         13    1    3    3    0    0  0.89424422361E+01 -0.20492418259E+02 -0.84098043907E+01  0.23888123685E+02  0.10566000000E+00 0. -1.
         22    1    1    0    0    0 -0.11157355111E+02 -0.24043131620E+02  0.38915495477E+02  0.47084759099E+02  0.00000000000E+00 0.  1.
</event>
<event>
 5    1  0.1668518E-003  0.9118800E+02  0.7818608E-02  0.1130116E+00
         25   -1    0    0    0    0  0.00000000000E+00  0.00000000000E+00  0.99999998245E-14  0.12500000000E+03  0.12500000000E+03 0.  0.
        -13    1    3    3    0    0 -0.31315190027E+02 -0.10454153501E+02 -0.22690396689E+02  0.40059901620E+02  0.10566000000E+00 0. -1.
         23    2    1    0    0    0  0.20820183768E+02 -0.13594295293E+02  0.56750010356E+01  0.99495283703E+02  0.96170790398E+02 0.  0.
         13    1    3    3    0    0  0.52135373795E+02 -0.31401417924E+01  0.28365397725E+02  0.59435382083E+02  0.10566000000E+00 0.  1.
         22    1    1    0    0    0 -0.20820183768E+02  0.13594295293E+02 -0.56750010356E+01  0.25504716297E+02  0.00000000000E+00 0.  1.
</event>
<event>
 5    1  0.1668518E-003  0.9118800E+02  0.7818608E-02  0.1130116E+00
         25   -1    0    0    0    0  0.00000000000E+00  0.00000000000E+00  0.99999998245E-14  0.12500000000E+03  0.12500000000E+03 0.  0.
        -13    1    3    3    0    0  0.18824137384E+02  0.25084622315E+02  0.13108568359E+02  0.33991648289E+02  0.10566000000E+00 0. -1.
         23    2    1    0    0    0 -0.27971723942E+02 -0.11369659032E+02 -0.28635487777E+00  0.94804495601E+02  0.89867257109E+02 0.  0.
         13    1    3    3    0    0 -0.46795861325E+02 -0.36454281347E+02 -0.13394923237E+02  0.60812847313E+02  0.10566000000E+00 0.  1.
         22    1    1    0    0    0  0.27971723942E+02  0.11369659032E+02  0.28635487777E+00  0.30195504399E+02  0.00000000000E+00 0.  1.
</event>
<event>
 5    1  0.1668518E-003  0.9118800E+02  0.7818608E-02  0.1130116E+00
         25   -1    0    0    0    0  0.00000000000E+00  0.00000000000E+00  0.99999998245E-14  0.12500000000E+03  0.12500000000E+03 0.  0.
        -13    1    3    3    0    0 -0.35409600081E+02  0.40419070752E+02 -0.29223693914E+01  0.53815355293E+02  0.10566000000E+00 0.  1.
         23    2    1    0    0    0  0.45093574074E+01  0.28689541255E+02 -0.52518015479E+01  0.95487197673E+02  0.90811890292E+02 0.  0.
         13    1    3    3    0    0  0.39918957489E+02 -0.11729529497E+02 -0.23294321564E+01  0.41671842381E+02  0.10566000000E+00 0. -1.
         22    1    1    0    0    0 -0.45093574074E+01 -0.28689541255E+02  0.52518015479E+01  0.29512802327E+02  0.00000000000E+00 0.  1.
</event>
<event>
 5    1  0.1668518E-003  0.9118800E+02  0.7818608E-02  0.1130116E+00
         25   -1    0    0    0    0  0.00000000000E+00  0.00000000000E+00  0.99999998245E-14  0.12500000000E+03  0.12500000000E+03 0.  0.
        -13    1    3    3    0    0  0.40920304229E+02 -0.15923514558E+02  0.35389062241E+02  0.56395270231E+02  0.10566000000E+00 0.  1.
         23    2    1    0    0    0  0.37439721442E+01 -0.18341879367E+02  0.22303203162E+02  0.95881711290E+02  0.91353313144E+02 0.  0.
         13    1    3    3    0    0 -0.37176332085E+02 -0.24183648094E+01 -0.13085859079E+02  0.39486441059E+02  0.10566000000E+00 0. -1.
         22    1    1    0    0    0 -0.37439721442E+01  0.18341879367E+02 -0.22303203162E+02  0.29118288710E+02  0.00000000000E+00 0.  1.
</event>
<event>
 5    1  0.1668518E-003  0.9118800E+02  0.7818608E-02  0.1130116E+00
         25   -1    0    0    0    0  0.00000000000E+00  0.00000000000E+00  0.99999998245E-14  0.12500000000E+03  0.12500000000E+03 0.  0.
        -13    1    3    3    0    0 -0.17883687197E+02  0.12984819000E+02 -0.26994057519E+02  0.34887277016E+02  0.10566000000E+00 0. -1.
         23    2    1    0    0    0 -0.11890005885E+02  0.75026274570E+01  0.29689473437E+02  0.92149939244E+02  0.86095788578E+02 0.  0.
         13    1    3    3    0    0  0.59936813119E+01 -0.54821915431E+01  0.56683530956E+02  0.57262662228E+02  0.10566000000E+00 0.  1.
         22    1    1    0    0    0  0.11890005885E+02 -0.75026274570E+01 -0.29689473437E+02  0.32850060756E+02  0.00000000000E+00 0.  1.
</event>
<event>
 5    1  0.1668518E-003  0.9118800E+02  0.7818608E-02  0.1130116E+00
         25   -1    0    0    0    0  0.00000000000E+00  0.00000000000E+00  0.99999998245E-14  0.12500000000E+03  0.12500000000E+03 0.  0.
        -13    1    3    3    0    0 -0.37172423009E+02 -0.41531779859E+02 -0.11154481252E+02  0.56842865749E+02  0.10566000000E+00 0. -1.
         23    2    1    0    0    0 -0.29162494825E+02 -0.53410922598E+01 -0.74645242968E+00  0.95343035182E+02  0.90613237419E+02 0.  0.
         13    1    3    3    0    0  0.80099281835E+01  0.36190687599E+02  0.10408028823E+02  0.38500169433E+02  0.10566000000E+00 0.  1.
         22    1    1    0    0    0  0.29162494825E+02  0.53410922598E+01  0.74645242968E+00  0.29656964818E+02  0.00000000000E+00 0. -1.
</event>
<event>
 5    1  0.1668518E-003  0.9118800E+02  0.7818608E-02  0.1130116E+00
         25   -1    0    0    0    0  0.00000000000E+00  0.00000000000E+00  0.99999998245E-14  0.12500000000E+03  0.12500000000E+03 0.  0.
        -13    1    3    3    0    0  0.52539793759E+02  0.82938622797E+01 -0.14026283040E+02  0.55008779842E+02  0.10566000000E+00 0. -1.
         23    2    1    0    0    0  0.26847476068E+02 -0.73045904195E+01  0.11934462991E+02  0.94725003397E+02  0.89756620086E+02 0.  0.
         13    1    3    3    0    0 -0.25692317691E+02 -0.15598452699E+02  0.25960746031E+02  0.39716223555E+02  0.10566000000E+00 0.  1.
         22    1    1    0    0    0 -0.26847476068E+02  0.73045904195E+01 -0.11934462991E+02  0.30274996603E+02  0.00000000000E+00 0. -1.
</event>
<event>
 5    1  0.1668518E-003  0.9118800E+02  0.7818608E-02  0.1130116E+00
         25   -1    0    0    0    0  0.00000000000E+00  0.00000000000E+00  0.99999998245E-14  0.12500000000E+03  0.12500000000E+03 0.  0.
        -13    1    3    3    0    0  0.26148947380E+02  0.26290953270E+02 -0.12732304336E+02  0.39205923158E+02  0.10566000000E+00 0.  1.
         23    2    1    0    0    0  0.21206762658E+00  0.19361248496E+01  0.30071150246E+02  0.94865839497E+02  0.89952542344E+02 0.  0.
         13    1    3    3    0    0 -0.25936879753E+02 -0.24354828420E+02  0.42803454582E+02  0.55659916339E+02  0.10566000000E+00 0. -1.
         22    1    1    0    0    0 -0.21206762658E+00 -0.19361248496E+01 -0.30071150246E+02  0.30134160503E+02  0.00000000000E+00 0. -1.
</event>
<event>
 5    1  0.1668518E-003  0.9118800E+02  0.7818608E-02  0.1130116E+00
         25   -1    0    0    0    0  0.00000000000E+00  0.00000000000E+00  0.99999998245E-14  0.12500000000E+03  0.12500000000E+03 0.  0.
        -13    1    3    3    0    0  0.22848450601E+02 -0.25150367551E+02 -0.17242078403E+02  0.38103715233E+02  0.10566000000E+00 0. -1.
         23    2    1    0    0    0  0.11730621718E+02  0.21814512812E+02  0.14904640713E+02  0.96092755754E+02  0.91641633216E+02 0.  0.
         13    1    3    3    0    0 -0.11117828883E+02  0.46964880363E+02  0.32146719116E+02  0.57989040521E+02  0.10566000000E+00 0.  1.
         22    1    1    0    0    0 -0.11730621718E+02 -0.21814512812E+02 -0.14904640713E+02  0.28907244246E+02  0.00000000000E+00 0.  1.
</event>
<event>
 5    1  0.1668518E-003  0.9118800E+02  0.7818608E-02  0.1130116E+00
         25   -1    0    0    0    0  0.00000000000E+00  0.00000000000E+00  0.99999998245E-14  0.12500000000E+03  0.12500000000E+03 0.  0.
        -13    1    3    3    0    0 -0.42345072720E+02 -0.41800766039E+02  0.14957583541E+02  0.61352666564E+02  0.10566000000E+00 0.  1.
         23    2    1    0    0    0 -0.16809692204E+02 -0.23496258335E+02  0.93855471855E-01  0.96109712418E+02  0.91664759338E+02 0.  0.
         13    1    3    3    0    0  0.25535380516E+02  0.18304507704E+02 -0.14863728069E+02  0.34757045854E+02  0.10566000000E+00 0. -1.
         22    1    1    0    0    0  0.16809692204E+02  0.23496258335E+02 -0.93855471855E-01  0.28890287582E+02  0.00000000000E+00 0.  1.
</event>
<event>
 5    1  0.1668518E-003  0.9118800E+02  0.7818608E-02  0.1130116E+00
         25   -1    0    0    0    0  0.00000000000E+00  0.00000000000E+00  0.99999998245E-14  0.12500000000E+03  0.12500000000E+03 0.  0.
        -13    1    3    3    0    0  0.49531830982E+01 -0.25647741355E+02 -0.27796204865E+02  0.38144210941E+02  0.10566000000E+00 0. -1.
         23    2    1    0    0    0  0.21742864971E+01 -0.65595454287E+01  0.27466889157E+02  0.96677126595E+02  0.92435283570E+02 0.  0.
         13    1    3    3    0    0 -0.27788966011E+01  0.19088195926E+02  0.55263094021E+02  0.58532915653E+02  0.10566000000E+00 0.  1.
         22    1    1    0    0    0 -0.21742864971E+01  0.65595454287E+01 -0.27466889157E+02  0.28322873405E+02  0.00000000000E+00 0.  1.
</event>
<event>
 5    1  0.1668518E-003  0.9118800E+02  0.7818608E-02  0.1130116E+00
         25   -1    0    0    0    0  0.00000000000E+00  0.00000000000E+00  0.99999998245E-14  0.12500000000E+03  0.12500000000E+03 0.  0.
        -13    1    3    3    0    0 -0.21571343596E+02 -0.32869829471E+02  0.15511390388E+02  0.42265387136E+02  0.10566000000E+00 0. -1.
         23    2    1    0    0    0 -0.43335467689E+01  0.15412825642E+02  0.25877111892E+02  0.94570413382E+02  0.89541070718E+02 0.  0.
         13    1    3    3    0    0  0.17237796827E+02  0.48282655113E+02  0.10365721504E+02  0.52305026245E+02  0.10566000000E+00 0.  1.
         22    1    1    0    0    0  0.43335467689E+01 -0.15412825642E+02 -0.25877111892E+02  0.30429586618E+02  0.00000000000E+00 0. -1.
</event>
<event>
 5    1  0.1668518E-003  0.9118800E+02  0.7818608E-02  0.1130116E+00
         25   -1    0    0    0    0  0.00000000000E+00  0.00000000000E+00  0.99999998245E-14  0.12500000000E+03  0.12500000000E+03 0.  0.
        -13    1    3    3    0    0  0.43998980653E+02  0.26219475819E+02 -0.17436090469E+01  0.51248634590E+02  0.10566000000E+00 0. -1.
         23    2    1    0    0    0  0.19002615173E+02 -0.81897249363E+01 -0.18772327709E+02  0.97061294490E+02  0.92953341105E+02 0.  0.
         13    1    3    3    0    0 -0.24996365480E+02 -0.34409200755E+02 -0.17028718662E+02  0.45812659900E+02  0.10566000000E+00 0.  1.
         22    1    1    0    0    0 -0.19002615173E+02  0.81897249363E+01  0.18772327709E+02  0.27938705510E+02  0.00000000000E+00 0. -1.
</event>
<event>
 5    1  0.1668518E-003  0.9118800E+02  0.7818608E-02  0.1130116E+00
         25   -1    0    0    0    0  0.00000000000E+00  0.00000000000E+00  0.99999998245E-14  0.12500000000E+03  0.12500000000E+03 0.  0.
        -13    1    3    3    0    0 -0.24885594854E+02 -0.31853993594E+02  0.38423449820E+02  0.55770443778E+02  0.10566000000E+00 0.  1.
         23    2    1    0    0    0  0.13588434175E+01 -0.58114350097E+01  0.30935586323E+02  0.93493973062E+02  0.88025526215E+02 0.  0.
         13    1    3    3    0    0  0.26244438272E+02  0.26042558584E+02 -0.74878634969E+01  0.37723529283E+02  0.10566000000E+00 0. -1.
         22    1    1    0    0    0 -0.13588434175E+01  0.58114350097E+01 -0.30935586323E+02  0.31506026938E+02  0.00000000000E+00 0.  1.
</event>
<event>
 5    1  0.1668518E-003  0.9118800E+02  0.7818608E-02  0.1130116E+00
         25   -1    0    0    0    0  0.00000000000E+00  0.00000000000E+00  0.99999998245E-14  0.12500000000E+03  0.12500000000E+03 0.  0.
        -13    1    3    3    0    0  0.39731150298E+02  0.39761123686E+02 -0.16489361229E+02  0.58578336086E+02  0.10566000000E+00 0.  1.
         23    2    1    0    0    0  0.95077884229E+01  0.30617274624E+02 -0.33985971110E+01  0.92760800127E+02  0.86978158361E+02 0.  0.
         13    1    3    3    0    0 -0.30223361875E+02 -0.91438490620E+01  0.13090764118E+02  0.34182464041E+02  0.10566000000E+00 0. -1.
         22    1    1    0    0    0 -0.95077884229E+01 -0.30617274624E+02  0.33985971110E+01  0.32239199873E+02  0.00000000000E+00 0.  1.
</event>
<event>
 5    1  0.1668518E-003  0.9118800E+02  0.7818608E-02  0.1130116E+00
         25   -1    0    0    0    0  0.00000000000E+00  0.00000000000E+00  0.99999998245E-14  0.12500000000E+03  0.12500000000E+03 0.  0.
        -13    1    3    3    0    0  0.23905118999E+02  0.30105519636E+02  0.32512981213E+02  0.50347811654E+02  0.10566000000E+00 0. -1.
         23    2    1    0    0    0 -0.91510317075E+01  0.30759830188E+02  0.68913196544E+01  0.92176246085E+02  0.86133974256E+02 0.  0.
         13    1    3    3    0    0 -0.33056150707E+02  0.65431055183E+00 -0.25621661559E+02  0.41828434431E+02  0.10566000000E+00 0.  1.
         22    1    1    0    0    0  0.91510317075E+01 -0.30759830188E+02 -0.68913196544E+01  0.32823753915E+02  0.00000000000E+00 0. -1.
</event>
<event>
 5    1  0.1668518E-003  0.9118800E+02  0.7818608E-02  0.1130116E+00
         25   -1    0    0    0    0  0.00000000000E+00  0.00000000000E+00  0.99999998245E-14  0.12500000000E+03  0.12500000000E+03 0.  0.
        -13    1    3    3    0    0  0.26372795676E+01 -0.24222570933E+01  0.36816893350E+02  0.36990774159E+02  0.10566000000E+00 0. -1.
         23    2    1    0    0    0 -0.77785852141E+01  0.20498878477E+02 -0.17557567858E+02  0.96911237197E+02  0.92751330444E+02 0.  0.
         13    1    3    3    0    0 -0.10415864782E+02  0.22921135570E+02 -0.54374461208E+02  0.59920463037E+02  0.10566000000E+00 0.  1.
         22    1    1    0    0    0  0.77785852141E+01 -0.20498878477E+02  0.17557567858E+02  0.28088762803E+02  0.00000000000E+00 0.  1.
</event>
<event>
 5    1  0.1668518E-003  0.9118800E+02  0.7818608E-02  0.1130116E+00
         25   -1    0    0    0    0  0.00000000000E+00  0.00000000000E+00  0.99999998245E-14  0.12500000000E+03  0.12500000000E+03 0.  0.
        -13    1    3    3    0    0  0.21172798854E+02 -0.24446358719E+02 -0.12807170768E+02  0.34784287445E+02  0.10566000000E+00 0. -1.
         23    2    1    0    0    0 -0.10804603920E+02  0.22415249971E+02  0.12787642735E+02  0.97023104106E+02  0.92901969982E+02 0.  0.
         13    1    3    3    0    0 -0.31977402774E+02  0.46861608690E+02  0.25594813503E+02  0.62238816662E+02  0.10566000000E+00 0.  1.
         22    1    1    0    0    0  0.10804603920E+02 -0.22415249971E+02 -0.12787642735E+02  0.27976895894E+02  0.00000000000E+00 0.  1.
</event>
<event>
 5    1  0.1668518E-003  0.9118800E+02  0.7818608E-02  0.1130116E+00
         25   -1    0    0    0    0  0.00000000000E+00  0.00000000000E+00  0.99999998245E-14  0.12500000000E+03  0.12500000000E+03 0.  0.
        -13    1    3    3    0    0  0.25768403701E+02 -0.46359743371E+02 -0.85119624991E+01  0.53718722103E+02  0.10566000000E+00 0.  1.
         23    2    1    0    0    0 -0.85566801020E+01 -0.23174421323E+02 -0.15657185744E+02  0.95752469447E+02  0.91176298245E+02 0.  0.
         13    1    3    3    0    0 -0.34325083803E+02  0.23185322047E+02 -0.71452232447E+01  0.42033747344E+02  0.10566000000E+00 0. -1.
         22    1    1    0    0    0  0.85566801020E+01  0.23174421323E+02  0.15657185744E+02  0.29247530553E+02  0.00000000000E+00 0. -1.
</event>
<event>
 5    1  0.1668518E-003  0.9118800E+02  0.7818608E-02  0.1130116E+00
         25   -1    0    0    0    0  0.00000000000E+00  0.00000000000E+00  0.99999998245E-14  0.12500000000E+03  0.12500000000E+03 0.  0.
        -13    1    3    3    0    0 -0.36423439288E+02 -0.15717772406E+02  0.19748999951E+02  0.44314212868E+02  0.10566000000E+00 0. -1.
         23    2    1    0    0    0  0.15893569824E+02 -0.19033311628E+02  0.12486564351E+02  0.97236952571E+02  0.93189259803E+02 0.  0.
         13    1    3    3    0    0  0.52317009112E+02 -0.33155392227E+01 -0.72624356009E+01  0.52922739703E+02  0.10566000000E+00 0.  1.
         22    1    1    0    0    0 -0.15893569824E+02  0.19033311628E+02 -0.12486564351E+02  0.27763047429E+02  0.00000000000E+00 0.  1.
</event>
<event>
 5    1  0.1668518E-003  0.9118800E+02  0.7818608E-02  0.1130116E+00
         25   -1    0    0    0    0  0.00000000000E+00  0.00000000000E+00  0.99999998245E-14  0.12500000000E+03  0.12500000000E+03 0.  0.
        -13    1    3    3    0    0  0.37478158548E+02 -0.44315651477E+02 -0.63186004073E+01  0.58381719820E+02  0.10566000000E+00 0.  1.
         23    2    1    0    0    0  0.13040526083E+02 -0.32375605261E+02  0.81046787597E+01  0.89168157257E+02  0.81651940053E+02 0.  0.
         13    1    3    3    0    0 -0.24437632465E+02  0.11940046216E+02  0.14423279167E+02  0.30786437437E+02  0.10566000000E+00 0. -1.
         22    1    1    0    0    0 -0.13040526083E+02  0.32375605261E+02 -0.81046787597E+01  0.35831842743E+02  0.00000000000E+00 0.  1.
</event>
<event>
 5    1  0.1668518E-003  0.9118800E+02  0.7818608E-02  0.1130116E+00
         25   -1    0    0    0    0  0.00000000000E+00  0.00000000000E+00  0.99999998245E-14  0.12500000000E+03  0.12500000000E+03 0.  0.
        -13    1    3    3    0    0 -0.22327146524E+02 -0.11878070896E+02 -0.27360202599E+02  0.37258313038E+02  0.10566000000E+00 0. -1.
         23    2    1    0    0    0  0.14204856160E+02  0.24330131185E+02  0.24708528180E+01  0.96718586746E+02  0.92491333034E+02 0.  0.
         13    1    3    3    0    0  0.36532002684E+02  0.36208202082E+02  0.29831055417E+02  0.59460273708E+02  0.10566000000E+00 0.  1.
         22    1    1    0    0    0 -0.14204856160E+02 -0.24330131185E+02 -0.24708528180E+01  0.28281413254E+02  0.00000000000E+00 0.  1.
</event>
<event>
 5    1  0.1668518E-003  0.9118800E+02  0.7818608E-02  0.1130116E+00
         25   -1    0    0    0    0  0.00000000000E+00  0.00000000000E+00  0.99999998245E-14  0.12500000000E+03  0.12500000000E+03 0.  0.
        -13    1    3    3    0    0 -0.28355828060E+02  0.13126509464E+02 -0.13797435296E+02  0.34157555833E+02  0.10566000000E+00 0.  1.
         23    2    1    0    0    0  0.12407975282E+02 -0.11232000067E+02  0.24613778593E+02  0.95235024395E+02  0.90464114979E+02 0.  0.
         13    1    3    3    0    0  0.40763803343E+02 -0.24358509531E+02  0.38411213889E+02  0.61077468563E+02  0.10566000000E+00 0. -1.
         22    1    1    0    0    0 -0.12407975282E+02  0.11232000067E+02 -0.24613778593E+02  0.29764975605E+02  0.00000000000E+00 0. -1.
</event>
<event>
 5    1  0.1668518E-003  0.9118800E+02  0.7818608E-02  0.1130116E+00
         25   -1    0    0    0    0  0.00000000000E+00  0.00000000000E+00  0.99999998245E-14  0.12500000000E+03  0.12500000000E+03 0.  0.
        -13    1    3    3    0    0 -0.23512684841E+02  0.29127267712E+02  0.29297537928E+00  0.37434490399E+02  0.10566000000E+00 0.  1.
         23    2    1    0    0    0  0.29150904837E+02  0.54210886552E+01  0.26129136804E+01  0.95234402863E+02  0.90463256164E+02 0.  0.
         13    1    3    3    0    0  0.52663589677E+02 -0.23706179057E+02  0.23199383011E+01  0.57799912465E+02  0.10566000000E+00 0. -1.
         22    1    1    0    0    0 -0.29150904837E+02 -0.54210886552E+01 -0.26129136804E+01  0.29765597137E+02  0.00000000000E+00 0. -1.
</event>
<event>
 5    1  0.1668518E-003  0.9118800E+02  0.7818608E-02  0.1130116E+00
         25   -1    0    0    0    0  0.00000000000E+00  0.00000000000E+00  0.99999998245E-14  0.12500000000E+03  0.12500000000E+03 0.  0.
        -13    1    3    3    0    0  0.74730330093E+01  0.52515600998E+01  0.38841945525E+02  0.39901541349E+02  0.10566000000E+00 0.  1.
         23    2    1    0    0    0  0.21766443544E+02 -0.16883634494E+02 -0.10241939972E+02  0.95610673491E+02  0.90981692514E+02 0.  0.
         13    1    3    3    0    0  0.14293410535E+02 -0.22135194593E+02 -0.49083885497E+02  0.55709132142E+02  0.10566000000E+00 0. -1.
         22    1    1    0    0    0 -0.21766443544E+02  0.16883634494E+02  0.10241939972E+02  0.29389326509E+02  0.00000000000E+00 0. -1.
</event>
<event>
 5    1  0.1668518E-003  0.9118800E+02  0.7818608E-02  0.1130116E+00
         25   -1    0    0    0    0  0.00000000000E+00  0.00000000000E+00  0.99999998245E-14  0.12500000000E+03  0.12500000000E+03 0.  0.
        -13    1    3    3    0    0 -0.47825477341E+02 -0.14308807177E+02 -0.15550727735E+02  0.52286274899E+02  0.10566000000E+00 0. -1.
         23    2    1    0    0    0 -0.21875319316E+02 -0.66756847629E+01  0.18365074049E+02  0.95667930399E+02  0.91060323961E+02 0.  0.
         13    1    3    3    0    0  0.25950158025E+02  0.76331224140E+01  0.33915801784E+02  0.43381655501E+02  0.10566000000E+00 0.  1.
         22    1    1    0    0    0  0.21875319316E+02  0.66756847629E+01 -0.18365074049E+02  0.29332069601E+02  0.00000000000E+00 0. -1.
</event>
<event>
 5    1  0.1668518E-003  0.9118800E+02  0.7818608E-02  0.1130116E+00
         25   -1    0    0    0    0  0.00000000000E+00  0.00000000000E+00  0.99999998245E-14  0.12500000000E+03  0.12500000000E+03 0.  0.
        -13    1    3    3    0    0 -0.18443637998E+02 -0.24002185102E+02  0.12986391313E+02  0.32938278578E+02  0.10566000000E+00 0.  1.
         23    2    1    0    0    0  0.23540424908E+02  0.84293546320E+01 -0.17829137892E+02  0.94290330800E+02  0.89149215925E+02 0.  0.
         13    1    3    3    0    0  0.41984062907E+02  0.32431539734E+02 -0.30815529205E+02  0.61352052222E+02  0.10566000000E+00 0. -1.
         22    1    1    0    0    0 -0.23540424908E+02 -0.84293546320E+01  0.17829137892E+02  0.30709669200E+02  0.00000000000E+00 0. -1.
</event>
<event>
 5    1  0.1668518E-003  0.9118800E+02  0.7818608E-02  0.1130116E+00
         25   -1    0    0    0    0  0.00000000000E+00  0.00000000000E+00  0.99999998245E-14  0.12500000000E+03  0.12500000000E+03 0.  0.
        -13    1    3    3    0    0  0.21736345530E+02 -0.49736580321E+02  0.34953869447E+01  0.54391405874E+02  0.10566000000E+00 0. -1.
         23    2    1    0    0    0  0.28336459298E+02 -0.10161657629E+02  0.47042017684E+01  0.94531266426E+02  0.89486404591E+02 0.  0.
         13    1    3    3    0    0  0.66001137681E+01  0.39574922692E+02  0.12088148237E+01  0.40139860552E+02  0.10566000000E+00 0.  1.
         22    1    1    0    0    0 -0.28336459298E+02  0.10161657629E+02 -0.47042017684E+01  0.30468733574E+02  0.00000000000E+00 0. -1.
</event>
<event>
 5    1  0.1668518E-003  0.9118800E+02  0.7818608E-02  0.1130116E+00
         25   -1    0    0    0    0  0.00000000000E+00  0.00000000000E+00  0.99999998245E-14  0.12500000000E+03  0.12500000000E+03 0.  0.
        -13    1    3    3    0    0 -0.16463069672E+02  0.34811186846E+02  0.18236583874E+02  0.42607928231E+02  0.10566000000E+00 0.  1.
         23    2    1    0    0    0 -0.10912172999E+02 -0.20393296184E+02  0.13322846320E+02  0.98308048350E+02  0.94615073258E+02 0.  0.
         13    1    3    3    0    0  0.55508966731E+01 -0.55204483030E+02 -0.49137375545E+01  0.55700120119E+02  0.10566000000E+00 0. -1.
         22    1    1    0    0    0  0.10912172999E+02  0.20393296184E+02 -0.13322846320E+02  0.26691951650E+02  0.00000000000E+00 0. -1.
</event>
<event>
 5    1  0.1668518E-003  0.9118800E+02  0.7818608E-02  0.1130116E+00
         25   -1    0    0    0    0  0.00000000000E+00  0.00000000000E+00  0.99999998245E-14  0.12500000000E+03  0.12500000000E+03 0.  0.
        -13    1    3    3    0    0 -0.34369599283E+02  0.48012441207E+02  0.44879593218E+01  0.59216693664E+02  0.10566000000E+00 0. -1.
         23    2    1    0    0    0 -0.23382991609E+02  0.12279229158E+02  0.94935277627E+01  0.96934525932E+02  0.92782711121E+02 0.  0.
         13    1    3    3    0    0  0.10986607674E+02 -0.35733212049E+02  0.50055684409E+01  0.37717832268E+02  0.10566000000E+00 0.  1.
         22    1    1    0    0    0  0.23382991609E+02 -0.12279229158E+02 -0.94935277627E+01  0.28065474068E+02  0.00000000000E+00 0. -1.
</event>
<event>
 5    1  0.1668518E-003  0.9118800E+02  0.7818608E-02  0.1130116E+00
         25   -1    0    0    0    0  0.00000000000E+00  0.00000000000E+00  0.99999998245E-14  0.12500000000E+03  0.12500000000E+03 0.  0.
        -13    1    3    3    0    0 -0.20881775411E+02 -0.17801816072E+02  0.70878216410E+01  0.28340811199E+02  0.10566000000E+00 0.  1.
         23    2    1    0    0    0  0.68433696441E+00  0.37158760541E+02 -0.23926407520E+00  0.87834168254E+02  0.79583553977E+02 0.  0.
         13    1    3    3    0    0  0.21566112375E+02  0.54960576613E+02 -0.73270857162E+01  0.59493357056E+02  0.10566000000E+00 0. -1.
         22    1    1    0    0    0 -0.68433696441E+00 -0.37158760541E+02  0.23926407520E+00  0.37165831746E+02  0.00000000000E+00 0. -1.
</event>
<event>
 5    1  0.1668518E-003  0.9118800E+02  0.7818608E-02  0.1130116E+00
         25   -1    0    0    0    0  0.00000000000E+00  0.00000000000E+00  0.99999998245E-14  0.12500000000E+03  0.12500000000E+03 0.  0.
        -13    1    3    3    0    0  0.21169233073E+02  0.24865336182E+02  0.46995198647E+02  0.57227451737E+02  0.10566000000E+00 0.  1.
         23    2    1    0    0    0  0.15533126612E+02  0.24155348421E+02  0.10100661289E+02  0.94556901633E+02  0.89522206230E+02 0.  0.
         13    1    3    3    0    0 -0.56361064609E+01 -0.70998776092E+00 -0.36894537358E+02  0.37329449896E+02  0.10566000000E+00 0. -1.
         22    1    1    0    0    0 -0.15533126612E+02 -0.24155348421E+02 -0.10100661289E+02  0.30443098367E+02  0.00000000000E+00 0.  1.
</event>
<event>
 5    1  0.1668518E-003  0.9118800E+02  0.7818608E-02  0.1130116E+00
         25   -1    0    0    0    0  0.00000000000E+00  0.00000000000E+00  0.99999998245E-14  0.12500000000E+03  0.12500000000E+03 0.  0.
        -13    1    3    3    0    0 -0.10740500528E+02 -0.54161115698E+02  0.39998381650E+01  0.55360587738E+02  0.10566000000E+00 0. -1.
         23    2    1    0    0    0 -0.20352287922E+02 -0.15354931398E+02 -0.98469423412E+01  0.97669580769E+02  0.93767772673E+02 0.  0.
         13    1    3    3    0    0 -0.96117873941E+01  0.38806184300E+02 -0.13846780506E+02  0.42308993031E+02  0.10566000000E+00 0.  1.
         22    1    1    0    0    0  0.20352287922E+02  0.15354931398E+02  0.98469423412E+01  0.27330419231E+02  0.00000000000E+00 0. -1.
</event>
<event>
 5    1  0.1668518E-003  0.9118800E+02  0.7818608E-02  0.1130116E+00
         25   -1    0    0    0    0  0.00000000000E+00  0.00000000000E+00  0.99999998245E-14  0.12500000000E+03  0.12500000000E+03 0.  0.
        -13    1    3    3    0    0  0.70689699655E+01 -0.57241134869E+01 -0.57449412604E+02  0.58165126873E+02  0.10566000000E+00 0.  1.
         23    2    1    0    0    0  0.94918399557E+01  0.12496179291E+02 -0.24186629625E+02  0.96168722275E+02  0.91745193710E+02 0.  0.
         13    1    3    3    0    0  0.24228699902E+01  0.18220292778E+02  0.33262782979E+02  0.38003595402E+02  0.10566000000E+00 0. -1.
         22    1    1    0    0    0 -0.94918399557E+01 -0.12496179291E+02  0.24186629625E+02  0.28831277725E+02  0.00000000000E+00 0.  1.
</event>
<event>
 5    1  0.1668518E-003  0.9118800E+02  0.7818608E-02  0.1130116E+00
         25   -1    0    0    0    0  0.00000000000E+00  0.00000000000E+00  0.99999998245E-14  0.12500000000E+03  0.12500000000E+03 0.  0.
        -13    1    3    3    0    0 -0.10122282435E+01 -0.10513427269E+02  0.35722691928E+02  0.37251558915E+02  0.10566000000E+00 0. -1.
         23    2    1    0    0    0  0.30261078350E+01  0.35973274845E+01 -0.24917583194E+02  0.99642869920E+02  0.96362427740E+02 0.  0.
         13    1    3    3    0    0  0.40383360785E+01  0.14110754753E+02 -0.60640275122E+02  0.62391311005E+02  0.10566000000E+00 0.  1.
         22    1    1    0    0    0 -0.30261078350E+01 -0.35973274845E+01  0.24917583194E+02  0.25357130080E+02  0.00000000000E+00 0.  1.
</event>
<event>
 5    1  0.1668518E-003  0.9118800E+02  0.7818608E-02  0.1130116E+00
         25   -1    0    0    0    0  0.00000000000E+00  0.00000000000E+00  0.99999998245E-14  0.12500000000E+03  0.12500000000E+03 0.  0.
        -13    1    3    3    0    0  0.37993979013E+02 -0.19923056902E+02  0.23148415165E+02  0.48747624827E+02  0.10566000000E+00 0.  1.
         23    2    1    0    0    0 -0.35397127540E+01 -0.28135009971E+02  0.77720925642E+00  0.96632546701E+02  0.92374978621E+02 0.  0.
         13    1    3    3    0    0 -0.41533691767E+02 -0.82119530684E+01 -0.22371205909E+02  0.47884921874E+02  0.10566000000E+00 0. -1.
         22    1    1    0    0    0  0.35397127540E+01  0.28135009971E+02 -0.77720925642E+00  0.28367453299E+02  0.00000000000E+00 0. -1.
</event>
<event>
 5    1  0.1668518E-003  0.9118800E+02  0.7818608E-02  0.1130116E+00
         25   -1    0    0    0    0  0.00000000000E+00  0.00000000000E+00  0.99999998245E-14  0.12500000000E+03  0.12500000000E+03 0.  0.
        -13    1    3    3    0    0 -0.40345907116E+02 -0.21469821004E+01  0.77639278897E+01  0.41142332134E+02  0.10566000000E+00 0.  1.
         23    2    1    0    0    0  0.72556696612E+01 -0.85348908468E+01  0.29190778664E+02  0.93733553720E+02  0.88365086035E+02 0.  0.
         13    1    3    3    0    0  0.47601576777E+02 -0.63879087464E+01  0.21426850774E+02  0.52591221586E+02  0.10566000000E+00 0. -1.
         22    1    1    0    0    0 -0.72556696612E+01  0.85348908468E+01 -0.29190778664E+02  0.31266446280E+02  0.00000000000E+00 0. -1.
</event>
<event>
 5    1  0.1668518E-003  0.9118800E+02  0.7818608E-02  0.1130116E+00
         25   -1    0    0    0    0  0.00000000000E+00  0.00000000000E+00  0.99999998245E-14  0.12500000000E+03  0.12500000000E+03 0.  0.
        -13    1    3    3    0    0 -0.51555226535E+02  0.32436899741E+02  0.85698927062E+00  0.60916659811E+02  0.10566000000E+00 0. -1.
         23    2    1    0    0    0 -0.19459012691E+02  0.20052024499E+02  0.77502050597E+01  0.96003404684E+02  0.91519676415E+02 0.  0.
         13    1    3    3    0    0  0.32096213844E+02 -0.12384875241E+02  0.68932157891E+01  0.35086744873E+02  0.10566000000E+00 0.  1.
         22    1    1    0    0    0  0.19459012691E+02 -0.20052024499E+02 -0.77502050597E+01  0.28996595316E+02  0.00000000000E+00 0. -1.
</event>
<event>
 5    1  0.1668518E-003  0.9118800E+02  0.7818608E-02  0.1130116E+00
         25   -1    0    0    0    0  0.00000000000E+00  0.00000000000E+00  0.99999998245E-14  0.12500000000E+03  0.12500000000E+03 0.  0.
        -13    1    3    3    0    0 -0.22218544217E+02  0.14195006196E+02  0.56663498808E+02  0.62497401299E+02  0.10566000000E+00 0.  1.
         23    2    1    0    0    0 -0.11731553941E+02  0.79141817865E+01  0.29966955909E+02  0.91859660870E+02  0.85673305163E+02 0.  0.
         13    1    3    3    0    0  0.10486990276E+02 -0.62808244093E+01 -0.26696542899E+02  0.29362259571E+02  0.10566000000E+00 0. -1.
         22    1    1    0    0    0  0.11731553941E+02 -0.79141817865E+01 -0.29966955909E+02  0.33140339130E+02  0.00000000000E+00 0.  1.
</event>
<event>
 5    1  0.1668518E-003  0.9118800E+02  0.7818608E-02  0.1130116E+00
         25   -1    0    0    0    0  0.00000000000E+00  0.00000000000E+00  0.99999998245E-14  0.12500000000E+03  0.12500000000E+03 0.  0.
        -13    1    3    3    0    0  0.20699413817E+02 -0.29373587990E+02 -0.48825580143E+02  0.60623607977E+02  0.10566000000E+00 0. -1.
         23    2    1    0    0    0  0.19380041930E+01 -0.20914502222E+02 -0.20378833102E+02  0.95734506632E+02  0.91151668433E+02 0.  0.
         13    1    3    3    0    0 -0.18761409624E+02  0.84590857679E+01  0.28446747042E+02  0.35110898655E+02  0.10566000000E+00 0.  1.
         22    1    1    0    0    0 -0.19380041930E+01  0.20914502222E+02  0.20378833102E+02  0.29265493368E+02  0.00000000000E+00 0. -1.
</event>
<event>
 5    1  0.1668518E-003  0.9118800E+02  0.7818608E-02  0.1130116E+00
         25   -1    0    0    0    0  0.00000000000E+00  0.00000000000E+00  0.99999998245E-14  0.12500000000E+03  0.12500000000E+03 0.  0.
        -13    1    3    3    0    0  0.18392354364E+02  0.60553280405E+01 -0.32571259740E+02  0.37892529895E+02  0.10566000000E+00 0.  1.
         23    2    1    0    0    0  0.28559799262E+02 -0.30266095403E+02 -0.88313337122E+01  0.82459535499E+02  0.70639110094E+02 0.  0.
         13    1    3    3    0    0  0.10167444898E+02 -0.36321423443E+02  0.23739926028E+02  0.44567005604E+02  0.10566000000E+00 0. -1.
         22    1    1    0    0    0 -0.28559799262E+02  0.30266095403E+02  0.88313337122E+01  0.42540464501E+02  0.00000000000E+00 0. -1.
</event>
<event>
 5    1  0.1668518E-003  0.9118800E+02  0.7818608E-02  0.1130116E+00
         25   -1    0    0    0    0  0.00000000000E+00  0.00000000000E+00  0.99999998245E-14  0.12500000000E+03  0.12500000000E+03 0.  0.
        -13    1    3    3    0    0 -0.23326768394E+02  0.29763586742E+01 -0.13270657774E+02  0.27002191698E+02  0.10566000000E+00 0. -1.
         23    2    1    0    0    0 -0.21877251331E+01  0.31325589628E+00  0.40292239786E+02  0.84647195172E+02  0.74409668679E+02 0.  0.
         13    1    3    3    0    0  0.21139043261E+02 -0.26631027779E+01  0.53562897561E+02  0.57645003474E+02  0.10566000000E+00 0.  1.
         22    1    1    0    0    0  0.21877251331E+01 -0.31325589628E+00 -0.40292239786E+02  0.40352804828E+02  0.00000000000E+00 0.  1.
</event>
<event>
 5    1  0.1668518E-003  0.9118800E+02  0.7818608E-02  0.1130116E+00
         25   -1    0    0    0    0  0.00000000000E+00  0.00000000000E+00  0.99999998245E-14  0.12500000000E+03  0.12500000000E+03 0.  0.
        -13    1    3    3    0    0  0.20454883941E+01 -0.56639609244E+02 -0.12239697881E+01  0.56689845865E+02  0.10566000000E+00 0. -1.
         23    2    1    0    0    0  0.13696459201E+02 -0.19898531804E+02 -0.13732298316E+02  0.97212942228E+02  0.93157047812E+02 0.  0.
         13    1    3    3    0    0  0.11650970806E+02  0.36741077441E+02 -0.12508328528E+02  0.40523096363E+02  0.10566000000E+00 0.  1.
         22    1    1    0    0    0 -0.13696459201E+02  0.19898531804E+02  0.13732298316E+02  0.27787057772E+02  0.00000000000E+00 0.  1.
</event>
<event>
 5    1  0.1668518E-003  0.9118800E+02  0.7818608E-02  0.1130116E+00
         25   -1    0    0    0    0  0.00000000000E+00  0.00000000000E+00  0.99999998245E-14  0.12500000000E+03  0.12500000000E+03 0.  0.
        -13    1    3    3    0    0  0.13938951955E+02  0.41092073052E+01 -0.34943581152E+02  0.37845012803E+02  0.10566000000E+00 0.  1.
         23    2    1    0    0    0 -0.16124164852E+02 -0.23187278481E+02  0.66622883908E+01  0.95982338789E+02  0.91490899533E+02 0.  0.
         13    1    3    3    0    0 -0.30063116807E+02 -0.27296485786E+02  0.41605869543E+02  0.58137325987E+02  0.10566000000E+00 0. -1.
         22    1    1    0    0    0  0.16124164852E+02  0.23187278481E+02 -0.66622883908E+01  0.29017661211E+02  0.00000000000E+00 0. -1.
</event>
<event>
 5    1  0.1668518E-003  0.9118800E+02  0.7818608E-02  0.1130116E+00
         25   -1    0    0    0    0  0.00000000000E+00  0.00000000000E+00  0.99999998245E-14  0.12500000000E+03  0.12500000000E+03 0.  0.
        -13    1    3    3    0    0  0.41789268180E+02  0.27286113516E+02 -0.95914289333E+01  0.50822058192E+02  0.10566000000E+00 0.  1.
         23    2    1    0    0    0  0.45309645895E+00  0.24962956929E+02  0.11756551983E+02  0.97403423590E+02  0.93412289863E+02 0.  0.
         13    1    3    3    0    0 -0.41336171721E+02 -0.23231565867E+01  0.21347980916E+02  0.46581365398E+02  0.10566000000E+00 0. -1.
         22    1    1    0    0    0 -0.45309645895E+00 -0.24962956929E+02 -0.11756551983E+02  0.27596576410E+02  0.00000000000E+00 0. -1.
</event>
<event>
 5    1  0.1668518E-003  0.9118800E+02  0.7818608E-02  0.1130116E+00
         25   -1    0    0    0    0  0.00000000000E+00  0.00000000000E+00  0.99999998245E-14  0.12500000000E+03  0.12500000000E+03 0.  0.
        -13    1    3    3    0    0  0.39230088233E+02  0.19967876047E+02 -0.10505868886E+02  0.45255942612E+02  0.10566000000E+00 0. -1.
         23    2    1    0    0    0  0.26364833326E+01 -0.22690845453E+02 -0.32702980541E+01  0.10192359731E+03  0.99276882140E+02 0.  0.
         13    1    3    3    0    0 -0.36593604901E+02 -0.42658721500E+02  0.72355708321E+01  0.56667654698E+02  0.10566000000E+00 0.  1.
         22    1    1    0    0    0 -0.26364833326E+01  0.22690845453E+02  0.32702980541E+01  0.23076402690E+02  0.00000000000E+00 0.  1.
</event>
<event>
 5    1  0.1668518E-003  0.9118800E+02  0.7818608E-02  0.1130116E+00
         25   -1    0    0    0    0  0.00000000000E+00  0.00000000000E+00  0.99999998245E-14  0.12500000000E+03  0.12500000000E+03 0.  0.
        -13    1    3    3    0    0 -0.27288349013E+02 -0.80915692591E+01 -0.25239498094E+02  0.38041699660E+02  0.10566000000E+00 0.  1.
         23    2    1    0    0    0 -0.10706014050E+02  0.55589153421E+01  0.27491008218E+02  0.94978744039E+02  0.90109300352E+02 0.  0.
         13    1    3    3    0    0  0.16582334964E+02  0.13650484601E+02  0.52730506312E+02  0.56937044379E+02  0.10566000000E+00 0. -1.
         22    1    1    0    0    0  0.10706014050E+02 -0.55589153421E+01 -0.27491008218E+02  0.30021255961E+02  0.00000000000E+00 0. -1.
</event>
<event>
 5    1  0.1668518E-003  0.9118800E+02  0.7818608E-02  0.1130116E+00
         25   -1    0    0    0    0  0.00000000000E+00  0.00000000000E+00  0.99999998245E-14  0.12500000000E+03  0.12500000000E+03 0.  0.
        -13    1    3    3    0    0  0.14659472943E+02 -0.21818520189E+02  0.52228834538E+02  0.58470593391E+02  0.10566000000E+00 0. -1.
         23    2    1    0    0    0 -0.83772151183E+01 -0.14504457748E+02  0.25324376229E+02  0.94637505717E+02  0.89634683183E+02 0.  0.
         13    1    3    3    0    0 -0.23036688062E+02  0.73140624410E+01 -0.26904458309E+02  0.36166912326E+02  0.10566000000E+00 0.  1.
         22    1    1    0    0    0  0.83772151183E+01  0.14504457748E+02 -0.25324376229E+02  0.30362494283E+02  0.00000000000E+00 0. -1.
</event>
<event>
 5    1  0.1668518E-003  0.9118800E+02  0.7818608E-02  0.1130116E+00
         25   -1    0    0    0    0  0.00000000000E+00  0.00000000000E+00  0.99999998245E-14  0.12500000000E+03  0.12500000000E+03 0.  0.
        -13    1    3    3    0    0  0.42537011520E+01 -0.38189492604E+02 -0.37411862437E+02  0.53630121516E+02  0.10566000000E+00 0. -1.
         23    2    1    0    0    0  0.11453920623E+02  0.19777240574E+01 -0.26789514862E+02  0.95797572077E+02  0.91238111660E+02 0.  0.
         13    1    3    3    0    0  0.72002194712E+01  0.40167216661E+02  0.10622347575E+02  0.42167450561E+02  0.10566000000E+00 0.  1.
         22    1    1    0    0    0 -0.11453920623E+02 -0.19777240574E+01  0.26789514862E+02  0.29202427923E+02  0.00000000000E+00 0.  1.
</event>
<event>
 5    1  0.1668518E-003  0.9118800E+02  0.7818608E-02  0.1130116E+00
         25   -1    0    0    0    0  0.00000000000E+00  0.00000000000E+00  0.99999998245E-14  0.12500000000E+03  0.12500000000E+03 0.  0.
        -13    1    3    3    0    0 -0.20991630661E+01 -0.11718252650E+02  0.41095515205E+02  0.42785236527E+02  0.10566000000E+00 0. -1.
         23    2    1    0    0    0 -0.26715264028E+02 -0.12380747854E+02 -0.50834620609E+01  0.95119741701E+02  0.90304681082E+02 0.  0.
         13    1    3    3    0    0 -0.24616100961E+02 -0.66249520425E+00 -0.46178977266E+02  0.52334505174E+02  0.10566000000E+00 0.  1.
         22    1    1    0    0    0  0.26715264028E+02  0.12380747854E+02  0.50834620609E+01  0.29880258299E+02  0.00000000000E+00 0.  1.
</event>
<event>
 5    1  0.1668518E-003  0.9118800E+02  0.7818608E-02  0.1130116E+00
         25   -1    0    0    0    0  0.00000000000E+00  0.00000000000E+00  0.99999998245E-14  0.12500000000E+03  0.12500000000E+03 0.  0.
        -13    1    3    3    0    0  0.31843929404E+02  0.19067212609E+02  0.17107511266E+00  0.37116503974E+02  0.10566000000E+00 0.  1.
         23    2    1    0    0    0 -0.12598391773E+02 -0.15727813864E+02  0.19676928278E+02  0.96835037535E+02  0.92648580042E+02 0.  0.
         13    1    3    3    0    0 -0.44442321177E+02 -0.34795026473E+02  0.19505853165E+02  0.59718533560E+02  0.10566000000E+00 0. -1.
         22    1    1    0    0    0  0.12598391773E+02  0.15727813864E+02 -0.19676928278E+02  0.28164962465E+02  0.00000000000E+00 0. -1.
</event>
<event>
 5    1  0.1668518E-003  0.9118800E+02  0.7818608E-02  0.1130116E+00
         25   -1    0    0    0    0  0.00000000000E+00  0.00000000000E+00  0.99999998245E-14  0.12500000000E+03  0.12500000000E+03 0.  0.
        -13    1    3    3    0    0  0.39156893940E+02 -0.29125679496E+01 -0.35459929442E+02  0.52907118190E+02  0.10566000000E+00 0.  1.
         23    2    1    0    0    0  0.26422774350E+02 -0.99802746253E+01  0.53632085690E+01  0.96250514925E+02  0.91856566075E+02 0.  0.
         13    1    3    3    0    0 -0.12734119590E+02 -0.70677066758E+01  0.40823138011E+02  0.43343396735E+02  0.10566000000E+00 0. -1.
         22    1    1    0    0    0 -0.26422774350E+02  0.99802746253E+01 -0.53632085690E+01  0.28749485075E+02  0.00000000000E+00 0.  1.
</event>
<event>
 5    1  0.1668518E-003  0.9118800E+02  0.7818608E-02  0.1130116E+00
         25   -1    0    0    0    0  0.00000000000E+00  0.00000000000E+00  0.99999998245E-14  0.12500000000E+03  0.12500000000E+03 0.  0.
        -13    1    3    3    0    0 -0.80248589157E+01  0.32308443919E+02  0.22448917698E+02  0.40152197684E+02  0.10566000000E+00 0.  1.
         23    2    1    0    0    0  0.28520050078E+02 -0.41480919575E+01  0.68746345291E+00  0.96171671409E+02  0.91749211725E+02 0.  0.
         13    1    3    3    0    0  0.36544908994E+02 -0.36456535876E+02 -0.21761454245E+02  0.56019473724E+02  0.10566000000E+00 0. -1.
         22    1    1    0    0    0 -0.28520050078E+02  0.41480919575E+01 -0.68746345291E+00  0.28828328591E+02  0.00000000000E+00 0. -1.
</event>
<event>
 5    1  0.1668518E-003  0.9118800E+02  0.7818608E-02  0.1130116E+00
         25   -1    0    0    0    0  0.00000000000E+00  0.00000000000E+00  0.99999998245E-14  0.12500000000E+03  0.12500000000E+03 0.  0.
        -13    1    3    3    0    0 -0.42658629901E+02  0.14303312795E+02  0.21357132453E+01  0.45043488952E+02  0.10566000000E+00 0.  1.
         23    2    1    0    0    0 -0.15433961789E+02  0.16897934578E+02 -0.30016973422E+02  0.87253926524E+02  0.78666903021E+02 0.  0.
         13    1    3    3    0    0  0.27224668112E+02  0.25946217829E+01 -0.32152686667E+02  0.42210437571E+02  0.10566000000E+00 0. -1.
         22    1    1    0    0    0  0.15433961789E+02 -0.16897934578E+02  0.30016973422E+02  0.37746073476E+02  0.00000000000E+00 0. -1.
</event>
<event>
 5    1  0.1668518E-003  0.9118800E+02  0.7818608E-02  0.1130116E+00
         25   -1    0    0    0    0  0.00000000000E+00  0.00000000000E+00  0.99999998245E-14  0.12500000000E+03  0.12500000000E+03 0.  0.
        -13    1    3    3    0    0  0.53536946704E+02  0.26169994867E+02 -0.74795268950E+01  0.60058536282E+02  0.10566000000E+00 0. -1.
         23    2    1    0    0    0  0.17898085260E+02  0.21951151520E+02 -0.64013210248E+01  0.95962585861E+02  0.91463907992E+02 0.  0.
         13    1    3    3    0    0 -0.35638861444E+02 -0.42188433468E+01  0.10782058703E+01  0.35904049579E+02  0.10566000000E+00 0.  1.
         22    1    1    0    0    0 -0.17898085260E+02 -0.21951151520E+02  0.64013210248E+01  0.29037414139E+02  0.00000000000E+00 0. -1.
</event>
<event>
 5    1  0.1668518E-003  0.9118800E+02  0.7818608E-02  0.1130116E+00
         25   -1    0    0    0    0  0.00000000000E+00  0.00000000000E+00  0.99999998245E-14  0.12500000000E+03  0.12500000000E+03 0.  0.
        -13    1    3    3    0    0  0.58957547291E+02  0.15464325683E+02  0.90839099843E+00  0.60958790093E+02  0.10566000000E+00 0.  1.
         23    2    1    0    0    0  0.24990601078E+02  0.97733962635E+01  0.96370244076E+01  0.96488218993E+02  0.92179470318E+02 0.  0.
         13    1    3    3    0    0 -0.33966946213E+02 -0.56909294196E+01  0.87286334092E+01  0.35529428899E+02  0.10566000000E+00 0. -1.
         22    1    1    0    0    0 -0.24990601078E+02 -0.97733962635E+01 -0.96370244076E+01  0.28511781007E+02  0.00000000000E+00 0.  1.
</event>
<event>
 5    1  0.1668518E-003  0.9118800E+02  0.7818608E-02  0.1130116E+00
         25   -1    0    0    0    0  0.00000000000E+00  0.00000000000E+00  0.99999998245E-14  0.12500000000E+03  0.12500000000E+03 0.  0.
        -13    1    3    3    0    0 -0.11682405699E+02  0.33960967961E+02  0.12551977885E+02  0.38044569397E+02  0.10566000000E+00 0. -1.
         23    2    1    0    0    0 -0.12222364609E+02 -0.14362720374E+02 -0.20922262152E+02  0.96832376977E+02  0.92644990390E+02 0.  0.
         13    1    3    3    0    0 -0.53995891002E+00 -0.48323688335E+02 -0.33474240038E+02  0.58787807580E+02  0.10566000000E+00 0.  1.
         22    1    1    0    0    0  0.12222364609E+02  0.14362720374E+02  0.20922262152E+02  0.28167623023E+02  0.00000000000E+00 0.  1.
</event>
<event>
 5    1  0.1668518E-003  0.9118800E+02  0.7818608E-02  0.1130116E+00
         25   -1    0    0    0    0  0.00000000000E+00  0.00000000000E+00  0.99999998245E-14  0.12500000000E+03  0.12500000000E+03 0.  0.
        -13    1    3    3    0    0  0.44823018611E+02  0.40540695297E+02  0.15180731366E+02  0.62314659122E+02  0.10566000000E+00 0.  1.
         23    2    1    0    0    0  0.23521574998E+02  0.19138080520E+02  0.45019887305E+01  0.94343866537E+02  0.89224249138E+02 0.  0.
         13    1    3    3    0    0 -0.21301443614E+02 -0.21402614777E+02 -0.10678742636E+02  0.32029207415E+02  0.10566000000E+00 0. -1.
         22    1    1    0    0    0 -0.23521574998E+02 -0.19138080520E+02 -0.45019887305E+01  0.30656133463E+02  0.00000000000E+00 0.  1.
</event>
<event>
 5    1  0.1668518E-003  0.9118800E+02  0.7818608E-02  0.1130116E+00
         25   -1    0    0    0    0  0.00000000000E+00  0.00000000000E+00  0.99999998245E-14  0.12500000000E+03  0.12500000000E+03 0.  0.
        -13    1    3    3    0    0  0.20536583803E+01 -0.36272732356E+02 -0.16285972398E+02  0.39814227184E+02  0.10566000000E+00 0.  1.
         23    2    1    0    0    0 -0.24662344283E+02  0.12719495214E+02 -0.38663066543E+01  0.96982771173E+02  0.92847685987E+02 0.  0.
         13    1    3    3    0    0 -0.26716002663E+02  0.48992227569E+02  0.12419665744E+02  0.57168543988E+02  0.10566000000E+00 0. -1.
         22    1    1    0    0    0  0.24662344283E+02 -0.12719495214E+02  0.38663066543E+01  0.28017228827E+02  0.00000000000E+00 0. -1.
</event>
<event>
 5    1  0.1668518E-003  0.9118800E+02  0.7818608E-02  0.1130116E+00
         25   -1    0    0    0    0  0.00000000000E+00  0.00000000000E+00  0.99999998245E-14  0.12500000000E+03  0.12500000000E+03 0.  0.
        -13    1    3    3    0    0 -0.43566471063E+02 -0.20114346694E+02 -0.10791692529E+02  0.49184307818E+02  0.10566000000E+00 0.  1.
         23    2    1    0    0    0 -0.30519974954E+02 -0.10476840932E+02 -0.34404182810E+02  0.77831357217E+02  0.61909928964E+02 0.  0.
         13    1    3    3    0    0  0.13046496109E+02  0.96375057614E+01 -0.23612490281E+02  0.28647049400E+02  0.10566000000E+00 0. -1.
         22    1    1    0    0    0  0.30519974954E+02  0.10476840932E+02  0.34404182810E+02  0.47168642783E+02  0.00000000000E+00 0.  1.
</event>
<event>
 5    1  0.1668518E-003  0.9118800E+02  0.7818608E-02  0.1130116E+00
         25   -1    0    0    0    0  0.00000000000E+00  0.00000000000E+00  0.99999998245E-14  0.12500000000E+03  0.12500000000E+03 0.  0.
        -13    1    3    3    0    0  0.16472899604E+02 -0.42601110620E+02 -0.10277625526E+02  0.46817216896E+02  0.10566000000E+00 0. -1.
         23    2    1    0    0    0 -0.21793418530E+02 -0.90570991680E+01 -0.13508291611E+02  0.97807021516E+02  0.93950813616E+02 0.  0.
         13    1    3    3    0    0 -0.38266318135E+02  0.33544011452E+02 -0.32306660852E+01  0.50989804620E+02  0.10566000000E+00 0.  1.
         22    1    1    0    0    0  0.21793418530E+02  0.90570991680E+01  0.13508291611E+02  0.27192978484E+02  0.00000000000E+00 0.  1.
</event>
<event>
 5    1  0.1668518E-003  0.9118800E+02  0.7818608E-02  0.1130116E+00
         25   -1    0    0    0    0  0.00000000000E+00  0.00000000000E+00  0.99999998245E-14  0.12500000000E+03  0.12500000000E+03 0.  0.
        -13    1    3    3    0    0  0.10087809381E+02 -0.32376935480E+02  0.27649453387E+02  0.43755380079E+02  0.10566000000E+00 0.  1.
         23    2    1    0    0    0  0.11067394315E+02 -0.16516401076E+02 -0.21681619202E+02  0.95582805493E+02  0.90943396534E+02 0.  0.
         13    1    3    3    0    0  0.97958493416E+00  0.15860534404E+02 -0.49331072589E+02  0.51827425414E+02  0.10566000000E+00 0. -1.
         22    1    1    0    0    0 -0.11067394315E+02  0.16516401076E+02  0.21681619202E+02  0.29417194507E+02  0.00000000000E+00 0. -1.
</event>
<event>
 5    1  0.1668518E-003  0.9118800E+02  0.7818608E-02  0.1130116E+00
         25   -1    0    0    0    0  0.00000000000E+00  0.00000000000E+00  0.99999998245E-14  0.12500000000E+03  0.12500000000E+03 0.  0.
        -13    1    3    3    0    0  0.19689133546E+02  0.50842934812E+01 -0.33751892015E+02  0.39404484499E+02  0.10566000000E+00 0.  1.
         23    2    1    0    0    0  0.99595905346E+01  0.16730616736E+02  0.21083522437E+02  0.96301186465E+02  0.91925494920E+02 0.  0.
         13    1    3    3    0    0 -0.97295430112E+01  0.11646323254E+02  0.54835414452E+02  0.56896701966E+02  0.10566000000E+00 0. -1.
         22    1    1    0    0    0 -0.99595905346E+01 -0.16730616736E+02 -0.21083522437E+02  0.28698813535E+02  0.00000000000E+00 0. -1.
</event>
<event>
 5    1  0.1668518E-003  0.9118800E+02  0.7818608E-02  0.1130116E+00
         25   -1    0    0    0    0  0.00000000000E+00  0.00000000000E+00  0.99999998245E-14  0.12500000000E+03  0.12500000000E+03 0.  0.
        -13    1    3    3    0    0 -0.69705492980E+01  0.25172889675E+02  0.31177374352E+02  0.40673120948E+02  0.10566000000E+00 0. -1.
         23    2    1    0    0    0 -0.22738437318E+02  0.44495993366E+01 -0.17557946666E+02  0.95929104640E+02  0.91418139119E+02 0.  0.
         13    1    3    3    0    0 -0.15767888020E+02 -0.20723290338E+02 -0.48735321018E+02  0.55255983692E+02  0.10566000000E+00 0.  1.
         22    1    1    0    0    0  0.22738437318E+02 -0.44495993366E+01  0.17557946666E+02  0.29070895360E+02  0.00000000000E+00 0.  1.
</event>
<event>
 5    1  0.1668518E-003  0.9118800E+02  0.7818608E-02  0.1130116E+00
         25   -1    0    0    0    0  0.00000000000E+00  0.00000000000E+00  0.99999998245E-14  0.12500000000E+03  0.12500000000E+03 0.  0.
        -13    1    3    3    0    0 -0.71462571393E+01  0.31329626304E+00  0.46609982901E+02  0.47155793023E+02  0.10566000000E+00 0. -1.
         23    2    1    0    0    0  0.13532635842E+02  0.24807052998E+02  0.12090010957E+02  0.94264182519E+02  0.89112544739E+02 0.  0.
         13    1    3    3    0    0  0.20678892981E+02  0.24493756735E+02 -0.34519971943E+02  0.47108389496E+02  0.10566000000E+00 0.  1.
         22    1    1    0    0    0 -0.13532635842E+02 -0.24807052998E+02 -0.12090010957E+02  0.30735817481E+02  0.00000000000E+00 0. -1.
</event>
<event>
 5    1  0.1668518E-003  0.9118800E+02  0.7818608E-02  0.1130116E+00
         25   -1    0    0    0    0  0.00000000000E+00  0.00000000000E+00  0.99999998245E-14  0.12500000000E+03  0.12500000000E+03 0.  0.
        -13    1    3    3    0    0 -0.40875413555E+02 -0.39992414896E+02  0.22843690695E+02  0.61579526233E+02  0.10566000000E+00 0.  1.
         23    2    1    0    0    0 -0.30461013842E+02 -0.28516090550E+02  0.90999982472E+01  0.82293434315E+02  0.70344570357E+02 0.  0.
         13    1    3    3    0    0  0.10414399713E+02  0.11476324346E+02 -0.13743692448E+02  0.20713908082E+02  0.10566000000E+00 0. -1.
         22    1    1    0    0    0  0.30461013842E+02  0.28516090550E+02 -0.90999982472E+01  0.42706565685E+02  0.00000000000E+00 0.  1.
</event>
<event>
 5    1  0.1668518E-003  0.9118800E+02  0.7818608E-02  0.1130116E+00
         25   -1    0    0    0    0  0.00000000000E+00  0.00000000000E+00  0.99999998245E-14  0.12500000000E+03  0.12500000000E+03 0.  0.
        -13    1    3    3    0    0 -0.92263851157E+01 -0.32762597532E+02  0.12733280157E+02  0.36340907624E+02  0.10566000000E+00 0.  1.
         23    2    1    0    0    0 -0.83971574207E+01  0.93806577078E+01 -0.27589637305E+02  0.94673492150E+02  0.89684854003E+02 0.  0.
         13    1    3    3    0    0  0.82922769503E+00  0.42143255240E+02 -0.40322917461E+02  0.58332584526E+02  0.10566000000E+00 0. -1.
         22    1    1    0    0    0  0.83971574207E+01 -0.93806577078E+01  0.27589637305E+02  0.30326507850E+02  0.00000000000E+00 0. -1.
</event>
<event>
 5    1  0.1668518E-003  0.9118800E+02  0.7818608E-02  0.1130116E+00
         25   -1    0    0    0    0  0.00000000000E+00  0.00000000000E+00  0.99999998245E-14  0.12500000000E+03  0.12500000000E+03 0.  0.
        -13    1    3    3    0    0 -0.33281491777E+02 -0.23793476536E+02  0.35687742267E+02  0.54290085031E+02  0.10566000000E+00 0. -1.
         23    2    1    0    0    0 -0.11359638114E+02 -0.28057011655E+02  0.20568498520E+01  0.94660785897E+02  0.89667142668E+02 0.  0.
         13    1    3    3    0    0  0.21921853662E+02 -0.42635351183E+01 -0.33630892415E+02  0.40370700865E+02  0.10566000000E+00 0.  1.
         22    1    1    0    0    0  0.11359638114E+02  0.28057011655E+02 -0.20568498520E+01  0.30339214103E+02  0.00000000000E+00 0. -1.
</event>
<event>
 5    1  0.1668518E-003  0.9118800E+02  0.7818608E-02  0.1130116E+00
         25   -1    0    0    0    0  0.00000000000E+00  0.00000000000E+00  0.99999998245E-14  0.12500000000E+03  0.12500000000E+03 0.  0.
        -13    1    3    3    0    0  0.24673870134E+02  0.36481868994E+02 -0.39120420433E+02  0.58907937424E+02  0.10566000000E+00 0. -1.
         23    2    1    0    0    0 -0.22801031184E+00  0.11559024904E+02 -0.26074509151E+02  0.96477323532E+02  0.92164694341E+02 0.  0.
         13    1    3    3    0    0 -0.24901880446E+02 -0.24922844090E+02  0.13045911282E+02  0.37569386108E+02  0.10566000000E+00 0.  1.
         22    1    1    0    0    0  0.22801031184E+00 -0.11559024904E+02  0.26074509151E+02  0.28522676468E+02  0.00000000000E+00 0. -1.
</event>
<event>
 5    1  0.1668518E-003  0.9118800E+02  0.7818608E-02  0.1130116E+00
         25   -1    0    0    0    0  0.00000000000E+00  0.00000000000E+00  0.99999998245E-14  0.12500000000E+03  0.12500000000E+03 0.  0.
        -13    1    3    3    0    0 -0.80978671156E+01 -0.15844457480E+02  0.36912706091E+02  0.40977814969E+02  0.10566000000E+00 0.  1.
         23    2    1    0    0    0  0.76660509553E+01 -0.28208735635E+02 -0.11666441943E+02  0.93526090630E+02  0.88071122722E+02 0.  0.
         13    1    3    3    0    0  0.15763918071E+02 -0.12364278155E+02 -0.48579148034E+02  0.52548275661E+02  0.10566000000E+00 0. -1.
         22    1    1    0    0    0 -0.76660509553E+01  0.28208735635E+02  0.11666441943E+02  0.31473909370E+02  0.00000000000E+00 0. -1.
</event>
<event>
 5    1  0.1668518E-003  0.9118800E+02  0.7818608E-02  0.1130116E+00
         25   -1    0    0    0    0  0.00000000000E+00  0.00000000000E+00  0.99999998245E-14  0.12500000000E+03  0.12500000000E+03 0.  0.
        -13    1    3    3    0    0 -0.37563380012E+02  0.25470609509E+02  0.82132813900E+01  0.46121888750E+02  0.10566000000E+00 0.  1.
         23    2    1    0    0    0  0.10243553554E+02  0.16820217423E+02  0.20847633785E+02  0.96321193574E+02  0.91952696499E+02 0.  0.
         13    1    3    3    0    0  0.47806933566E+02 -0.86503920860E+01  0.12634352395E+02  0.50199304823E+02  0.10566000000E+00 0. -1.
         22    1    1    0    0    0 -0.10243553554E+02 -0.16820217423E+02 -0.20847633785E+02  0.28678806426E+02  0.00000000000E+00 0.  1.
</event>
<event>
 5    1  0.1668518E-003  0.9118800E+02  0.7818608E-02  0.1130116E+00
         25   -1    0    0    0    0  0.00000000000E+00  0.00000000000E+00  0.99999998245E-14  0.12500000000E+03  0.12500000000E+03 0.  0.
        -13    1    3    3    0    0  0.47122023765E+01  0.48010677820E+02 -0.12719255586E+02  0.49890085815E+02  0.10566000000E+00 0.  1.
         23    2    1    0    0    0 -0.69984230800E+01  0.11000161151E+02  0.20314119129E+02  0.10086196141E+03  0.97931048972E+02 0.  0.
         13    1    3    3    0    0 -0.11710625457E+02 -0.37010516668E+02  0.33033374714E+02  0.50971875595E+02  0.10566000000E+00 0. -1.
         22    1    1    0    0    0  0.69984230800E+01 -0.11000161151E+02 -0.20314119129E+02  0.24138038589E+02  0.00000000000E+00 0.  1.
</event>
<event>
 5    1  0.1668518E-003  0.9118800E+02  0.7818608E-02  0.1130116E+00
         25   -1    0    0    0    0  0.00000000000E+00  0.00000000000E+00  0.99999998245E-14  0.12500000000E+03  0.12500000000E+03 0.  0.
        -13    1    3    3    0    0 -0.46176269347E+02 -0.27619201870E+01 -0.21023743386E+02  0.50812252498E+02  0.10566000000E+00 0. -1.
         23    2    1    0    0    0 -0.11394383836E+02  0.24175667408E+02 -0.11911358311E+02  0.95739526073E+02  0.91158551537E+02 0.  0.
         13    1    3    3    0    0  0.34781885511E+02  0.26937587595E+02  0.91123850754E+01  0.44927273575E+02  0.10566000000E+00 0.  1.
         22    1    1    0    0    0  0.11394383836E+02 -0.24175667408E+02  0.11911358311E+02  0.29260473927E+02  0.00000000000E+00 0.  1.
</event>
<event>
 5    1  0.1668518E-003  0.9118800E+02  0.7818608E-02  0.1130116E+00
         25   -1    0    0    0    0  0.00000000000E+00  0.00000000000E+00  0.99999998245E-14  0.12500000000E+03  0.12500000000E+03 0.  0.
        -13    1    3    3    0    0  0.15355550578E+01  0.17006831634E+02  0.39834888349E+02  0.43340740019E+02  0.10566000000E+00 0.  1.
         23    2    1    0    0    0 -0.27103866607E+02  0.91463611441E+01 -0.38205521509E+01  0.96140475992E+02  0.91706700944E+02 0.  0.
         13    1    3    3    0    0 -0.28639421665E+02 -0.78604704901E+01 -0.43655440500E+02  0.52799735973E+02  0.10566000000E+00 0. -1.
         22    1    1    0    0    0  0.27103866607E+02 -0.91463611441E+01  0.38205521509E+01  0.28859524008E+02  0.00000000000E+00 0. -1.
</event>
<event>
 5    1  0.1668518E-003  0.9118800E+02  0.7818608E-02  0.1130116E+00
         25   -1    0    0    0    0  0.00000000000E+00  0.00000000000E+00  0.99999998245E-14  0.12500000000E+03  0.12500000000E+03 0.  0.
        -13    1    3    3    0    0  0.88782224611E+01 -0.48636875336E+02  0.26576409799E+02  0.56130964702E+02  0.10566000000E+00 0.  1.
         23    2    1    0    0    0  0.52306502037E+01 -0.10484135642E+02  0.28169619230E+02  0.94490915300E+02  0.89430021944E+02 0.  0.
         13    1    3    3    0    0 -0.36475722574E+01  0.38152739694E+02  0.15932094307E+01  0.38359950598E+02  0.10566000000E+00 0. -1.
         22    1    1    0    0    0 -0.52306502037E+01  0.10484135642E+02 -0.28169619230E+02  0.30509084700E+02  0.00000000000E+00 0.  1.
</event>
<event>
 5    1  0.1668518E-003  0.9118800E+02  0.7818608E-02  0.1130116E+00
         25   -1    0    0    0    0  0.00000000000E+00  0.00000000000E+00  0.99999998245E-14  0.12500000000E+03  0.12500000000E+03 0.  0.
        -13    1    3    3    0    0 -0.16944582068E+02  0.49994575842E+02  0.79179677369E+01  0.53378664766E+02  0.10566000000E+00 0. -1.
         23    2    1    0    0    0 -0.23787123547E+02  0.10487688141E+02 -0.98045910303E+01  0.97216032421E+02  0.93161194202E+02 0.  0.
         13    1    3    3    0    0 -0.68425414783E+01 -0.39506887700E+02 -0.17722558767E+02  0.43837367655E+02  0.10566000000E+00 0.  1.
         22    1    1    0    0    0  0.23787123547E+02 -0.10487688141E+02  0.98045910303E+01  0.27783967579E+02  0.00000000000E+00 0. -1.
</event>
<event>
 5    1  0.1668518E-003  0.9118800E+02  0.7818608E-02  0.1130116E+00
         25   -1    0    0    0    0  0.00000000000E+00  0.00000000000E+00  0.99999998245E-14  0.12500000000E+03  0.12500000000E+03 0.  0.
        -13    1    3    3    0    0  0.27637217581E+02 -0.40093677121E+02 -0.17066779433E+02  0.51600434737E+02  0.10566000000E+00 0.  1.
         23    2    1    0    0    0  0.24359207927E+02  0.33533585521E+01 -0.16885668140E+02  0.95171459758E+02  0.90376241013E+02 0.  0.
         13    1    3    3    0    0 -0.32780096540E+01  0.43447035673E+02  0.18111129297E+00  0.43571025022E+02  0.10566000000E+00 0. -1.
         22    1    1    0    0    0 -0.24359207927E+02 -0.33533585521E+01  0.16885668140E+02  0.29828540242E+02  0.00000000000E+00 0.  1.
</event>
<event>
 5    1  0.1668518E-003  0.9118800E+02  0.7818608E-02  0.1130116E+00
         25   -1    0    0    0    0  0.00000000000E+00  0.00000000000E+00  0.99999998245E-14  0.12500000000E+03  0.12500000000E+03 0.  0.
        -13    1    3    3    0    0  0.14497124370E+02  0.50623626466E+02 -0.28465313647E+02  0.59859864823E+02  0.10566000000E+00 0.  1.
         23    2    1    0    0    0  0.70068186294E+01  0.16253350955E+02 -0.23792722053E+02  0.95345985983E+02  0.90617307927E+02 0.  0.
         13    1    3    3    0    0 -0.74903057408E+01 -0.34370275511E+02  0.46725915931E+01  0.35486121160E+02  0.10566000000E+00 0. -1.
         22    1    1    0    0    0 -0.70068186294E+01 -0.16253350955E+02  0.23792722053E+02  0.29654014017E+02  0.00000000000E+00 0.  1.
</event>
<event>
 5    1  0.1668518E-003  0.9118800E+02  0.7818608E-02  0.1130116E+00
         25   -1    0    0    0    0  0.00000000000E+00  0.00000000000E+00  0.99999998245E-14  0.12500000000E+03  0.12500000000E+03 0.  0.
        -13    1    3    3    0    0  0.11135664006E+02 -0.34763359667E+02  0.11500003366E+02  0.38272123401E+02  0.10566000000E+00 0. -1.
         23    2    1    0    0    0  0.21123669372E+02  0.17658036208E+02 -0.98639948457E+01  0.95754247407E+02  0.91178735743E+02 0.  0.
         13    1    3    3    0    0  0.99880053655E+01  0.52421395874E+02 -0.21363998211E+02  0.57482124006E+02  0.10566000000E+00 0.  1.
         22    1    1    0    0    0 -0.21123669372E+02 -0.17658036208E+02  0.98639948457E+01  0.29245752593E+02  0.00000000000E+00 0.  1.
</event>
<event>
 5    1  0.1668518E-003  0.9118800E+02  0.7818608E-02  0.1130116E+00
         25   -1    0    0    0    0  0.00000000000E+00  0.00000000000E+00  0.99999998245E-14  0.12500000000E+03  0.12500000000E+03 0.  0.
        -13    1    3    3    0    0 -0.37568368765E+02  0.40619627948E+02 -0.12279894337E+01  0.55343072090E+02  0.10566000000E+00 0.  1.
         23    2    1    0    0    0 -0.13891668317E+02  0.15679116262E+02  0.20230435596E+02  0.95878124034E+02  0.91348404520E+02 0.  0.
         13    1    3    3    0    0  0.23676700448E+02 -0.24940511686E+02  0.21458425030E+02  0.40535051943E+02  0.10566000000E+00 0. -1.
         22    1    1    0    0    0  0.13891668317E+02 -0.15679116262E+02 -0.20230435596E+02  0.29121875966E+02  0.00000000000E+00 0.  1.
</event>
<event>
 5    1  0.1668518E-003  0.9118800E+02  0.7818608E-02  0.1130116E+00
         25   -1    0    0    0    0  0.00000000000E+00  0.00000000000E+00  0.99999998245E-14  0.12500000000E+03  0.12500000000E+03 0.  0.
        -13    1    3    3    0    0  0.70234332801E+00  0.49292942509E+02  0.16048229939E+02  0.51844424152E+02  0.10566000000E+00 0.  1.
         23    2    1    0    0    0  0.75567892690E+01  0.52903626226E+01  0.25944718016E+02  0.97464179808E+02  0.93493555671E+02 0.  0.
         13    1    3    3    0    0  0.68544459410E+01 -0.44002579887E+02  0.98964880764E+01  0.45619755656E+02  0.10566000000E+00 0. -1.
         22    1    1    0    0    0 -0.75567892690E+01 -0.52903626226E+01 -0.25944718016E+02  0.27535820192E+02  0.00000000000E+00 0. -1.
</event>
<event>
 5    1  0.1668518E-003  0.9118800E+02  0.7818608E-02  0.1130116E+00
         25   -1    0    0    0    0  0.00000000000E+00  0.00000000000E+00  0.99999998245E-14  0.12500000000E+03  0.12500000000E+03 0.  0.
        -13    1    3    3    0    0  0.29753843550E+02  0.54946672373E+01 -0.15988933605E+02  0.34221918939E+02  0.10566000000E+00 0. -1.
         23    2    1    0    0    0 -0.99109627802E+01 -0.32638432659E+02 -0.92695361893E+01  0.89652881718E+02  0.82390657416E+02 0.  0.
         13    1    3    3    0    0 -0.39664806330E+02 -0.38133099897E+02  0.67193974158E+01  0.55430962779E+02  0.10566000000E+00 0.  1.
         22    1    1    0    0    0  0.99109627802E+01  0.32638432659E+02  0.92695361893E+01  0.35347118282E+02  0.00000000000E+00 0.  1.
</event>
<event>
 5    1  0.1668518E-003  0.9118800E+02  0.7818608E-02  0.1130116E+00
         25   -1    0    0    0    0  0.00000000000E+00  0.00000000000E+00  0.99999998245E-14  0.12500000000E+03  0.12500000000E+03 0.  0.
        -13    1    3    3    0    0  0.50411229012E+01  0.26983472769E+02 -0.27265223637E+02  0.38690106059E+02  0.10566000000E+00 0. -1.
         23    2    1    0    0    0 -0.10004192242E+02  0.14376145242E+02  0.24974559884E+02  0.94496130478E+02  0.89437311115E+02 0.  0.
         13    1    3    3    0    0 -0.15045315143E+02 -0.12607327527E+02  0.52239783521E+02  0.55806024419E+02  0.10566000000E+00 0.  1.
         22    1    1    0    0    0  0.10004192242E+02 -0.14376145242E+02 -0.24974559884E+02  0.30503869522E+02  0.00000000000E+00 0.  1.
</event>
<event>
 5    1  0.1668518E-003  0.9118800E+02  0.7818608E-02  0.1130116E+00
         25   -1    0    0    0    0  0.00000000000E+00  0.00000000000E+00  0.99999998245E-14  0.12500000000E+03  0.12500000000E+03 0.  0.
        -13    1    3    3    0    0 -0.13527476948E+02  0.52642726128E+02  0.23351062869E+02  0.59156847008E+02  0.10566000000E+00 0. -1.
         23    2    1    0    0    0 -0.45318221649E+01  0.29200893737E+02 -0.26851629572E+01  0.95327795713E+02  0.90592212293E+02 0.  0.
         13    1    3    3    0    0  0.89956547832E+01 -0.23441832392E+02 -0.26036225826E+02  0.36170948704E+02  0.10566000000E+00 0.  1.
         22    1    1    0    0    0  0.45318221649E+01 -0.29200893737E+02  0.26851629572E+01  0.29672204287E+02  0.00000000000E+00 0. -1.
</event>
<event>
 5    1  0.1668518E-003  0.9118800E+02  0.7818608E-02  0.1130116E+00
         25   -1    0    0    0    0  0.00000000000E+00  0.00000000000E+00  0.99999998245E-14  0.12500000000E+03  0.12500000000E+03 0.  0.
        -13    1    3    3    0    0 -0.27573914097E+02 -0.30372724162E+01 -0.25132136989E+02  0.37432355470E+02  0.10566000000E+00 0. -1.
         23    2    1    0    0    0  0.64849206434E+01  0.12547922298E+02  0.22748769519E+02  0.98222937719E+02  0.94502563086E+02 0.  0.
         13    1    3    3    0    0  0.34058834740E+02  0.15585194714E+02  0.47880906508E+02  0.60790582249E+02  0.10566000000E+00 0.  1.
         22    1    1    0    0    0 -0.64849206434E+01 -0.12547922298E+02 -0.22748769519E+02  0.26777062281E+02  0.00000000000E+00 0.  1.
</event>
<event>
 5    1  0.1668518E-003  0.9118800E+02  0.7818608E-02  0.1130116E+00
         25   -1    0    0    0    0  0.00000000000E+00  0.00000000000E+00  0.99999998245E-14  0.12500000000E+03  0.12500000000E+03 0.  0.
        -13    1    3    3    0    0  0.94846724281E+01 -0.23645745157E+02 -0.38233971318E+02  0.45944836509E+02  0.10566000000E+00 0.  1.
         23    2    1    0    0    0  0.28116168524E+02  0.98054048386E+01 -0.97503689879E+01  0.93667355811E+02  0.88271393739E+02 0.  0.
         13    1    3    3    0    0  0.18631496096E+02  0.33451149996E+02  0.28483602330E+02  0.47722519302E+02  0.10566000000E+00 0. -1.
         22    1    1    0    0    0 -0.28116168524E+02 -0.98054048386E+01  0.97503689879E+01  0.31332644189E+02  0.00000000000E+00 0. -1.
</event>
<event>
 5    1  0.1668518E-003  0.9118800E+02  0.7818608E-02  0.1130116E+00
         25   -1    0    0    0    0  0.00000000000E+00  0.00000000000E+00  0.99999998245E-14  0.12500000000E+03  0.12500000000E+03 0.  0.
        -13    1    3    3    0    0 -0.46368073737E+01  0.39397448433E+00  0.39363988513E+02  0.39638238536E+02  0.10566000000E+00 0. -1.
         23    2    1    0    0    0  0.93242541857E+01  0.25123647074E+02 -0.98424593313E+01  0.96451561091E+02  0.92129746949E+02 0.  0.
         13    1    3    3    0    0  0.13961061559E+02  0.24729672590E+02 -0.49206447845E+02  0.56813322555E+02  0.10566000000E+00 0.  1.
         22    1    1    0    0    0 -0.93242541857E+01 -0.25123647074E+02  0.98424593313E+01  0.28548438909E+02  0.00000000000E+00 0.  1.
</event>
<event>
 5    1  0.1668518E-003  0.9118800E+02  0.7818608E-02  0.1130116E+00
         25   -1    0    0    0    0  0.00000000000E+00  0.00000000000E+00  0.99999998245E-14  0.12500000000E+03  0.12500000000E+03 0.  0.
        -13    1    3    3    0    0 -0.77847349327E+01 -0.46909624401E+02  0.24347318515E+02  0.53422074485E+02  0.10566000000E+00 0.  1.
         23    2    1    0    0    0  0.13895284701E+02 -0.11495418709E+02  0.24041163694E+02  0.94946695024E+02  0.90064830850E+02 0.  0.
         13    1    3    3    0    0  0.21680019634E+02  0.35414205692E+02 -0.30615482071E+00  0.41524620539E+02  0.10566000000E+00 0. -1.
         22    1    1    0    0    0 -0.13895284701E+02  0.11495418709E+02 -0.24041163694E+02  0.30053304976E+02  0.00000000000E+00 0. -1.
</event>
<event>
 5    1  0.1668518E-003  0.9118800E+02  0.7818608E-02  0.1130116E+00
         25   -1    0    0    0    0  0.00000000000E+00  0.00000000000E+00  0.99999998245E-14  0.12500000000E+03  0.12500000000E+03 0.  0.
        -13    1    3    3    0    0  0.23262230329E+02  0.42275000369E+02 -0.31302226371E+01  0.48354074015E+02  0.10566000000E+00 0. -1.
         23    2    1    0    0    0  0.31964004091E+02 -0.14524459608E+01 -0.13121866888E+01  0.92976118432E+02  0.87287052923E+02 0.  0.
         13    1    3    3    0    0  0.87017737621E+01 -0.43727446330E+02  0.18180359484E+01  0.44622044416E+02  0.10566000000E+00 0.  1.
         22    1    1    0    0    0 -0.31964004091E+02  0.14524459608E+01  0.13121866888E+01  0.32023881568E+02  0.00000000000E+00 0.  1.
</event>
<event>
 5    1  0.1668518E-003  0.9118800E+02  0.7818608E-02  0.1130116E+00
         25   -1    0    0    0    0  0.00000000000E+00  0.00000000000E+00  0.99999998245E-14  0.12500000000E+03  0.12500000000E+03 0.  0.
        -13    1    3    3    0    0 -0.37472282020E+02  0.41822685817E+02 -0.29586719284E+01  0.56232320531E+02  0.10566000000E+00 0.  1.
         23    2    1    0    0    0 -0.18934127422E+02  0.22345657931E+02  0.18260163445E+02  0.90485319375E+02  0.83644066399E+02 0.  0.
         13    1    3    3    0    0  0.18538154598E+02 -0.19477027886E+02  0.21218835373E+02  0.34252998844E+02  0.10566000000E+00 0. -1.
         22    1    1    0    0    0  0.18934127422E+02 -0.22345657931E+02 -0.18260163445E+02  0.34514680625E+02  0.00000000000E+00 0.  1.
</event>
<event>
 5    1  0.1668518E-003  0.9118800E+02  0.7818608E-02  0.1130116E+00
         25   -1    0    0    0    0  0.00000000000E+00  0.00000000000E+00  0.99999998245E-14  0.12500000000E+03  0.12500000000E+03 0.  0.
        -13    1    3    3    0    0 -0.13564210212E+02  0.10485302980E+02  0.27837247702E+02  0.32693315845E+02  0.10566000000E+00 0.  1.
         23    2    1    0    0    0  0.14812990380E+02 -0.77957576555E+01 -0.24713128010E+02  0.95151428552E+02  0.90348531466E+02 0.  0.
         13    1    3    3    0    0  0.28377200592E+02 -0.18281060636E+02 -0.52550375712E+02  0.62458112707E+02  0.10566000000E+00 0. -1.
         22    1    1    0    0    0 -0.14812990380E+02  0.77957576555E+01  0.24713128010E+02  0.29848571448E+02  0.00000000000E+00 0. -1.
</event>
<event>
 5    1  0.1668518E-003  0.9118800E+02  0.7818608E-02  0.1130116E+00
         25   -1    0    0    0    0  0.00000000000E+00  0.00000000000E+00  0.99999998245E-14  0.12500000000E+03  0.12500000000E+03 0.  0.
        -13    1    3    3    0    0 -0.26618050499E+02 -0.58847221177E+01 -0.22948605361E+02  0.35634256254E+02  0.10566000000E+00 0.  1.
         23    2    1    0    0    0  0.28814158193E+02  0.21150234585E+01 -0.13772826668E+00  0.96107994087E+02  0.91662416081E+02 0.  0.
         13    1    3    3    0    0  0.55432208691E+02  0.79997455762E+01  0.22810877094E+02  0.60473737833E+02  0.10566000000E+00 0. -1.
         22    1    1    0    0    0 -0.28814158193E+02 -0.21150234585E+01  0.13772826668E+00  0.28892005913E+02  0.00000000000E+00 0. -1.
</event>
<event>
 5    1  0.1668518E-003  0.9118800E+02  0.7818608E-02  0.1130116E+00
         25   -1    0    0    0    0  0.00000000000E+00  0.00000000000E+00  0.99999998245E-14  0.12500000000E+03  0.12500000000E+03 0.  0.
        -13    1    3    3    0    0  0.35157376495E+02 -0.38383591027E+01  0.19068691003E+01  0.35417812417E+02  0.10566000000E+00 0. -1.
         23    2    1    0    0    0 -0.21118299317E+02 -0.16593466960E+01 -0.20019500369E+02  0.95853535506E+02  0.91314751691E+02 0.  0.
         13    1    3    3    0    0 -0.56275675812E+02  0.21790124067E+01 -0.21926369469E+02  0.60435723089E+02  0.10566000000E+00 0.  1.
         22    1    1    0    0    0  0.21118299317E+02  0.16593466960E+01  0.20019500369E+02  0.29146464494E+02  0.00000000000E+00 0.  1.
</event>
<event>
 5    1  0.1668518E-003  0.9118800E+02  0.7818608E-02  0.1130116E+00
         25   -1    0    0    0    0  0.00000000000E+00  0.00000000000E+00  0.99999998245E-14  0.12500000000E+03  0.12500000000E+03 0.  0.
        -13    1    3    3    0    0  0.19227666547E+01 -0.13055274586E+02  0.35215948952E+02  0.37607332407E+02  0.10566000000E+00 0.  1.
         23    2    1    0    0    0  0.60142825714E+01 -0.18068384390E+02 -0.22407827834E+02  0.95593387520E+02  0.90957940170E+02 0.  0.
         13    1    3    3    0    0  0.40915159167E+01 -0.50131098038E+01 -0.57623776786E+02  0.57986055113E+02  0.10566000000E+00 0. -1.
         22    1    1    0    0    0 -0.60142825714E+01  0.18068384390E+02  0.22407827834E+02  0.29406612480E+02  0.00000000000E+00 0. -1.
</event>
<event>
 5    1  0.1668518E-003  0.9118800E+02  0.7818608E-02  0.1130116E+00
         25   -1    0    0    0    0  0.00000000000E+00  0.00000000000E+00  0.99999998245E-14  0.12500000000E+03  0.12500000000E+03 0.  0.
        -13    1    3    3    0    0  0.32162057536E+02  0.10253189011E+02  0.49643991768E+02  0.60033848057E+02  0.10566000000E+00 0.  1.
         23    2    1    0    0    0  0.17431046500E+02 -0.72183052801E+01  0.19428836665E+02  0.97918179394E+02  0.94098591108E+02 0.  0.
         13    1    3    3    0    0 -0.14731011036E+02 -0.17471494291E+02 -0.30215155103E+02  0.37884331337E+02  0.10566000000E+00 0. -1.
         22    1    1    0    0    0 -0.17431046500E+02  0.72183052801E+01 -0.19428836665E+02  0.27081820606E+02  0.00000000000E+00 0.  1.
</event>
<event>
 5    1  0.1668518E-003  0.9118800E+02  0.7818608E-02  0.1130116E+00
         25   -1    0    0    0    0  0.00000000000E+00  0.00000000000E+00  0.99999998245E-14  0.12500000000E+03  0.12500000000E+03 0.  0.
        -13    1    3    3    0    0 -0.45307354202E+00 -0.15806205742E+02  0.31509064548E+02  0.35254414310E+02  0.10566000000E+00 0. -1.
         23    2    1    0    0    0  0.10124743819E+02  0.12351666451E+02 -0.22697088412E+02  0.97246947484E+02  0.93202665579E+02 0.  0.
         13    1    3    3    0    0  0.10577817361E+02  0.28157872194E+02 -0.54206152960E+02  0.61992533175E+02  0.10566000000E+00 0.  1.
         22    1    1    0    0    0 -0.10124743819E+02 -0.12351666451E+02  0.22697088412E+02  0.27753052516E+02  0.00000000000E+00 0.  1.
</event>
<event>
 5    1  0.1668518E-003  0.9118800E+02  0.7818608E-02  0.1130116E+00
         25   -1    0    0    0    0  0.00000000000E+00  0.00000000000E+00  0.99999998245E-14  0.12500000000E+03  0.12500000000E+03 0.  0.
        -13    1    3    3    0    0 -0.28816788909E+02 -0.10310465298E+02 -0.15720997154E+02  0.34407469149E+02  0.10566000000E+00 0. -1.
         23    2    1    0    0    0  0.11708228924E+02  0.11595282415E+02  0.24440821761E+02  0.95523111304E+02  0.90861310941E+02 0.  0.
         13    1    3    3    0    0  0.40525017834E+02  0.21905747714E+02  0.40161818915E+02  0.61115642154E+02  0.10566000000E+00 0.  1.
         22    1    1    0    0    0 -0.11708228924E+02 -0.11595282415E+02 -0.24440821761E+02  0.29476888696E+02  0.00000000000E+00 0.  1.
</event>
<event>
 5    1  0.1668518E-003  0.9118800E+02  0.7818608E-02  0.1130116E+00
         25   -1    0    0    0    0  0.00000000000E+00  0.00000000000E+00  0.99999998245E-14  0.12500000000E+03  0.12500000000E+03 0.  0.
        -13    1    3    3    0    0  0.21146819618E+02  0.49349171963E+02 -0.17555582235E+02  0.56486621292E+02  0.10566000000E+00 0.  1.
         23    2    1    0    0    0  0.25159676659E+02  0.10666745913E+02 -0.77832293275E+01  0.96585787769E+02  0.92311683671E+02 0.  0.
         13    1    3    3    0    0  0.40128570404E+01 -0.38682426050E+02  0.97723529072E+01  0.40099166477E+02  0.10566000000E+00 0. -1.
         22    1    1    0    0    0 -0.25159676659E+02 -0.10666745913E+02  0.77832293275E+01  0.28414212231E+02  0.00000000000E+00 0. -1.
</event>
<event>
 5    1  0.1668518E-003  0.9118800E+02  0.7818608E-02  0.1130116E+00
         25   -1    0    0    0    0  0.00000000000E+00  0.00000000000E+00  0.99999998245E-14  0.12500000000E+03  0.12500000000E+03 0.  0.
        -13    1    3    3    0    0 -0.35453224128E+02 -0.11274546562E+02  0.47037359587E+02  0.59971417043E+02  0.10566000000E+00 0.  1.
         23    2    1    0    0    0 -0.17086975034E+02  0.74796489526E+01  0.19585917597E+02  0.97953409968E+02  0.94145379557E+02 0.  0.
         13    1    3    3    0    0  0.18366249094E+02  0.18754195515E+02 -0.27451441990E+02  0.37981992925E+02  0.10566000000E+00 0. -1.
         22    1    1    0    0    0  0.17086975034E+02 -0.74796489526E+01 -0.19585917597E+02  0.27046590032E+02  0.00000000000E+00 0.  1.
</event>
<event>
 5    1  0.1668518E-003  0.9118800E+02  0.7818608E-02  0.1130116E+00
         25   -1    0    0    0    0  0.00000000000E+00  0.00000000000E+00  0.99999998245E-14  0.12500000000E+03  0.12500000000E+03 0.  0.
        -13    1    3    3    0    0  0.17877296261E+02  0.32181064116E+02  0.45273486572E+01  0.37090789412E+02  0.10566000000E+00 0.  1.
         23    2    1    0    0    0 -0.51997955994E+01 -0.12284138284E+02 -0.26015267575E+02  0.95764198752E+02  0.91192377356E+02 0.  0.
         13    1    3    3    0    0 -0.23077091861E+02 -0.44465202400E+02 -0.30542616232E+02  0.58673409340E+02  0.10566000000E+00 0. -1.
         22    1    1    0    0    0  0.51997955994E+01  0.12284138284E+02  0.26015267575E+02  0.29235801248E+02  0.00000000000E+00 0. -1.
</event>
<event>
 5    1  0.1668518E-003  0.9118800E+02  0.7818608E-02  0.1130116E+00
         25   -1    0    0    0    0  0.00000000000E+00  0.00000000000E+00  0.99999998245E-14  0.12500000000E+03  0.12500000000E+03 0.  0.
        -13    1    3    3    0    0 -0.25804854866E+02 -0.51339184866E+02 -0.23830078840E+02  0.62205194790E+02  0.10566000000E+00 0. -1.
         23    2    1    0    0    0 -0.10190142143E+02 -0.27052267086E+02 -0.86517467271E+01  0.94825227875E+02  0.89896089841E+02 0.  0.
         13    1    3    3    0    0  0.15614712724E+02  0.24286917780E+02  0.15178332113E+02  0.32620033084E+02  0.10566000000E+00 0.  1.
         22    1    1    0    0    0  0.10190142143E+02  0.27052267086E+02  0.86517467271E+01  0.30174772125E+02  0.00000000000E+00 0. -1.
</event>
<event>
 5    1  0.1668518E-003  0.9118800E+02  0.7818608E-02  0.1130116E+00
         25   -1    0    0    0    0  0.00000000000E+00  0.00000000000E+00  0.99999998245E-14  0.12500000000E+03  0.12500000000E+03 0.  0.
        -13    1    3    3    0    0 -0.41635734311E+02  0.18696705185E+02  0.27519556232E+02  0.53295762454E+02  0.10566000000E+00 0. -1.
         23    2    1    0    0    0 -0.18480173597E+02 -0.15671895476E+02  0.14628855512E+02  0.96695785870E+02  0.92460513017E+02 0.  0.
         13    1    3    3    0    0  0.23155560714E+02 -0.34368600660E+02 -0.12890700720E+02  0.43400023415E+02  0.10566000000E+00 0.  1.
         22    1    1    0    0    0  0.18480173597E+02  0.15671895476E+02 -0.14628855512E+02  0.28304214130E+02  0.00000000000E+00 0. -1.
</event>
<event>
 5    1  0.1668518E-003  0.9118800E+02  0.7818608E-02  0.1130116E+00
         25   -1    0    0    0    0  0.00000000000E+00  0.00000000000E+00  0.99999998245E-14  0.12500000000E+03  0.12500000000E+03 0.  0.
        -13    1    3    3    0    0  0.24419916260E+02  0.35513865068E+02  0.30413167000E+02  0.52749775481E+02  0.10566000000E+00 0.  1.
         23    2    1    0    0    0 -0.13202434376E+00 -0.19969364066E+01  0.27232537020E+02  0.97694025233E+02  0.93800353455E+02 0.  0.
         13    1    3    3    0    0 -0.24551940604E+02 -0.37510801475E+02 -0.31806299802E+01  0.44944249752E+02  0.10566000000E+00 0. -1.
         22    1    1    0    0    0  0.13202434376E+00  0.19969364066E+01 -0.27232537020E+02  0.27305974767E+02  0.00000000000E+00 0.  1.
</event>
<event>
 5    1  0.1668518E-003  0.9118800E+02  0.7818608E-02  0.1130116E+00
         25   -1    0    0    0    0  0.00000000000E+00  0.00000000000E+00  0.99999998245E-14  0.12500000000E+03  0.12500000000E+03 0.  0.
        -13    1    3    3    0    0  0.21635579269E+02  0.43959720566E+02 -0.43396294830E+00  0.48997498002E+02  0.10566000000E+00 0. -1.
         23    2    1    0    0    0  0.85996923652E+01  0.79849924643E+01  0.26652579447E+02  0.95878276071E+02  0.91348612566E+02 0.  0.
         13    1    3    3    0    0 -0.13035886904E+02 -0.35974728102E+02  0.27086542395E+02  0.46880778069E+02  0.10566000000E+00 0.  1.
         22    1    1    0    0    0 -0.85996923652E+01 -0.79849924643E+01 -0.26652579447E+02  0.29121723929E+02  0.00000000000E+00 0.  1.
</event>
<event>
 5    1  0.1668518E-003  0.9118800E+02  0.7818608E-02  0.1130116E+00
         25   -1    0    0    0    0  0.00000000000E+00  0.00000000000E+00  0.99999998245E-14  0.12500000000E+03  0.12500000000E+03 0.  0.
        -13    1    3    3    0    0  0.26238095209E+02  0.50285326604E+02  0.10570281280E+02  0.57695699339E+02  0.10566000000E+00 0. -1.
         23    2    1    0    0    0  0.31954041697E+02  0.25104566748E+02  0.70679585229E+01  0.83753714227E+02  0.72893268254E+02 0.  0.
         13    1    3    3    0    0  0.57159464876E+01 -0.25180759856E+02 -0.35023227567E+01  0.26058014888E+02  0.10566000000E+00 0.  1.
         22    1    1    0    0    0 -0.31954041697E+02 -0.25104566748E+02 -0.70679585229E+01  0.41246285773E+02  0.00000000000E+00 0. -1.
</event>
<event>
 5    1  0.1668518E-003  0.9118800E+02  0.7818608E-02  0.1130116E+00
         25   -1    0    0    0    0  0.00000000000E+00  0.00000000000E+00  0.99999998245E-14  0.12500000000E+03  0.12500000000E+03 0.  0.
        -13    1    3    3    0    0  0.73773636846E+01 -0.47680611775E+02  0.17736252548E+02  0.51404786282E+02  0.10566000000E+00 0.  1.
         23    2    1    0    0    0 -0.65682370906E+01 -0.27916349557E+02 -0.15413580563E+02  0.92441701874E+02  0.86518353363E+02 0.  0.
         13    1    3    3    0    0 -0.13945600775E+02  0.19764262218E+02 -0.33149833111E+02  0.41036915592E+02  0.10566000000E+00 0. -1.
         22    1    1    0    0    0  0.65682370906E+01  0.27916349557E+02  0.15413580563E+02  0.32558298126E+02  0.00000000000E+00 0.  1.
</event>
<event>
 5    1  0.1668518E-003  0.9118800E+02  0.7818608E-02  0.1130116E+00
         25   -1    0    0    0    0  0.00000000000E+00  0.00000000000E+00  0.99999998245E-14  0.12500000000E+03  0.12500000000E+03 0.  0.
        -13    1    3    3    0    0 -0.10380992633E+02 -0.38332241676E+02 -0.41343699798E+01  0.39927809095E+02  0.10566000000E+00 0. -1.
         23    2    1    0    0    0 -0.34790699790E+02 -0.72643718538E+01 -0.21905390566E+02  0.83250628434E+02  0.72025392109E+02 0.  0.
         13    1    3    3    0    0 -0.24409707157E+02  0.31067869822E+02 -0.17771020586E+02  0.43322819339E+02  0.10566000000E+00 0.  1.
         22    1    1    0    0    0  0.34790699790E+02  0.72643718538E+01  0.21905390566E+02  0.41749371566E+02  0.00000000000E+00 0.  1.
</event>
<event>
 5    1  0.1668518E-003  0.9118800E+02  0.7818608E-02  0.1130116E+00
         25   -1    0    0    0    0  0.00000000000E+00  0.00000000000E+00  0.99999998245E-14  0.12500000000E+03  0.12500000000E+03 0.  0.
        -13    1    3    3    0    0 -0.11430125840E+02  0.17187773109E+02 -0.29430625295E+02  0.35947742494E+02  0.10566000000E+00 0.  1.
         23    2    1    0    0    0  0.14047732593E+02 -0.28314856904E+02 -0.14717226727E+02  0.90133588154E+02  0.83116767493E+02 0.  0.
         13    1    3    3    0    0  0.25477858433E+02 -0.45502630013E+02  0.14713398568E+02  0.54185845660E+02  0.10566000000E+00 0. -1.
         22    1    1    0    0    0 -0.14047732593E+02  0.28314856904E+02  0.14717226727E+02  0.34866411846E+02  0.00000000000E+00 0. -1.
</event>
<event>
 5    1  0.1668518E-003  0.9118800E+02  0.7818608E-02  0.1130116E+00
         25   -1    0    0    0    0  0.00000000000E+00  0.00000000000E+00  0.99999998245E-14  0.12500000000E+03  0.12500000000E+03 0.  0.
        -13    1    3    3    0    0 -0.22997804899E+02 -0.21687810330E+02 -0.11977727961E+02  0.33804397320E+02  0.10566000000E+00 0. -1.
         23    2    1    0    0    0  0.19629091999E+02  0.20059965885E+02  0.63567060595E+01  0.96223078762E+02  0.91819222881E+02 0.  0.
         13    1    3    3    0    0  0.42626896898E+02  0.41747776214E+02  0.18334434020E+02  0.62418681441E+02  0.10566000000E+00 0.  1.
         22    1    1    0    0    0 -0.19629091999E+02 -0.20059965885E+02 -0.63567060595E+01  0.28776921238E+02  0.00000000000E+00 0.  1.
</event>
<event>
 5    1  0.1668518E-003  0.9118800E+02  0.7818608E-02  0.1130116E+00
         25   -1    0    0    0    0  0.00000000000E+00  0.00000000000E+00  0.99999998245E-14  0.12500000000E+03  0.12500000000E+03 0.  0.
        -13    1    3    3    0    0 -0.37797257166E+02  0.22161568924E+02  0.23999879700E+02  0.49957713880E+02  0.10566000000E+00 0. -1.
         23    2    1    0    0    0 -0.15304486610E+02 -0.16642054471E+02  0.19695057153E+02  0.95015327854E+02  0.90160035291E+02 0.  0.
         13    1    3    3    0    0  0.22492770556E+02 -0.38803623395E+02 -0.43048225470E+01  0.45057613975E+02  0.10566000000E+00 0.  1.
         22    1    1    0    0    0  0.15304486610E+02  0.16642054471E+02 -0.19695057153E+02  0.29984672146E+02  0.00000000000E+00 0. -1.
</event>
<event>
 5    1  0.1668518E-003  0.9118800E+02  0.7818608E-02  0.1130116E+00
         25   -1    0    0    0    0  0.00000000000E+00  0.00000000000E+00  0.99999998245E-14  0.12500000000E+03  0.12500000000E+03 0.  0.
        -13    1    3    3    0    0 -0.24748679868E+02 -0.10271163447E+02 -0.36377925193E+02  0.45181396162E+02  0.10566000000E+00 0. -1.
         23    2    1    0    0    0  0.89982167093E+01  0.21731284310E+02 -0.18757816431E+02  0.94915580461E+02  0.90021636929E+02 0.  0.
         13    1    3    3    0    0  0.33746896577E+02  0.32002447757E+02  0.17620108763E+02  0.49734184299E+02  0.10566000000E+00 0.  1.
         22    1    1    0    0    0 -0.89982167093E+01 -0.21731284310E+02  0.18757816431E+02  0.30084419539E+02  0.00000000000E+00 0.  1.
</event>
<event>
 5    1  0.1668518E-003  0.9118800E+02  0.7818608E-02  0.1130116E+00
         25   -1    0    0    0    0  0.00000000000E+00  0.00000000000E+00  0.99999998245E-14  0.12500000000E+03  0.12500000000E+03 0.  0.
        -13    1    3    3    0    0 -0.29527537111E+02  0.23097775395E+02 -0.67007991129E+01  0.38082732948E+02  0.10566000000E+00 0.  1.
         23    2    1    0    0    0  0.26772178094E+02  0.11103510143E+02 -0.43311866083E+01  0.95694767790E+02  0.91097156638E+02 0.  0.
         13    1    3    3    0    0  0.56299715206E+02 -0.11994265251E+02  0.23696125045E+01  0.57612034842E+02  0.10566000000E+00 0. -1.
         22    1    1    0    0    0 -0.26772178094E+02 -0.11103510143E+02  0.43311866083E+01  0.29305232210E+02  0.00000000000E+00 0. -1.
</event>
<event>
 5    1  0.1668518E-003  0.9118800E+02  0.7818608E-02  0.1130116E+00
         25   -1    0    0    0    0  0.00000000000E+00  0.00000000000E+00  0.99999998245E-14  0.12500000000E+03  0.12500000000E+03 0.  0.
        -13    1    3    3    0    0 -0.34988305882E+02 -0.31120474698E+02  0.18101573608E+01  0.46861000071E+02  0.10566000000E+00 0. -1.
         23    2    1    0    0    0 -0.78084697337E+01  0.54180454562E+01  0.25208329471E+02  0.98059560307E+02  0.94286213609E+02 0.  0.
         13    1    3    3    0    0  0.27179836149E+02  0.36538520154E+02  0.23398172110E+02  0.51198560236E+02  0.10566000000E+00 0.  1.
         22    1    1    0    0    0  0.78084697337E+01 -0.54180454562E+01 -0.25208329471E+02  0.26940439693E+02  0.00000000000E+00 0.  1.
</event>
<event>
 5    1  0.1668518E-003  0.9118800E+02  0.7818608E-02  0.1130116E+00
         25   -1    0    0    0    0  0.00000000000E+00  0.00000000000E+00  0.99999998245E-14  0.12500000000E+03  0.12500000000E+03 0.  0.
        -13    1    3    3    0    0  0.21148842284E+02  0.48163988216E+02 -0.15023341440E+02  0.54706080492E+02  0.10566000000E+00 0. -1.
         23    2    1    0    0    0  0.23386980038E+02  0.16985026664E+02 -0.24219664710E+02  0.87290132262E+02  0.78724412133E+02 0.  0.
         13    1    3    3    0    0  0.22381377546E+01 -0.31178961551E+02 -0.91963232703E+01  0.32584051770E+02  0.10566000000E+00 0.  1.
         22    1    1    0    0    0 -0.23386980038E+02 -0.16985026664E+02  0.24219664710E+02  0.37709867738E+02  0.00000000000E+00 0. -1.
</event>
<event>
 5    1  0.1668518E-003  0.9118800E+02  0.7818608E-02  0.1130116E+00
         25   -1    0    0    0    0  0.00000000000E+00  0.00000000000E+00  0.99999998245E-14  0.12500000000E+03  0.12500000000E+03 0.  0.
        -13    1    3    3    0    0  0.23880191698E+02  0.31786154378E+02  0.23210979364E+02  0.46036766749E+02  0.10566000000E+00 0.  1.
         23    2    1    0    0    0 -0.15506973257E+02  0.23385011962E+02 -0.66387168718E+01  0.96166034512E+02  0.91741531642E+02 0.  0.
         13    1    3    3    0    0 -0.39387164955E+02 -0.84011424159E+01 -0.29849696235E+02  0.50129267763E+02  0.10566000000E+00 0. -1.
         22    1    1    0    0    0  0.15506973257E+02 -0.23385011962E+02  0.66387168718E+01  0.28833965488E+02  0.00000000000E+00 0.  1.
</event>
<event>
 5    1  0.1668518E-003  0.9118800E+02  0.7818608E-02  0.1130116E+00
         25   -1    0    0    0    0  0.00000000000E+00  0.00000000000E+00  0.99999998245E-14  0.12500000000E+03  0.12500000000E+03 0.  0.
        -13    1    3    3    0    0 -0.70150124498E+01 -0.45469888428E+01 -0.52537579880E+02  0.53198627528E+02  0.10566000000E+00 0. -1.
         23    2    1    0    0    0  0.10936906380E+02 -0.21540519536E+02 -0.27795608985E+02  0.88173300692E+02  0.80114450463E+02 0.  0.
         13    1    3    3    0    0  0.17951918830E+02 -0.16993530694E+02  0.24741970895E+02  0.34974673164E+02  0.10566000000E+00 0.  1.
         22    1    1    0    0    0 -0.10936906380E+02  0.21540519536E+02  0.27795608985E+02  0.36826699308E+02  0.00000000000E+00 0. -1.
</event>
<event>
 5    1  0.1668518E-003  0.9118800E+02  0.7818608E-02  0.1130116E+00
         25   -1    0    0    0    0  0.00000000000E+00  0.00000000000E+00  0.99999998245E-14  0.12500000000E+03  0.12500000000E+03 0.  0.
        -13    1    3    3    0    0  0.21125956299E+02 -0.45433229882E+02 -0.24517049866E+02  0.55781549864E+02  0.10566000000E+00 0. -1.
         23    2    1    0    0    0 -0.10157560799E+02 -0.20455703629E+02 -0.17038063531E+02  0.96506010085E+02  0.92203592779E+02 0.  0.
         13    1    3    3    0    0 -0.31283517098E+02  0.24977526252E+02  0.74789863351E+01  0.40724460222E+02  0.10566000000E+00 0.  1.
         22    1    1    0    0    0  0.10157560799E+02  0.20455703629E+02  0.17038063531E+02  0.28493989915E+02  0.00000000000E+00 0. -1.
</event>
<event>
 5    1  0.1668518E-003  0.9118800E+02  0.7818608E-02  0.1130116E+00
         25   -1    0    0    0    0  0.00000000000E+00  0.00000000000E+00  0.99999998245E-14  0.12500000000E+03  0.12500000000E+03 0.  0.
        -13    1    3    3    0    0  0.41429035176E+02 -0.13217021598E+01  0.30045891045E+02  0.51194517138E+02  0.10566000000E+00 0. -1.
         23    2    1    0    0    0 -0.60313653747E+00  0.11343354180E+02  0.27591076481E+02  0.95162055046E+02  0.90363232354E+02 0.  0.
         13    1    3    3    0    0 -0.42032171714E+02  0.12665056340E+02 -0.24548145642E+01  0.43967537908E+02  0.10566000000E+00 0.  1.
         22    1    1    0    0    0  0.60313653747E+00 -0.11343354180E+02 -0.27591076481E+02  0.29837944954E+02  0.00000000000E+00 0. -1.
</event>
<event>
 5    1  0.1668518E-003  0.9118800E+02  0.7818608E-02  0.1130116E+00
         25   -1    0    0    0    0  0.00000000000E+00  0.00000000000E+00  0.99999998245E-14  0.12500000000E+03  0.12500000000E+03 0.  0.
        -13    1    3    3    0    0 -0.43731239752E+02 -0.37650676295E+02  0.23989362885E+01  0.57756045702E+02  0.10566000000E+00 0. -1.
         23    2    1    0    0    0 -0.18915115995E+02 -0.10508652169E+02 -0.15229482259E+02  0.98539642606E+02  0.94920549153E+02 0.  0.
         13    1    3    3    0    0  0.24816123757E+02  0.27142024126E+02 -0.17628418547E+02  0.40783596904E+02  0.10566000000E+00 0.  1.
         22    1    1    0    0    0  0.18915115995E+02  0.10508652169E+02  0.15229482259E+02  0.26460357394E+02  0.00000000000E+00 0. -1.
</event>
<event>
 5    1  0.1668518E-003  0.9118800E+02  0.7818608E-02  0.1130116E+00
         25   -1    0    0    0    0  0.00000000000E+00  0.00000000000E+00  0.99999998245E-14  0.12500000000E+03  0.12500000000E+03 0.  0.
        -13    1    3    3    0    0 -0.14750007153E+02  0.22492834241E+02 -0.23269952455E+02  0.35566728195E+02  0.10566000000E+00 0. -1.
         23    2    1    0    0    0  0.22064504902E+02  0.27205258494E+01  0.19547753581E+02  0.95396650401E+02  0.90687168884E+02 0.  0.
         13    1    3    3    0    0  0.36814512055E+02 -0.19772308391E+02  0.42817706036E+02  0.59829922206E+02  0.10566000000E+00 0.  1.
         22    1    1    0    0    0 -0.22064504902E+02 -0.27205258494E+01 -0.19547753581E+02  0.29603349599E+02  0.00000000000E+00 0.  1.
</event>
<event>
 5    1  0.1668518E-003  0.9118800E+02  0.7818608E-02  0.1130116E+00
         25   -1    0    0    0    0  0.00000000000E+00  0.00000000000E+00  0.99999998245E-14  0.12500000000E+03  0.12500000000E+03 0.  0.
        -13    1    3    3    0    0  0.56587564835E+02  0.14199247078E+02  0.59751577260E+01  0.58647120862E+02  0.10566000000E+00 0.  1.
         23    2    1    0    0    0  0.26405598738E+02 -0.53726087436E+01  0.12647045702E+02  0.95233100020E+02  0.90461455908E+02 0.  0.
         13    1    3    3    0    0 -0.30181966096E+02 -0.19571855822E+02  0.66718879763E+01  0.36585979158E+02  0.10566000000E+00 0. -1.
         22    1    1    0    0    0 -0.26405598738E+02  0.53726087436E+01 -0.12647045702E+02  0.29766899980E+02  0.00000000000E+00 0.  1.
</event>
<event>
 5    1  0.1668518E-003  0.9118800E+02  0.7818608E-02  0.1130116E+00
         25   -1    0    0    0    0  0.00000000000E+00  0.00000000000E+00  0.99999998245E-14  0.12500000000E+03  0.12500000000E+03 0.  0.
        -13    1    3    3    0    0  0.21752298560E+02  0.11343579950E+02  0.53906495482E+02  0.59226351550E+02  0.10566000000E+00 0.  1.
         23    2    1    0    0    0  0.12428373981E+02  0.18103262867E+02  0.19072968110E+02  0.95914424215E+02  0.91398063731E+02 0.  0.
         13    1    3    3    0    0 -0.93239245795E+01  0.67596829166E+01 -0.34833527372E+02  0.36688072666E+02  0.10566000000E+00 0. -1.
         22    1    1    0    0    0 -0.12428373981E+02 -0.18103262867E+02 -0.19072968110E+02  0.29085575785E+02  0.00000000000E+00 0.  1.
</event>
<event>
 5    1  0.1668518E-003  0.9118800E+02  0.7818608E-02  0.1130116E+00
         25   -1    0    0    0    0  0.00000000000E+00  0.00000000000E+00  0.99999998245E-14  0.12500000000E+03  0.12500000000E+03 0.  0.
        -13    1    3    3    0    0 -0.26723621769E+01 -0.13573469094E+02  0.33009233104E+02  0.35791077338E+02  0.10566000000E+00 0. -1.
         23    2    1    0    0    0  0.15988402519E+02  0.18992034597E+02 -0.14431839416E+02  0.96284074416E+02  0.91902223063E+02 0.  0.
         13    1    3    3    0    0  0.18660764696E+02  0.32565503691E+02 -0.47441072519E+02  0.60492997078E+02  0.10566000000E+00 0.  1.
         22    1    1    0    0    0 -0.15988402519E+02 -0.18992034597E+02  0.14431839416E+02  0.28715925584E+02  0.00000000000E+00 0.  1.
</event>
<event>
 5    1  0.1668518E-003  0.9118800E+02  0.7818608E-02  0.1130116E+00
         25   -1    0    0    0    0  0.00000000000E+00  0.00000000000E+00  0.99999998245E-14  0.12500000000E+03  0.12500000000E+03 0.  0.
        -13    1    3    3    0    0 -0.48324014698E+02 -0.11257371489E+02 -0.31685678258E+02  0.58872168128E+02  0.10566000000E+00 0. -1.
         23    2    1    0    0    0 -0.18084470355E+02  0.71422727499E+01 -0.22139682854E+02  0.95534330400E+02  0.90876744000E+02 0.  0.
         13    1    3    3    0    0  0.30239544343E+02  0.18399644239E+02  0.95459954039E+01  0.36662162272E+02  0.10566000000E+00 0.  1.
         22    1    1    0    0    0  0.18084470355E+02 -0.71422727499E+01  0.22139682854E+02  0.29465669600E+02  0.00000000000E+00 0. -1.
</event>
<event>
 5    1  0.1668518E-003  0.9118800E+02  0.7818608E-02  0.1130116E+00
         25   -1    0    0    0    0  0.00000000000E+00  0.00000000000E+00  0.99999998245E-14  0.12500000000E+03  0.12500000000E+03 0.  0.
        -13    1    3    3    0    0 -0.45034831794E+02 -0.27573223861E+02  0.75462913865E+01  0.53342069950E+02  0.10566000000E+00 0.  1.
         23    2    1    0    0    0 -0.19707497425E+02 -0.71286778571E+01 -0.20035774704E+02  0.96006280495E+02  0.91523604189E+02 0.  0.
         13    1    3    3    0    0  0.25327334370E+02  0.20444546004E+02 -0.27582066090E+02  0.42664210545E+02  0.10566000000E+00 0. -1.
         22    1    1    0    0    0  0.19707497425E+02  0.71286778571E+01  0.20035774704E+02  0.28993719505E+02  0.00000000000E+00 0.  1.
</event>
<event>
 5    1  0.1668518E-003  0.9118800E+02  0.7818608E-02  0.1130116E+00
         25   -1    0    0    0    0  0.00000000000E+00  0.00000000000E+00  0.99999998245E-14  0.12500000000E+03  0.12500000000E+03 0.  0.
        -13    1    3    3    0    0  0.53679981132E+00  0.89192412910E+01  0.34269704355E+02  0.35415601362E+02  0.10566000000E+00 0.  1.
         23    2    1    0    0    0 -0.21399479088E+02 -0.10565901776E+02 -0.17830152213E+02  0.95209224355E+02  0.90428458401E+02 0.  0.
         13    1    3    3    0    0 -0.21936278899E+02 -0.19485143067E+02 -0.52099856568E+02  0.59793622993E+02  0.10566000000E+00 0. -1.
         22    1    1    0    0    0  0.21399479088E+02  0.10565901776E+02  0.17830152213E+02  0.29790775645E+02  0.00000000000E+00 0. -1.
</event>
<event>
 5    1  0.1668518E-003  0.9118800E+02  0.7818608E-02  0.1130116E+00
         25   -1    0    0    0    0  0.00000000000E+00  0.00000000000E+00  0.99999998245E-14  0.12500000000E+03  0.12500000000E+03 0.  0.
        -13    1    3    3    0    0  0.42700608887E+02  0.40350897560E+01  0.24186578478E+02  0.49240488332E+02  0.10566000000E+00 0. -1.
         23    2    1    0    0    0  0.16960052038E+02 -0.25745967567E+02  0.27891313316E+01  0.94043943005E+02  0.88803072870E+02 0.  0.
         13    1    3    3    0    0 -0.25740556849E+02 -0.29781057323E+02 -0.21397447146E+02  0.44803454673E+02  0.10566000000E+00 0.  1.
         22    1    1    0    0    0 -0.16960052038E+02  0.25745967567E+02 -0.27891313316E+01  0.30956056995E+02  0.00000000000E+00 0. -1.
</event>
<event>
 5    1  0.1668518E-003  0.9118800E+02  0.7818608E-02  0.1130116E+00
         25   -1    0    0    0    0  0.00000000000E+00  0.00000000000E+00  0.99999998245E-14  0.12500000000E+03  0.12500000000E+03 0.  0.
        -13    1    3    3    0    0  0.75936526320E+01 -0.40740510588E+02  0.39044917458E+02  0.56938295607E+02  0.10566000000E+00 0. -1.
         23    2    1    0    0    0  0.30686578891E+01 -0.39162190693E+01  0.29275990517E+02  0.95304258659E+02  0.90559729819E+02 0.  0.
         13    1    3    3    0    0 -0.45249947429E+01  0.36824291519E+02 -0.97689269416E+01  0.38365963052E+02  0.10566000000E+00 0.  1.
         22    1    1    0    0    0 -0.30686578891E+01  0.39162190693E+01 -0.29275990517E+02  0.29695741341E+02  0.00000000000E+00 0. -1.
</event>
<event>
 5    1  0.1668518E-003  0.9118800E+02  0.7818608E-02  0.1130116E+00
         25   -1    0    0    0    0  0.00000000000E+00  0.00000000000E+00  0.99999998245E-14  0.12500000000E+03  0.12500000000E+03 0.  0.
        -13    1    3    3    0    0  0.84672407016E+01 -0.43771692302E+02  0.69043307487E+01  0.45114700034E+02  0.10566000000E+00 0.  1.
         23    2    1    0    0    0 -0.40623326183E+01 -0.73026092088E+01 -0.27170002364E+02  0.96573961303E+02  0.92295667968E+02 0.  0.
         13    1    3    3    0    0 -0.12529573320E+02  0.36469083093E+02 -0.34074333113E+02  0.51459261269E+02  0.10566000000E+00 0. -1.
         22    1    1    0    0    0  0.40623326183E+01  0.73026092088E+01  0.27170002364E+02  0.28426038697E+02  0.00000000000E+00 0. -1.
</event>
<event>
 5    1  0.1668518E-003  0.9118800E+02  0.7818608E-02  0.1130116E+00
         25   -1    0    0    0    0  0.00000000000E+00  0.00000000000E+00  0.99999998245E-14  0.12500000000E+03  0.12500000000E+03 0.  0.
        -13    1    3    3    0    0 -0.24458339194E+02  0.24113380052E+02 -0.43773416879E+02  0.55639811673E+02  0.10566000000E+00 0. -1.
         23    2    1    0    0    0 -0.12798336882E+02 -0.88620531922E+01 -0.25555900024E+02  0.95076139290E+02  0.90244306317E+02 0.  0.
         13    1    3    3    0    0  0.11660002312E+02 -0.32975433244E+02  0.18217516855E+02  0.39436327618E+02  0.10566000000E+00 0.  1.
         22    1    1    0    0    0  0.12798336882E+02  0.88620531922E+01  0.25555900024E+02  0.29923860710E+02  0.00000000000E+00 0. -1.
</event>
<event>
 5    1  0.1668518E-003  0.9118800E+02  0.7818608E-02  0.1130116E+00
         25   -1    0    0    0    0  0.00000000000E+00  0.00000000000E+00  0.99999998245E-14  0.12500000000E+03  0.12500000000E+03 0.  0.
        -13    1    3    3    0    0 -0.34145287752E+00  0.67607272356E+01 -0.59288765718E+02  0.59674055729E+02  0.10566000000E+00 0. -1.
         23    2    1    0    0    0 -0.38419905739E+01  0.15315655210E+02 -0.23141055111E+02  0.96985028686E+02  0.92850725207E+02 0.  0.
         13    1    3    3    0    0 -0.35005376964E+01  0.85549279748E+01  0.36147710607E+02  0.37310972957E+02  0.10566000000E+00 0.  1.
         22    1    1    0    0    0  0.38419905739E+01 -0.15315655210E+02  0.23141055111E+02  0.28014971314E+02  0.00000000000E+00 0. -1.
</event>
<event>
 5    1  0.1668518E-003  0.9118800E+02  0.7818608E-02  0.1130116E+00
         25   -1    0    0    0    0  0.00000000000E+00  0.00000000000E+00  0.99999998245E-14  0.12500000000E+03  0.12500000000E+03 0.  0.
        -13    1    3    3    0    0  0.35460020019E+02 -0.13137763286E+01  0.33003519256E+02  0.48460112209E+02  0.10566000000E+00 0. -1.
         23    2    1    0    0    0  0.25954812188E+02 -0.13580329601E+01 -0.13352248336E+02  0.95780501975E+02  0.91214721913E+02 0.  0.
         13    1    3    3    0    0 -0.95052078312E+01 -0.44256631506E-01 -0.46355767592E+02  0.47320389766E+02  0.10566000000E+00 0.  1.
         22    1    1    0    0    0 -0.25954812188E+02  0.13580329601E+01  0.13352248336E+02  0.29219498025E+02  0.00000000000E+00 0.  1.
</event>
<event>
 5    1  0.1668518E-003  0.9118800E+02  0.7818608E-02  0.1130116E+00
         25   -1    0    0    0    0  0.00000000000E+00  0.00000000000E+00  0.99999998245E-14  0.12500000000E+03  0.12500000000E+03 0.  0.
        -13    1    3    3    0    0 -0.21960838953E+02  0.39206076138E+01 -0.49354672399E+02  0.54162205118E+02  0.10566000000E+00 0. -1.
         23    2    1    0    0    0  0.44345693826E+01  0.19276827688E+02 -0.24331869807E+02  0.93642363297E+02  0.88235995059E+02 0.  0.
         13    1    3    3    0    0  0.26395408336E+02  0.15356220075E+02  0.25022802592E+02  0.39480158178E+02  0.10566000000E+00 0.  1.
         22    1    1    0    0    0 -0.44345693826E+01 -0.19276827688E+02  0.24331869807E+02  0.31357636703E+02  0.00000000000E+00 0. -1.
</event>
<event>
 5    1  0.1668518E-003  0.9118800E+02  0.7818608E-02  0.1130116E+00
         25   -1    0    0    0    0  0.00000000000E+00  0.00000000000E+00  0.99999998245E-14  0.12500000000E+03  0.12500000000E+03 0.  0.
        -13    1    3    3    0    0 -0.14201269306E+02 -0.39892703302E+02 -0.40026661232E+02  0.58268761786E+02  0.10566000000E+00 0.  1.
         23    2    1    0    0    0 -0.52824535989E+01 -0.54985441803E+01 -0.28307802754E+02  0.95683281205E+02  0.91081393826E+02 0.  0.
         13    1    3    3    0    0  0.89188157075E+01  0.34394159122E+02  0.11718858478E+02  0.37414519419E+02  0.10566000000E+00 0. -1.
         22    1    1    0    0    0  0.52824535989E+01  0.54985441803E+01  0.28307802754E+02  0.29316718795E+02  0.00000000000E+00 0.  1.
</event>
<event>
 5    1  0.1668518E-003  0.9118800E+02  0.7818608E-02  0.1130116E+00
         25   -1    0    0    0    0  0.00000000000E+00  0.00000000000E+00  0.99999998245E-14  0.12500000000E+03  0.12500000000E+03 0.  0.
        -13    1    3    3    0    0 -0.47094067111E+02 -0.13731861015E+02  0.79588574972E+01  0.49696777971E+02  0.10566000000E+00 0. -1.
         23    2    1    0    0    0 -0.10894507671E+02 -0.21650799033E+02 -0.17888136323E+02  0.94876374434E+02  0.89967180729E+02 0.  0.
         13    1    3    3    0    0  0.36199559440E+02 -0.79189380176E+01 -0.25846993820E+02  0.45179596463E+02  0.10566000000E+00 0.  1.
         22    1    1    0    0    0  0.10894507671E+02  0.21650799033E+02  0.17888136323E+02  0.30123625566E+02  0.00000000000E+00 0. -1.
</event>
<event>
 5    1  0.1668518E-003  0.9118800E+02  0.7818608E-02  0.1130116E+00
         25   -1    0    0    0    0  0.00000000000E+00  0.00000000000E+00  0.99999998245E-14  0.12500000000E+03  0.12500000000E+03 0.  0.
        -13    1    3    3    0    0  0.42478754803E+02  0.24143002872E+02  0.30859851910E+02  0.57789885112E+02  0.10566000000E+00 0.  1.
         23    2    1    0    0    0  0.21861496571E+02 -0.57822266682E+01  0.17105636876E+02  0.96645776496E+02  0.92392879185E+02 0.  0.
         13    1    3    3    0    0 -0.20617258231E+02 -0.29925229541E+02 -0.13754215034E+02  0.38855891384E+02  0.10566000000E+00 0. -1.
         22    1    1    0    0    0 -0.21861496571E+02  0.57822266682E+01 -0.17105636876E+02  0.28354223504E+02  0.00000000000E+00 0.  1.
</event>
<event>
 5    1  0.1668518E-003  0.9118800E+02  0.7818608E-02  0.1130116E+00
         25   -1    0    0    0    0  0.00000000000E+00  0.00000000000E+00  0.99999998245E-14  0.12500000000E+03  0.12500000000E+03 0.  0.
        -13    1    3    3    0    0 -0.53121001260E+02  0.62856447868E+01 -0.17365372334E+02  0.56239820640E+02  0.10566000000E+00 0.  1.
         23    2    1    0    0    0 -0.26694184225E+02  0.36197625662E+01  0.11714839625E+02  0.95624506474E+02  0.91000695703E+02 0.  0.
         13    1    3    3    0    0  0.26426817035E+02 -0.26658822207E+01  0.29080211959E+02  0.39384685834E+02  0.10566000000E+00 0. -1.
         22    1    1    0    0    0  0.26694184225E+02 -0.36197625662E+01 -0.11714839625E+02  0.29375493526E+02  0.00000000000E+00 0.  1.
</event>
<event>
 5    1  0.1668518E-003  0.9118800E+02  0.7818608E-02  0.1130116E+00
         25   -1    0    0    0    0  0.00000000000E+00  0.00000000000E+00  0.99999998245E-14  0.12500000000E+03  0.12500000000E+03 0.  0.
        -13    1    3    3    0    0  0.29785186834E+01  0.11720692555E+02  0.32822296537E+02  0.34979429976E+02  0.10566000000E+00 0.  1.
         23    2    1    0    0    0 -0.20866423844E+02 -0.11058217377E+02 -0.17822308834E+02  0.95414082610E+02  0.90711193646E+02 0.  0.
         13    1    3    3    0    0 -0.23844942528E+02 -0.22778909932E+02 -0.50644605370E+02  0.60434652634E+02  0.10566000000E+00 0. -1.
         22    1    1    0    0    0  0.20866423844E+02  0.11058217377E+02  0.17822308834E+02  0.29585917390E+02  0.00000000000E+00 0. -1.
</event>
<event>
 5    1  0.1668518E-003  0.9118800E+02  0.7818608E-02  0.1130116E+00
         25   -1    0    0    0    0  0.00000000000E+00  0.00000000000E+00  0.99999998245E-14  0.12500000000E+03  0.12500000000E+03 0.  0.
        -13    1    3    3    0    0  0.26245678659E+02  0.23144217633E+02  0.17462938232E+01  0.35036426249E+02  0.10566000000E+00 0.  1.
         23    2    1    0    0    0 -0.18666892271E+02 -0.14291179355E+02 -0.16491303351E+02  0.96283214654E+02  0.91901053658E+02 0.  0.
         13    1    3    3    0    0 -0.44912570930E+02 -0.37435396988E+02 -0.18237597174E+02  0.61246788405E+02  0.10566000000E+00 0. -1.
         22    1    1    0    0    0  0.18666892271E+02  0.14291179355E+02  0.16491303351E+02  0.28716785346E+02  0.00000000000E+00 0. -1.
</event>
<event>
 5    1  0.1668518E-003  0.9118800E+02  0.7818608E-02  0.1130116E+00
         25   -1    0    0    0    0  0.00000000000E+00  0.00000000000E+00  0.99999998245E-14  0.12500000000E+03  0.12500000000E+03 0.  0.
        -13    1    3    3    0    0  0.93026329090E+01  0.32784660062E+02  0.21695953627E+02  0.40399238634E+02  0.10566000000E+00 0.  1.
         23    2    1    0    0    0 -0.24161768510E+02  0.90266968639E+01 -0.14750718843E+02  0.95287106836E+02  0.90536051985E+02 0.  0.
         13    1    3    3    0    0 -0.33464401419E+02 -0.23757963198E+02 -0.36446672470E+02  0.54887868202E+02  0.10566000000E+00 0. -1.
         22    1    1    0    0    0  0.24161768510E+02 -0.90266968639E+01  0.14750718843E+02  0.29712893164E+02  0.00000000000E+00 0. -1.
</event>
<event>
 5    1  0.1668518E-003  0.9118800E+02  0.7818608E-02  0.1130116E+00
         25   -1    0    0    0    0  0.00000000000E+00  0.00000000000E+00  0.99999998245E-14  0.12500000000E+03  0.12500000000E+03 0.  0.
        -13    1    3    3    0    0 -0.14840355644E+01  0.40948976221E+02 -0.13841627667E+02  0.43250697516E+02  0.10566000000E+00 0.  1.
         23    2    1    0    0    0  0.11324436201E+02  0.85492644307E+01  0.25510316710E+02  0.95809093261E+02  0.91253894796E+02 0.  0.
         13    1    3    3    0    0  0.12808471765E+02 -0.32399711791E+02  0.39351944377E+02  0.52558395745E+02  0.10566000000E+00 0. -1.
         22    1    1    0    0    0 -0.11324436201E+02 -0.85492644307E+01 -0.25510316710E+02  0.29190906739E+02  0.00000000000E+00 0. -1.
</event>
<event>
 5    1  0.1668518E-003  0.9118800E+02  0.7818608E-02  0.1130116E+00
         25   -1    0    0    0    0  0.00000000000E+00  0.00000000000E+00  0.99999998245E-14  0.12500000000E+03  0.12500000000E+03 0.  0.
        -13    1    3    3    0    0 -0.26845291849E+02  0.49679350819E+01 -0.13961217674E+01  0.27336978499E+02  0.10566000000E+00 0.  1.
         23    2    1    0    0    0  0.16192446598E+02  0.30241850702E+02 -0.25005477418E+02  0.82549572893E+02  0.70798257204E+02 0.  0.
         13    1    3    3    0    0  0.43037738447E+02  0.25273915620E+02 -0.23609355650E+02  0.55212594394E+02  0.10566000000E+00 0. -1.
         22    1    1    0    0    0 -0.16192446598E+02 -0.30241850702E+02  0.25005477418E+02  0.42450427107E+02  0.00000000000E+00 0. -1.
</event>
<event>
 5    1  0.1668518E-003  0.9118800E+02  0.7818608E-02  0.1130116E+00
         25   -1    0    0    0    0  0.00000000000E+00  0.00000000000E+00  0.99999998245E-14  0.12500000000E+03  0.12500000000E+03 0.  0.
        -13    1    3    3    0    0 -0.41618182967E+02  0.19658227522E+02 -0.41896164205E+01  0.46217779183E+02  0.10566000000E+00 0. -1.
         23    2    1    0    0    0 -0.98812826059E+00  0.43248550059E+01 -0.28615296501E+02  0.96042859911E+02  0.91573549553E+02 0.  0.
         13    1    3    3    0    0  0.40630054707E+02 -0.15333372516E+02 -0.24425680081E+02  0.49825080729E+02  0.10566000000E+00 0.  1.
         22    1    1    0    0    0  0.98812826059E+00 -0.43248550059E+01  0.28615296501E+02  0.28957140089E+02  0.00000000000E+00 0. -1.
</event>
<event>
 5    1  0.1668518E-003  0.9118800E+02  0.7818608E-02  0.1130116E+00
         25   -1    0    0    0    0  0.00000000000E+00  0.00000000000E+00  0.99999998245E-14  0.12500000000E+03  0.12500000000E+03 0.  0.
        -13    1    3    3    0    0 -0.15634337011E+02 -0.33184849237E+02  0.13468978084E+02  0.39078014885E+02  0.10566000000E+00 0. -1.
         23    2    1    0    0    0  0.27698232052E+02 -0.48953311268E+01 -0.89611497906E+01  0.95479523526E+02  0.90801326431E+02 0.  0.
         13    1    3    3    0    0  0.43332569063E+02  0.28289518110E+02 -0.22430127874E+02  0.56401508642E+02  0.10566000000E+00 0.  1.
         22    1    1    0    0    0 -0.27698232052E+02  0.48953311268E+01  0.89611497906E+01  0.29520476474E+02  0.00000000000E+00 0. -1.
</event>
<event>
 5    1  0.1668518E-003  0.9118800E+02  0.7818608E-02  0.1130116E+00
         25   -1    0    0    0    0  0.00000000000E+00  0.00000000000E+00  0.99999998245E-14  0.12500000000E+03  0.12500000000E+03 0.  0.
        -13    1    3    3    0    0  0.45051942155E+02  0.15499394065E+02  0.31490920808E+02  0.57110401554E+02  0.10566000000E+00 0.  1.
         23    2    1    0    0    0  0.14609879265E+02 -0.10280072616E+02  0.19021380689E+02  0.98905146322E+02  0.95400663418E+02 0.  0.
         13    1    3    3    0    0 -0.30442062891E+02 -0.25779466682E+02 -0.12469540118E+02  0.41794744768E+02  0.10566000000E+00 0. -1.
         22    1    1    0    0    0 -0.14609879265E+02  0.10280072616E+02 -0.19021380689E+02  0.26094853678E+02  0.00000000000E+00 0.  1.
</event>
<event>
 5    1  0.1668518E-003  0.9118800E+02  0.7818608E-02  0.1130116E+00
         25   -1    0    0    0    0  0.00000000000E+00  0.00000000000E+00  0.99999998245E-14  0.12500000000E+03  0.12500000000E+03 0.  0.
        -13    1    3    3    0    0  0.47555109872E+02  0.10746363936E+02 -0.83629723657E+01  0.49466385391E+02  0.10566000000E+00 0.  1.
         23    2    1    0    0    0  0.40480187893E+01  0.89875773194E+01 -0.26568527403E+02  0.96661869317E+02  0.92414648890E+02 0.  0.
         13    1    3    3    0    0 -0.43507091083E+02 -0.17587866164E+01 -0.18205555038E+02  0.47195483927E+02  0.10566000000E+00 0. -1.
         22    1    1    0    0    0 -0.40480187893E+01 -0.89875773194E+01  0.26568527403E+02  0.28338130683E+02  0.00000000000E+00 0.  1.
</event>
<event>
 5    1  0.1668518E-003  0.9118800E+02  0.7818608E-02  0.1130116E+00
         25   -1    0    0    0    0  0.00000000000E+00  0.00000000000E+00  0.99999998245E-14  0.12500000000E+03  0.12500000000E+03 0.  0.
        -13    1    3    3    0    0 -0.17124284793E+02  0.51896030595E+02  0.25485884717E+01  0.54707820176E+02  0.10566000000E+00 0.  1.
         23    2    1    0    0    0 -0.22515336215E+02  0.13674893667E+02  0.14260263365E+02  0.95045063964E+02  0.90201252713E+02 0.  0.
         13    1    3    3    0    0 -0.53910514223E+01 -0.38221136928E+02  0.11711674893E+02  0.40337243787E+02  0.10566000000E+00 0. -1.
         22    1    1    0    0    0  0.22515336215E+02 -0.13674893667E+02 -0.14260263365E+02  0.29954936036E+02  0.00000000000E+00 0. -1.
</event>
<event>
 5    1  0.1668518E-003  0.9118800E+02  0.7818608E-02  0.1130116E+00
         25   -1    0    0    0    0  0.00000000000E+00  0.00000000000E+00  0.99999998245E-14  0.12500000000E+03  0.12500000000E+03 0.  0.
        -13    1    3    3    0    0 -0.20346463399E+02  0.14080608397E+02  0.35682607438E+02  0.43422364552E+02  0.10566000000E+00 0. -1.
         23    2    1    0    0    0 -0.16153106815E+01  0.26937119360E+02 -0.11404297148E+02  0.95703658566E+02  0.91109355400E+02 0.  0.
         13    1    3    3    0    0  0.18731152717E+02  0.12856510963E+02 -0.47086904586E+02  0.52281294014E+02  0.10566000000E+00 0.  1.
         22    1    1    0    0    0  0.16153106815E+01 -0.26937119360E+02  0.11404297148E+02  0.29296341434E+02  0.00000000000E+00 0.  1.
</event>
<event>
 5    1  0.1668518E-003  0.9118800E+02  0.7818608E-02  0.1130116E+00
         25   -1    0    0    0    0  0.00000000000E+00  0.00000000000E+00  0.99999998245E-14  0.12500000000E+03  0.12500000000E+03 0.  0.
        -13    1    3    3    0    0  0.42019125075E+01 -0.29921830732E+02  0.51458500178E+02  0.59673783420E+02  0.10566000000E+00 0. -1.
         23    2    1    0    0    0 -0.22118222420E+01 -0.24427390502E+02  0.16987641380E+02  0.95164291126E+02  0.90366325484E+02 0.  0.
         13    1    3    3    0    0 -0.64137347495E+01  0.54944402301E+01 -0.34470858798E+02  0.35490507706E+02  0.10566000000E+00 0.  1.
         22    1    1    0    0    0  0.22118222420E+01  0.24427390502E+02 -0.16987641380E+02  0.29835708874E+02  0.00000000000E+00 0. -1.
</event>
<event>
 5    1  0.1668518E-003  0.9118800E+02  0.7818608E-02  0.1130116E+00
         25   -1    0    0    0    0  0.00000000000E+00  0.00000000000E+00  0.99999998245E-14  0.12500000000E+03  0.12500000000E+03 0.  0.
        -13    1    3    3    0    0  0.45815512519E+01 -0.85875169014E+01 -0.54806104990E+02  0.55663779665E+02  0.10566000000E+00 0. -1.
         23    2    1    0    0    0 -0.16854182415E+02 -0.11416511590E+02 -0.21334320602E+02  0.95511808511E+02  0.90845760098E+02 0.  0.
         13    1    3    3    0    0 -0.21435733667E+02 -0.28289946881E+01  0.33471784388E+02  0.39848028846E+02  0.10566000000E+00 0.  1.
         22    1    1    0    0    0  0.16854182415E+02  0.11416511590E+02  0.21334320602E+02  0.29488191489E+02  0.00000000000E+00 0. -1.
</event>
<event>
 5    1  0.1668518E-003  0.9118800E+02  0.7818608E-02  0.1130116E+00
         25   -1    0    0    0    0  0.00000000000E+00  0.00000000000E+00  0.99999998245E-14  0.12500000000E+03  0.12500000000E+03 0.  0.
        -13    1    3    3    0    0 -0.34062620059E+02 -0.52015046998E+02 -0.39677247352E+01  0.62302337060E+02  0.10566000000E+00 0.  1.
         23    2    1    0    0    0 -0.15617002013E+02 -0.27440727411E+02  0.90634160737E+00  0.93413519857E+02  0.87911204998E+02 0.  0.
         13    1    3    3    0    0  0.18445618045E+02  0.24574319588E+02  0.48740663425E+01  0.31111182797E+02  0.10566000000E+00 0. -1.
         22    1    1    0    0    0  0.15617002013E+02  0.27440727411E+02 -0.90634160737E+00  0.31586480143E+02  0.00000000000E+00 0.  1.
</event>
<event>
 5    1  0.1668518E-003  0.9118800E+02  0.7818608E-02  0.1130116E+00
         25   -1    0    0    0    0  0.00000000000E+00  0.00000000000E+00  0.99999998245E-14  0.12500000000E+03  0.12500000000E+03 0.  0.
        -13    1    3    3    0    0  0.55255788027E+02  0.20700113152E+01 -0.23610060492E+02  0.60124314364E+02  0.10566000000E+00 0. -1.
         23    2    1    0    0    0  0.35454074281E+02 -0.36218556938E+01 -0.30507046405E+01  0.89231074651E+02  0.81748202811E+02 0.  0.
         13    1    3    3    0    0 -0.19801713745E+02 -0.56918670090E+01  0.20559355852E+02  0.29106760287E+02  0.10566000000E+00 0.  1.
         22    1    1    0    0    0 -0.35454074281E+02  0.36218556938E+01  0.30507046405E+01  0.35768925349E+02  0.00000000000E+00 0. -1.
</event>
<event>
 5    1  0.1668518E-003  0.9118800E+02  0.7818608E-02  0.1130116E+00
         25   -1    0    0    0    0  0.00000000000E+00  0.00000000000E+00  0.99999998245E-14  0.12500000000E+03  0.12500000000E+03 0.  0.
        -13    1    3    3    0    0  0.27646784368E+02  0.21995154825E+02 -0.27826151290E+02  0.44971517445E+02  0.10566000000E+00 0.  1.
         23    2    1    0    0    0 -0.18197549582E+02  0.18029222211E+02 -0.21767067005E+02  0.91384395434E+02  0.84977049011E+02 0.  0.
         13    1    3    3    0    0 -0.45844333950E+02 -0.39659326136E+01  0.60590842855E+01  0.46412877989E+02  0.10566000000E+00 0. -1.
         22    1    1    0    0    0  0.18197549582E+02 -0.18029222211E+02  0.21767067005E+02  0.33615604566E+02  0.00000000000E+00 0.  1.
</event>
<event>
 5    1  0.1668518E-003  0.9118800E+02  0.7818608E-02  0.1130116E+00
         25   -1    0    0    0    0  0.00000000000E+00  0.00000000000E+00  0.99999998245E-14  0.12500000000E+03  0.12500000000E+03 0.  0.
        -13    1    3    3    0    0 -0.35582053808E+02  0.38975510625E+02  0.38783467867E+01  0.52917159027E+02  0.10566000000E+00 0. -1.
         23    2    1    0    0    0 -0.43700646866E+01  0.23309822912E+02 -0.18953055520E+02  0.94641086595E+02  0.89639676755E+02 0.  0.
         13    1    3    3    0    0  0.31211989121E+02 -0.15665687712E+02 -0.22831402307E+02  0.41723927568E+02  0.10566000000E+00 0.  1.
         22    1    1    0    0    0  0.43700646866E+01 -0.23309822912E+02  0.18953055520E+02  0.30358913405E+02  0.00000000000E+00 0. -1.
</event>
<event>
 5    1  0.1668518E-003  0.9118800E+02  0.7818608E-02  0.1130116E+00
         25   -1    0    0    0    0  0.00000000000E+00  0.00000000000E+00  0.99999998245E-14  0.12500000000E+03  0.12500000000E+03 0.  0.
        -13    1    3    3    0    0 -0.45221942673E+02  0.13110271796E+02  0.12176093512E+02  0.48633031398E+02  0.10566000000E+00 0. -1.
         23    2    1    0    0    0 -0.14784308978E+02  0.80939953995E+01 -0.23680677040E+02  0.95933472541E+02  0.91424111345E+02 0.  0.
         13    1    3    3    0    0  0.30437633695E+02 -0.50162763961E+01 -0.35856770552E+02  0.47300441143E+02  0.10566000000E+00 0.  1.
         22    1    1    0    0    0  0.14784308978E+02 -0.80939953995E+01  0.23680677040E+02  0.29066527459E+02  0.00000000000E+00 0.  1.
</event>
<event>
 5    1  0.1668518E-003  0.9118800E+02  0.7818608E-02  0.1130116E+00
         25   -1    0    0    0    0  0.00000000000E+00  0.00000000000E+00  0.99999998245E-14  0.12500000000E+03  0.12500000000E+03 0.  0.
        -13    1    3    3    0    0 -0.20910373532E+02  0.24812282389E+02 -0.48751100678E+02  0.58562565346E+02  0.10566000000E+00 0. -1.
         23    2    1    0    0    0  0.49248565651E+01  0.75602926449E+01 -0.27122095655E+02  0.96416432872E+02  0.92082073271E+02 0.  0.
         13    1    3    3    0    0  0.25835230097E+02 -0.17251989744E+02  0.21629005023E+02  0.37853867525E+02  0.10566000000E+00 0.  1.
         22    1    1    0    0    0 -0.49248565651E+01 -0.75602926449E+01  0.27122095655E+02  0.28583567128E+02  0.00000000000E+00 0. -1.
</event>
<event>
 5    1  0.1668518E-003  0.9118800E+02  0.7818608E-02  0.1130116E+00
         25   -1    0    0    0    0  0.00000000000E+00  0.00000000000E+00  0.99999998245E-14  0.12500000000E+03  0.12500000000E+03 0.  0.
        -13    1    3    3    0    0 -0.20599865560E+02  0.29834072645E+02  0.48065423896E+02  0.60205668255E+02  0.10566000000E+00 0.  1.
         23    2    1    0    0    0 -0.21559878392E+02  0.12208641842E+02  0.20986970247E+02  0.92529517835E+02  0.86645135229E+02 0.  0.
         13    1    3    3    0    0 -0.96001283175E+00 -0.17625430803E+02 -0.27078453649E+02  0.32323849580E+02  0.10566000000E+00 0. -1.
         22    1    1    0    0    0  0.21559878392E+02 -0.12208641842E+02 -0.20986970247E+02  0.32470482165E+02  0.00000000000E+00 0.  1.
</event>
<event>
 5    1  0.1668518E-003  0.9118800E+02  0.7818608E-02  0.1130116E+00
         25   -1    0    0    0    0  0.00000000000E+00  0.00000000000E+00  0.99999998245E-14  0.12500000000E+03  0.12500000000E+03 0.  0.
        -13    1    3    3    0    0 -0.26656065810E+02 -0.44850694376E+02  0.31341676701E+02  0.60864131416E+02  0.10566000000E+00 0.  1.
         23    2    1    0    0    0 -0.20200562928E+02 -0.19407962434E+02  0.83227202650E+01  0.95776731513E+02  0.91209554753E+02 0.  0.
         13    1    3    3    0    0  0.64555028821E+01  0.25442731942E+02 -0.23018956436E+02  0.34912600097E+02  0.10566000000E+00 0. -1.
         22    1    1    0    0    0  0.20200562928E+02  0.19407962434E+02 -0.83227202650E+01  0.29223268487E+02  0.00000000000E+00 0.  1.
</event>
<event>
 5    1  0.1668518E-003  0.9118800E+02  0.7818608E-02  0.1130116E+00
         25   -1    0    0    0    0  0.00000000000E+00  0.00000000000E+00  0.99999998245E-14  0.12500000000E+03  0.12500000000E+03 0.  0.
        -13    1    3    3    0    0 -0.27072590070E+02  0.26920939286E+02  0.11155485691E+02  0.39775848579E+02  0.10566000000E+00 0. -1.
         23    2    1    0    0    0  0.11669708757E+02 -0.95497532063E+01  0.25936415449E+02  0.94998707776E+02  0.90136989876E+02 0.  0.
         13    1    3    3    0    0  0.38742298827E+02 -0.36470692493E+02  0.14780929759E+02  0.55222859197E+02  0.10566000000E+00 0.  1.
         22    1    1    0    0    0 -0.11669708757E+02  0.95497532063E+01 -0.25936415449E+02  0.30001292224E+02  0.00000000000E+00 0.  1.
</event>
<event>
 5    1  0.1668518E-003  0.9118800E+02  0.7818608E-02  0.1130116E+00
         25   -1    0    0    0    0  0.00000000000E+00  0.00000000000E+00  0.99999998245E-14  0.12500000000E+03  0.12500000000E+03 0.  0.
        -13    1    3    3    0    0  0.31879794839E+02  0.20152308339E+02  0.11481794685E+01  0.37732828286E+02  0.10566000000E+00 0.  1.
         23    2    1    0    0    0 -0.20503554207E+02  0.21083856456E+01  0.20023182589E+02  0.96263805642E+02  0.91874650533E+02 0.  0.
         13    1    3    3    0    0 -0.52383349046E+02 -0.18043922694E+02  0.18875003121E+02  0.58530977356E+02  0.10566000000E+00 0. -1.
         22    1    1    0    0    0  0.20503554207E+02 -0.21083856456E+01 -0.20023182589E+02  0.28736194358E+02  0.00000000000E+00 0. -1.
</event>
<event>
 5    1  0.1668518E-003  0.9118800E+02  0.7818608E-02  0.1130116E+00
         25   -1    0    0    0    0  0.00000000000E+00  0.00000000000E+00  0.99999998245E-14  0.12500000000E+03  0.12500000000E+03 0.  0.
        -13    1    3    3    0    0  0.89593699568E+01  0.86276773354E+01  0.49147964206E+02  0.50697541122E+02  0.10566000000E+00 0.  1.
         23    2    1    0    0    0  0.15299628032E+02  0.23336441861E+02  0.63676916410E+01  0.96378056784E+02  0.92029963576E+02 0.  0.
         13    1    3    3    0    0  0.63402580753E+01  0.14708764526E+02 -0.42780272565E+02  0.45680515661E+02  0.10566000000E+00 0. -1.
         22    1    1    0    0    0 -0.15299628032E+02 -0.23336441861E+02 -0.63676916410E+01  0.28621943216E+02  0.00000000000E+00 0. -1.
</event>
<event>
 5    1  0.1668518E-003  0.9118800E+02  0.7818608E-02  0.1130116E+00
         25   -1    0    0    0    0  0.00000000000E+00  0.00000000000E+00  0.99999998245E-14  0.12500000000E+03  0.12500000000E+03 0.  0.
        -13    1    3    3    0    0 -0.94049777265E+01 -0.12190144543E+02  0.58696281929E+02  0.60682105322E+02  0.10566000000E+00 0.  1.
         23    2    1    0    0    0  0.63740380514E+01 -0.56707632572E+01  0.27000747062E+02  0.96683463155E+02  0.92443852087E+02 0.  0.
         13    1    3    3    0    0  0.15779015778E+02  0.65193812855E+01 -0.31695534867E+02  0.36001357833E+02  0.10566000000E+00 0. -1.
         22    1    1    0    0    0 -0.63740380514E+01  0.56707632572E+01 -0.27000747062E+02  0.28316536845E+02  0.00000000000E+00 0.  1.
</event>
<event>
 5    1  0.1668518E-003  0.9118800E+02  0.7818608E-02  0.1130116E+00
         25   -1    0    0    0    0  0.00000000000E+00  0.00000000000E+00  0.99999998245E-14  0.12500000000E+03  0.12500000000E+03 0.  0.
        -13    1    3    3    0    0 -0.53971042032E+02  0.54635706813E+01  0.17500894563E+02  0.57000144360E+02  0.10566000000E+00 0.  1.
         23    2    1    0    0    0 -0.19453696759E+02  0.18848776817E+02  0.14831160331E+02  0.94118192704E+02  0.88907525981E+02 0.  0.
         13    1    3    3    0    0  0.34517345273E+02  0.13385206135E+02 -0.26697342316E+01  0.37118048344E+02  0.10566000000E+00 0. -1.
         22    1    1    0    0    0  0.19453696759E+02 -0.18848776817E+02 -0.14831160331E+02  0.30881807296E+02  0.00000000000E+00 0.  1.
</event>
<event>
 5    1  0.1668518E-003  0.9118800E+02  0.7818608E-02  0.1130116E+00
         25   -1    0    0    0    0  0.00000000000E+00  0.00000000000E+00  0.99999998245E-14  0.12500000000E+03  0.12500000000E+03 0.  0.
        -13    1    3    3    0    0 -0.29446452491E+02 -0.47898005728E+02  0.83256029756E+01  0.56838713445E+02  0.10566000000E+00 0.  1.
         23    2    1    0    0    0 -0.13292170657E+02 -0.14516047698E+02  0.21177920711E+02  0.96088034187E+02  0.91635192730E+02 0.  0.
         13    1    3    3    0    0  0.16154281835E+02  0.33381958030E+02  0.12852317735E+02  0.39249320742E+02  0.10566000000E+00 0. -1.
         22    1    1    0    0    0  0.13292170657E+02  0.14516047698E+02 -0.21177920711E+02  0.28911965813E+02  0.00000000000E+00 0.  1.
</event>
<event>
 5    1  0.1668518E-003  0.9118800E+02  0.7818608E-02  0.1130116E+00
         25   -1    0    0    0    0  0.00000000000E+00  0.00000000000E+00  0.99999998245E-14  0.12500000000E+03  0.12500000000E+03 0.  0.
        -13    1    3    3    0    0 -0.20769858948E+02 -0.57319450195E+02 -0.47730439887E+01  0.61153082705E+02  0.10566000000E+00 0. -1.
         23    2    1    0    0    0 -0.72043776195E+01 -0.24469834408E+02 -0.10975227464E+02  0.97230745946E+02  0.93180934136E+02 0.  0.
         13    1    3    3    0    0  0.13565481329E+02  0.32849615787E+02 -0.62021834748E+01  0.36077663241E+02  0.10566000000E+00 0.  1.
         22    1    1    0    0    0  0.72043776195E+01  0.24469834408E+02  0.10975227464E+02  0.27769254054E+02  0.00000000000E+00 0. -1.
</event>
<event>
 5    1  0.1668518E-003  0.9118800E+02  0.7818608E-02  0.1130116E+00
         25   -1    0    0    0    0  0.00000000000E+00  0.00000000000E+00  0.99999998245E-14  0.12500000000E+03  0.12500000000E+03 0.  0.
        -13    1    3    3    0    0 -0.15322989670E+02  0.37783819393E+02 -0.42749758377E+02  0.59075917477E+02  0.10566000000E+00 0. -1.
         23    2    1    0    0    0 -0.29886150478E+01  0.65051787260E+01 -0.28535902225E+02  0.95579821789E+02  0.90939295397E+02 0.  0.
         13    1    3    3    0    0  0.12334374623E+02 -0.31278640668E+02  0.14213856152E+02  0.36503904313E+02  0.10566000000E+00 0.  1.
         22    1    1    0    0    0  0.29886150478E+01 -0.65051787260E+01  0.28535902225E+02  0.29420178211E+02  0.00000000000E+00 0. -1.
</event>
<event>
 5    1  0.1668518E-003  0.9118800E+02  0.7818608E-02  0.1130116E+00
         25   -1    0    0    0    0  0.00000000000E+00  0.00000000000E+00  0.99999998245E-14  0.12500000000E+03  0.12500000000E+03 0.  0.
        -13    1    3    3    0    0  0.27602139720E+02  0.38267526959E+02  0.16103380196E+02  0.49855909925E+02  0.10566000000E+00 0. -1.
         23    2    1    0    0    0  0.27708281359E+02 -0.53754208318E+01  0.13857359212E+02  0.93556870237E+02  0.88114797618E+02 0.  0.
         13    1    3    3    0    0  0.10614163854E+00 -0.43642947790E+02 -0.22460209847E+01  0.43700960312E+02  0.10566000000E+00 0.  1.
         22    1    1    0    0    0 -0.27708281359E+02  0.53754208318E+01 -0.13857359212E+02  0.31443129763E+02  0.00000000000E+00 0. -1.
</event>
<event>
 5    1  0.1668518E-003  0.9118800E+02  0.7818608E-02  0.1130116E+00
         25   -1    0    0    0    0  0.00000000000E+00  0.00000000000E+00  0.99999998245E-14  0.12500000000E+03  0.12500000000E+03 0.  0.
        -13    1    3    3    0    0 -0.19110145474E+01  0.15058064589E+01  0.41571241802E+02  0.41642511195E+02  0.10566000000E+00 0.  1.
         23    2    1    0    0    0  0.12314768109E+01 -0.22406417371E+02 -0.11388410641E+02  0.99835342810E+02  0.96611778281E+02 0.  0.
         13    1    3    3    0    0  0.31424913583E+01 -0.23912223830E+02 -0.52959652443E+02  0.58192831615E+02  0.10566000000E+00 0. -1.
         22    1    1    0    0    0 -0.12314768109E+01  0.22406417371E+02  0.11388410641E+02  0.25164657190E+02  0.00000000000E+00 0. -1.
</event>
<event>
 5    1  0.1668518E-003  0.9118800E+02  0.7818608E-02  0.1130116E+00
         25   -1    0    0    0    0  0.00000000000E+00  0.00000000000E+00  0.99999998245E-14  0.12500000000E+03  0.12500000000E+03 0.  0.
        -13    1    3    3    0    0 -0.89219228908E+01  0.17455399884E+02 -0.52581159276E+02  0.56116674599E+02  0.10566000000E+00 0.  1.
         23    2    1    0    0    0 -0.22613647386E+02  0.19509551340E+01 -0.19791972219E+02  0.94885129282E+02  0.89979343854E+02 0.  0.
         13    1    3    3    0    0 -0.13691724495E+02 -0.15504444750E+02  0.32789187056E+02  0.38768454683E+02  0.10566000000E+00 0. -1.
         22    1    1    0    0    0  0.22613647386E+02 -0.19509551340E+01  0.19791972219E+02  0.30114870718E+02  0.00000000000E+00 0.  1.
</event>
<event>
 5    1  0.1668518E-003  0.9118800E+02  0.7818608E-02  0.1130116E+00
         25   -1    0    0    0    0  0.00000000000E+00  0.00000000000E+00  0.99999998245E-14  0.12500000000E+03  0.12500000000E+03 0.  0.
        -13    1    3    3    0    0  0.34658203152E+02  0.66888573715E+01  0.21032431993E+01  0.35360523959E+02  0.10566000000E+00 0.  1.
         23    2    1    0    0    0 -0.24665865300E+02  0.19685577762E+01  0.14738733894E+02  0.96198777673E+02  0.91786134129E+02 0.  0.
         13    1    3    3    0    0 -0.59324068452E+02 -0.47202995952E+01  0.12635490694E+02  0.60838253715E+02  0.10566000000E+00 0. -1.
         22    1    1    0    0    0  0.24665865300E+02 -0.19685577762E+01 -0.14738733894E+02  0.28801222327E+02  0.00000000000E+00 0. -1.
</event>
<event>
 5    1  0.1668518E-003  0.9118800E+02  0.7818608E-02  0.1130116E+00
         25   -1    0    0    0    0  0.00000000000E+00  0.00000000000E+00  0.99999998245E-14  0.12500000000E+03  0.12500000000E+03 0.  0.
        -13    1    3    3    0    0 -0.14836250829E+02  0.67149647891E+01  0.42132679702E+02  0.45170554055E+02  0.10566000000E+00 0.  1.
         23    2    1    0    0    0  0.23701948844E+02 -0.10074964324E+02  0.15217901154E+02  0.95085592089E+02  0.90257398713E+02 0.  0.
         13    1    3    3    0    0  0.38538199672E+02 -0.16789929113E+02 -0.26914778548E+02  0.49915038034E+02  0.10566000000E+00 0. -1.
         22    1    1    0    0    0 -0.23701948844E+02  0.10074964324E+02 -0.15217901154E+02  0.29914407911E+02  0.00000000000E+00 0.  1.
</event>
<event>
 5    1  0.1668518E-003  0.9118800E+02  0.7818608E-02  0.1130116E+00
         25   -1    0    0    0    0  0.00000000000E+00  0.00000000000E+00  0.99999998245E-14  0.12500000000E+03  0.12500000000E+03 0.  0.
        -13    1    3    3    0    0  0.36860728492E+02  0.33969649950E+02  0.13916423280E+02  0.52022383871E+02  0.10566000000E+00 0.  1.
         23    2    1    0    0    0  0.13222725533E+02  0.91610396312E+01 -0.19388026838E+02  0.99807526872E+02  0.96575782254E+02 0.  0.
         13    1    3    3    0    0 -0.23638002959E+02 -0.24808610319E+02 -0.33304450118E+02  0.47785143000E+02  0.10566000000E+00 0. -1.
         22    1    1    0    0    0 -0.13222725533E+02 -0.91610396312E+01  0.19388026838E+02  0.25192473128E+02  0.00000000000E+00 0. -1.
</event>
<event>
 5    1  0.1668518E-003  0.9118800E+02  0.7818608E-02  0.1130116E+00
         25   -1    0    0    0    0  0.00000000000E+00  0.00000000000E+00  0.99999998245E-14  0.12500000000E+03  0.12500000000E+03 0.  0.
        -13    1    3    3    0    0 -0.13578853552E+02 -0.22428880054E+02 -0.27339316814E+02  0.37879933106E+02  0.10566000000E+00 0.  1.
         23    2    1    0    0    0 -0.37344725856E+01 -0.59469710506E+01  0.27831817381E+02  0.96295944382E+02  0.91918366476E+02 0.  0.
         13    1    3    3    0    0  0.98443809663E+01  0.16481909004E+02  0.55171134195E+02  0.58416011276E+02  0.10566000000E+00 0. -1.
         22    1    1    0    0    0  0.37344725856E+01  0.59469710506E+01 -0.27831817381E+02  0.28704055618E+02  0.00000000000E+00 0. -1.
</event>
<event>
 5    1  0.1668518E-003  0.9118800E+02  0.7818608E-02  0.1130116E+00
         25   -1    0    0    0    0  0.00000000000E+00  0.00000000000E+00  0.99999998245E-14  0.12500000000E+03  0.12500000000E+03 0.  0.
        -13    1    3    3    0    0  0.55668801333E+02 -0.32304524887E+01 -0.18629045395E+02  0.58792038249E+02  0.10566000000E+00 0.  1.
         23    2    1    0    0    0  0.21563283276E+02  0.11435486957E+02 -0.15582456122E+02  0.96042125658E+02  0.91572547276E+02 0.  0.
         13    1    3    3    0    0 -0.34105518057E+02  0.14665939446E+02  0.30465892729E+01  0.37250087409E+02  0.10566000000E+00 0. -1.
         22    1    1    0    0    0 -0.21563283276E+02 -0.11435486957E+02  0.15582456122E+02  0.28957874342E+02  0.00000000000E+00 0.  1.
</event>
<event>
 5    1  0.1668518E-003  0.9118800E+02  0.7818608E-02  0.1130116E+00
         25   -1    0    0    0    0  0.00000000000E+00  0.00000000000E+00  0.99999998245E-14  0.12500000000E+03  0.12500000000E+03 0.  0.
        -13    1    3    3    0    0 -0.11599504108E+02  0.42398594172E+02 -0.32593460900E+02  0.54722336763E+02  0.10566000000E+00 0.  1.
         23    2    1    0    0    0  0.12242569223E+01  0.45886319680E+01 -0.29885331305E+02  0.94739673241E+02  0.89777047792E+02 0.  0.
         13    1    3    3    0    0  0.12823761030E+02 -0.37809962205E+02  0.27081295950E+01  0.40017336478E+02  0.10566000000E+00 0. -1.
         22    1    1    0    0    0 -0.12242569223E+01 -0.45886319680E+01  0.29885331305E+02  0.30260326759E+02  0.00000000000E+00 0. -1.
</event>
<event>
 5    1  0.1668518E-003  0.9118800E+02  0.7818608E-02  0.1130116E+00
         25   -1    0    0    0    0  0.00000000000E+00  0.00000000000E+00  0.99999998245E-14  0.12500000000E+03  0.12500000000E+03 0.  0.
        -13    1    3    3    0    0  0.52816894904E+02 -0.84591803857E+01  0.18991789613E+02  0.56761618694E+02  0.10566000000E+00 0.  1.
         23    2    1    0    0    0  0.28748504311E+02  0.12528137003E+02  0.55517600173E+00  0.93635387181E+02  0.88226111754E+02 0.  0.
         13    1    3    3    0    0 -0.24068390592E+02  0.20987317389E+02 -0.18436613611E+02  0.36873768486E+02  0.10566000000E+00 0. -1.
         22    1    1    0    0    0 -0.28748504311E+02 -0.12528137003E+02 -0.55517600173E+00  0.31364612819E+02  0.00000000000E+00 0.  1.
</event>
<event>
 5    1  0.1668518E-003  0.9118800E+02  0.7818608E-02  0.1130116E+00
         25   -1    0    0    0    0  0.00000000000E+00  0.00000000000E+00  0.99999998245E-14  0.12500000000E+03  0.12500000000E+03 0.  0.
        -13    1    3    3    0    0  0.33958784026E+02  0.20188144292E+02  0.40522018744E+02  0.56593333085E+02  0.10566000000E+00 0.  1.
         23    2    1    0    0    0  0.14307793278E+02  0.17559045869E+02 -0.70377776671E+00  0.10233883623E+03  0.99798341956E+02 0.  0.
         13    1    3    3    0    0 -0.19650990748E+02 -0.26290984229E+01 -0.41225796511E+02  0.45745503144E+02  0.10566000000E+00 0. -1.
         22    1    1    0    0    0 -0.14307793278E+02 -0.17559045869E+02  0.70377776671E+00  0.22661163771E+02  0.00000000000E+00 0.  1.
</event>
<event>
 5    1  0.1668518E-003  0.9118800E+02  0.7818608E-02  0.1130116E+00
         25   -1    0    0    0    0  0.00000000000E+00  0.00000000000E+00  0.99999998245E-14  0.12500000000E+03  0.12500000000E+03 0.  0.
        -13    1    3    3    0    0 -0.27977438850E+02 -0.16481839302E+02 -0.12194979717E+02  0.34685974193E+02  0.10566000000E+00 0. -1.
         23    2    1    0    0    0  0.11063148504E+02  0.16122796060E+02  0.21684760581E+02  0.95801256036E+02  0.91243158697E+02 0.  0.
         13    1    3    3    0    0  0.39040587354E+02  0.32604635362E+02  0.33879740298E+02  0.61115281843E+02  0.10566000000E+00 0.  1.
         22    1    1    0    0    0 -0.11063148504E+02 -0.16122796060E+02 -0.21684760581E+02  0.29198743964E+02  0.00000000000E+00 0.  1.
</event>
<event>
 5    1  0.1668518E-003  0.9118800E+02  0.7818608E-02  0.1130116E+00
         25   -1    0    0    0    0  0.00000000000E+00  0.00000000000E+00  0.99999998245E-14  0.12500000000E+03  0.12500000000E+03 0.  0.
        -13    1    3    3    0    0 -0.46952432453E+02 -0.17584861374E+02 -0.93043889908E+01  0.50993539604E+02  0.10566000000E+00 0.  1.
         23    2    1    0    0    0 -0.72269993296E+01 -0.94293483544E+01 -0.27198543398E+02  0.95319991700E+02  0.90581443602E+02 0.  0.
         13    1    3    3    0    0  0.39725433123E+02  0.81555130199E+01 -0.17894154408E+02  0.44326452096E+02  0.10566000000E+00 0. -1.
         22    1    1    0    0    0  0.72269993296E+01  0.94293483544E+01  0.27198543398E+02  0.29680008300E+02  0.00000000000E+00 0.  1.
</event>
<event>
 5    1  0.1668518E-003  0.9118800E+02  0.7818608E-02  0.1130116E+00
         25   -1    0    0    0    0  0.00000000000E+00  0.00000000000E+00  0.99999998245E-14  0.12500000000E+03  0.12500000000E+03 0.  0.
        -13    1    3    3    0    0  0.43714475864E+01  0.12043416376E+02  0.33914515436E+02  0.36254088780E+02  0.10566000000E+00 0.  1.
         23    2    1    0    0    0 -0.12473019388E+02  0.26731425766E+00 -0.24133073533E+02  0.97832870823E+02  0.93985199397E+02 0.  0.
         13    1    3    3    0    0 -0.16844466974E+02 -0.11776102118E+02 -0.58047588969E+02  0.61578782043E+02  0.10566000000E+00 0. -1.
         22    1    1    0    0    0  0.12473019388E+02 -0.26731425766E+00  0.24133073533E+02  0.27167129177E+02  0.00000000000E+00 0. -1.
</event>
<event>
 5    1  0.1668518E-003  0.9118800E+02  0.7818608E-02  0.1130116E+00
         25   -1    0    0    0    0  0.00000000000E+00  0.00000000000E+00  0.99999998245E-14  0.12500000000E+03  0.12500000000E+03 0.  0.
        -13    1    3    3    0    0  0.28506690671E+02  0.25546131163E+02  0.26357756385E+02  0.46475571176E+02  0.10566000000E+00 0.  1.
         23    2    1    0    0    0  0.18241683054E+02 -0.17894204466E+02  0.21921537423E+02  0.91332280191E+02  0.84900353638E+02 0.  0.
         13    1    3    3    0    0 -0.10265007617E+02 -0.43440335629E+02 -0.44362189620E+01  0.44856709015E+02  0.10566000000E+00 0. -1.
         22    1    1    0    0    0 -0.18241683054E+02  0.17894204466E+02 -0.21921537423E+02  0.33667719809E+02  0.00000000000E+00 0.  1.
</event>
<event>
 5    1  0.1668518E-003  0.9118800E+02  0.7818608E-02  0.1130116E+00
         25   -1    0    0    0    0  0.00000000000E+00  0.00000000000E+00  0.99999998245E-14  0.12500000000E+03  0.12500000000E+03 0.  0.
        -13    1    3    3    0    0  0.50830597148E+02 -0.13167170134E+02  0.33148713797E+02  0.62096476278E+02  0.10566000000E+00 0.  1.
         23    2    1    0    0    0  0.20595230768E+02 -0.10326226453E+02  0.15687315581E+02  0.97127318871E+02  0.93042085734E+02 0.  0.
         13    1    3    3    0    0 -0.30235366379E+02  0.28409436806E+01 -0.17461398216E+02  0.35030842593E+02  0.10566000000E+00 0. -1.
         22    1    1    0    0    0 -0.20595230768E+02  0.10326226453E+02 -0.15687315581E+02  0.27872681129E+02  0.00000000000E+00 0.  1.
</event>
<event>
 5    1  0.1668518E-003  0.9118800E+02  0.7818608E-02  0.1130116E+00
         25   -1    0    0    0    0  0.00000000000E+00  0.00000000000E+00  0.99999998245E-14  0.12500000000E+03  0.12500000000E+03 0.  0.
        -13    1    3    3    0    0  0.86303537678E+01  0.23918375818E+02  0.18996736995E+02  0.31740492882E+02  0.10566000000E+00 0.  1.
         23    2    1    0    0    0 -0.89711175413E+01 -0.17922290132E+02 -0.23633434638E+02  0.94012443364E+02  0.88758722619E+02 0.  0.
         13    1    3    3    0    0 -0.17601471309E+02 -0.41840665949E+02 -0.42630171633E+02  0.62271950482E+02  0.10566000000E+00 0. -1.
         22    1    1    0    0    0  0.89711175413E+01  0.17922290132E+02  0.23633434638E+02  0.30987556636E+02  0.00000000000E+00 0. -1.
</event>
<event>
 5    1  0.1668518E-003  0.9118800E+02  0.7818608E-02  0.1130116E+00
         25   -1    0    0    0    0  0.00000000000E+00  0.00000000000E+00  0.99999998245E-14  0.12500000000E+03  0.12500000000E+03 0.  0.
        -13    1    3    3    0    0 -0.12655297781E+01  0.39584613459E+02 -0.40248567011E+02  0.56466817680E+02  0.10566000000E+00 0.  1.
         23    2    1    0    0    0 -0.18510117434E+02  0.10529359197E+02 -0.19558160886E+02  0.96086101789E+02  0.91632556700E+02 0.  0.
         13    1    3    3    0    0 -0.17244587656E+02 -0.29055254263E+02  0.20690406125E+02  0.39619284110E+02  0.10566000000E+00 0. -1.
         22    1    1    0    0    0  0.18510117434E+02 -0.10529359197E+02  0.19558160886E+02  0.28913898211E+02  0.00000000000E+00 0.  1.
</event>
<event>
 5    1  0.1668518E-003  0.9118800E+02  0.7818608E-02  0.1130116E+00
         25   -1    0    0    0    0  0.00000000000E+00  0.00000000000E+00  0.99999998245E-14  0.12500000000E+03  0.12500000000E+03 0.  0.
        -13    1    3    3    0    0 -0.23984502215E+01 -0.58535320806E+02  0.12143966594E+02  0.59829954320E+02  0.10566000000E+00 0. -1.
         23    2    1    0    0    0 -0.96967442755E+01 -0.27987418548E+02 -0.39449505723E+01  0.95118817267E+02  0.90303401468E+02 0.  0.
         13    1    3    3    0    0 -0.72982940540E+01  0.30547902258E+02 -0.16088917166E+02  0.35288862946E+02  0.10566000000E+00 0.  1.
         22    1    1    0    0    0  0.96967442755E+01  0.27987418548E+02  0.39449505723E+01  0.29881182733E+02  0.00000000000E+00 0. -1.
</event>
<event>
 5    1  0.1668518E-003  0.9118800E+02  0.7818608E-02  0.1130116E+00
         25   -1    0    0    0    0  0.00000000000E+00  0.00000000000E+00  0.99999998245E-14  0.12500000000E+03  0.12500000000E+03 0.  0.
        -13    1    3    3    0    0  0.19513076804E+02 -0.13625179126E+02 -0.30498848732E+02  0.38685870943E+02  0.10566000000E+00 0. -1.
         23    2    1    0    0    0 -0.29022748614E+02  0.22541096898E+01 -0.62120885473E+01  0.95234399187E+02  0.90463251085E+02 0.  0.
         13    1    3    3    0    0 -0.48535825418E+02  0.15879288815E+02  0.24286760185E+02  0.56548528245E+02  0.10566000000E+00 0.  1.
         22    1    1    0    0    0  0.29022748614E+02 -0.22541096898E+01  0.62120885473E+01  0.29765600813E+02  0.00000000000E+00 0.  1.
</event>
<event>
 5    1  0.1668518E-003  0.9118800E+02  0.7818608E-02  0.1130116E+00
         25   -1    0    0    0    0  0.00000000000E+00  0.00000000000E+00  0.99999998245E-14  0.12500000000E+03  0.12500000000E+03 0.  0.
        -13    1    3    3    0    0 -0.12668246711E+02  0.69394708623E+01  0.59321541041E+02  0.61054869798E+02  0.10566000000E+00 0.  1.
         23    2    1    0    0    0 -0.15807662166E+01  0.74540989716E+01  0.45900509471E+02  0.78471307959E+02  0.63188820133E+02 0.  0.
         13    1    3    3    0    0  0.11087480494E+02  0.51462810931E+00 -0.13421031570E+02  0.17416438161E+02  0.10566000000E+00 0. -1.
         22    1    1    0    0    0  0.15807662166E+01 -0.74540989716E+01 -0.45900509471E+02  0.46528692041E+02  0.00000000000E+00 0.  1.
</event>
<event>
 5    1  0.1668518E-003  0.9118800E+02  0.7818608E-02  0.1130116E+00
         25   -1    0    0    0    0  0.00000000000E+00  0.00000000000E+00  0.99999998245E-14  0.12500000000E+03  0.12500000000E+03 0.  0.
        -13    1    3    3    0    0 -0.27969132081E+02  0.19345829159E+02  0.20700758722E+02  0.39812887749E+02  0.10566000000E+00 0. -1.
         23    2    1    0    0    0  0.88985295221E+01 -0.22466916640E+02  0.16546770084E+02  0.95712771193E+02  0.91121856863E+02 0.  0.
         13    1    3    3    0    0  0.36867661603E+02 -0.41812745799E+02 -0.41539886383E+01  0.55899883444E+02  0.10566000000E+00 0.  1.
         22    1    1    0    0    0 -0.88985295221E+01  0.22466916640E+02 -0.16546770084E+02  0.29287228807E+02  0.00000000000E+00 0.  1.
</event>
<event>
 5    1  0.1668518E-003  0.9118800E+02  0.7818608E-02  0.1130116E+00
         25   -1    0    0    0    0  0.00000000000E+00  0.00000000000E+00  0.99999998245E-14  0.12500000000E+03  0.12500000000E+03 0.  0.
        -13    1    3    3    0    0 -0.10469207393E+01 -0.58958404260E+02 -0.57867841808E+01  0.59251054937E+02  0.10566000000E+00 0. -1.
         23    2    1    0    0    0  0.45708101095E+01 -0.27391295091E+02  0.10620412875E+02  0.95268391879E+02  0.90510209202E+02 0.  0.
         13    1    3    3    0    0  0.56177308487E+01  0.31567109169E+02  0.16407197055E+02  0.36017336942E+02  0.10566000000E+00 0.  1.
         22    1    1    0    0    0 -0.45708101095E+01  0.27391295091E+02 -0.10620412875E+02  0.29731608121E+02  0.00000000000E+00 0. -1.
</event>
<event>
 5    1  0.1668518E-003  0.9118800E+02  0.7818608E-02  0.1130116E+00
         25   -1    0    0    0    0  0.00000000000E+00  0.00000000000E+00  0.99999998245E-14  0.12500000000E+03  0.12500000000E+03 0.  0.
        -13    1    3    3    0    0 -0.35086026761E+02 -0.26311918061E+02  0.22160906462E+02  0.49137188006E+02  0.10566000000E+00 0. -1.
         23    2    1    0    0    0 -0.90179976461E+01  0.12293057477E+02  0.24903713546E+02  0.95800025821E+02  0.91241473329E+02 0.  0.
         13    1    3    3    0    0  0.26068029115E+02  0.38604975538E+02  0.27428070840E+01  0.46662837815E+02  0.10566000000E+00 0.  1.
         22    1    1    0    0    0  0.90179976461E+01 -0.12293057477E+02 -0.24903713546E+02  0.29199974179E+02  0.00000000000E+00 0. -1.
</event>
<event>
 5    1  0.1668518E-003  0.9118800E+02  0.7818608E-02  0.1130116E+00
         25   -1    0    0    0    0  0.00000000000E+00  0.00000000000E+00  0.99999998245E-14  0.12500000000E+03  0.12500000000E+03 0.  0.
        -13    1    3    3    0    0  0.12039439524E+02 -0.24643043937E+02  0.26086380773E+02  0.37851527636E+02  0.10566000000E+00 0. -1.
         23    2    1    0    0    0 -0.18362856979E+02  0.19330647407E+01 -0.19087895917E+02  0.98442910057E+02  0.94793077354E+02 0.  0.
         13    1    3    3    0    0 -0.30402296503E+02  0.26576108678E+02 -0.45174276690E+02  0.60591382420E+02  0.10566000000E+00 0.  1.
         22    1    1    0    0    0  0.18362856979E+02 -0.19330647407E+01  0.19087895917E+02  0.26557089943E+02  0.00000000000E+00 0.  1.
</event>
<event>
 5    1  0.1668518E-003  0.9118800E+02  0.7818608E-02  0.1130116E+00
         25   -1    0    0    0    0  0.00000000000E+00  0.00000000000E+00  0.99999998245E-14  0.12500000000E+03  0.12500000000E+03 0.  0.
        -13    1    3    3    0    0  0.36044682503E+02  0.21570443613E+02 -0.31995146276E+01  0.42127796433E+02  0.10566000000E+00 0.  1.
         23    2    1    0    0    0  0.19899635781E+02 -0.25652142279E+02 -0.54264357863E+01  0.92083832042E+02  0.85999755875E+02 0.  0.
         13    1    3    3    0    0 -0.16145046722E+02 -0.47222585891E+02 -0.22269211586E+01  0.49956035609E+02  0.10566000000E+00 0. -1.
         22    1    1    0    0    0 -0.19899635781E+02  0.25652142279E+02  0.54264357863E+01  0.32916167958E+02  0.00000000000E+00 0.  1.
</event>
<event>
 5    1  0.1668518E-003  0.9118800E+02  0.7818608E-02  0.1130116E+00
         25   -1    0    0    0    0  0.00000000000E+00  0.00000000000E+00  0.99999998245E-14  0.12500000000E+03  0.12500000000E+03 0.  0.
        -13    1    3    3    0    0 -0.41057392421E+02  0.46018208812E+01 -0.63165570226E+01  0.41794692061E+02  0.10566000000E+00 0.  1.
         23    2    1    0    0    0  0.39873936455E+01  0.29806512136E+02 -0.93700324424E+01  0.93501984479E+02  0.88036902034E+02 0.  0.
         13    1    3    3    0    0  0.45044786066E+02  0.25204691255E+02 -0.30534754198E+01  0.51707292418E+02  0.10566000000E+00 0. -1.
         22    1    1    0    0    0 -0.39873936455E+01 -0.29806512136E+02  0.93700324424E+01  0.31498015521E+02  0.00000000000E+00 0. -1.
</event>
<event>
 5    1  0.1668518E-003  0.9118800E+02  0.7818608E-02  0.1130116E+00
         25   -1    0    0    0    0  0.00000000000E+00  0.00000000000E+00  0.99999998245E-14  0.12500000000E+03  0.12500000000E+03 0.  0.
        -13    1    3    3    0    0  0.43275131236E+01 -0.49187415467E+02  0.35253919470E+02  0.60671073933E+02  0.10566000000E+00 0.  1.
         23    2    1    0    0    0  0.65641835442E+01 -0.16352838788E+02  0.23520399462E+02  0.95611004902E+02  0.90982147839E+02 0.  0.
         13    1    3    3    0    0  0.22366704206E+01  0.32834576679E+02 -0.11733520008E+02  0.34939930969E+02  0.10566000000E+00 0. -1.
         22    1    1    0    0    0 -0.65641835442E+01  0.16352838788E+02 -0.23520399462E+02  0.29388995098E+02  0.00000000000E+00 0.  1.
</event>
<event>
 5    1  0.1668518E-003  0.9118800E+02  0.7818608E-02  0.1130116E+00
         25   -1    0    0    0    0  0.00000000000E+00  0.00000000000E+00  0.99999998245E-14  0.12500000000E+03  0.12500000000E+03 0.  0.
        -13    1    3    3    0    0 -0.37640242058E+02 -0.13080975806E+02 -0.29521249594E+02  0.49592490276E+02  0.10566000000E+00 0.  1.
         23    2    1    0    0    0 -0.14752565031E+02  0.22229790017E+02 -0.16454344305E+02  0.93654391285E+02  0.88253032930E+02 0.  0.
         13    1    3    3    0    0  0.22887677027E+02  0.35310765823E+02  0.13066905289E+02  0.44061901009E+02  0.10566000000E+00 0. -1.
         22    1    1    0    0    0  0.14752565031E+02 -0.22229790017E+02  0.16454344305E+02  0.31345608715E+02  0.00000000000E+00 0. -1.
</event>
<event>
 5    1  0.1668518E-003  0.9118800E+02  0.7818608E-02  0.1130116E+00
         25   -1    0    0    0    0  0.00000000000E+00  0.00000000000E+00  0.99999998245E-14  0.12500000000E+03  0.12500000000E+03 0.  0.
        -13    1    3    3    0    0 -0.33833930750E+01 -0.33168715820E+02 -0.17972750267E+02  0.37876667937E+02  0.10566000000E+00 0. -1.
         23    2    1    0    0    0 -0.13653925715E+02  0.84611192687E+01  0.22842676744E+02  0.97074955550E+02  0.92971710146E+02 0.  0.
         13    1    3    3    0    0 -0.10270532640E+02  0.41629835088E+02  0.40815427011E+02  0.59198287613E+02  0.10566000000E+00 0.  1.
         22    1    1    0    0    0  0.13653925715E+02 -0.84611192687E+01 -0.22842676744E+02  0.27925044450E+02  0.00000000000E+00 0.  1.
</event>
<event>
 5    1  0.1668518E-003  0.9118800E+02  0.7818608E-02  0.1130116E+00
         25   -1    0    0    0    0  0.00000000000E+00  0.00000000000E+00  0.99999998245E-14  0.12500000000E+03  0.12500000000E+03 0.  0.
        -13    1    3    3    0    0  0.47517899927E+01 -0.53403553181E+02  0.25600746870E+02  0.59413200594E+02  0.10566000000E+00 0.  1.
         23    2    1    0    0    0 -0.65981057544E+01 -0.27610443783E+02  0.13687087221E+01  0.96579145526E+02  0.92302688919E+02 0.  0.
         13    1    3    3    0    0 -0.11349895747E+02  0.25793109398E+02 -0.24232038148E+02  0.37165944932E+02  0.10566000000E+00 0. -1.
         22    1    1    0    0    0  0.65981057544E+01  0.27610443783E+02 -0.13687087221E+01  0.28420854474E+02  0.00000000000E+00 0.  1.
</event>
<event>
 5    1  0.1668518E-003  0.9118800E+02  0.7818608E-02  0.1130116E+00
         25   -1    0    0    0    0  0.00000000000E+00  0.00000000000E+00  0.99999998245E-14  0.12500000000E+03  0.12500000000E+03 0.  0.
        -13    1    3    3    0    0  0.16590014071E+02 -0.36602922010E+02  0.99601979128E+01  0.41403129991E+02  0.10566000000E+00 0.  1.
         23    2    1    0    0    0  0.48928059486E+01 -0.37721923228E+01 -0.29967483278E+02  0.94402303371E+02  0.89306079539E+02 0.  0.
         13    1    3    3    0    0 -0.11697208122E+02  0.32830729687E+02 -0.39927681191E+02  0.52999173380E+02  0.10566000000E+00 0. -1.
         22    1    1    0    0    0 -0.48928059486E+01  0.37721923228E+01  0.29967483278E+02  0.30597696629E+02  0.00000000000E+00 0. -1.
</event>
<event>
 5    1  0.1668518E-003  0.9118800E+02  0.7818608E-02  0.1130116E+00
         25   -1    0    0    0    0  0.00000000000E+00  0.00000000000E+00  0.99999998245E-14  0.12500000000E+03  0.12500000000E+03 0.  0.
        -13    1    3    3    0    0 -0.33409769063E+02  0.67440641116E+01 -0.20117731624E+02  0.39578142444E+02  0.10566000000E+00 0. -1.
         23    2    1    0    0    0 -0.14879496623E+02 -0.39555376446E+01  0.28450292779E+02  0.92650890940E+02  0.86820059519E+02 0.  0.
         13    1    3    3    0    0  0.18530272440E+02 -0.10699601756E+02  0.48568024403E+02  0.53072748496E+02  0.10566000000E+00 0.  1.
         22    1    1    0    0    0  0.14879496623E+02  0.39555376446E+01 -0.28450292779E+02  0.32349109060E+02  0.00000000000E+00 0.  1.
</event>
<event>
 5    1  0.1668518E-003  0.9118800E+02  0.7818608E-02  0.1130116E+00
         25   -1    0    0    0    0  0.00000000000E+00  0.00000000000E+00  0.99999998245E-14  0.12500000000E+03  0.12500000000E+03 0.  0.
        -13    1    3    3    0    0 -0.49040500968E+02 -0.23602031143E+02 -0.18125532544E+02  0.57363513693E+02  0.10566000000E+00 0. -1.
         23    2    1    0    0    0 -0.35851755447E+02 -0.31620600005E+02 -0.63533482992E+01  0.76775776337E+02  0.59740640139E+02 0.  0.
         13    1    3    3    0    0  0.13188745521E+02 -0.80185688626E+01  0.11772184244E+02  0.19412262643E+02  0.10566000000E+00 0.  1.
         22    1    1    0    0    0  0.35851755447E+02  0.31620600005E+02  0.63533482992E+01  0.48224223663E+02  0.00000000000E+00 0. -1.
</event>
<event>
 5    1  0.1668518E-003  0.9118800E+02  0.7818608E-02  0.1130116E+00
         25   -1    0    0    0    0  0.00000000000E+00  0.00000000000E+00  0.99999998245E-14  0.12500000000E+03  0.12500000000E+03 0.  0.
        -13    1    3    3    0    0 -0.15274855865E+01  0.30149301729E+01  0.41673652935E+02  0.41810615030E+02  0.10566000000E+00 0.  1.
         23    2    1    0    0    0  0.70188002324E+01  0.25423206206E+02 -0.83908758655E+01  0.97323118523E+02  0.93304767460E+02 0.  0.
         13    1    3    3    0    0  0.85462858189E+01  0.22408276033E+02 -0.50064528801E+02  0.55512503494E+02  0.10566000000E+00 0. -1.
         22    1    1    0    0    0 -0.70188002324E+01 -0.25423206206E+02  0.83908758655E+01  0.27676881477E+02  0.00000000000E+00 0. -1.
</event>
<event>
 5    1  0.1668518E-003  0.9118800E+02  0.7818608E-02  0.1130116E+00
         25   -1    0    0    0    0  0.00000000000E+00  0.00000000000E+00  0.99999998245E-14  0.12500000000E+03  0.12500000000E+03 0.  0.
        -13    1    3    3    0    0  0.13295878066E+01  0.31288509949E+02  0.11653633589E+02  0.33414921793E+02  0.10566000000E+00 0.  1.
         23    2    1    0    0    0 -0.13985910297E+02 -0.23164982305E+02 -0.12830285551E+02  0.95052741038E+02  0.90211890898E+02 0.  0.
         13    1    3    3    0    0 -0.15315498103E+02 -0.54453492254E+02 -0.24483919141E+02  0.61637819245E+02  0.10566000000E+00 0. -1.
         22    1    1    0    0    0  0.13985910297E+02  0.23164982305E+02  0.12830285551E+02  0.29947258962E+02  0.00000000000E+00 0. -1.
</event>
<event>
 5    1  0.1668518E-003  0.9118800E+02  0.7818608E-02  0.1130116E+00
         25   -1    0    0    0    0  0.00000000000E+00  0.00000000000E+00  0.99999998245E-14  0.12500000000E+03  0.12500000000E+03 0.  0.
        -13    1    3    3    0    0 -0.23827651334E+02 -0.25929000659E+02 -0.11889316459E+02  0.37167688295E+02  0.10566000000E+00 0. -1.
         23    2    1    0    0    0 -0.14689274012E+02  0.67374177043E+01  0.29912658845E+02  0.91000959904E+02  0.84411136563E+02 0.  0.
         13    1    3    3    0    0  0.91383773219E+01  0.32666418364E+02  0.41801975304E+02  0.53833271609E+02  0.10566000000E+00 0.  1.
         22    1    1    0    0    0  0.14689274012E+02 -0.67374177043E+01 -0.29912658845E+02  0.33999040096E+02  0.00000000000E+00 0.  1.
</event>
<event>
 5    1  0.1668518E-003  0.9118800E+02  0.7818608E-02  0.1130116E+00
         25   -1    0    0    0    0  0.00000000000E+00  0.00000000000E+00  0.99999998245E-14  0.12500000000E+03  0.12500000000E+03 0.  0.
        -13    1    3    3    0    0 -0.75782705098E+01  0.27072591649E+02  0.19394001439E+02  0.34153972805E+02  0.10566000000E+00 0.  1.
         23    2    1    0    0    0  0.10220569134E+01 -0.29039108201E+02 -0.42226768911E+01  0.95637687326E+02  0.91018799330E+02 0.  0.
         13    1    3    3    0    0  0.86003274232E+01 -0.56111699850E+02 -0.23616678331E+02  0.61483714521E+02  0.10566000000E+00 0. -1.
         22    1    1    0    0    0 -0.10220569134E+01  0.29039108201E+02  0.42226768911E+01  0.29362312674E+02  0.00000000000E+00 0. -1.
</event>
<event>
 5    1  0.1668518E-003  0.9118800E+02  0.7818608E-02  0.1130116E+00
         25   -1    0    0    0    0  0.00000000000E+00  0.00000000000E+00  0.99999998245E-14  0.12500000000E+03  0.12500000000E+03 0.  0.
        -13    1    3    3    0    0 -0.44753047235E+02 -0.21708191027E+02  0.83991262840E+01  0.50444397913E+02  0.10566000000E+00 0. -1.
         23    2    1    0    0    0 -0.34066873068E+02  0.13132782018E+02  0.10681876037E+02  0.86958913267E+02  0.78196728300E+02 0.  0.
         13    1    3    3    0    0  0.10686174167E+02  0.34840973045E+02  0.22827497527E+01  0.36514515354E+02  0.10566000000E+00 0.  1.
         22    1    1    0    0    0  0.34066873068E+02 -0.13132782018E+02 -0.10681876037E+02  0.38041086733E+02  0.00000000000E+00 0. -1.
</event>
<event>
 5    1  0.1668518E-003  0.9118800E+02  0.7818608E-02  0.1130116E+00
         25   -1    0    0    0    0  0.00000000000E+00  0.00000000000E+00  0.99999998245E-14  0.12500000000E+03  0.12500000000E+03 0.  0.
        -13    1    3    3    0    0 -0.28532397797E+02 -0.20499659832E+02 -0.93466428486E+01  0.36355256482E+02  0.10566000000E+00 0.  1.
         23    2    1    0    0    0  0.15175765725E+02  0.19984676934E+02 -0.14265658425E+02  0.96134792781E+02  0.91698954166E+02 0.  0.
         13    1    3    3    0    0  0.43708163522E+02  0.40484336766E+02 -0.49190155767E+01  0.59779536299E+02  0.10566000000E+00 0. -1.
         22    1    1    0    0    0 -0.15175765725E+02 -0.19984676934E+02  0.14265658425E+02  0.28865207219E+02  0.00000000000E+00 0. -1.
</event>
<event>
 5    1  0.1668518E-003  0.9118800E+02  0.7818608E-02  0.1130116E+00
         25   -1    0    0    0    0  0.00000000000E+00  0.00000000000E+00  0.99999998245E-14  0.12500000000E+03  0.12500000000E+03 0.  0.
        -13    1    3    3    0    0  0.40726958203E+02 -0.85686950059E+01  0.17467176257E+02  0.45135585396E+02  0.10566000000E+00 0. -1.
         23    2    1    0    0    0 -0.56580401397E+01  0.11122269115E+02  0.25921274556E+02  0.96231427510E+02  0.91830587919E+02 0.  0.
         13    1    3    3    0    0 -0.46384998343E+02  0.19690964121E+02  0.84540982994E+01  0.51095842114E+02  0.10566000000E+00 0.  1.
         22    1    1    0    0    0  0.56580401397E+01 -0.11122269115E+02 -0.25921274556E+02  0.28768572490E+02  0.00000000000E+00 0.  1.
</event>
<event>
 5    1  0.1668518E-003  0.9118800E+02  0.7818608E-02  0.1130116E+00
         25   -1    0    0    0    0  0.00000000000E+00  0.00000000000E+00  0.99999998245E-14  0.12500000000E+03  0.12500000000E+03 0.  0.
        -13    1    3    3    0    0 -0.30710483671E+02 -0.28578942597E+02 -0.37268908846E+02  0.56114815315E+02  0.10566000000E+00 0.  1.
         23    2    1    0    0    0 -0.19751297189E+02  0.60005000639E+01 -0.19876423722E+02  0.96343552878E+02  0.91983086595E+02 0.  0.
         13    1    3    3    0    0  0.10959186482E+02  0.34579442661E+02  0.17392485124E+02  0.40228737563E+02  0.10566000000E+00 0. -1.
         22    1    1    0    0    0  0.19751297189E+02 -0.60005000639E+01  0.19876423722E+02  0.28656447122E+02  0.00000000000E+00 0.  1.
</event>
<event>
 5    1  0.1668518E-003  0.9118800E+02  0.7818608E-02  0.1130116E+00
         25   -1    0    0    0    0  0.00000000000E+00  0.00000000000E+00  0.99999998245E-14  0.12500000000E+03  0.12500000000E+03 0.  0.
        -13    1    3    3    0    0  0.15443983085E+02  0.19998990475E+01  0.32476052254E+02  0.36016959113E+02  0.10566000000E+00 0.  1.
         23    2    1    0    0    0 -0.26896060687E+02  0.27980420021E-01 -0.10265189586E+02  0.96211582526E+02  0.91803570909E+02 0.  0.
         13    1    3    3    0    0 -0.42340043772E+02 -0.19719186275E+01 -0.42741241840E+02  0.60194623413E+02  0.10566000000E+00 0. -1.
         22    1    1    0    0    0  0.26896060687E+02 -0.27980420021E-01  0.10265189586E+02  0.28788417474E+02  0.00000000000E+00 0. -1.
</event>
<event>
 5    1  0.1668518E-003  0.9118800E+02  0.7818608E-02  0.1130116E+00
         25   -1    0    0    0    0  0.00000000000E+00  0.00000000000E+00  0.99999998245E-14  0.12500000000E+03  0.12500000000E+03 0.  0.
        -13    1    3    3    0    0  0.37300265009E+02 -0.25649445215E+01 -0.10666999250E+02  0.38880390265E+02  0.10566000000E+00 0. -1.
         23    2    1    0    0    0 -0.72922008719E+01 -0.22474979644E+02  0.17809075593E+02  0.95411757791E+02  0.90707989988E+02 0.  0.
         13    1    3    3    0    0 -0.44592465880E+02 -0.19910035122E+02  0.28476074843E+02  0.56531367526E+02  0.10566000000E+00 0.  1.
         22    1    1    0    0    0  0.72922008719E+01  0.22474979644E+02 -0.17809075593E+02  0.29588242209E+02  0.00000000000E+00 0.  1.
</event>
<event>
 5    1  0.1668518E-003  0.9118800E+02  0.7818608E-02  0.1130116E+00
         25   -1    0    0    0    0  0.00000000000E+00  0.00000000000E+00  0.99999998245E-14  0.12500000000E+03  0.12500000000E+03 0.  0.
        -13    1    3    3    0    0 -0.36590024710E+02  0.13359821198E+01  0.54424075407E+01  0.37016830231E+02  0.10566000000E+00 0. -1.
         23    2    1    0    0    0  0.13005483948E+02  0.14589995290E+02 -0.22281652049E+02  0.95360792971E+02  0.90637730790E+02 0.  0.
         13    1    3    3    0    0  0.49595508657E+02  0.13254013170E+02 -0.27724059590E+02  0.58343962740E+02  0.10566000000E+00 0.  1.
         22    1    1    0    0    0 -0.13005483948E+02 -0.14589995290E+02  0.22281652049E+02  0.29639207029E+02  0.00000000000E+00 0.  1.
</event>
<event>
 5    1  0.1668518E-003  0.9118800E+02  0.7818608E-02  0.1130116E+00
         25   -1    0    0    0    0  0.00000000000E+00  0.00000000000E+00  0.99999998245E-14  0.12500000000E+03  0.12500000000E+03 0.  0.
        -13    1    3    3    0    0  0.19589296393E+02  0.30981270887E+02 -0.18381607269E+02  0.41005784089E+02  0.10566000000E+00 0. -1.
         23    2    1    0    0    0 -0.27400994642E+02  0.39105746386E+01 -0.75928372517E+01  0.96298810497E+02  0.91922264029E+02 0.  0.
         13    1    3    3    0    0 -0.46990291034E+02 -0.27070696248E+02  0.10788770017E+02  0.55293026408E+02  0.10566000000E+00 0.  1.
         22    1    1    0    0    0  0.27400994642E+02 -0.39105746386E+01  0.75928372517E+01  0.28701189503E+02  0.00000000000E+00 0. -1.
</event>
<event>
 5    1  0.1668518E-003  0.9118800E+02  0.7818608E-02  0.1130116E+00
         25   -1    0    0    0    0  0.00000000000E+00  0.00000000000E+00  0.99999998245E-14  0.12500000000E+03  0.12500000000E+03 0.  0.
        -13    1    3    3    0    0  0.23994205800E+02  0.42570961322E+02  0.22115758639E+01  0.48917388438E+02  0.10566000000E+00 0.  1.
         23    2    1    0    0    0  0.70786349344E+01  0.11544203395E+02  0.28822546608E+02  0.93154829290E+02  0.87542602900E+02 0.  0.
         13    1    3    3    0    0 -0.16915570865E+02 -0.31026757926E+02  0.26610970744E+02  0.44237440852E+02  0.10566000000E+00 0. -1.
         22    1    1    0    0    0 -0.70786349344E+01 -0.11544203395E+02 -0.28822546608E+02  0.31845170710E+02  0.00000000000E+00 0.  1.
</event>
<event>
 5    1  0.1668518E-003  0.9118800E+02  0.7818608E-02  0.1130116E+00
         25   -1    0    0    0    0  0.00000000000E+00  0.00000000000E+00  0.99999998245E-14  0.12500000000E+03  0.12500000000E+03 0.  0.
        -13    1    3    3    0    0 -0.22521363834E+02  0.18809763501E+02  0.41118905350E+02  0.50515290488E+02  0.10566000000E+00 0. -1.
         23    2    1    0    0    0  0.13593365167E+02 -0.53542134721E+01  0.23339043316E+02  0.97465328740E+02  0.93495091770E+02 0.  0.
         13    1    3    3    0    0  0.36114729000E+02 -0.24163976973E+02 -0.17779862033E+02  0.46950038252E+02  0.10566000000E+00 0.  1.
         22    1    1    0    0    0 -0.13593365167E+02  0.53542134721E+01 -0.23339043316E+02  0.27534671260E+02  0.00000000000E+00 0. -1.
</event>
<event>
 5    1  0.1668518E-003  0.9118800E+02  0.7818608E-02  0.1130116E+00
         25   -1    0    0    0    0  0.00000000000E+00  0.00000000000E+00  0.99999998245E-14  0.12500000000E+03  0.12500000000E+03 0.  0.
        -13    1    3    3    0    0 -0.29195081666E+02 -0.32091460403E+02  0.32666208672E+02  0.54307522291E+02  0.10566000000E+00 0.  1.
         23    2    1    0    0    0 -0.18256921683E+01 -0.27113810388E+01  0.30293328356E+02  0.94530827351E+02  0.89485791261E+02 0.  0.
         13    1    3    3    0    0  0.27369389498E+02  0.29380079364E+02 -0.23728803159E+01  0.40223305060E+02  0.10566000000E+00 0. -1.
         22    1    1    0    0    0  0.18256921683E+01  0.27113810388E+01 -0.30293328356E+02  0.30469172649E+02  0.00000000000E+00 0.  1.
</event>
<event>
 5    1  0.1668518E-003  0.9118800E+02  0.7818608E-02  0.1130116E+00
         25   -1    0    0    0    0  0.00000000000E+00  0.00000000000E+00  0.99999998245E-14  0.12500000000E+03  0.12500000000E+03 0.  0.
        -13    1    3    3    0    0 -0.41624603857E+02  0.34639812867E+02  0.10368529871E+02  0.55136574589E+02  0.10566000000E+00 0. -1.
         23    2    1    0    0    0 -0.28439007957E+02  0.52968910725E+00 -0.71277706788E+01  0.95676581731E+02  0.91072199011E+02 0.  0.
         13    1    3    3    0    0  0.13185595899E+02 -0.34110123759E+02 -0.17496300550E+02  0.40540007142E+02  0.10566000000E+00 0.  1.
         22    1    1    0    0    0  0.28439007957E+02 -0.52968910725E+00  0.71277706788E+01  0.29323418269E+02  0.00000000000E+00 0. -1.
</event>
<event>
 5    1  0.1668518E-003  0.9118800E+02  0.7818608E-02  0.1130116E+00
         25   -1    0    0    0    0  0.00000000000E+00  0.00000000000E+00  0.99999998245E-14  0.12500000000E+03  0.12500000000E+03 0.  0.
        -13    1    3    3    0    0  0.46056270162E+02 -0.26560074641E+02 -0.45577474827E+01  0.53361051455E+02  0.10566000000E+00 0.  1.
         23    2    1    0    0    0  0.31263651743E-01 -0.22280840170E+02  0.81099562106E+01  0.10128906991E+03  0.98474704757E+02 0.  0.
         13    1    3    3    0    0 -0.46025006511E+02  0.42792344716E+01  0.12667703693E+02  0.47928018453E+02  0.10566000000E+00 0. -1.
         22    1    1    0    0    0 -0.31263651743E-01  0.22280840170E+02 -0.81099562106E+01  0.23710930092E+02  0.00000000000E+00 0.  1.
</event>
<event>
 5    1  0.1668518E-003  0.9118800E+02  0.7818608E-02  0.1130116E+00
         25   -1    0    0    0    0  0.00000000000E+00  0.00000000000E+00  0.99999998245E-14  0.12500000000E+03  0.12500000000E+03 0.  0.
        -13    1    3    3    0    0  0.33791469467E+02 -0.25166625025E+02 -0.14456582948E+02  0.44544656003E+02  0.10566000000E+00 0.  1.
         23    2    1    0    0    0  0.13013600315E+02 -0.44104396499E+00  0.25767048603E+02  0.96129788594E+02  0.91692132424E+02 0.  0.
         13    1    3    3    0    0 -0.20777869152E+02  0.24725581060E+02  0.40223631551E+02  0.51585132591E+02  0.10566000000E+00 0. -1.
         22    1    1    0    0    0 -0.13013600315E+02  0.44104396499E+00 -0.25767048603E+02  0.28870211406E+02  0.00000000000E+00 0.  1.
</event>
<event>
 5    1  0.1668518E-003  0.9118800E+02  0.7818608E-02  0.1130116E+00
         25   -1    0    0    0    0  0.00000000000E+00  0.00000000000E+00  0.99999998245E-14  0.12500000000E+03  0.12500000000E+03 0.  0.
        -13    1    3    3    0    0  0.25642223104E+02 -0.20939140367E+02  0.51569532592E+02  0.61281310861E+02  0.10566000000E+00 0. -1.
         23    2    1    0    0    0  0.16775457320E+02 -0.15171638081E+02  0.19213698213E+02  0.95322386056E+02  0.90584747690E+02 0.  0.
         13    1    3    3    0    0 -0.88667657843E+01  0.57675022861E+01 -0.32355834379E+02  0.34041075196E+02  0.10566000000E+00 0.  1.
         22    1    1    0    0    0 -0.16775457320E+02  0.15171638081E+02 -0.19213698213E+02  0.29677613944E+02  0.00000000000E+00 0. -1.
</event>
<event>
 5    1  0.1668518E-003  0.9118800E+02  0.7818608E-02  0.1130116E+00
         25   -1    0    0    0    0  0.00000000000E+00  0.00000000000E+00  0.99999998245E-14  0.12500000000E+03  0.12500000000E+03 0.  0.
        -13    1    3    3    0    0  0.21176067226E+02 -0.66162650081E+01  0.28685893331E+02  0.36264203094E+02  0.10566000000E+00 0.  1.
         23    2    1    0    0    0 -0.16251686665E+02  0.24269965853E+02 -0.50403329868E+01  0.95359596518E+02  0.90636080726E+02 0.  0.
         13    1    3    3    0    0 -0.37427753891E+02  0.30886230862E+02 -0.33726226318E+02  0.59095393423E+02  0.10566000000E+00 0. -1.
         22    1    1    0    0    0  0.16251686665E+02 -0.24269965853E+02  0.50403329868E+01  0.29640403482E+02  0.00000000000E+00 0. -1.
</event>
<event>
 5    1  0.1668518E-003  0.9118800E+02  0.7818608E-02  0.1130116E+00
         25   -1    0    0    0    0  0.00000000000E+00  0.00000000000E+00  0.99999998245E-14  0.12500000000E+03  0.12500000000E+03 0.  0.
        -13    1    3    3    0    0  0.22972484716E+01  0.13044142484E+02  0.54761665879E+02  0.56340733200E+02  0.10566000000E+00 0.  1.
         23    2    1    0    0    0  0.61501232839E+01 -0.12659547788E+02  0.28085825360E+02  0.93585007516E+02  0.88154704237E+02 0.  0.
         13    1    3    3    0    0  0.38528748123E+01 -0.25703690272E+02 -0.26675840519E+02  0.37244274316E+02  0.10566000000E+00 0. -1.
         22    1    1    0    0    0 -0.61501232839E+01  0.12659547788E+02 -0.28085825360E+02  0.31414992484E+02  0.00000000000E+00 0.  1.
</event>
<event>
 5    1  0.1668518E-003  0.9118800E+02  0.7818608E-02  0.1130116E+00
         25   -1    0    0    0    0  0.00000000000E+00  0.00000000000E+00  0.99999998245E-14  0.12500000000E+03  0.12500000000E+03 0.  0.
        -13    1    3    3    0    0  0.56923426735E+02  0.22712837873E+02 -0.99928348218E+01  0.62096839109E+02  0.10566000000E+00 0.  1.
         23    2    1    0    0    0  0.28305242475E+02  0.94173490031E+01 -0.93670485212E-01  0.95169110171E+02  0.90372991224E+02 0.  0.
         13    1    3    3    0    0 -0.28618184260E+02 -0.13295488870E+02  0.98991643366E+01  0.33072271063E+02  0.10566000000E+00 0. -1.
         22    1    1    0    0    0 -0.28305242475E+02 -0.94173490031E+01  0.93670485212E-01  0.29830889829E+02  0.00000000000E+00 0.  1.
</event>
<event>
 5    1  0.1668518E-003  0.9118800E+02  0.7818608E-02  0.1130116E+00
         25   -1    0    0    0    0  0.00000000000E+00  0.00000000000E+00  0.99999998245E-14  0.12500000000E+03  0.12500000000E+03 0.  0.
        -13    1    3    3    0    0 -0.23791864196E+02  0.34070855251E+02 -0.95618535664E+01  0.42641718857E+02  0.10566000000E+00 0.  1.
         23    2    1    0    0    0 -0.11162673243E+02  0.14849660823E+02  0.30762151984E+02  0.89063560344E+02  0.81491656542E+02 0.  0.
         13    1    3    3    0    0  0.12629190953E+02 -0.19221194428E+02  0.40324005550E+02  0.46421841487E+02  0.10566000000E+00 0. -1.
         22    1    1    0    0    0  0.11162673243E+02 -0.14849660823E+02 -0.30762151984E+02  0.35936439656E+02  0.00000000000E+00 0. -1.
</event>
<event>
 5    1  0.1668518E-003  0.9118800E+02  0.7818608E-02  0.1130116E+00
         25   -1    0    0    0    0  0.00000000000E+00  0.00000000000E+00  0.99999998245E-14  0.12500000000E+03  0.12500000000E+03 0.  0.
        -13    1    3    3    0    0 -0.34103539128E+02 -0.23903715268E+02 -0.27775992676E+02  0.50059523748E+02  0.10566000000E+00 0. -1.
         23    2    1    0    0    0 -0.27917665376E+02  0.84184881036E+01  0.37110176473E+01  0.95605465917E+02  0.90974537532E+02 0.  0.
         13    1    3    3    0    0  0.61858737525E+01  0.32322203371E+02  0.31487010324E+02  0.45545942169E+02  0.10566000000E+00 0.  1.
         22    1    1    0    0    0  0.27917665376E+02 -0.84184881036E+01 -0.37110176473E+01  0.29394534083E+02  0.00000000000E+00 0.  1.
</event>
<event>
 5    1  0.1668518E-003  0.9118800E+02  0.7818608E-02  0.1130116E+00
         25   -1    0    0    0    0  0.00000000000E+00  0.00000000000E+00  0.99999998245E-14  0.12500000000E+03  0.12500000000E+03 0.  0.
        -13    1    3    3    0    0 -0.28222851474E+01 -0.37463485893E+02 -0.45482430525E+02  0.58992717510E+02  0.10566000000E+00 0.  1.
         23    2    1    0    0    0  0.10785784280E+02 -0.22554457682E+02 -0.14126744161E+02  0.96284122781E+02  0.91902288847E+02 0.  0.
         13    1    3    3    0    0  0.13608069427E+02  0.14909028211E+02  0.31355686364E+02  0.37291405272E+02  0.10566000000E+00 0. -1.
         22    1    1    0    0    0 -0.10785784280E+02  0.22554457682E+02  0.14126744161E+02  0.28715877219E+02  0.00000000000E+00 0.  1.
</event>
<event>
 5    1  0.1668518E-003  0.9118800E+02  0.7818608E-02  0.1130116E+00
         25   -1    0    0    0    0  0.00000000000E+00  0.00000000000E+00  0.99999998245E-14  0.12500000000E+03  0.12500000000E+03 0.  0.
        -13    1    3    3    0    0  0.23218861681E+01 -0.34513115165E+02  0.28393473892E+02  0.44752059142E+02  0.10566000000E+00 0. -1.
         23    2    1    0    0    0  0.90696644389E+00 -0.14914574268E+02 -0.21752131542E+02  0.98610184913E+02  0.95013400256E+02 0.  0.
         13    1    3    3    0    0 -0.14149197242E+01  0.19598540897E+02 -0.50145605434E+02  0.53858125770E+02  0.10566000000E+00 0.  1.
         22    1    1    0    0    0 -0.90696644389E+00  0.14914574268E+02  0.21752131542E+02  0.26389815087E+02  0.00000000000E+00 0.  1.
</event>
<event>
 5    1  0.1668518E-003  0.9118800E+02  0.7818608E-02  0.1130116E+00
         25   -1    0    0    0    0  0.00000000000E+00  0.00000000000E+00  0.99999998245E-14  0.12500000000E+03  0.12500000000E+03 0.  0.
        -13    1    3    3    0    0 -0.32096039773E+02 -0.25378569665E+01 -0.48581198847E+02  0.58281562544E+02  0.10566000000E+00 0.  1.
         23    2    1    0    0    0 -0.88112951729E+01  0.13726470064E+02 -0.24753915474E+02  0.95355249464E+02  0.90630085325E+02 0.  0.
         13    1    3    3    0    0  0.23284744601E+02  0.16264327030E+02  0.23827283373E+02  0.37073686920E+02  0.10566000000E+00 0. -1.
         22    1    1    0    0    0  0.88112951729E+01 -0.13726470064E+02  0.24753915474E+02  0.29644750536E+02  0.00000000000E+00 0.  1.
</event>
<event>
 5    1  0.1668518E-003  0.9118800E+02  0.7818608E-02  0.1130116E+00
         25   -1    0    0    0    0  0.00000000000E+00  0.00000000000E+00  0.99999998245E-14  0.12500000000E+03  0.12500000000E+03 0.  0.
        -13    1    3    3    0    0 -0.52789844830E+02  0.23927851126E+02  0.22365111909E+02  0.62125028543E+02  0.10566000000E+00 0. -1.
         23    2    1    0    0    0 -0.29589446554E+02  0.92587460358E+01  0.86390985703E+01  0.92814696683E+02  0.87055580928E+02 0.  0.
         13    1    3    3    0    0  0.23200398277E+02 -0.14669105090E+02 -0.13726013339E+02  0.30689668140E+02  0.10566000000E+00 0.  1.
         22    1    1    0    0    0  0.29589446554E+02 -0.92587460358E+01 -0.86390985703E+01  0.32185303317E+02  0.00000000000E+00 0. -1.
</event>
<event>
 5    1  0.1668518E-003  0.9118800E+02  0.7818608E-02  0.1130116E+00
         25   -1    0    0    0    0  0.00000000000E+00  0.00000000000E+00  0.99999998245E-14  0.12500000000E+03  0.12500000000E+03 0.  0.
        -13    1    3    3    0    0  0.94188573075E+01 -0.12128293132E+02 -0.47695425194E+02  0.50106637442E+02  0.10566000000E+00 0. -1.
         23    2    1    0    0    0  0.14866935741E+02 -0.24103573381E+02 -0.32075824416E+01  0.96499182237E+02  0.92194335830E+02 0.  0.
         13    1    3    3    0    0  0.54480784335E+01 -0.11975280249E+02  0.44487842753E+02  0.46392544794E+02  0.10566000000E+00 0.  1.
         22    1    1    0    0    0 -0.14866935741E+02  0.24103573381E+02  0.32075824416E+01  0.28500817763E+02  0.00000000000E+00 0.  1.
</event>
<event>
 5    1  0.1668518E-003  0.9118800E+02  0.7818608E-02  0.1130116E+00
         25   -1    0    0    0    0  0.00000000000E+00  0.00000000000E+00  0.99999998245E-14  0.12500000000E+03  0.12500000000E+03 0.  0.
        -13    1    3    3    0    0 -0.35953743788E+02 -0.43697420968E+02 -0.17093891062E+02  0.59113015210E+02  0.10566000000E+00 0.  1.
         23    2    1    0    0    0 -0.11668598895E+02 -0.24910189204E+02  0.51325591869E+01  0.97017561040E+02  0.92894511463E+02 0.  0.
         13    1    3    3    0    0  0.24285144893E+02  0.18787231763E+02  0.22226450249E+02  0.37904545829E+02  0.10566000000E+00 0. -1.
         22    1    1    0    0    0  0.11668598895E+02  0.24910189204E+02 -0.51325591869E+01  0.27982438960E+02  0.00000000000E+00 0.  1.
</event>
<event>
 5    1  0.1668518E-003  0.9118800E+02  0.7818608E-02  0.1130116E+00
         25   -1    0    0    0    0  0.00000000000E+00  0.00000000000E+00  0.99999998245E-14  0.12500000000E+03  0.12500000000E+03 0.  0.
        -13    1    3    3    0    0  0.59682153746E+02  0.11938124199E+02 -0.47388038784E+01  0.61048715886E+02  0.10566000000E+00 0. -1.
         23    2    1    0    0    0  0.28665641904E+02  0.35468837602E+01  0.70380298391E+01  0.95270666435E+02  0.90513350445E+02 0.  0.
         13    1    3    3    0    0 -0.31016511842E+02 -0.83912404383E+01  0.11776833717E+02  0.34221950549E+02  0.10566000000E+00 0.  1.
         22    1    1    0    0    0 -0.28665641904E+02 -0.35468837602E+01 -0.70380298391E+01  0.29729333565E+02  0.00000000000E+00 0. -1.
</event>
<event>
 5    1  0.1668518E-003  0.9118800E+02  0.7818608E-02  0.1130116E+00
         25   -1    0    0    0    0  0.00000000000E+00  0.00000000000E+00  0.99999998245E-14  0.12500000000E+03  0.12500000000E+03 0.  0.
        -13    1    3    3    0    0 -0.29553314953E+02  0.10826091198E+02 -0.33383342035E+02  0.45880947732E+02  0.10566000000E+00 0. -1.
         23    2    1    0    0    0 -0.22775979335E+02  0.10104670700E+02  0.15774794032E+02  0.95509429789E+02  0.90842487016E+02 0.  0.
         13    1    3    3    0    0  0.67773356184E+01 -0.72142049856E+00  0.49158136067E+02  0.49628482057E+02  0.10566000000E+00 0.  1.
         22    1    1    0    0    0  0.22775979335E+02 -0.10104670700E+02 -0.15774794032E+02  0.29490570211E+02  0.00000000000E+00 0.  1.
</event>
<event>
 5    1  0.1668518E-003  0.9118800E+02  0.7818608E-02  0.1130116E+00
         25   -1    0    0    0    0  0.00000000000E+00  0.00000000000E+00  0.99999998245E-14  0.12500000000E+03  0.12500000000E+03 0.  0.
        -13    1    3    3    0    0  0.37619935886E+02 -0.11273296263E+02 -0.15190811406E+02  0.42108416022E+02  0.10566000000E+00 0.  1.
         23    2    1    0    0    0 -0.52100441013E+01 -0.24441438858E+02  0.14732601057E+02  0.95990035732E+02  0.91501414923E+02 0.  0.
         13    1    3    3    0    0 -0.42829979987E+02 -0.13168142594E+02  0.29923412463E+02  0.53881619709E+02  0.10566000000E+00 0. -1.
         22    1    1    0    0    0  0.52100441013E+01  0.24441438858E+02 -0.14732601057E+02  0.29009964268E+02  0.00000000000E+00 0. -1.
</event>
<event>
 5    1  0.1668518E-003  0.9118800E+02  0.7818608E-02  0.1130116E+00
         25   -1    0    0    0    0  0.00000000000E+00  0.00000000000E+00  0.99999998245E-14  0.12500000000E+03  0.12500000000E+03 0.  0.
        -13    1    3    3    0    0 -0.59540764301E+01  0.59868131897E+01  0.33714331808E+02  0.34755723149E+02  0.10566000000E+00 0.  1.
         23    2    1    0    0    0  0.18220452907E+02 -0.63988144620E+01 -0.21384587075E+02  0.96186282866E+02  0.91769116355E+02 0.  0.
         13    1    3    3    0    0  0.24174529338E+02 -0.12385627652E+02 -0.55098918884E+02  0.61430559717E+02  0.10566000000E+00 0. -1.
         22    1    1    0    0    0 -0.18220452907E+02  0.63988144620E+01  0.21384587075E+02  0.28813717134E+02  0.00000000000E+00 0. -1.
</event>
<event>
 5    1  0.1668518E-003  0.9118800E+02  0.7818608E-02  0.1130116E+00
         25   -1    0    0    0    0  0.00000000000E+00  0.00000000000E+00  0.99999998245E-14  0.12500000000E+03  0.12500000000E+03 0.  0.
        -13    1    3    3    0    0  0.32908593339E+02  0.25905699297E+02  0.88773328910E+01  0.42812369415E+02  0.10566000000E+00 0.  1.
         23    2    1    0    0    0  0.10219760156E+02 -0.81228948144E+01 -0.25573200020E+02  0.96287398637E+02  0.91906744362E+02 0.  0.
         13    1    3    3    0    0 -0.22688833183E+02 -0.34028594111E+02 -0.34450532911E+02  0.53475029222E+02  0.10566000000E+00 0. -1.
         22    1    1    0    0    0 -0.10219760156E+02  0.81228948144E+01  0.25573200020E+02  0.28712601363E+02  0.00000000000E+00 0.  1.
</event>
<event>
 5    1  0.1668518E-003  0.9118800E+02  0.7818608E-02  0.1130116E+00
         25   -1    0    0    0    0  0.00000000000E+00  0.00000000000E+00  0.99999998245E-14  0.12500000000E+03  0.12500000000E+03 0.  0.
        -13    1    3    3    0    0 -0.38286505656E+02  0.22526435268E+02 -0.42212245951E+02  0.61279537151E+02  0.10566000000E+00 0.  1.
         23    2    1    0    0    0 -0.23881960985E+02  0.57523709308E+01 -0.15507202137E+02  0.95949851120E+02  0.91446502284E+02 0.  0.
         13    1    3    3    0    0  0.14404544671E+02 -0.16774064337E+02  0.26705043814E+02  0.34670313969E+02  0.10566000000E+00 0. -1.
         22    1    1    0    0    0  0.23881960985E+02 -0.57523709308E+01  0.15507202137E+02  0.29050148880E+02  0.00000000000E+00 0.  1.
</event>
<event>
 5    1  0.1668518E-003  0.9118800E+02  0.7818608E-02  0.1130116E+00
         25   -1    0    0    0    0  0.00000000000E+00  0.00000000000E+00  0.99999998245E-14  0.12500000000E+03  0.12500000000E+03 0.  0.
        -13    1    3    3    0    0  0.31836954754E+02  0.87700124528E+01 -0.59305683377E+01  0.33551268401E+02  0.10566000000E+00 0.  1.
         23    2    1    0    0    0 -0.84224132543E+01 -0.26305175655E+02 -0.22409505250E+02  0.89431963270E+02  0.82054803744E+02 0.  0.
         13    1    3    3    0    0 -0.40259368009E+02 -0.35075188108E+02 -0.16478936912E+02  0.55880694869E+02  0.10566000000E+00 0. -1.
         22    1    1    0    0    0  0.84224132543E+01  0.26305175655E+02  0.22409505250E+02  0.35568036730E+02  0.00000000000E+00 0. -1.
</event>
<event>
 5    1  0.1668518E-003  0.9118800E+02  0.7818608E-02  0.1130116E+00
         25   -1    0    0    0    0  0.00000000000E+00  0.00000000000E+00  0.99999998245E-14  0.12500000000E+03  0.12500000000E+03 0.  0.
        -13    1    3    3    0    0  0.27903529224E+02  0.51739354672E+02 -0.99711469357E+01  0.59623843388E+02  0.10566000000E+00 0. -1.
         23    2    1    0    0    0  0.16960311868E+02  0.17059087938E+02 -0.15464669869E+02  0.96402435871E+02  0.92063070597E+02 0.  0.
         13    1    3    3    0    0 -0.10943217356E+02 -0.34680266734E+02 -0.54935229331E+01  0.36778592484E+02  0.10566000000E+00 0.  1.
         22    1    1    0    0    0 -0.16960311868E+02 -0.17059087938E+02  0.15464669869E+02  0.28597564129E+02  0.00000000000E+00 0. -1.
</event>
<event>
 5    1  0.1668518E-003  0.9118800E+02  0.7818608E-02  0.1130116E+00
         25   -1    0    0    0    0  0.00000000000E+00  0.00000000000E+00  0.99999998245E-14  0.12500000000E+03  0.12500000000E+03 0.  0.
        -13    1    3    3    0    0  0.42267116450E+02 -0.90706466720E+01 -0.54688077189E+01  0.43574129778E+02  0.10566000000E+00 0.  1.
         23    2    1    0    0    0  0.68186200304E+01  0.27459476353E+02 -0.10713752481E+02  0.94746059547E+02  0.89785939249E+02 0.  0.
         13    1    3    3    0    0 -0.35448496420E+02  0.36530123025E+02 -0.52449447622E+01  0.51171929769E+02  0.10566000000E+00 0. -1.
         22    1    1    0    0    0 -0.68186200304E+01 -0.27459476353E+02  0.10713752481E+02  0.30253940453E+02  0.00000000000E+00 0. -1.
</event>
<event>
 5    1  0.1668518E-003  0.9118800E+02  0.7818608E-02  0.1130116E+00
         25   -1    0    0    0    0  0.00000000000E+00  0.00000000000E+00  0.99999998245E-14  0.12500000000E+03  0.12500000000E+03 0.  0.
        -13    1    3    3    0    0  0.27846521619E+02  0.11219301770E+02 -0.17450444311E+02  0.34725072631E+02  0.10566000000E+00 0.  1.
         23    2    1    0    0    0  0.81457507537E+01  0.11065281585E+02  0.33198236657E+02  0.89070671742E+02  0.81502563982E+02 0.  0.
         13    1    3    3    0    0 -0.19700770866E+02 -0.15402018427E+00  0.50648680969E+02  0.54345599112E+02  0.10566000000E+00 0. -1.
         22    1    1    0    0    0 -0.81457507537E+01 -0.11065281585E+02 -0.33198236657E+02  0.35929328258E+02  0.00000000000E+00 0. -1.
</event>
<event>
 5    1  0.1668518E-003  0.9118800E+02  0.7818608E-02  0.1130116E+00
         25   -1    0    0    0    0  0.00000000000E+00  0.00000000000E+00  0.99999998245E-14  0.12500000000E+03  0.12500000000E+03 0.  0.
        -13    1    3    3    0    0 -0.28209948151E+02  0.19747754845E+02 -0.39631876664E+02  0.52502112415E+02  0.10566000000E+00 0.  1.
         23    2    1    0    0    0 -0.30146998594E+02 -0.15852888916E+01 -0.33628237122E+01  0.94624627601E+02  0.89616722213E+02 0.  0.
         13    1    3    3    0    0 -0.19370504423E+01 -0.21333043736E+02  0.36269052952E+02  0.42122515185E+02  0.10566000000E+00 0. -1.
         22    1    1    0    0    0  0.30146998594E+02  0.15852888916E+01  0.33628237122E+01  0.30375372399E+02  0.00000000000E+00 0.  1.
</event>
<event>
 5    1  0.1668518E-003  0.9118800E+02  0.7818608E-02  0.1130116E+00
         25   -1    0    0    0    0  0.00000000000E+00  0.00000000000E+00  0.99999998245E-14  0.12500000000E+03  0.12500000000E+03 0.  0.
        -13    1    3    3    0    0  0.48892162669E+02 -0.29378435436E+01 -0.30067878235E+02  0.57473149911E+02  0.10566000000E+00 0. -1.
         23    2    1    0    0    0  0.24864356380E+02 -0.15565436415E+02 -0.34967501927E+01  0.95457720283E+02  0.90771306428E+02 0.  0.
         13    1    3    3    0    0 -0.24027806289E+02 -0.12627592872E+02  0.26571128042E+02  0.37984570371E+02  0.10566000000E+00 0.  1.
         22    1    1    0    0    0 -0.24864356380E+02  0.15565436415E+02  0.34967501927E+01  0.29542279717E+02  0.00000000000E+00 0.  1.
</event>
<event>
 5    1  0.1668518E-003  0.9118800E+02  0.7818608E-02  0.1130116E+00
         25   -1    0    0    0    0  0.00000000000E+00  0.00000000000E+00  0.99999998245E-14  0.12500000000E+03  0.12500000000E+03 0.  0.
        -13    1    3    3    0    0  0.43266815018E+01  0.23718020078E+02  0.54859625433E+02  0.59923737499E+02  0.10566000000E+00 0.  1.
         23    2    1    0    0    0  0.13347066204E+01  0.21812155222E+02  0.18754911526E+02  0.96202460808E+02  0.91791149911E+02 0.  0.
         13    1    3    3    0    0 -0.29919748814E+01 -0.19058648557E+01 -0.36104713907E+02  0.36278723308E+02  0.10566000000E+00 0. -1.
         22    1    1    0    0    0 -0.13347066204E+01 -0.21812155222E+02 -0.18754911526E+02  0.28797539192E+02  0.00000000000E+00 0.  1.
</event>
<event>
 5    1  0.1668518E-003  0.9118800E+02  0.7818608E-02  0.1130116E+00
         25   -1    0    0    0    0  0.00000000000E+00  0.00000000000E+00  0.99999998245E-14  0.12500000000E+03  0.12500000000E+03 0.  0.
        -13    1    3    3    0    0 -0.19191947634E+01 -0.25476040613E+02 -0.75762727705E+01  0.26648133649E+02  0.10566000000E+00 0.  1.
         23    2    1    0    0    0 -0.19633762223E+02  0.24491213221E+02  0.21347155080E+02  0.87039426057E+02  0.78325324859E+02 0.  0.
         13    1    3    3    0    0 -0.17714567460E+02  0.49967253834E+02  0.28923427850E+02  0.60391292408E+02  0.10566000000E+00 0. -1.
         22    1    1    0    0    0  0.19633762223E+02 -0.24491213221E+02 -0.21347155080E+02  0.37960573943E+02  0.00000000000E+00 0. -1.
</event>
<event>
 5    1  0.1668518E-003  0.9118800E+02  0.7818608E-02  0.1130116E+00
         25   -1    0    0    0    0  0.00000000000E+00  0.00000000000E+00  0.99999998245E-14  0.12500000000E+03  0.12500000000E+03 0.  0.
        -13    1    3    3    0    0 -0.37073999273E+02 -0.48336246691E+02 -0.18921644175E+00  0.60917330319E+02  0.10566000000E+00 0.  1.
         23    2    1    0    0    0 -0.29825570020E+02 -0.22955969248E+02  0.11368105581E+01  0.87345870221E+02  0.78812864149E+02 0.  0.
         13    1    3    3    0    0  0.72484292529E+01  0.25380277443E+02  0.13260269999E+01  0.26428539902E+02  0.10566000000E+00 0. -1.
         22    1    1    0    0    0  0.29825570020E+02  0.22955969248E+02 -0.11368105581E+01  0.37654129779E+02  0.00000000000E+00 0.  1.
</event>
<event>
 5    1  0.1668518E-003  0.9118800E+02  0.7818608E-02  0.1130116E+00
         25   -1    0    0    0    0  0.00000000000E+00  0.00000000000E+00  0.99999998245E-14  0.12500000000E+03  0.12500000000E+03 0.  0.
        -13    1    3    3    0    0 -0.79397808740E+01  0.46683290113E+02  0.38630159392E+02  0.61111947071E+02  0.10566000000E+00 0. -1.
         23    2    1    0    0    0 -0.10118233629E+02  0.18124806202E+02  0.23982411835E+02  0.93281813906E+02  0.87723733827E+02 0.  0.
         13    1    3    3    0    0 -0.21784527555E+01 -0.28558483911E+02 -0.14647747557E+02  0.32169866835E+02  0.10566000000E+00 0.  1.
         22    1    1    0    0    0  0.10118233629E+02 -0.18124806202E+02 -0.23982411835E+02  0.31718186094E+02  0.00000000000E+00 0. -1.
</event>
<event>
 5    1  0.1668518E-003  0.9118800E+02  0.7818608E-02  0.1130116E+00
         25   -1    0    0    0    0  0.00000000000E+00  0.00000000000E+00  0.99999998245E-14  0.12500000000E+03  0.12500000000E+03 0.  0.
        -13    1    3    3    0    0  0.40565592428E+02 -0.37453561679E+02  0.16429127187E+02  0.57604374449E+02  0.10566000000E+00 0.  1.
         23    2    1    0    0    0  0.27159669771E+02 -0.31199604659E+01  0.13308524786E+02  0.94594430652E+02  0.89574592731E+02 0.  0.
         13    1    3    3    0    0 -0.13405922656E+02  0.34333601213E+02 -0.31206024005E+01  0.36990056203E+02  0.10566000000E+00 0. -1.
         22    1    1    0    0    0 -0.27159669771E+02  0.31199604659E+01 -0.13308524786E+02  0.30405569348E+02  0.00000000000E+00 0.  1.
</event>
<event>
 5    1  0.1668518E-003  0.9118800E+02  0.7818608E-02  0.1130116E+00
         25   -1    0    0    0    0  0.00000000000E+00  0.00000000000E+00  0.99999998245E-14  0.12500000000E+03  0.12500000000E+03 0.  0.
        -13    1    3    3    0    0  0.33161491529E+02  0.41184893516E+00  0.30550709872E+01  0.33304635755E+02  0.10566000000E+00 0.  1.
         23    2    1    0    0    0 -0.28246393138E+02  0.59668411018E+01  0.76486816352E+01  0.95134229479E+02  0.90324732880E+02 0.  0.
         13    1    3    3    0    0 -0.61407884667E+02  0.55549921666E+01  0.45936106481E+01  0.61829593724E+02  0.10566000000E+00 0. -1.
         22    1    1    0    0    0  0.28246393138E+02 -0.59668411018E+01 -0.76486816352E+01  0.29865770521E+02  0.00000000000E+00 0. -1.
</event>
<event>
 5    1  0.1668518E-003  0.9118800E+02  0.7818608E-02  0.1130116E+00
         25   -1    0    0    0    0  0.00000000000E+00  0.00000000000E+00  0.99999998245E-14  0.12500000000E+03  0.12500000000E+03 0.  0.
        -13    1    3    3    0    0 -0.50009164377E+02  0.21994697168E+02  0.30166640128E+02  0.62407696367E+02  0.10566000000E+00 0. -1.
         23    2    1    0    0    0 -0.26875224110E+02  0.12941267109E+02  0.13985411411E+02  0.92055413227E+02  0.85958439415E+02 0.  0.
         13    1    3    3    0    0  0.23133940267E+02 -0.90534300590E+01 -0.16181228718E+02  0.29647716859E+02  0.10566000000E+00 0.  1.
         22    1    1    0    0    0  0.26875224110E+02 -0.12941267109E+02 -0.13985411411E+02  0.32944586773E+02  0.00000000000E+00 0. -1.
</event>
<event>
 5    1  0.1668518E-003  0.9118800E+02  0.7818608E-02  0.1130116E+00
         25   -1    0    0    0    0  0.00000000000E+00  0.00000000000E+00  0.99999998245E-14  0.12500000000E+03  0.12500000000E+03 0.  0.
        -13    1    3    3    0    0 -0.58941229167E+01  0.39971695472E+02  0.29319375917E+02  0.49921078635E+02  0.10566000000E+00 0.  1.
         23    2    1    0    0    0  0.22567449597E+02  0.80487691858E+01  0.20223591315E+02  0.93646114875E+02  0.88241309594E+02 0.  0.
         13    1    3    3    0    0  0.28461572514E+02 -0.31922926286E+02 -0.90957846023E+01  0.43725036240E+02  0.10566000000E+00 0. -1.
         22    1    1    0    0    0 -0.22567449597E+02 -0.80487691858E+01 -0.20223591315E+02  0.31353885125E+02  0.00000000000E+00 0.  1.
</event>
<event>
 5    1  0.1668518E-003  0.9118800E+02  0.7818608E-02  0.1130116E+00
         25   -1    0    0    0    0  0.00000000000E+00  0.00000000000E+00  0.99999998245E-14  0.12500000000E+03  0.12500000000E+03 0.  0.
        -13    1    3    3    0    0 -0.45338036319E+02  0.36115944256E+02  0.47855600682E+01  0.58161943880E+02  0.10566000000E+00 0. -1.
         23    2    1    0    0    0 -0.13384242379E+02  0.26523336606E+02 -0.85406601484E+01  0.94087733753E+02  0.88864691740E+02 0.  0.
         13    1    3    3    0    0  0.31953793939E+02 -0.95926076502E+01 -0.13326220217E+02  0.35925789872E+02  0.10566000000E+00 0.  1.
         22    1    1    0    0    0  0.13384242379E+02 -0.26523336606E+02  0.85406601484E+01  0.30912266247E+02  0.00000000000E+00 0. -1.
</event>
<event>
 5    1  0.1668518E-003  0.9118800E+02  0.7818608E-02  0.1130116E+00
         25   -1    0    0    0    0  0.00000000000E+00  0.00000000000E+00  0.99999998245E-14  0.12500000000E+03  0.12500000000E+03 0.  0.
        -13    1    3    3    0    0  0.65707831074E-01 -0.12393799953E+02 -0.33914439523E+02  0.36108322683E+02  0.10566000000E+00 0. -1.
         23    2    1    0    0    0 -0.29345947786E+02 -0.74815477783E+00  0.13164488579E+02  0.92827835842E+02  0.87074444934E+02 0.  0.
         13    1    3    3    0    0 -0.29411655617E+02  0.11645645175E+02  0.47078928102E+02  0.56719513159E+02  0.10566000000E+00 0.  1.
         22    1    1    0    0    0  0.29345947786E+02  0.74815477783E+00 -0.13164488579E+02  0.32172164158E+02  0.00000000000E+00 0.  1.
</event>
<event>
 5    1  0.1668518E-003  0.9118800E+02  0.7818608E-02  0.1130116E+00
         25   -1    0    0    0    0  0.00000000000E+00  0.00000000000E+00  0.99999998245E-14  0.12500000000E+03  0.12500000000E+03 0.  0.
        -13    1    3    3    0    0 -0.39213249185E+02 -0.15880237146E+02 -0.30878634441E+02  0.52377114014E+02  0.10566000000E+00 0. -1.
         23    2    1    0    0    0 -0.22913370820E+02  0.17045251094E+02 -0.17662475932E+02  0.91421343040E+02  0.85031381031E+02 0.  0.
         13    1    3    3    0    0  0.16299878365E+02  0.32925488239E+02  0.13216158508E+02  0.39044229026E+02  0.10566000000E+00 0.  1.
         22    1    1    0    0    0  0.22913370820E+02 -0.17045251094E+02  0.17662475932E+02  0.33578656960E+02  0.00000000000E+00 0.  1.
</event>
<event>
 5    1  0.1668518E-003  0.9118800E+02  0.7818608E-02  0.1130116E+00
         25   -1    0    0    0    0  0.00000000000E+00  0.00000000000E+00  0.99999998245E-14  0.12500000000E+03  0.12500000000E+03 0.  0.
        -13    1    3    3    0    0  0.46102071911E+02  0.16085889937E+02  0.97406133486E+01  0.49790035168E+02  0.10566000000E+00 0.  1.
         23    2    1    0    0    0  0.13257985366E+00 -0.15852149901E+02 -0.61796903945E+01  0.10798539430E+03  0.10663652552E+03 0.  0.
         13    1    3    3    0    0 -0.45969492057E+02 -0.31938039838E+02 -0.15920303743E+02  0.58195359128E+02  0.10566000000E+00 0. -1.
         22    1    1    0    0    0 -0.13257985366E+00  0.15852149901E+02  0.61796903945E+01  0.17014605704E+02  0.00000000000E+00 0. -1.
</event>
<event>
 5    1  0.1668518E-003  0.9118800E+02  0.7818608E-02  0.1130116E+00
         25   -1    0    0    0    0  0.00000000000E+00  0.00000000000E+00  0.99999998245E-14  0.12500000000E+03  0.12500000000E+03 0.  0.
        -13    1    3    3    0    0  0.17000134346E+02  0.51868360743E+02 -0.92106782143E+00  0.54591125139E+02  0.10566000000E+00 0. -1.
         23    2    1    0    0    0  0.28423256194E+02  0.15741179219E+02  0.44355775748E+00  0.92505955017E+02  0.86611135278E+02 0.  0.
         13    1    3    3    0    0  0.11423121848E+02 -0.36127181524E+02  0.13646255789E+01  0.37914829877E+02  0.10566000000E+00 0.  1.
         22    1    1    0    0    0 -0.28423256194E+02 -0.15741179219E+02 -0.44355775748E+00  0.32494044983E+02  0.00000000000E+00 0. -1.
</event>
<event>
 5    1  0.1668518E-003  0.9118800E+02  0.7818608E-02  0.1130116E+00
         25   -1    0    0    0    0  0.00000000000E+00  0.00000000000E+00  0.99999998245E-14  0.12500000000E+03  0.12500000000E+03 0.  0.
        -13    1    3    3    0    0 -0.13780274290E+02  0.17397014178E+02 -0.30967576820E+02  0.38099265609E+02  0.10566000000E+00 0. -1.
         23    2    1    0    0    0 -0.16928243491E+02 -0.23332358043E+02  0.85459743863E+01  0.94933439875E+02  0.90046432294E+02 0.  0.
         13    1    3    3    0    0 -0.31479692010E+01 -0.40729372220E+02  0.39513551206E+02  0.56834174266E+02  0.10566000000E+00 0.  1.
         22    1    1    0    0    0  0.16928243491E+02  0.23332358043E+02 -0.85459743863E+01  0.30066560125E+02  0.00000000000E+00 0.  1.
</event>
<event>
 5    1  0.1668518E-003  0.9118800E+02  0.7818608E-02  0.1130116E+00
         25   -1    0    0    0    0  0.00000000000E+00  0.00000000000E+00  0.99999998245E-14  0.12500000000E+03  0.12500000000E+03 0.  0.
        -13    1    3    3    0    0  0.50288793083E+02 -0.12378312544E+02  0.16645654280E+02  0.54399212325E+02  0.10566000000E+00 0.  1.
         23    2    1    0    0    0  0.25008769320E+02  0.16663468464E+02  0.58933283591E+01  0.94375809507E+02  0.89268988887E+02 0.  0.
         13    1    3    3    0    0 -0.25280023762E+02  0.29041781008E+02 -0.10752325921E+02  0.39976597182E+02  0.10566000000E+00 0. -1.
         22    1    1    0    0    0 -0.25008769320E+02 -0.16663468464E+02 -0.58933283591E+01  0.30624190493E+02  0.00000000000E+00 0. -1.
</event>
<event>
 5    1  0.1668518E-003  0.9118800E+02  0.7818608E-02  0.1130116E+00
         25   -1    0    0    0    0  0.00000000000E+00  0.00000000000E+00  0.99999998245E-14  0.12500000000E+03  0.12500000000E+03 0.  0.
        -13    1    3    3    0    0 -0.30639095758E+02  0.74951224262E+01  0.17346923239E+02  0.35998027153E+02  0.10566000000E+00 0.  1.
         23    2    1    0    0    0  0.21060251893E+02  0.22396713994E+02 -0.42293294679E+01  0.93967207099E+02  0.88694992952E+02 0.  0.
         13    1    3    3    0    0  0.51699347650E+02  0.14901591567E+02 -0.21576252707E+02  0.57969179946E+02  0.10566000000E+00 0. -1.
         22    1    1    0    0    0 -0.21060251893E+02 -0.22396713994E+02  0.42293294679E+01  0.31032792901E+02  0.00000000000E+00 0. -1.
</event>
<event>
 5    1  0.1668518E-003  0.9118800E+02  0.7818608E-02  0.1130116E+00
         25   -1    0    0    0    0  0.00000000000E+00  0.00000000000E+00  0.99999998245E-14  0.12500000000E+03  0.12500000000E+03 0.  0.
        -13    1    3    3    0    0 -0.25472030262E+02 -0.31951048980E+02  0.43183833538E+02  0.59452068927E+02  0.10566000000E+00 0.  1.
         23    2    1    0    0    0 -0.86858626987E+01 -0.36417472843E+01  0.27542204201E+02  0.95891933311E+02  0.91367299007E+02 0.  0.
         13    1    3    3    0    0  0.16786167563E+02  0.28309301696E+02 -0.15641629337E+02  0.36439864384E+02  0.10566000000E+00 0. -1.
         22    1    1    0    0    0  0.86858626987E+01  0.36417472843E+01 -0.27542204201E+02  0.29108066689E+02  0.00000000000E+00 0.  1.
</event>
<event>
 5    1  0.1668518E-003  0.9118800E+02  0.7818608E-02  0.1130116E+00
         25   -1    0    0    0    0  0.00000000000E+00  0.00000000000E+00  0.99999998245E-14  0.12500000000E+03  0.12500000000E+03 0.  0.
        -13    1    3    3    0    0 -0.33359161115E+02  0.36996950193E+02  0.83939524246E+01  0.50518091366E+02  0.10566000000E+00 0. -1.
         23    2    1    0    0    0 -0.28888724201E+02 -0.70396916371E+01  0.39802021839E+01  0.95000705780E+02  0.90139760622E+02 0.  0.
         13    1    3    3    0    0  0.44704369142E+01 -0.44036641830E+02 -0.44137502407E+01  0.44482614414E+02  0.10566000000E+00 0.  1.
         22    1    1    0    0    0  0.28888724201E+02  0.70396916371E+01 -0.39802021839E+01  0.29999294220E+02  0.00000000000E+00 0.  1.
</event>
<event>
 5    1  0.1668518E-003  0.9118800E+02  0.7818608E-02  0.1130116E+00
         25   -1    0    0    0    0  0.00000000000E+00  0.00000000000E+00  0.99999998245E-14  0.12500000000E+03  0.12500000000E+03 0.  0.
        -13    1    3    3    0    0 -0.52389983266E+02 -0.47182168704E+01 -0.26554523688E+02  0.58924747003E+02  0.10566000000E+00 0. -1.
         23    2    1    0    0    0 -0.29324228828E+02  0.99749647731E+01 -0.52679826591E+01  0.93580866341E+02  0.88148832013E+02 0.  0.
         13    1    3    3    0    0  0.23065754438E+02  0.14693181644E+02  0.21286541029E+02  0.34656119338E+02  0.10566000000E+00 0.  1.
         22    1    1    0    0    0  0.29324228828E+02 -0.99749647731E+01  0.52679826591E+01  0.31419133659E+02  0.00000000000E+00 0. -1.
</event>
<event>
 5    1  0.1668518E-003  0.9118800E+02  0.7818608E-02  0.1130116E+00
         25   -1    0    0    0    0  0.00000000000E+00  0.00000000000E+00  0.99999998245E-14  0.12500000000E+03  0.12500000000E+03 0.  0.
        -13    1    3    3    0    0  0.90541881790E+01 -0.30380340698E+02 -0.13454745461E+02  0.34438129507E+02  0.10566000000E+00 0. -1.
         23    2    1    0    0    0  0.23124094321E+02  0.20366753066E+01  0.27815145962E+02  0.88770811086E+02  0.81041364571E+02 0.  0.
         13    1    3    3    0    0  0.14069906142E+02  0.32417016004E+02  0.41269891423E+02  0.54332681579E+02  0.10566000000E+00 0.  1.
         22    1    1    0    0    0 -0.23124094321E+02 -0.20366753066E+01 -0.27815145962E+02  0.36229188914E+02  0.00000000000E+00 0.  1.
</event>
<event>
 5    1  0.1668518E-003  0.9118800E+02  0.7818608E-02  0.1130116E+00
         25   -1    0    0    0    0  0.00000000000E+00  0.00000000000E+00  0.99999998245E-14  0.12500000000E+03  0.12500000000E+03 0.  0.
        -13    1    3    3    0    0 -0.65364485731E+01  0.26392721464E+02  0.17585547373E+02  0.32381530950E+02  0.10566000000E+00 0.  1.
         23    2    1    0    0    0  0.10724385735E+02 -0.14733043300E+02 -0.25009976918E+02  0.94055308052E+02  0.88819068972E+02 0.  0.
         13    1    3    3    0    0  0.17260834308E+02 -0.41125764764E+02 -0.42595524291E+02  0.61673777103E+02  0.10566000000E+00 0. -1.
         22    1    1    0    0    0 -0.10724385735E+02  0.14733043300E+02  0.25009976918E+02  0.30944691948E+02  0.00000000000E+00 0. -1.
</event>
<event>
 5    1  0.1668518E-003  0.9118800E+02  0.7818608E-02  0.1130116E+00
         25   -1    0    0    0    0  0.00000000000E+00  0.00000000000E+00  0.99999998245E-14  0.12500000000E+03  0.12500000000E+03 0.  0.
        -13    1    3    3    0    0  0.51035290632E+02  0.15299260944E+01  0.14573412466E+02  0.53097430057E+02  0.10566000000E+00 0. -1.
         23    2    1    0    0    0  0.18894140597E+02  0.14452003007E+02 -0.13466477014E+02  0.97665133200E+02  0.93761843518E+02 0.  0.
         13    1    3    3    0    0 -0.32141150035E+02  0.12922076913E+02 -0.28039889480E+02  0.44567703142E+02  0.10566000000E+00 0.  1.
         22    1    1    0    0    0 -0.18894140597E+02 -0.14452003007E+02  0.13466477014E+02  0.27334866800E+02  0.00000000000E+00 0. -1.
</event>
<event>
 5    1  0.1668518E-003  0.9118800E+02  0.7818608E-02  0.1130116E+00
         25   -1    0    0    0    0  0.00000000000E+00  0.00000000000E+00  0.99999998245E-14  0.12500000000E+03  0.12500000000E+03 0.  0.
        -13    1    3    3    0    0  0.30217972036E+02  0.39928220089E+02  0.92711392359E+01  0.50924981887E+02  0.10566000000E+00 0.  1.
         23    2    1    0    0    0  0.50854321766E+01  0.11126150273E+02  0.28697495560E+02  0.93803860948E+02  0.88464485739E+02 0.  0.
         13    1    3    3    0    0 -0.25132539859E+02 -0.28802069816E+02  0.19426356324E+02  0.42878879061E+02  0.10566000000E+00 0. -1.
         22    1    1    0    0    0 -0.50854321766E+01 -0.11126150273E+02 -0.28697495560E+02  0.31196139052E+02  0.00000000000E+00 0.  1.
</event>
<event>
 5    1  0.1668518E-003  0.9118800E+02  0.7818608E-02  0.1130116E+00
         25   -1    0    0    0    0  0.00000000000E+00  0.00000000000E+00  0.99999998245E-14  0.12500000000E+03  0.12500000000E+03 0.  0.
        -13    1    3    3    0    0 -0.17343291445E+02 -0.29117224175E+02 -0.23326488564E+02  0.41142906248E+02  0.10566000000E+00 0.  1.
         23    2    1    0    0    0  0.25026313628E+02  0.46266523363E+01 -0.13495695653E+02  0.96192777177E+02  0.91777961920E+02 0.  0.
         13    1    3    3    0    0  0.42369605072E+02  0.33743876511E+02  0.98307929107E+01  0.55049870929E+02  0.10566000000E+00 0. -1.
         22    1    1    0    0    0 -0.25026313628E+02 -0.46266523363E+01  0.13495695653E+02  0.28807222823E+02  0.00000000000E+00 0. -1.
</event>
<event>
 5    1  0.1668518E-003  0.9118800E+02  0.7818608E-02  0.1130116E+00
         25   -1    0    0    0    0  0.00000000000E+00  0.00000000000E+00  0.99999998245E-14  0.12500000000E+03  0.12500000000E+03 0.  0.
        -13    1    3    3    0    0 -0.26833580023E+02  0.14832098304E+02  0.20518533066E+02  0.36892458852E+02  0.10566000000E+00 0. -1.
         23    2    1    0    0    0  0.10043018922E+01 -0.26809049413E+02 -0.10924619950E+02  0.96033103830E+02  0.91560231309E+02 0.  0.
         13    1    3    3    0    0  0.27837881915E+02 -0.41641147717E+02 -0.31443153016E+02  0.59140644977E+02  0.10566000000E+00 0.  1.
         22    1    1    0    0    0 -0.10043018922E+01  0.26809049413E+02  0.10924619950E+02  0.28966896170E+02  0.00000000000E+00 0.  1.
</event>
<event>
 4    1  0.1668518E-003  0.9118800E+02  0.7818608E-02  0.1130116E+00
         25   -1    0    0    0    0  0.00000000000E+00  0.00000000000E+00  0.99999998245E-14  0.12500000000E+03  0.12500000000E+03 0.  0.
        -13    1    1    0    0    0 -0.88164741182E+01  0.24554153631E+02  0.49337918071E+02  0.55811092088E+02  0.10566000000E+00 0.  1.
         13    1    1    0    0    0  0.78592786059E+01 -0.14672796944E+02  0.21219809845E+01  0.16780142958E+02  0.10566000000E+00 0. -1.
         22    1    1    0    0    0  0.95719551230E+00 -0.98813566873E+01 -0.51459899055E+02  0.52408764954E+02  0.00000000000E+00 0.  1.
</event>
<event>
 5    1  0.1668518E-003  0.9118800E+02  0.7818608E-02  0.1130116E+00
         25   -1    0    0    0    0  0.00000000000E+00  0.00000000000E+00  0.99999998245E-14  0.12500000000E+03  0.12500000000E+03 0.  0.
        -13    1    3    3    0    0 -0.33193772425E+02  0.46412774364E+02  0.17005646514E+02  0.59541374936E+02  0.10566000000E+00 0.  1.
         23    2    1    0    0    0 -0.16337249174E+02  0.22055160173E+02 -0.58266561921E+01  0.96941387718E+02  0.92791955090E+02 0.  0.
         13    1    3    3    0    0  0.16856523251E+02 -0.24357614191E+02 -0.22832302706E+02  0.37400012782E+02  0.10566000000E+00 0. -1.
         22    1    1    0    0    0  0.16337249174E+02 -0.22055160173E+02  0.58266561921E+01  0.28058612282E+02  0.00000000000E+00 0.  1.
</event>
<event>
 5    1  0.1668518E-003  0.9118800E+02  0.7818608E-02  0.1130116E+00
         25   -1    0    0    0    0  0.00000000000E+00  0.00000000000E+00  0.99999998245E-14  0.12500000000E+03  0.12500000000E+03 0.  0.
        -13    1    3    3    0    0  0.18614006328E+02  0.38135959454E+02 -0.81051443235E+01  0.43203439257E+02  0.10566000000E+00 0. -1.
         23    2    1    0    0    0  0.16885722597E+02 -0.56493565886E+01  0.22244491034E+02  0.96506838735E+02  0.92204716169E+02 0.  0.
         13    1    3    3    0    0 -0.17282837305E+01 -0.43785316043E+02  0.30349635358E+02  0.53303399479E+02  0.10566000000E+00 0.  1.
         22    1    1    0    0    0 -0.16885722597E+02  0.56493565886E+01 -0.22244491034E+02  0.28493161265E+02  0.00000000000E+00 0.  1.
</event>
<event>
 5    1  0.1668518E-003  0.9118800E+02  0.7818608E-02  0.1130116E+00
         25   -1    0    0    0    0  0.00000000000E+00  0.00000000000E+00  0.99999998245E-14  0.12500000000E+03  0.12500000000E+03 0.  0.
        -13    1    3    3    0    0  0.33557578621E+02  0.11899148196E+02 -0.19017588475E+02  0.40365587400E+02  0.10566000000E+00 0.  1.
         23    2    1    0    0    0  0.84717946503E+01 -0.23514518720E+02  0.15301510697E+02  0.95694025783E+02  0.91096138478E+02 0.  0.
         13    1    3    3    0    0 -0.25085783970E+02 -0.35413666916E+02  0.34319099172E+02  0.55328438383E+02  0.10566000000E+00 0. -1.
         22    1    1    0    0    0 -0.84717946503E+01  0.23514518720E+02 -0.15301510697E+02  0.29305974217E+02  0.00000000000E+00 0. -1.
</event>
<event>
 5    1  0.1668518E-003  0.9118800E+02  0.7818608E-02  0.1130116E+00
         25   -1    0    0    0    0  0.00000000000E+00  0.00000000000E+00  0.99999998245E-14  0.12500000000E+03  0.12500000000E+03 0.  0.
        -13    1    3    3    0    0  0.32097296461E+02 -0.20652867492E+02  0.30579286187E+02  0.48906863357E+02  0.10566000000E+00 0.  1.
         23    2    1    0    0    0  0.12924076618E+02 -0.22510317254E+02 -0.12569336950E+02  0.96160194684E+02  0.91733574393E+02 0.  0.
         13    1    3    3    0    0 -0.19173219842E+02 -0.18574497624E+01 -0.43148623137E+02  0.47253331326E+02  0.10566000000E+00 0. -1.
         22    1    1    0    0    0 -0.12924076618E+02  0.22510317254E+02  0.12569336950E+02  0.28839805316E+02  0.00000000000E+00 0. -1.
</event>
<event>
 5    1  0.1668518E-003  0.9118800E+02  0.7818608E-02  0.1130116E+00
         25   -1    0    0    0    0  0.00000000000E+00  0.00000000000E+00  0.99999998245E-14  0.12500000000E+03  0.12500000000E+03 0.  0.
        -13    1    3    3    0    0 -0.72186363833E+01 -0.19978319861E+02  0.42209621188E+02  0.47253626957E+02  0.10566000000E+00 0.  1.
         23    2    1    0    0    0  0.23454605743E+02 -0.17834451342E+02  0.56957606315E+01  0.94989537251E+02  0.90124271496E+02 0.  0.
         13    1    3    3    0    0  0.30673242126E+02  0.21438685193E+01 -0.36513860557E+02  0.47735910294E+02  0.10566000000E+00 0. -1.
         22    1    1    0    0    0 -0.23454605743E+02  0.17834451342E+02 -0.56957606315E+01  0.30010462749E+02  0.00000000000E+00 0.  1.
</event>
<event>
 5    1  0.1668518E-003  0.9118800E+02  0.7818608E-02  0.1130116E+00
         25   -1    0    0    0    0  0.00000000000E+00  0.00000000000E+00  0.99999998245E-14  0.12500000000E+03  0.12500000000E+03 0.  0.
        -13    1    3    3    0    0 -0.35175999673E+02  0.20390361679E+02  0.24599466837E+02  0.47521181962E+02  0.10566000000E+00 0. -1.
         23    2    1    0    0    0 -0.18163357091E+02 -0.21275138946E+02  0.51181652136E+01  0.96561738922E+02  0.92279113186E+02 0.  0.
         13    1    3    3    0    0  0.17012642581E+02 -0.41665500625E+02 -0.19481301623E+02  0.49040556960E+02  0.10566000000E+00 0.  1.
         22    1    1    0    0    0  0.18163357091E+02  0.21275138946E+02 -0.51181652136E+01  0.28438261078E+02  0.00000000000E+00 0.  1.
</event>
<event>
 5    1  0.1668518E-003  0.9118800E+02  0.7818608E-02  0.1130116E+00
         25   -1    0    0    0    0  0.00000000000E+00  0.00000000000E+00  0.99999998245E-14  0.12500000000E+03  0.12500000000E+03 0.  0.
        -13    1    3    3    0    0 -0.31454556443E+02  0.34804017269E+02 -0.13630991038E+02  0.48852060548E+02  0.10566000000E+00 0.  1.
         23    2    1    0    0    0 -0.19128599270E+01  0.20676466160E+02  0.20267284001E+02  0.95983830598E+02  0.91492937703E+02 0.  0.
         13    1    3    3    0    0  0.29541696516E+02 -0.14127551109E+02  0.33898275039E+02  0.47131770050E+02  0.10566000000E+00 0. -1.
         22    1    1    0    0    0  0.19128599270E+01 -0.20676466160E+02 -0.20267284001E+02  0.29016169402E+02  0.00000000000E+00 0. -1.
</event>
<event>
 5    1  0.1668518E-003  0.9118800E+02  0.7818608E-02  0.1130116E+00
         25   -1    0    0    0    0  0.00000000000E+00  0.00000000000E+00  0.99999998245E-14  0.12500000000E+03  0.12500000000E+03 0.  0.
        -13    1    3    3    0    0 -0.18964283305E+02 -0.54115368812E+02 -0.43235227666E+01  0.57504966708E+02  0.10566000000E+00 0.  1.
         23    2    1    0    0    0 -0.22454899131E+02 -0.32466505878E+02  0.10716732006E+02  0.84095906760E+02  0.73477729210E+02 0.  0.
         13    1    3    3    0    0 -0.34906158255E+01  0.21648862934E+02  0.15040254773E+02  0.26590940052E+02  0.10566000000E+00 0. -1.
         22    1    1    0    0    0  0.22454899131E+02  0.32466505878E+02 -0.10716732006E+02  0.40904093240E+02  0.00000000000E+00 0. -1.
</event>
<event>
 5    1  0.1668518E-003  0.9118800E+02  0.7818608E-02  0.1130116E+00
         25   -1    0    0    0    0  0.00000000000E+00  0.00000000000E+00  0.99999998245E-14  0.12500000000E+03  0.12500000000E+03 0.  0.
        -13    1    3    3    0    0  0.15131509951E+02 -0.34029212692E+02  0.27569039266E+02  0.46335871632E+02  0.10566000000E+00 0.  1.
         23    2    1    0    0    0 -0.15406256584E+02  0.55643701473E+01  0.23297788133E+02  0.96520149421E+02  0.92222759422E+02 0.  0.
         13    1    3    3    0    0 -0.30537766535E+02  0.39593582839E+02 -0.42712511330E+01  0.50184277789E+02  0.10566000000E+00 0. -1.
         22    1    1    0    0    0  0.15406256584E+02 -0.55643701473E+01 -0.23297788133E+02  0.28479850579E+02  0.00000000000E+00 0. -1.
</event>
<event>
 5    1  0.1668518E-003  0.9118800E+02  0.7818608E-02  0.1130116E+00
         25   -1    0    0    0    0  0.00000000000E+00  0.00000000000E+00  0.99999998245E-14  0.12500000000E+03  0.12500000000E+03 0.  0.
        -13    1    3    3    0    0  0.16394981878E+02 -0.37732218404E+02  0.45477688314E+02  0.61324929962E+02  0.10566000000E+00 0. -1.
         23    2    1    0    0    0  0.81454177015E+00 -0.22231375857E+02  0.18929733158E+02  0.95789858812E+02  0.91227543555E+02 0.  0.
         13    1    3    3    0    0 -0.15580440108E+02  0.15500842548E+02 -0.26547955156E+02  0.34464928850E+02  0.10566000000E+00 0.  1.
         22    1    1    0    0    0 -0.81454177015E+00  0.22231375857E+02 -0.18929733158E+02  0.29210141188E+02  0.00000000000E+00 0. -1.
</event>
<event>
 5    1  0.1668518E-003  0.9118800E+02  0.7818608E-02  0.1130116E+00
         25   -1    0    0    0    0  0.00000000000E+00  0.00000000000E+00  0.99999998245E-14  0.12500000000E+03  0.12500000000E+03 0.  0.
        -13    1    3    3    0    0  0.25886639889E+02 -0.47572827310E+02  0.22314507249E+02  0.58576790803E+02  0.10566000000E+00 0. -1.
         23    2    1    0    0    0  0.73474250200E+00 -0.28803763899E+02  0.16759499019E+01  0.96138165870E+02  0.91703552099E+02 0.  0.
         13    1    3    3    0    0 -0.25151897387E+02  0.18769063411E+02 -0.20638557347E+02  0.37561375067E+02  0.10566000000E+00 0.  1.
         22    1    1    0    0    0 -0.73474250200E+00  0.28803763899E+02 -0.16759499019E+01  0.28861834130E+02  0.00000000000E+00 0. -1.
</event>
<event>
 5    1  0.1668518E-003  0.9118800E+02  0.7818608E-02  0.1130116E+00
         25   -1    0    0    0    0  0.00000000000E+00  0.00000000000E+00  0.99999998245E-14  0.12500000000E+03  0.12500000000E+03 0.  0.
        -13    1    3    3    0    0 -0.26294037271E+02  0.79135079155E+01  0.58937616414E+01  0.28084650502E+02  0.10566000000E+00 0. -1.
         23    2    1    0    0    0  0.27971632898E+02  0.22428495177E+02 -0.12244020322E+02  0.87113779860E+02  0.78443896926E+02 0.  0.
         13    1    3    3    0    0  0.54265670169E+02  0.14514987261E+02 -0.18137781963E+02  0.59029129357E+02  0.10566000000E+00 0.  1.
         22    1    1    0    0    0 -0.27971632898E+02 -0.22428495177E+02  0.12244020322E+02  0.37886220140E+02  0.00000000000E+00 0.  1.
</event>
<event>
 5    1  0.1668518E-003  0.9118800E+02  0.7818608E-02  0.1130116E+00
         25   -1    0    0    0    0  0.00000000000E+00  0.00000000000E+00  0.99999998245E-14  0.12500000000E+03  0.12500000000E+03 0.  0.
        -13    1    3    3    0    0  0.19887329427E+02  0.23535118935E+02 -0.14770125580E+02  0.34169803463E+02  0.10566000000E+00 0. -1.
         23    2    1    0    0    0 -0.19039807387E+02 -0.22345457318E+02 -0.28875645349E+01  0.95501326182E+02  0.90831335702E+02 0.  0.
         13    1    3    3    0    0 -0.38927136814E+02 -0.45880576254E+02  0.11882561045E+02  0.61331522718E+02  0.10566000000E+00 0.  1.
         22    1    1    0    0    0  0.19039807387E+02  0.22345457318E+02  0.28875645349E+01  0.29498673818E+02  0.00000000000E+00 0.  1.
</event>
<event>
 5    1  0.1668518E-003  0.9118800E+02  0.7818608E-02  0.1130116E+00
         25   -1    0    0    0    0  0.00000000000E+00  0.00000000000E+00  0.99999998245E-14  0.12500000000E+03  0.12500000000E+03 0.  0.
        -13    1    3    3    0    0  0.30446316232E+02  0.43690494955E+02  0.37671477795E+01  0.53385766716E+02  0.10566000000E+00 0.  1.
         23    2    1    0    0    0  0.23160827193E+02  0.32547264507E+01  0.16473237902E+02  0.96392575658E+02  0.92049681772E+02 0.  0.
         13    1    3    3    0    0 -0.72854890391E+01 -0.40435768504E+02  0.12706090123E+02  0.43006808941E+02  0.10566000000E+00 0. -1.
         22    1    1    0    0    0 -0.23160827193E+02 -0.32547264507E+01 -0.16473237902E+02  0.28607424342E+02  0.00000000000E+00 0.  1.
</event>
<event>
 5    1  0.1668518E-003  0.9118800E+02  0.7818608E-02  0.1130116E+00
         25   -1    0    0    0    0  0.00000000000E+00  0.00000000000E+00  0.99999998245E-14  0.12500000000E+03  0.12500000000E+03 0.  0.
        -13    1    3    3    0    0  0.41254591955E+02  0.42862105005E+01 -0.46071267329E+02  0.61991013826E+02  0.10566000000E+00 0.  1.
         23    2    1    0    0    0  0.21194476192E+02 -0.33934459042E+01 -0.21688658384E+02  0.94485754169E+02  0.89422807729E+02 0.  0.
         13    1    3    3    0    0 -0.20060115763E+02 -0.76796564047E+01  0.24382608945E+02  0.32494740342E+02  0.10566000000E+00 0. -1.
         22    1    1    0    0    0 -0.21194476192E+02  0.33934459042E+01  0.21688658384E+02  0.30514245831E+02  0.00000000000E+00 0.  1.
</event>
<event>
 5    1  0.1668518E-003  0.9118800E+02  0.7818608E-02  0.1130116E+00
         25   -1    0    0    0    0  0.00000000000E+00  0.00000000000E+00  0.99999998245E-14  0.12500000000E+03  0.12500000000E+03 0.  0.
        -13    1    3    3    0    0  0.71701812623E+01  0.21979919809E+02  0.43485747194E+02  0.49249870529E+02  0.10566000000E+00 0. -1.
         23    2    1    0    0    0  0.97472097027E+01  0.27804081104E+02 -0.22725423900E+01  0.95449374423E+02  0.90759812725E+02 0.  0.
         13    1    3    3    0    0  0.25770284404E+01  0.58241612956E+01 -0.45758289584E+02  0.46199503894E+02  0.10566000000E+00 0.  1.
         22    1    1    0    0    0 -0.97472097027E+01 -0.27804081104E+02  0.22725423900E+01  0.29550625577E+02  0.00000000000E+00 0.  1.
</event>
<event>
 5    1  0.1668518E-003  0.9118800E+02  0.7818608E-02  0.1130116E+00
         25   -1    0    0    0    0  0.00000000000E+00  0.00000000000E+00  0.99999998245E-14  0.12500000000E+03  0.12500000000E+03 0.  0.
        -13    1    3    3    0    0 -0.28881824410E+02  0.17909900335E+02 -0.14424779836E+02  0.36918961911E+02  0.10566000000E+00 0.  1.
         23    2    1    0    0    0  0.26781842818E+02  0.97311225922E+01  0.42307254162E+01  0.96192693823E+02  0.91777848394E+02 0.  0.
         13    1    3    3    0    0  0.55663667227E+02 -0.81787777426E+01  0.18655505252E+02  0.59273731912E+02  0.10566000000E+00 0. -1.
         22    1    1    0    0    0 -0.26781842818E+02 -0.97311225922E+01 -0.42307254162E+01  0.28807306177E+02  0.00000000000E+00 0. -1.
</event>
<event>
 5    1  0.1668518E-003  0.9118800E+02  0.7818608E-02  0.1130116E+00
         25   -1    0    0    0    0  0.00000000000E+00  0.00000000000E+00  0.99999998245E-14  0.12500000000E+03  0.12500000000E+03 0.  0.
        -13    1    3    3    0    0  0.26961847855E+02  0.10488231901E+02  0.19731544533E+02  0.35018413183E+02  0.10566000000E+00 0.  1.
         23    2    1    0    0    0 -0.33937356310E+01 -0.31422043823E+02 -0.60301893059E+01  0.92825080224E+02  0.87070489008E+02 0.  0.
         13    1    3    3    0    0 -0.30355583486E+02 -0.41910275723E+02 -0.25761733839E+02  0.57806667041E+02  0.10566000000E+00 0. -1.
         22    1    1    0    0    0  0.33937356310E+01  0.31422043823E+02  0.60301893059E+01  0.32174919776E+02  0.00000000000E+00 0. -1.
</event>
<event>
 5    1  0.1668518E-003  0.9118800E+02  0.7818608E-02  0.1130116E+00
         25   -1    0    0    0    0  0.00000000000E+00  0.00000000000E+00  0.99999998245E-14  0.12500000000E+03  0.12500000000E+03 0.  0.
        -13    1    3    3    0    0 -0.20723392747E+02  0.57810596088E+02 -0.10895935581E+02  0.62371921593E+02  0.10566000000E+00 0.  1.
         23    2    1    0    0    0 -0.83082514602E+01  0.26588329383E+02 -0.75527350493E+01  0.96138085503E+02  0.91703442551E+02 0.  0.
         13    1    3    3    0    0  0.12415141286E+02 -0.31222266705E+02  0.33432005312E+01  0.33766163910E+02  0.10566000000E+00 0. -1.
         22    1    1    0    0    0  0.83082514602E+01 -0.26588329383E+02  0.75527350493E+01  0.28861914497E+02  0.00000000000E+00 0.  1.
</event>
<event>
 5    1  0.1668518E-003  0.9118800E+02  0.7818608E-02  0.1130116E+00
         25   -1    0    0    0    0  0.00000000000E+00  0.00000000000E+00  0.99999998245E-14  0.12500000000E+03  0.12500000000E+03 0.  0.
        -13    1    3    3    0    0  0.15008441307E+02 -0.12879976206E+02 -0.25216623908E+02  0.32047408365E+02  0.10566000000E+00 0.  1.
         23    2    1    0    0    0 -0.16168288600E+02  0.17343471146E+02  0.19443081434E+02  0.94336618528E+02  0.89214094357E+02 0.  0.
         13    1    3    3    0    0 -0.31176729907E+02  0.30223447352E+02  0.44659705342E+02  0.62289210163E+02  0.10566000000E+00 0. -1.
         22    1    1    0    0    0  0.16168288600E+02 -0.17343471146E+02 -0.19443081434E+02  0.30663381472E+02  0.00000000000E+00 0. -1.
</event>
<event>
 5    1  0.1668518E-003  0.9118800E+02  0.7818608E-02  0.1130116E+00
         25   -1    0    0    0    0  0.00000000000E+00  0.00000000000E+00  0.99999998245E-14  0.12500000000E+03  0.12500000000E+03 0.  0.
        -13    1    3    3    0    0 -0.17560161815E+02  0.62947311327E+01  0.29322852635E+02  0.34753759131E+02  0.10566000000E+00 0.  1.
         23    2    1    0    0    0  0.26643178534E+02  0.67674867228E+01 -0.11758520200E+02  0.95101494415E+02  0.90279419602E+02 0.  0.
         13    1    3    3    0    0  0.44203340349E+02  0.47275559011E+00 -0.41081372835E+02  0.60347735284E+02  0.10566000000E+00 0. -1.
         22    1    1    0    0    0 -0.26643178534E+02 -0.67674867228E+01  0.11758520200E+02  0.29898505585E+02  0.00000000000E+00 0. -1.
</event>
<event>
 5    1  0.1668518E-003  0.9118800E+02  0.7818608E-02  0.1130116E+00
         25   -1    0    0    0    0  0.00000000000E+00  0.00000000000E+00  0.99999998245E-14  0.12500000000E+03  0.12500000000E+03 0.  0.
        -13    1    3    3    0    0 -0.26507402356E+02 -0.28672960324E+02 -0.35214867776E+02  0.52582117777E+02  0.10566000000E+00 0.  1.
         23    2    1    0    0    0  0.12505471601E+02 -0.18691402355E+02 -0.17148838448E+02  0.96718592643E+02  0.92491341004E+02 0.  0.
         13    1    3    3    0    0  0.39012873957E+02  0.99815579691E+01  0.18066029327E+02  0.44136474866E+02  0.10566000000E+00 0. -1.
         22    1    1    0    0    0 -0.12505471601E+02  0.18691402355E+02  0.17148838448E+02  0.28281407357E+02  0.00000000000E+00 0.  1.
</event>
<event>
 5    1  0.1668518E-003  0.9118800E+02  0.7818608E-02  0.1130116E+00
         25   -1    0    0    0    0  0.00000000000E+00  0.00000000000E+00  0.99999998245E-14  0.12500000000E+03  0.12500000000E+03 0.  0.
        -13    1    3    3    0    0 -0.15015438353E+02  0.29045364198E+02 -0.34237814204E+02  0.47342746602E+02  0.10566000000E+00 0.  1.
         23    2    1    0    0    0  0.16799581750E+02  0.24173777103E+02  0.16080277381E+01  0.95518086908E+02  0.90854398501E+02 0.  0.
         13    1    3    3    0    0  0.31815020103E+02 -0.48715870955E+01  0.35845841942E+02  0.48175340305E+02  0.10566000000E+00 0. -1.
         22    1    1    0    0    0 -0.16799581750E+02 -0.24173777103E+02 -0.16080277381E+01  0.29481913092E+02  0.00000000000E+00 0.  1.
</event>
<event>
 5    1  0.1668518E-003  0.9118800E+02  0.7818608E-02  0.1130116E+00
         25   -1    0    0    0    0  0.00000000000E+00  0.00000000000E+00  0.99999998245E-14  0.12500000000E+03  0.12500000000E+03 0.  0.
        -13    1    3    3    0    0 -0.62062307454E+01 -0.30983698614E+02  0.39607592321E+02  0.50668327517E+02  0.10566000000E+00 0.  1.
         23    2    1    0    0    0  0.83181467793E+01 -0.27383338191E+02 -0.33763992685E+01  0.96182664100E+02  0.91764187051E+02 0.  0.
         13    1    3    3    0    0  0.14524377525E+02  0.36003604232E+01 -0.42983991589E+02  0.45514336583E+02  0.10566000000E+00 0. -1.
         22    1    1    0    0    0 -0.83181467793E+01  0.27383338191E+02  0.33763992685E+01  0.28817335900E+02  0.00000000000E+00 0. -1.
</event>
<event>
 5    1  0.1668518E-003  0.9118800E+02  0.7818608E-02  0.1130116E+00
         25   -1    0    0    0    0  0.00000000000E+00  0.00000000000E+00  0.99999998245E-14  0.12500000000E+03  0.12500000000E+03 0.  0.
        -13    1    3    3    0    0  0.15467103763E+02 -0.24137956304E+02 -0.22853818142E+02  0.36663065898E+02  0.10566000000E+00 0.  1.
         23    2    1    0    0    0 -0.26099671455E+02  0.45728589333E+01  0.97239193481E+01  0.96774860561E+02  0.92567354614E+02 0.  0.
         13    1    3    3    0    0 -0.41566775218E+02  0.28710815237E+02  0.32577737490E+02  0.60111794663E+02  0.10566000000E+00 0. -1.
         22    1    1    0    0    0  0.26099671455E+02 -0.45728589333E+01 -0.97239193481E+01  0.28225139439E+02  0.00000000000E+00 0. -1.
</event>
<event>
 5    1  0.1668518E-003  0.9118800E+02  0.7818608E-02  0.1130116E+00
         25   -1    0    0    0    0  0.00000000000E+00  0.00000000000E+00  0.99999998245E-14  0.12500000000E+03  0.12500000000E+03 0.  0.
        -13    1    3    3    0    0 -0.41528411912E+02  0.30254799039E+02  0.32550789778E+02  0.60823736650E+02  0.10566000000E+00 0.  1.
         23    2    1    0    0    0 -0.24045158773E+02  0.16069977773E+02  0.63107213059E+01  0.95398664736E+02  0.90689945330E+02 0.  0.
         13    1    3    3    0    0  0.17483253139E+02 -0.14184821266E+02 -0.26240068472E+02  0.34574928086E+02  0.10566000000E+00 0. -1.
         22    1    1    0    0    0  0.24045158773E+02 -0.16069977773E+02 -0.63107213059E+01  0.29601335264E+02  0.00000000000E+00 0.  1.
</event>
<event>
 5    1  0.1668518E-003  0.9118800E+02  0.7818608E-02  0.1130116E+00
         25   -1    0    0    0    0  0.00000000000E+00  0.00000000000E+00  0.99999998245E-14  0.12500000000E+03  0.12500000000E+03 0.  0.
        -13    1    3    3    0    0  0.25969580478E+02  0.42381035100E+02 -0.17711530308E+02  0.52766283896E+02  0.10566000000E+00 0.  1.
         23    2    1    0    0    0  0.29173320541E+02  0.24805686644E+01 -0.24020864094E+01  0.95623038425E+02  0.90998679145E+02 0.  0.
         13    1    3    3    0    0  0.32037400633E+01 -0.39900466436E+02  0.15309443899E+02  0.42856754528E+02  0.10566000000E+00 0. -1.
         22    1    1    0    0    0 -0.29173320541E+02 -0.24805686644E+01  0.24020864094E+01  0.29376961575E+02  0.00000000000E+00 0.  1.
</event>
<event>
 5    1  0.1668518E-003  0.9118800E+02  0.7818608E-02  0.1130116E+00
         25   -1    0    0    0    0  0.00000000000E+00  0.00000000000E+00  0.99999998245E-14  0.12500000000E+03  0.12500000000E+03 0.  0.
        -13    1    3    3    0    0  0.20883284533E+02  0.20819709653E+02 -0.16602973383E+02  0.33841420953E+02  0.10566000000E+00 0.  1.
         23    2    1    0    0    0 -0.68402233852E+01 -0.16466694825E+02  0.23694642483E+02  0.95345712337E+02  0.90616930450E+02 0.  0.
         13    1    3    3    0    0 -0.27723507918E+02 -0.37286404478E+02  0.40297615866E+02  0.61504291384E+02  0.10566000000E+00 0. -1.
         22    1    1    0    0    0  0.68402233852E+01  0.16466694825E+02 -0.23694642483E+02  0.29654287663E+02  0.00000000000E+00 0. -1.
</event>
<event>
 5    1  0.1668518E-003  0.9118800E+02  0.7818608E-02  0.1130116E+00
         25   -1    0    0    0    0  0.00000000000E+00  0.00000000000E+00  0.99999998245E-14  0.12500000000E+03  0.12500000000E+03 0.  0.
        -13    1    3    3    0    0  0.54740480764E+00 -0.35700819497E+02 -0.39425803759E+02  0.53190725985E+02  0.10566000000E+00 0.  1.
         23    2    1    0    0    0  0.12397258040E+02  0.31860909682E+01 -0.26029360605E+02  0.95993607668E+02  0.91506294412E+02 0.  0.
         13    1    3    3    0    0  0.11849853233E+02  0.38886910465E+02  0.13396443154E+02  0.42802881683E+02  0.10566000000E+00 0. -1.
         22    1    1    0    0    0 -0.12397258040E+02 -0.31860909682E+01  0.26029360605E+02  0.29006392332E+02  0.00000000000E+00 0.  1.
</event>
<event>
 5    1  0.1668518E-003  0.9118800E+02  0.7818608E-02  0.1130116E+00
         25   -1    0    0    0    0  0.00000000000E+00  0.00000000000E+00  0.99999998245E-14  0.12500000000E+03  0.12500000000E+03 0.  0.
        -13    1    3    3    0    0 -0.10758009878E+02  0.42945805711E+02 -0.22497144457E+02  0.49660947207E+02  0.10566000000E+00 0.  1.
         23    2    1    0    0    0 -0.22203433732E+02  0.27841138784E+01  0.78521014734E+01  0.10128504149E+03  0.98469591106E+02 0.  0.
         13    1    3    3    0    0 -0.11445423853E+02 -0.40161691833E+02  0.30349245930E+02  0.51624094284E+02  0.10566000000E+00 0. -1.
         22    1    1    0    0    0  0.22203433732E+02 -0.27841138784E+01 -0.78521014734E+01  0.23714958510E+02  0.00000000000E+00 0. -1.
</event>
<event>
 5    1  0.1668518E-003  0.9118800E+02  0.7818608E-02  0.1130116E+00
         25   -1    0    0    0    0  0.00000000000E+00  0.00000000000E+00  0.99999998245E-14  0.12500000000E+03  0.12500000000E+03 0.  0.
        -13    1    3    3    0    0  0.13956160035E+01 -0.42478008952E+02  0.92606537449E+01  0.43498274223E+02  0.10566000000E+00 0. -1.
         23    2    1    0    0    0  0.16402447734E+02  0.38596729250E+01  0.25145765924E+02  0.94730429295E+02  0.89764176172E+02 0.  0.
         13    1    3    3    0    0  0.15006831730E+02  0.46337681877E+02  0.15885112179E+02  0.51232155072E+02  0.10566000000E+00 0.  1.
         22    1    1    0    0    0 -0.16402447734E+02 -0.38596729250E+01 -0.25145765924E+02  0.30269570705E+02  0.00000000000E+00 0. -1.
</event>
<event>
 5    1  0.1668518E-003  0.9118800E+02  0.7818608E-02  0.1130116E+00
         25   -1    0    0    0    0  0.00000000000E+00  0.00000000000E+00  0.99999998245E-14  0.12500000000E+03  0.12500000000E+03 0.  0.
        -13    1    3    3    0    0 -0.20480406074E+02  0.24791293300E+02  0.15580816695E+02  0.35732733863E+02  0.10566000000E+00 0.  1.
         23    2    1    0    0    0  0.10638561425E+01 -0.10379065002E+02 -0.27628660247E+02  0.95466973619E+02  0.90784048184E+02 0.  0.
         13    1    3    3    0    0  0.21544262216E+02 -0.35170358301E+02 -0.43209476942E+02  0.59734239755E+02  0.10566000000E+00 0. -1.
         22    1    1    0    0    0 -0.10638561425E+01  0.10379065002E+02  0.27628660247E+02  0.29533026381E+02  0.00000000000E+00 0. -1.
</event>
<event>
 5    1  0.1668518E-003  0.9118800E+02  0.7818608E-02  0.1130116E+00
         25   -1    0    0    0    0  0.00000000000E+00  0.00000000000E+00  0.99999998245E-14  0.12500000000E+03  0.12500000000E+03 0.  0.
        -13    1    3    3    0    0 -0.70020760784E+01 -0.48921680737E+02 -0.27286570988E+02  0.56452883326E+02  0.10566000000E+00 0.  1.
         23    2    1    0    0    0 -0.12960127726E+02 -0.22452068660E+02  0.49707536715E+01  0.98603623547E+02  0.95004767706E+02 0.  0.
         13    1    3    3    0    0 -0.59580516477E+01  0.26469612077E+02  0.32257324660E+02  0.42150740221E+02  0.10566000000E+00 0. -1.
         22    1    1    0    0    0  0.12960127726E+02  0.22452068660E+02 -0.49707536715E+01  0.26396376453E+02  0.00000000000E+00 0.  1.
</event>
<event>
 5    1  0.1668518E-003  0.9118800E+02  0.7818608E-02  0.1130116E+00
         25   -1    0    0    0    0  0.00000000000E+00  0.00000000000E+00  0.99999998245E-14  0.12500000000E+03  0.12500000000E+03 0.  0.
        -13    1    3    3    0    0 -0.50448420868E+02  0.14233988593E+02 -0.33945913698E+02  0.62449866454E+02  0.10566000000E+00 0. -1.
         23    2    1    0    0    0 -0.28439056771E+02  0.71547617405E+01 -0.17134993845E+02  0.91035627789E+02  0.84462458804E+02 0.  0.
         13    1    3    3    0    0  0.22009364097E+02 -0.70792268529E+01  0.16810919853E+02  0.28585761335E+02  0.10566000000E+00 0.  1.
         22    1    1    0    0    0  0.28439056771E+02 -0.71547617405E+01  0.17134993845E+02  0.33964372211E+02  0.00000000000E+00 0. -1.
</event>
<event>
 5    1  0.1668518E-003  0.9118800E+02  0.7818608E-02  0.1130116E+00
         25   -1    0    0    0    0  0.00000000000E+00  0.00000000000E+00  0.99999998245E-14  0.12500000000E+03  0.12500000000E+03 0.  0.
        -13    1    3    3    0    0  0.73229520494E+01  0.31802907631E+02 -0.41330751838E+02  0.52662061980E+02  0.10566000000E+00 0. -1.
         23    2    1    0    0    0 -0.18416858426E+02  0.31243911874E+01 -0.23098770309E+02  0.95293171082E+02  0.90544424293E+02 0.  0.
         13    1    3    3    0    0 -0.25739810475E+02 -0.28678516444E+02  0.18231981529E+02  0.42631109102E+02  0.10566000000E+00 0.  1.
         22    1    1    0    0    0  0.18416858426E+02 -0.31243911874E+01  0.23098770309E+02  0.29706828918E+02  0.00000000000E+00 0. -1.
</event>
<event>
 5    1  0.1668518E-003  0.9118800E+02  0.7818608E-02  0.1130116E+00
         25   -1    0    0    0    0  0.00000000000E+00  0.00000000000E+00  0.99999998245E-14  0.12500000000E+03  0.12500000000E+03 0.  0.
        -13    1    3    3    0    0  0.76501216766E+01 -0.22494673763E+02 -0.34895135494E+02  0.42216304368E+02  0.10566000000E+00 0.  1.
         23    2    1    0    0    0  0.33903295974E+02  0.67115514424E+01 -0.89020736317E+01  0.89310711472E+02  0.81869883767E+02 0.  0.
         13    1    3    3    0    0  0.26253174298E+02  0.29206225206E+02  0.25993061862E+02  0.47094407104E+02  0.10566000000E+00 0. -1.
         22    1    1    0    0    0 -0.33903295974E+02 -0.67115514424E+01  0.89020736317E+01  0.35689288528E+02  0.00000000000E+00 0. -1.
</event>
<event>
 5    1  0.1668518E-003  0.9118800E+02  0.7818608E-02  0.1130116E+00
         25   -1    0    0    0    0  0.00000000000E+00  0.00000000000E+00  0.99999998245E-14  0.12500000000E+03  0.12500000000E+03 0.  0.
        -13    1    3    3    0    0  0.34234421133E+02 -0.99620080475E+01 -0.44793878164E+01  0.35934847626E+02  0.10566000000E+00 0. -1.
         23    2    1    0    0    0 -0.12927929453E+02  0.13491614162E+02  0.23017741994E+02  0.95352547173E+02  0.90626358159E+02 0.  0.
         13    1    3    3    0    0 -0.47162350586E+02  0.23453622209E+02  0.27497129811E+02  0.59417699547E+02  0.10566000000E+00 0.  1.
         22    1    1    0    0    0  0.12927929453E+02 -0.13491614162E+02 -0.23017741994E+02  0.29647452827E+02  0.00000000000E+00 0.  1.
</event>
<event>
 5    1  0.1668518E-003  0.9118800E+02  0.7818608E-02  0.1130116E+00
         25   -1    0    0    0    0  0.00000000000E+00  0.00000000000E+00  0.99999998245E-14  0.12500000000E+03  0.12500000000E+03 0.  0.
        -13    1    3    3    0    0 -0.42414103440E+02 -0.17553957599E+02 -0.19336010331E+00  0.45903661620E+02  0.10566000000E+00 0. -1.
         23    2    1    0    0    0  0.64193455156E+01 -0.28362735412E+02  0.68436182491E-01  0.95919810173E+02  0.91405429506E+02 0.  0.
         13    1    3    3    0    0  0.48833448955E+02 -0.10808777813E+02  0.26179628580E+00  0.50016148552E+02  0.10566000000E+00 0.  1.
         22    1    1    0    0    0 -0.64193455156E+01  0.28362735412E+02 -0.68436182491E-01  0.29080189827E+02  0.00000000000E+00 0.  1.
</event>
<event>
 5    1  0.1668518E-003  0.9118800E+02  0.7818608E-02  0.1130116E+00
         25   -1    0    0    0    0  0.00000000000E+00  0.00000000000E+00  0.99999998245E-14  0.12500000000E+03  0.12500000000E+03 0.  0.
        -13    1    3    3    0    0 -0.31150010473E+02 -0.17036333346E+02 -0.44314233815E+01  0.35780001168E+02  0.10566000000E+00 0. -1.
         23    2    1    0    0    0  0.25756341135E+02 -0.27504465452E+01 -0.14507655754E+02  0.95311178192E+02  0.90569280378E+02 0.  0.
         13    1    3    3    0    0  0.56906351608E+02  0.14285886801E+02 -0.10076232372E+02  0.59531177024E+02  0.10566000000E+00 0.  1.
         22    1    1    0    0    0 -0.25756341135E+02  0.27504465452E+01  0.14507655754E+02  0.29688821808E+02  0.00000000000E+00 0.  1.
</event>
<event>
 5    1  0.1668518E-003  0.9118800E+02  0.7818608E-02  0.1130116E+00
         25   -1    0    0    0    0  0.00000000000E+00  0.00000000000E+00  0.99999998245E-14  0.12500000000E+03  0.12500000000E+03 0.  0.
        -13    1    3    3    0    0  0.13183725103E+02 -0.29242847336E+02 -0.35510147540E+02  0.47853280664E+02  0.10566000000E+00 0. -1.
         23    2    1    0    0    0  0.30701251883E+02 -0.26391435550E+01 -0.19491284528E+01  0.94123940542E+02  0.88915606816E+02 0.  0.
         13    1    3    3    0    0  0.17517526780E+02  0.26603703781E+02  0.33561019088E+02  0.46270659878E+02  0.10566000000E+00 0.  1.
         22    1    1    0    0    0 -0.30701251883E+02  0.26391435550E+01  0.19491284528E+01  0.30876059458E+02  0.00000000000E+00 0. -1.
</event>
<event>
 5    1  0.1668518E-003  0.9118800E+02  0.7818608E-02  0.1130116E+00
         25   -1    0    0    0    0  0.00000000000E+00  0.00000000000E+00  0.99999998245E-14  0.12500000000E+03  0.12500000000E+03 0.  0.
        -13    1    3    3    0    0 -0.68834544379E+01  0.42783752441E+01 -0.46053384838E+02  0.46761221742E+02  0.10566000000E+00 0. -1.
         23    2    1    0    0    0 -0.27153192421E+02  0.15553956573E+02 -0.58654737621E+01  0.93162518846E+02  0.87553581946E+02 0.  0.
         13    1    3    3    0    0 -0.20269737984E+02  0.11275581329E+02  0.40187911076E+02  0.46401297104E+02  0.10566000000E+00 0.  1.
         22    1    1    0    0    0  0.27153192421E+02 -0.15553956573E+02  0.58654737621E+01  0.31837481154E+02  0.00000000000E+00 0. -1.
</event>
<event>
 5    1  0.1668518E-003  0.9118800E+02  0.7818608E-02  0.1130116E+00
         25   -1    0    0    0    0  0.00000000000E+00  0.00000000000E+00  0.99999998245E-14  0.12500000000E+03  0.12500000000E+03 0.  0.
        -13    1    3    3    0    0 -0.10236701153E+02 -0.34548498277E+02  0.29935433412E+01  0.36157450815E+02  0.10566000000E+00 0.  1.
         23    2    1    0    0    0  0.62592745444E+01  0.19971107995E+02  0.20455722857E+02  0.95734657528E+02  0.91151875363E+02 0.  0.
         13    1    3    3    0    0  0.16495975697E+02  0.54519606272E+02  0.17462179516E+02  0.59577206713E+02  0.10566000000E+00 0. -1.
         22    1    1    0    0    0 -0.62592745444E+01 -0.19971107995E+02 -0.20455722857E+02  0.29265342472E+02  0.00000000000E+00 0. -1.
</event>
<event>
 5    1  0.1668518E-003  0.9118800E+02  0.7818608E-02  0.1130116E+00
         25   -1    0    0    0    0  0.00000000000E+00  0.00000000000E+00  0.99999998245E-14  0.12500000000E+03  0.12500000000E+03 0.  0.
        -13    1    3    3    0    0 -0.22233380489E+02  0.12300814908E+02  0.40395921928E+02  0.47722897312E+02  0.10566000000E+00 0.  1.
         23    2    1    0    0    0 -0.17945268518E+02  0.23559205579E+02 -0.52420241120E+01  0.94924301397E+02  0.90033745614E+02 0.  0.
         13    1    3    3    0    0  0.42881119716E+01  0.11258390671E+02 -0.45637946040E+02  0.47201404085E+02  0.10566000000E+00 0. -1.
         22    1    1    0    0    0  0.17945268518E+02 -0.23559205579E+02  0.52420241120E+01  0.30075698603E+02  0.00000000000E+00 0.  1.
</event>
<event>
 5    1  0.1668518E-003  0.9118800E+02  0.7818608E-02  0.1130116E+00
         25   -1    0    0    0    0  0.00000000000E+00  0.00000000000E+00  0.99999998245E-14  0.12500000000E+03  0.12500000000E+03 0.  0.
        -13    1    3    3    0    0  0.11183443908E+02 -0.13036402585E+02  0.33596505411E+02  0.37732658929E+02  0.10566000000E+00 0. -1.
         23    2    1    0    0    0  0.18502560986E+02  0.10058420470E+02 -0.19627897944E+02  0.96211617567E+02  0.91803618620E+02 0.  0.
         13    1    3    3    0    0  0.73191170784E+01  0.23094823055E+02 -0.53224403355E+02  0.58478958638E+02  0.10566000000E+00 0.  1.
         22    1    1    0    0    0 -0.18502560986E+02 -0.10058420470E+02  0.19627897944E+02  0.28788382433E+02  0.00000000000E+00 0.  1.
</event>
<event>
 5    1  0.1668518E-003  0.9118800E+02  0.7818608E-02  0.1130116E+00
         25   -1    0    0    0    0  0.00000000000E+00  0.00000000000E+00  0.99999998245E-14  0.12500000000E+03  0.12500000000E+03 0.  0.
        -13    1    3    3    0    0  0.13719212394E+02  0.23285578579E+02  0.20462018503E+02  0.33898972311E+02  0.10566000000E+00 0. -1.
         23    2    1    0    0    0 -0.15919867798E+01 -0.16649338222E+02 -0.24100112891E+02  0.95664861914E+02  0.91056111704E+02 0.  0.
         13    1    3    3    0    0 -0.15311199173E+02 -0.39934916801E+02 -0.44562131395E+02  0.61765889603E+02  0.10566000000E+00 0.  1.
         22    1    1    0    0    0  0.15919867798E+01  0.16649338222E+02  0.24100112891E+02  0.29335138086E+02  0.00000000000E+00 0.  1.
</event>
<event>
 5    1  0.1668518E-003  0.9118800E+02  0.7818608E-02  0.1130116E+00
         25   -1    0    0    0    0  0.00000000000E+00  0.00000000000E+00  0.99999998245E-14  0.12500000000E+03  0.12500000000E+03 0.  0.
        -13    1    3    3    0    0  0.72059797385E+01 -0.42280310592E+02 -0.32855261781E+02  0.54028050108E+02  0.10566000000E+00 0. -1.
         23    2    1    0    0    0  0.12946524878E+02  0.12523379313E-01 -0.24166243845E+02  0.97584310973E+02  0.93654032178E+02 0.  0.
         13    1    3    3    0    0  0.57405451391E+01  0.42292833971E+02  0.86890179362E+01  0.43556260865E+02  0.10566000000E+00 0.  1.
         22    1    1    0    0    0 -0.12946524878E+02 -0.12523379313E-01  0.24166243845E+02  0.27415689027E+02  0.00000000000E+00 0. -1.
</event>
<event>
 5    1  0.1668518E-003  0.9118800E+02  0.7818608E-02  0.1130116E+00
         25   -1    0    0    0    0  0.00000000000E+00  0.00000000000E+00  0.99999998245E-14  0.12500000000E+03  0.12500000000E+03 0.  0.
        -13    1    3    3    0    0 -0.20911261536E+02 -0.13088596064E+02  0.42395552239E+02  0.49050853404E+02  0.10566000000E+00 0. -1.
         23    2    1    0    0    0 -0.27831058215E+02  0.79321143168E+01  0.93802170494E+00  0.96045447273E+02  0.91577081294E+02 0.  0.
         13    1    3    3    0    0 -0.69197966782E+01  0.21020710380E+02 -0.41457530534E+02  0.46994593870E+02  0.10566000000E+00 0.  1.
         22    1    1    0    0    0  0.27831058215E+02 -0.79321143168E+01 -0.93802170494E+00  0.28954552727E+02  0.00000000000E+00 0.  1.
</event>
<event>
 5    1  0.1668518E-003  0.9118800E+02  0.7818608E-02  0.1130116E+00
         25   -1    0    0    0    0  0.00000000000E+00  0.00000000000E+00  0.99999998245E-14  0.12500000000E+03  0.12500000000E+03 0.  0.
        -13    1    3    3    0    0 -0.19244449756E+02  0.22662266890E+02 -0.29740845062E+02  0.42053016730E+02  0.10566000000E+00 0.  1.
         23    2    1    0    0    0 -0.10751861182E+02 -0.25906739719E+02 -0.90197796142E+01  0.95536155953E+02  0.90879254993E+02 0.  0.
         13    1    3    3    0    0  0.84925885740E+01 -0.48569006610E+02  0.20721065448E+02  0.53483139222E+02  0.10566000000E+00 0. -1.
         22    1    1    0    0    0  0.10751861182E+02  0.25906739719E+02  0.90197796142E+01  0.29463844047E+02  0.00000000000E+00 0. -1.
</event>
<event>
 5    1  0.1668518E-003  0.9118800E+02  0.7818608E-02  0.1130116E+00
         25   -1    0    0    0    0  0.00000000000E+00  0.00000000000E+00  0.99999998245E-14  0.12500000000E+03  0.12500000000E+03 0.  0.
        -13    1    3    3    0    0  0.28614685122E+02  0.17515317145E+02 -0.21656032730E+02  0.39932210770E+02  0.10566000000E+00 0.  1.
         23    2    1    0    0    0  0.71347389616E+01 -0.12567357394E+02  0.22959463562E+02  0.97871049799E+02  0.94035963598E+02 0.  0.
         13    1    3    3    0    0 -0.21479946161E+02 -0.30082674539E+02  0.44615496293E+02  0.57938839029E+02  0.10566000000E+00 0. -1.
         22    1    1    0    0    0 -0.71347389616E+01  0.12567357394E+02 -0.22959463562E+02  0.27128950201E+02  0.00000000000E+00 0. -1.
</event>
<event>
 5    1  0.1668518E-003  0.9118800E+02  0.7818608E-02  0.1130116E+00
         25   -1    0    0    0    0  0.00000000000E+00  0.00000000000E+00  0.99999998245E-14  0.12500000000E+03  0.12500000000E+03 0.  0.
        -13    1    3    3    0    0  0.56547441006E+01  0.31924382253E+02  0.18760035694E+02  0.37457875225E+02  0.10566000000E+00 0. -1.
         23    2    1    0    0    0 -0.18883004475E+02 -0.34083105324E+01 -0.21364422522E+02  0.96283750447E+02  0.91901782419E+02 0.  0.
         13    1    3    3    0    0 -0.24537748575E+02 -0.35332692785E+02 -0.40124458215E+02  0.58825875223E+02  0.10566000000E+00 0.  1.
         22    1    1    0    0    0  0.18883004475E+02  0.34083105324E+01  0.21364422522E+02  0.28716249553E+02  0.00000000000E+00 0.  1.
</event>
<event>
 5    1  0.1668518E-003  0.9118800E+02  0.7818608E-02  0.1130116E+00
         25   -1    0    0    0    0  0.00000000000E+00  0.00000000000E+00  0.99999998245E-14  0.12500000000E+03  0.12500000000E+03 0.  0.
        -13    1    3    3    0    0 -0.34448616247E+01 -0.31622194850E+01 -0.37397820578E+02  0.37689187465E+02  0.10566000000E+00 0.  1.
         23    2    1    0    0    0 -0.16384131219E+02 -0.34888634263E+00  0.21448726908E+02  0.98007234980E+02  0.94216817740E+02 0.  0.
         13    1    3    3    0    0 -0.12939269594E+02  0.28133331424E+01  0.58846547486E+02  0.60318047515E+02  0.10566000000E+00 0. -1.
         22    1    1    0    0    0  0.16384131219E+02  0.34888634263E+00 -0.21448726908E+02  0.26992765020E+02  0.00000000000E+00 0. -1.
</event>
<event>
 5    1  0.1668518E-003  0.9118800E+02  0.7818608E-02  0.1130116E+00
         25   -1    0    0    0    0  0.00000000000E+00  0.00000000000E+00  0.99999998245E-14  0.12500000000E+03  0.12500000000E+03 0.  0.
        -13    1    3    3    0    0  0.48233862636E+02 -0.26099544385E+02  0.25552769364E+02  0.60503280144E+02  0.10566000000E+00 0. -1.
         23    2    1    0    0    0  0.14167910594E+02 -0.13288743874E+02  0.19641649384E+02  0.97375467518E+02  0.93374872848E+02 0.  0.
         13    1    3    3    0    0 -0.34065952042E+02  0.12810800511E+02 -0.59111199806E+01  0.36872187374E+02  0.10566000000E+00 0.  1.
         22    1    1    0    0    0 -0.14167910594E+02  0.13288743874E+02 -0.19641649384E+02  0.27624532482E+02  0.00000000000E+00 0. -1.
</event>
<event>
 5    1  0.1668518E-003  0.9118800E+02  0.7818608E-02  0.1130116E+00
         25   -1    0    0    0    0  0.00000000000E+00  0.00000000000E+00  0.99999998245E-14  0.12500000000E+03  0.12500000000E+03 0.  0.
        -13    1    3    3    0    0  0.45269057941E+02 -0.24700357428E+01 -0.38792616797E+02  0.59667972694E+02  0.10566000000E+00 0. -1.
         23    2    1    0    0    0  0.24736931214E+02 -0.12290772845E+02 -0.11833817251E+02  0.94949740538E+02  0.90069057586E+02 0.  0.
         13    1    3    3    0    0 -0.20532126727E+02 -0.98207371026E+01  0.26958799546E+02  0.35281767844E+02  0.10566000000E+00 0.  1.
         22    1    1    0    0    0 -0.24736931214E+02  0.12290772845E+02  0.11833817251E+02  0.30050259462E+02  0.00000000000E+00 0. -1.
</event>
<event>
 5    1  0.1668518E-003  0.9118800E+02  0.7818608E-02  0.1130116E+00
         25   -1    0    0    0    0  0.00000000000E+00  0.00000000000E+00  0.99999998245E-14  0.12500000000E+03  0.12500000000E+03 0.  0.
        -13    1    3    3    0    0 -0.85113378087E+01  0.43204014735E+02  0.37983325795E+02  0.58153021960E+02  0.10566000000E+00 0. -1.
         23    2    1    0    0    0 -0.17520026381E+02  0.11020204431E+02  0.20490212419E+02  0.95875353478E+02  0.91344613248E+02 0.  0.
         13    1    3    3    0    0 -0.90086885724E+01 -0.32183810304E+02 -0.17493113377E+02  0.37722331518E+02  0.10566000000E+00 0.  1.
         22    1    1    0    0    0  0.17520026381E+02 -0.11020204431E+02 -0.20490212419E+02  0.29124646522E+02  0.00000000000E+00 0. -1.
</event>
<event>
 5    1  0.1668518E-003  0.9118800E+02  0.7818608E-02  0.1130116E+00
         25   -1    0    0    0    0  0.00000000000E+00  0.00000000000E+00  0.99999998245E-14  0.12500000000E+03  0.12500000000E+03 0.  0.
        -13    1    3    3    0    0  0.24215979020E+02 -0.12997662928E+02  0.45497214677E+02  0.53154121090E+02  0.10566000000E+00 0.  1.
         23    2    1    0    0    0  0.16161265449E+02 -0.24449147957E+02  0.59664858734E+01  0.95091033277E+02  0.90264934052E+02 0.  0.
         13    1    3    3    0    0 -0.80547135704E+01 -0.11451485029E+02 -0.39530728803E+02  0.41936912187E+02  0.10566000000E+00 0. -1.
         22    1    1    0    0    0 -0.16161265449E+02  0.24449147957E+02 -0.59664858734E+01  0.29908966723E+02  0.00000000000E+00 0.  1.
</event>
<event>
 5    1  0.1668518E-003  0.9118800E+02  0.7818608E-02  0.1130116E+00
         25   -1    0    0    0    0  0.00000000000E+00  0.00000000000E+00  0.99999998245E-14  0.12500000000E+03  0.12500000000E+03 0.  0.
        -13    1    3    3    0    0 -0.18639494989E+02  0.34795394790E+02 -0.16960315599E+02  0.42962934505E+02  0.10566000000E+00 0.  1.
         23    2    1    0    0    0  0.23444365580E+02  0.53941038300E+01  0.74609317061E+01  0.99812698924E+02  0.96582476314E+02 0.  0.
         13    1    3    3    0    0  0.42083860569E+02 -0.29401290960E+02  0.24421247305E+02  0.56849764419E+02  0.10566000000E+00 0. -1.
         22    1    1    0    0    0 -0.23444365580E+02 -0.53941038300E+01 -0.74609317061E+01  0.25187301076E+02  0.00000000000E+00 0. -1.
</event>
<event>
 5    1  0.1668518E-003  0.9118800E+02  0.7818608E-02  0.1130116E+00
         25   -1    0    0    0    0  0.00000000000E+00  0.00000000000E+00  0.99999998245E-14  0.12500000000E+03  0.12500000000E+03 0.  0.
        -13    1    3    3    0    0  0.14671256178E+02  0.24013782667E+02  0.54825820682E+02  0.61626206222E+02  0.10566000000E+00 0.  1.
         23    2    1    0    0    0  0.58762905651E+01  0.17368059654E+02  0.21418337323E+02  0.96805577491E+02  0.92608824486E+02 0.  0.
         13    1    3    3    0    0 -0.87949656131E+01 -0.66457230123E+01 -0.33407483359E+02  0.35179371269E+02  0.10566000000E+00 0. -1.
         22    1    1    0    0    0 -0.58762905651E+01 -0.17368059654E+02 -0.21418337323E+02  0.28194422509E+02  0.00000000000E+00 0.  1.
</event>
<event>
 5    1  0.1668518E-003  0.9118800E+02  0.7818608E-02  0.1130116E+00
         25   -1    0    0    0    0  0.00000000000E+00  0.00000000000E+00  0.99999998245E-14  0.12500000000E+03  0.12500000000E+03 0.  0.
        -13    1    3    3    0    0 -0.36620936223E+02 -0.85077428720E+01  0.45106954370E+02  0.58720721685E+02  0.10566000000E+00 0. -1.
         23    2    1    0    0    0 -0.26068448074E+02  0.62072763803E+00  0.90252404625E+01  0.97406445441E+02  0.93416333477E+02 0.  0.
         13    1    3    3    0    0  0.10552488149E+02  0.91284705100E+01 -0.36081713908E+02  0.38685723756E+02  0.10566000000E+00 0.  1.
         22    1    1    0    0    0  0.26068448074E+02 -0.62072763803E+00 -0.90252404625E+01  0.27593554559E+02  0.00000000000E+00 0. -1.
</event>
<event>
 5    1  0.1668518E-003  0.9118800E+02  0.7818608E-02  0.1130116E+00
         25   -1    0    0    0    0  0.00000000000E+00  0.00000000000E+00  0.99999998245E-14  0.12500000000E+03  0.12500000000E+03 0.  0.
        -13    1    3    3    0    0 -0.66590158364E+00 -0.17865129060E+02  0.56365079912E+02  0.59132390944E+02  0.10566000000E+00 0.  1.
         23    2    1    0    0    0  0.10801454707E+02 -0.17296686685E+02  0.23820801664E+02  0.93642745880E+02  0.88236537047E+02 0.  0.
         13    1    3    3    0    0  0.11467356291E+02  0.56844237478E+00 -0.32544278249E+02  0.34510354936E+02  0.10566000000E+00 0. -1.
         22    1    1    0    0    0 -0.10801454707E+02  0.17296686685E+02 -0.23820801664E+02  0.31357254120E+02  0.00000000000E+00 0.  1.
</event>
<event>
 5    1  0.1668518E-003  0.9118800E+02  0.7818608E-02  0.1130116E+00
         25   -1    0    0    0    0  0.00000000000E+00  0.00000000000E+00  0.99999998245E-14  0.12500000000E+03  0.12500000000E+03 0.  0.
        -13    1    3    3    0    0  0.26239112561E+02 -0.36635923233E+02 -0.40779883864E+02  0.60775751670E+02  0.10566000000E+00 0. -1.
         23    2    1    0    0    0  0.80416432650E+01 -0.99603627279E+01 -0.25429293697E+02  0.96530264666E+02  0.92236468744E+02 0.  0.
         13    1    3    3    0    0 -0.18197469296E+02  0.26675560505E+02  0.15350590167E+02  0.35754512995E+02  0.10566000000E+00 0.  1.
         22    1    1    0    0    0 -0.80416432650E+01  0.99603627279E+01  0.25429293697E+02  0.28469735334E+02  0.00000000000E+00 0. -1.
</event>
<event>
 5    1  0.1668518E-003  0.9118800E+02  0.7818608E-02  0.1130116E+00
         25   -1    0    0    0    0  0.00000000000E+00  0.00000000000E+00  0.99999998245E-14  0.12500000000E+03  0.12500000000E+03 0.  0.
        -13    1    3    3    0    0 -0.49924166084E+01  0.25349746697E+02  0.30243872759E+02  0.39777341348E+02  0.10566000000E+00 0. -1.
         23    2    1    0    0    0  0.28476143353E+02 -0.85641844284E+01  0.19333893895E+01  0.95201107576E+02  0.90417237814E+02 0.  0.
         13    1    3    3    0    0  0.33468559961E+02 -0.33913931125E+02 -0.28310483370E+02  0.55423766228E+02  0.10566000000E+00 0.  1.
         22    1    1    0    0    0 -0.28476143353E+02  0.85641844284E+01 -0.19333893895E+01  0.29798892424E+02  0.00000000000E+00 0.  1.
</event>
<event>
 5    1  0.1668518E-003  0.9118800E+02  0.7818608E-02  0.1130116E+00
         25   -1    0    0    0    0  0.00000000000E+00  0.00000000000E+00  0.99999998245E-14  0.12500000000E+03  0.12500000000E+03 0.  0.
        -13    1    3    3    0    0  0.72046648657E+01  0.10335498431E+02 -0.51061352494E+02  0.52592799946E+02  0.10566000000E+00 0.  1.
         23    2    1    0    0    0  0.21425632107E+02 -0.11912734527E+02 -0.19992547075E+02  0.93366585805E+02  0.87844444623E+02 0.  0.
         13    1    3    3    0    0  0.14220967241E+02 -0.22248232958E+02  0.31068805419E+02  0.40773785858E+02  0.10566000000E+00 0. -1.
         22    1    1    0    0    0 -0.21425632107E+02  0.11912734527E+02  0.19992547075E+02  0.31633414195E+02  0.00000000000E+00 0. -1.
</event>
<event>
 5    1  0.1668518E-003  0.9118800E+02  0.7818608E-02  0.1130116E+00
         25   -1    0    0    0    0  0.00000000000E+00  0.00000000000E+00  0.99999998245E-14  0.12500000000E+03  0.12500000000E+03 0.  0.
        -13    1    3    3    0    0 -0.44705643182E+01  0.38603145167E+02 -0.27784850351E+02  0.47772354298E+02  0.10566000000E+00 0. -1.
         23    2    1    0    0    0  0.16895388604E+02  0.16134026397E+02  0.12418177925E+02  0.98543014026E+02  0.94924988841E+02 0.  0.
         13    1    3    3    0    0  0.21365952923E+02 -0.22469118770E+02  0.40203028276E+02  0.50770659728E+02  0.10566000000E+00 0.  1.
         22    1    1    0    0    0 -0.16895388604E+02 -0.16134026397E+02 -0.12418177925E+02  0.26456985974E+02  0.00000000000E+00 0. -1.
</event>
<event>
 5    1  0.1668518E-003  0.9118800E+02  0.7818608E-02  0.1130116E+00
         25   -1    0    0    0    0  0.00000000000E+00  0.00000000000E+00  0.99999998245E-14  0.12500000000E+03  0.12500000000E+03 0.  0.
        -13    1    3    3    0    0  0.14251743812E+02  0.38332555661E+01 -0.33389630075E+02  0.36505953083E+02  0.10566000000E+00 0.  1.
         23    2    1    0    0    0  0.41796620403E+01 -0.23357685156E+02  0.17799500741E+02  0.95337342377E+02  0.90605383915E+02 0.  0.
         13    1    3    3    0    0 -0.10072081771E+02 -0.27190940722E+02  0.51189130816E+02  0.58831389294E+02  0.10566000000E+00 0. -1.
         22    1    1    0    0    0 -0.41796620403E+01  0.23357685156E+02 -0.17799500741E+02  0.29662657623E+02  0.00000000000E+00 0. -1.
</event>
<event>
 5    1  0.1668518E-003  0.9118800E+02  0.7818608E-02  0.1130116E+00
         25   -1    0    0    0    0  0.00000000000E+00  0.00000000000E+00  0.99999998245E-14  0.12500000000E+03  0.12500000000E+03 0.  0.
        -13    1    3    3    0    0  0.30514315669E+02  0.68381841197E+01  0.50815615398E+02  0.59666759214E+02  0.10566000000E+00 0. -1.
         23    2    1    0    0    0  0.33529347973E+01 -0.13987104338E+01  0.29790232695E+02  0.94989059884E+02  0.90123609398E+02 0.  0.
         13    1    3    3    0    0 -0.27161380872E+02 -0.82368945535E+01 -0.21025382702E+02  0.35322300670E+02  0.10566000000E+00 0.  1.
         22    1    1    0    0    0 -0.33529347973E+01  0.13987104338E+01 -0.29790232695E+02  0.30010940116E+02  0.00000000000E+00 0. -1.
</event>
<event>
 5    1  0.1668518E-003  0.9118800E+02  0.7818608E-02  0.1130116E+00
         25   -1    0    0    0    0  0.00000000000E+00  0.00000000000E+00  0.99999998245E-14  0.12500000000E+03  0.12500000000E+03 0.  0.
        -13    1    3    3    0    0 -0.89139136347E+01  0.30775952889E+02  0.12201819523E+02  0.34285750629E+02  0.10566000000E+00 0.  1.
         23    2    1    0    0    0  0.13417720184E+02 -0.19302907124E+02 -0.16599201421E+02  0.96222040966E+02  0.91817810045E+02 0.  0.
         13    1    3    3    0    0  0.22331633819E+02 -0.50078860013E+02 -0.28801020944E+02  0.61936290336E+02  0.10566000000E+00 0. -1.
         22    1    1    0    0    0 -0.13417720184E+02  0.19302907124E+02  0.16599201421E+02  0.28777959034E+02  0.00000000000E+00 0. -1.
</event>
<event>
 5    1  0.1668518E-003  0.9118800E+02  0.7818608E-02  0.1130116E+00
         25   -1    0    0    0    0  0.00000000000E+00  0.00000000000E+00  0.99999998245E-14  0.12500000000E+03  0.12500000000E+03 0.  0.
        -13    1    3    3    0    0  0.38019684132E+02 -0.20340468019E+02  0.23237586612E+02  0.48981911114E+02  0.10566000000E+00 0. -1.
         23    2    1    0    0    0  0.90835248927E+00  0.46210989695E+01  0.30365442609E+02  0.94271515417E+02  0.89122830152E+02 0.  0.
         13    1    3    3    0    0 -0.37111331643E+02  0.24961566989E+02  0.71278559966E+01  0.45289604304E+02  0.10566000000E+00 0.  1.
         22    1    1    0    0    0 -0.90835248927E+00 -0.46210989695E+01 -0.30365442609E+02  0.30728484583E+02  0.00000000000E+00 0.  1.
</event>
<event>
 5    1  0.1668518E-003  0.9118800E+02  0.7818608E-02  0.1130116E+00
         25   -1    0    0    0    0  0.00000000000E+00  0.00000000000E+00  0.99999998245E-14  0.12500000000E+03  0.12500000000E+03 0.  0.
        -13    1    3    3    0    0 -0.23862516864E+02 -0.10728904013E+02 -0.25507392131E+02  0.36539941294E+02  0.10566000000E+00 0. -1.
         23    2    1    0    0    0  0.26137771608E+02 -0.17151494741E+02  0.14449802105E+01  0.93703916470E+02  0.88323151651E+02 0.  0.
         13    1    3    3    0    0  0.50000288473E+02 -0.64225907277E+01  0.26952372342E+02  0.57163975176E+02  0.10566000000E+00 0.  1.
         22    1    1    0    0    0 -0.26137771608E+02  0.17151494741E+02 -0.14449802105E+01  0.31296083530E+02  0.00000000000E+00 0.  1.
</event>
<event>
 5    1  0.1668518E-003  0.9118800E+02  0.7818608E-02  0.1130116E+00
         25   -1    0    0    0    0  0.00000000000E+00  0.00000000000E+00  0.99999998245E-14  0.12500000000E+03  0.12500000000E+03 0.  0.
        -13    1    3    3    0    0 -0.25944923166E+02 -0.33180399178E+02  0.14191517719E+02  0.44446465179E+02  0.10566000000E+00 0.  1.
         23    2    1    0    0    0  0.60676632552E+01 -0.16643436708E+02 -0.22826978597E+02  0.96105511344E+02  0.91659030302E+02 0.  0.
         13    1    3    3    0    0  0.32012586421E+02  0.16536962470E+02 -0.37018496316E+02  0.51659046165E+02  0.10566000000E+00 0. -1.
         22    1    1    0    0    0 -0.60676632552E+01  0.16643436708E+02  0.22826978597E+02  0.28894488656E+02  0.00000000000E+00 0. -1.
</event>
<event>
 5    1  0.1668518E-003  0.9118800E+02  0.7818608E-02  0.1130116E+00
         25   -1    0    0    0    0  0.00000000000E+00  0.00000000000E+00  0.99999998245E-14  0.12500000000E+03  0.12500000000E+03 0.  0.
        -13    1    3    3    0    0 -0.34694544067E+02  0.69483715058E+01 -0.88602209244E+01  0.36476100853E+02  0.10566000000E+00 0. -1.
         23    2    1    0    0    0  0.11197835021E+02 -0.12524361582E+02  0.23648111867E+02  0.95991650562E+02  0.91503620915E+02 0.  0.
         13    1    3    3    0    0  0.45892379088E+02 -0.19472733088E+02  0.32508332792E+02  0.59515549709E+02  0.10566000000E+00 0.  1.
         22    1    1    0    0    0 -0.11197835021E+02  0.12524361582E+02 -0.23648111867E+02  0.29008349438E+02  0.00000000000E+00 0.  1.
</event>
<event>
 5    1  0.1668518E-003  0.9118800E+02  0.7818608E-02  0.1130116E+00
         25   -1    0    0    0    0  0.00000000000E+00  0.00000000000E+00  0.99999998245E-14  0.12500000000E+03  0.12500000000E+03 0.  0.
        -13    1    3    3    0    0  0.27978836653E+01 -0.41908620590E+02 -0.17733406063E+02  0.45592164759E+02  0.10566000000E+00 0.  1.
         23    2    1    0    0    0  0.29237485639E+02 -0.17557094003E+01 -0.55402706234E+01  0.95190476680E+02  0.90402539621E+02 0.  0.
         13    1    3    3    0    0  0.26439601974E+02  0.40152911190E+02  0.12193135439E+02  0.49598311921E+02  0.10566000000E+00 0. -1.
         22    1    1    0    0    0 -0.29237485639E+02  0.17557094003E+01  0.55402706234E+01  0.29809523320E+02  0.00000000000E+00 0. -1.
</event>
<event>
 5    1  0.1668518E-003  0.9118800E+02  0.7818608E-02  0.1130116E+00
         25   -1    0    0    0    0  0.00000000000E+00  0.00000000000E+00  0.99999998245E-14  0.12500000000E+03  0.12500000000E+03 0.  0.
        -13    1    3    3    0    0 -0.47753488777E+02  0.72756372048E+01 -0.17610570603E+02  0.51414725013E+02  0.10566000000E+00 0. -1.
         23    2    1    0    0    0 -0.22991063662E+02  0.28064942077E+02  0.97263994493E+00  0.88707080435E+02  0.80943005311E+02 0.  0.
         13    1    3    3    0    0  0.24762425115E+02  0.20789304872E+02  0.18583210548E+02  0.37292355422E+02  0.10566000000E+00 0.  1.
         22    1    1    0    0    0  0.22991063662E+02 -0.28064942077E+02 -0.97263994493E+00  0.36292919565E+02  0.00000000000E+00 0. -1.
</event>
<event>
 5    1  0.1668518E-003  0.9118800E+02  0.7818608E-02  0.1130116E+00
         25   -1    0    0    0    0  0.00000000000E+00  0.00000000000E+00  0.99999998245E-14  0.12500000000E+03  0.12500000000E+03 0.  0.
        -13    1    3    3    0    0 -0.26071947548E+02 -0.20506040065E+02 -0.11143477887E+02  0.34991890369E+02  0.10566000000E+00 0. -1.
         23    2    1    0    0    0  0.29217790040E+02 -0.52577755795E+01 -0.13485247904E+02  0.92393629918E+02  0.86448872055E+02 0.  0.
         13    1    3    3    0    0  0.55289737588E+02  0.15248264486E+02 -0.23417700178E+01  0.57401739549E+02  0.10566000000E+00 0.  1.
         22    1    1    0    0    0 -0.29217790040E+02  0.52577755795E+01  0.13485247904E+02  0.32606370082E+02  0.00000000000E+00 0.  1.
</event>
<event>
 5    1  0.1668518E-003  0.9118800E+02  0.7818608E-02  0.1130116E+00
         25   -1    0    0    0    0  0.00000000000E+00  0.00000000000E+00  0.99999998245E-14  0.12500000000E+03  0.12500000000E+03 0.  0.
        -13    1    3    3    0    0  0.11628555079E+02  0.28604235488E+02  0.47927531465E+02  0.57013024980E+02  0.10566000000E+00 0. -1.
         23    2    1    0    0    0  0.19472448889E+02  0.15597325607E+01  0.24651326103E+02  0.93546909372E+02  0.88100665962E+02 0.  0.
         13    1    3    3    0    0  0.78438938104E+01 -0.27044502927E+02 -0.23276205361E+02  0.36533884392E+02  0.10566000000E+00 0.  1.
         22    1    1    0    0    0 -0.19472448889E+02 -0.15597325607E+01 -0.24651326103E+02  0.31453090628E+02  0.00000000000E+00 0. -1.
</event>
<event>
 5    1  0.1668518E-003  0.9118800E+02  0.7818608E-02  0.1130116E+00
         25   -1    0    0    0    0  0.00000000000E+00  0.00000000000E+00  0.99999998245E-14  0.12500000000E+03  0.12500000000E+03 0.  0.
        -13    1    3    3    0    0  0.15901910241E+02  0.45465700867E+02  0.26254966443E+02  0.54857407263E+02  0.10566000000E+00 0. -1.
         23    2    1    0    0    0  0.49632806532E+01  0.82715237434E+00  0.23574071658E+02  0.10089491360E+03  0.97973100388E+02 0.  0.
         13    1    3    3    0    0 -0.10938629588E+02 -0.44638548492E+02 -0.26808947852E+01  0.46037506336E+02  0.10566000000E+00 0.  1.
         22    1    1    0    0    0 -0.49632806532E+01 -0.82715237434E+00 -0.23574071658E+02  0.24105086401E+02  0.00000000000E+00 0. -1.
</event>
<event>
 5    1  0.1668518E-003  0.9118800E+02  0.7818608E-02  0.1130116E+00
         25   -1    0    0    0    0  0.00000000000E+00  0.00000000000E+00  0.99999998245E-14  0.12500000000E+03  0.12500000000E+03 0.  0.
        -13    1    3    3    0    0 -0.53867294347E+02  0.19054456485E+02 -0.74638845010E+01  0.57623592808E+02  0.10566000000E+00 0.  1.
         23    2    1    0    0    0 -0.27052313794E+02 -0.80526262383E+01  0.12908268835E+01  0.96745111839E+02  0.92527174170E+02 0.  0.
         13    1    3    3    0    0  0.26814980553E+02 -0.27107082723E+02  0.87547113846E+01  0.39121519031E+02  0.10566000000E+00 0. -1.
         22    1    1    0    0    0  0.27052313794E+02  0.80526262383E+01 -0.12908268835E+01  0.28254888161E+02  0.00000000000E+00 0.  1.
</event>
<event>
 5    1  0.1668518E-003  0.9118800E+02  0.7818608E-02  0.1130116E+00
         25   -1    0    0    0    0  0.00000000000E+00  0.00000000000E+00  0.99999998245E-14  0.12500000000E+03  0.12500000000E+03 0.  0.
        -13    1    3    3    0    0 -0.36190604108E+02 -0.38629165083E+01 -0.14275868042E+02  0.39095952758E+02  0.10566000000E+00 0. -1.
         23    2    1    0    0    0  0.14921686376E+01 -0.30291494469E+02  0.12332115418E+02  0.92260386760E+02  0.86255995096E+02 0.  0.
         13    1    3    3    0    0  0.37682772746E+02 -0.26428577961E+02  0.26607983460E+02  0.53164434002E+02  0.10566000000E+00 0.  1.
         22    1    1    0    0    0 -0.14921686376E+01  0.30291494469E+02 -0.12332115418E+02  0.32739613240E+02  0.00000000000E+00 0.  1.
</event>
<event>
 5    1  0.1668518E-003  0.9118800E+02  0.7818608E-02  0.1130116E+00
         25   -1    0    0    0    0  0.00000000000E+00  0.00000000000E+00  0.99999998245E-14  0.12500000000E+03  0.12500000000E+03 0.  0.
        -13    1    3    3    0    0  0.37106524477E+02  0.23862659708E+02 -0.21953017105E+02  0.49277447288E+02  0.10566000000E+00 0.  1.
         23    2    1    0    0    0  0.24055813416E+02 -0.11991211388E+02  0.70586526693E+01  0.97209787925E+02  0.93152815208E+02 0.  0.
         13    1    3    3    0    0 -0.13050711061E+02 -0.35853871097E+02  0.29011669774E+02  0.47932340637E+02  0.10566000000E+00 0. -1.
         22    1    1    0    0    0 -0.24055813416E+02  0.11991211388E+02 -0.70586526693E+01  0.27790212075E+02  0.00000000000E+00 0. -1.
</event>
<event>
 5    1  0.1668518E-003  0.9118800E+02  0.7818608E-02  0.1130116E+00
         25   -1    0    0    0    0  0.00000000000E+00  0.00000000000E+00  0.99999998245E-14  0.12500000000E+03  0.12500000000E+03 0.  0.
        -13    1    3    3    0    0  0.84268047304E+01  0.31066261262E+02  0.52633344423E+01  0.32616521584E+02  0.10566000000E+00 0. -1.
         23    2    1    0    0    0 -0.17516781997E+02 -0.23705017329E+02  0.11105275775E+02  0.93502497747E+02  0.88037630800E+02 0.  0.
         13    1    3    3    0    0 -0.25943586728E+02 -0.54771278591E+02  0.58419413331E+01  0.60885976163E+02  0.10566000000E+00 0.  1.
         22    1    1    0    0    0  0.17516781997E+02  0.23705017329E+02 -0.11105275775E+02  0.31497502253E+02  0.00000000000E+00 0.  1.
</event>
<event>
 5    1  0.1668518E-003  0.9118800E+02  0.7818608E-02  0.1130116E+00
         25   -1    0    0    0    0  0.00000000000E+00  0.00000000000E+00  0.99999998245E-14  0.12500000000E+03  0.12500000000E+03 0.  0.
        -13    1    3    3    0    0 -0.36564497755E+01 -0.59241059730E+01  0.35394448438E+02  0.36072743184E+02  0.10566000000E+00 0. -1.
         23    2    1    0    0    0  0.24791372586E+02  0.20402490095E+02 -0.55084628124E+01  0.92423675478E+02  0.86492305262E+02 0.  0.
         13    1    3    3    0    0  0.28447822362E+02  0.26326596068E+02 -0.40902911250E+02  0.56350932294E+02  0.10566000000E+00 0.  1.
         22    1    1    0    0    0 -0.24791372586E+02 -0.20402490095E+02  0.55084628124E+01  0.32576324522E+02  0.00000000000E+00 0.  1.
</event>
<event>
 5    1  0.1668518E-003  0.9118800E+02  0.7818608E-02  0.1130116E+00
         25   -1    0    0    0    0  0.00000000000E+00  0.00000000000E+00  0.99999998245E-14  0.12500000000E+03  0.12500000000E+03 0.  0.
        -13    1    3    3    0    0  0.34066749937E+01  0.20515204784E+02 -0.29033436190E+02  0.35713171840E+02  0.10566000000E+00 0.  1.
         23    2    1    0    0    0 -0.45907729626E+01  0.15408057746E+01  0.28121727693E+02  0.96464393343E+02  0.92147155875E+02 0.  0.
         13    1    3    3    0    0 -0.79974479563E+01 -0.18974399009E+02  0.57155163883E+02  0.60751221503E+02  0.10566000000E+00 0. -1.
         22    1    1    0    0    0  0.45907729626E+01 -0.15408057746E+01 -0.28121727693E+02  0.28535606657E+02  0.00000000000E+00 0. -1.
</event>
<event>
 5    1  0.1668518E-003  0.9118800E+02  0.7818608E-02  0.1130116E+00
         25   -1    0    0    0    0  0.00000000000E+00  0.00000000000E+00  0.99999998245E-14  0.12500000000E+03  0.12500000000E+03 0.  0.
        -13    1    3    3    0    0  0.55783579086E+02  0.27287545266E+02  0.49040034806E+01  0.62293484703E+02  0.10566000000E+00 0.  1.
         23    2    1    0    0    0  0.21656487883E+02  0.14435201102E+02  0.12447730438E+01  0.98943753950E+02  0.95451236176E+02 0.  0.
         13    1    3    3    0    0 -0.34127091203E+02 -0.12852344164E+02 -0.36592304367E+01  0.36650269247E+02  0.10566000000E+00 0. -1.
         22    1    1    0    0    0 -0.21656487883E+02 -0.14435201102E+02 -0.12447730438E+01  0.26056246050E+02  0.00000000000E+00 0.  1.
</event>
<event>
 5    1  0.1668518E-003  0.9118800E+02  0.7818608E-02  0.1130116E+00
         25   -1    0    0    0    0  0.00000000000E+00  0.00000000000E+00  0.99999998245E-14  0.12500000000E+03  0.12500000000E+03 0.  0.
        -13    1    3    3    0    0  0.30304564652E+02 -0.48267355580E+02 -0.22640559334E+02  0.61324630814E+02  0.10566000000E+00 0. -1.
         23    2    1    0    0    0  0.65796869753E+01 -0.26368151239E+02 -0.90415130014E+01  0.96358759841E+02  0.92003749708E+02 0.  0.
         13    1    3    3    0    0 -0.23724877677E+02  0.21899204341E+02  0.13599046333E+02  0.35034129028E+02  0.10566000000E+00 0.  1.
         22    1    1    0    0    0 -0.65796869753E+01  0.26368151239E+02  0.90415130014E+01  0.28641240159E+02  0.00000000000E+00 0. -1.
</event>
<event>
 5    1  0.1668518E-003  0.9118800E+02  0.7818608E-02  0.1130116E+00
         25   -1    0    0    0    0  0.00000000000E+00  0.00000000000E+00  0.99999998245E-14  0.12500000000E+03  0.12500000000E+03 0.  0.
        -13    1    3    3    0    0  0.32207061527E+02  0.50743972630E+02  0.12441433787E+01  0.60114928489E+02  0.10566000000E+00 0.  1.
         23    2    1    0    0    0  0.56443041123E+01  0.30203202964E+02 -0.36867925738E+01  0.94053528833E+02  0.88816564943E+02 0.  0.
         13    1    3    3    0    0 -0.26562757415E+02 -0.20540769666E+02 -0.49309359525E+01  0.33938600344E+02  0.10566000000E+00 0. -1.
         22    1    1    0    0    0 -0.56443041123E+01 -0.30203202964E+02  0.36867925738E+01  0.30946471167E+02  0.00000000000E+00 0.  1.
</event>
<event>
 5    1  0.1668518E-003  0.9118800E+02  0.7818608E-02  0.1130116E+00
         25   -1    0    0    0    0  0.00000000000E+00  0.00000000000E+00  0.99999998245E-14  0.12500000000E+03  0.12500000000E+03 0.  0.
        -13    1    3    3    0    0 -0.24151061689E+02  0.36683580928E+02  0.25538144692E+02  0.50805185648E+02  0.10566000000E+00 0.  1.
         23    2    1    0    0    0  0.42014221679E+01  0.31715909034E+02 -0.48265855526E+01  0.92644988608E+02  0.86811561166E+02 0.  0.
         13    1    3    3    0    0  0.28352483857E+02 -0.49676718938E+01 -0.30364730244E+02  0.41839802960E+02  0.10566000000E+00 0. -1.
         22    1    1    0    0    0 -0.42014221679E+01 -0.31715909034E+02  0.48265855526E+01  0.32355011392E+02  0.00000000000E+00 0.  1.
</event>
<event>
 5    1  0.1668518E-003  0.9118800E+02  0.7818608E-02  0.1130116E+00
         25   -1    0    0    0    0  0.00000000000E+00  0.00000000000E+00  0.99999998245E-14  0.12500000000E+03  0.12500000000E+03 0.  0.
        -13    1    3    3    0    0  0.29475531026E+02  0.50576368182E+02  0.13953407312E+02  0.60178772731E+02  0.10566000000E+00 0. -1.
         23    2    1    0    0    0  0.43813998950E+01  0.29554562029E+02  0.19041750248E+01  0.95061818955E+02  0.90224468626E+02 0.  0.
         13    1    3    3    0    0 -0.25094131131E+02 -0.21021806153E+02 -0.12049232287E+02  0.34883046224E+02  0.10566000000E+00 0.  1.
         22    1    1    0    0    0 -0.43813998950E+01 -0.29554562029E+02 -0.19041750248E+01  0.29938181045E+02  0.00000000000E+00 0. -1.
</event>
<event>
 5    1  0.1668518E-003  0.9118800E+02  0.7818608E-02  0.1130116E+00
         25   -1    0    0    0    0  0.00000000000E+00  0.00000000000E+00  0.99999998245E-14  0.12500000000E+03  0.12500000000E+03 0.  0.
        -13    1    3    3    0    0 -0.20331228850E+02 -0.35986527652E+02 -0.26372004630E+02  0.49029407820E+02  0.10566000000E+00 0. -1.
         23    2    1    0    0    0  0.11211833256E+02  0.31073547461E+01 -0.22817467589E+02  0.99387548230E+02  0.96030656863E+02 0.  0.
         13    1    3    3    0    0  0.31543062106E+02  0.39093882398E+02  0.35545370418E+01  0.50358140410E+02  0.10566000000E+00 0.  1.
         22    1    1    0    0    0 -0.11211833256E+02 -0.31073547461E+01  0.22817467589E+02  0.25612451770E+02  0.00000000000E+00 0.  1.
</event>
<event>
 5    1  0.1668518E-003  0.9118800E+02  0.7818608E-02  0.1130116E+00
         25   -1    0    0    0    0  0.00000000000E+00  0.00000000000E+00  0.99999998245E-14  0.12500000000E+03  0.12500000000E+03 0.  0.
        -13    1    3    3    0    0  0.34660131077E+02  0.39698366966E+01 -0.17288619653E+02  0.38935739664E+02  0.10566000000E+00 0.  1.
         23    2    1    0    0    0  0.17336955720E+01 -0.29314554350E+02  0.11004990445E+02  0.93639856318E+02  0.88232443463E+02 0.  0.
         13    1    3    3    0    0 -0.32926435505E+02 -0.33284391047E+02  0.28293610098E+02  0.54704116653E+02  0.10566000000E+00 0. -1.
         22    1    1    0    0    0 -0.17336955720E+01  0.29314554350E+02 -0.11004990445E+02  0.31360143682E+02  0.00000000000E+00 0.  1.
</event>
<event>
 5    1  0.1668518E-003  0.9118800E+02  0.7818608E-02  0.1130116E+00
         25   -1    0    0    0    0  0.00000000000E+00  0.00000000000E+00  0.99999998245E-14  0.12500000000E+03  0.12500000000E+03 0.  0.
        -13    1    3    3    0    0  0.10403881491E+02 -0.89037015209E+01  0.40626678530E+02  0.42872541601E+02  0.10566000000E+00 0. -1.
         23    2    1    0    0    0  0.25951575659E+02  0.15078756233E+02 -0.27942729737E+01  0.94855993462E+02  0.89938859040E+02 0.  0.
         13    1    3    3    0    0  0.15547694168E+02  0.23982457754E+02 -0.43420951504E+02  0.51983451861E+02  0.10566000000E+00 0.  1.
         22    1    1    0    0    0 -0.25951575659E+02 -0.15078756233E+02  0.27942729737E+01  0.30144006538E+02  0.00000000000E+00 0.  1.
</event>
<event>
 5    1  0.1668518E-003  0.9118800E+02  0.7818608E-02  0.1130116E+00
         25   -1    0    0    0    0  0.00000000000E+00  0.00000000000E+00  0.99999998245E-14  0.12500000000E+03  0.12500000000E+03 0.  0.
        -13    1    3    3    0    0  0.11107309022E+02  0.11527784004E+02 -0.53187276227E+02  0.55544213328E+02  0.10566000000E+00 0.  1.
         23    2    1    0    0    0  0.17928955485E+02 -0.10714568639E+02 -0.19937344295E+02  0.96125320375E+02  0.91686040889E+02 0.  0.
         13    1    3    3    0    0  0.68216464634E+01 -0.22242352643E+02  0.33249931933E+02  0.40581107047E+02  0.10566000000E+00 0. -1.
         22    1    1    0    0    0 -0.17928955485E+02  0.10714568639E+02  0.19937344295E+02  0.28874679625E+02  0.00000000000E+00 0.  1.
</event>
<event>
 5    1  0.1668518E-003  0.9118800E+02  0.7818608E-02  0.1130116E+00
         25   -1    0    0    0    0  0.00000000000E+00  0.00000000000E+00  0.99999998245E-14  0.12500000000E+03  0.12500000000E+03 0.  0.
        -13    1    3    3    0    0  0.52832038393E+02  0.22428873964E+02  0.24571832456E+02  0.62434483919E+02  0.10566000000E+00 0. -1.
         23    2    1    0    0    0  0.25825036093E+02  0.11611681566E+02  0.10018699032E+02  0.94964388331E+02  0.90089383852E+02 0.  0.
         13    1    3    3    0    0 -0.27007002299E+02 -0.10817192398E+02 -0.14553133424E+02  0.32529904412E+02  0.10566000000E+00 0.  1.
         22    1    1    0    0    0 -0.25825036093E+02 -0.11611681566E+02 -0.10018699032E+02  0.30035611669E+02  0.00000000000E+00 0. -1.
</event>
<event>
 5    1  0.1668518E-003  0.9118800E+02  0.7818608E-02  0.1130116E+00
         25   -1    0    0    0    0  0.00000000000E+00  0.00000000000E+00  0.99999998245E-14  0.12500000000E+03  0.12500000000E+03 0.  0.
        -13    1    3    3    0    0 -0.22674376522E+00 -0.49659620517E+01 -0.44561020502E+02  0.44837572459E+02  0.10566000000E+00 0. -1.
         23    2    1    0    0    0 -0.45066776025E+01 -0.29165094485E+02 -0.27231747282E+00  0.95487510506E+02  0.90812320896E+02 0.  0.
         13    1    3    3    0    0 -0.42799338373E+01 -0.24199132433E+02  0.44288703029E+02  0.50649938047E+02  0.10566000000E+00 0.  1.
         22    1    1    0    0    0  0.45066776025E+01  0.29165094485E+02  0.27231747282E+00  0.29512489494E+02  0.00000000000E+00 0. -1.
</event>
<event>
 5    1  0.1668518E-003  0.9118800E+02  0.7818608E-02  0.1130116E+00
         25   -1    0    0    0    0  0.00000000000E+00  0.00000000000E+00  0.99999998245E-14  0.12500000000E+03  0.12500000000E+03 0.  0.
        -13    1    3    3    0    0  0.21712503937E+02  0.18598452593E+02 -0.18079486439E+02  0.33826236267E+02  0.10566000000E+00 0.  1.
         23    2    1    0    0    0 -0.15358526576E+02 -0.18808485742E+02  0.15413265641E+02  0.96238702529E+02  0.91840490156E+02 0.  0.
         13    1    3    3    0    0 -0.37071030514E+02 -0.37406938335E+02  0.33492752079E+02  0.62412466262E+02  0.10566000000E+00 0. -1.
         22    1    1    0    0    0  0.15358526576E+02  0.18808485742E+02 -0.15413265641E+02  0.28761297471E+02  0.00000000000E+00 0. -1.
</event>
<event>
 5    1  0.1668518E-003  0.9118800E+02  0.7818608E-02  0.1130116E+00
         25   -1    0    0    0    0  0.00000000000E+00  0.00000000000E+00  0.99999998245E-14  0.12500000000E+03  0.12500000000E+03 0.  0.
        -13    1    3    3    0    0 -0.30838296299E+02 -0.14389030144E+02 -0.10125996308E+02  0.35504811961E+02  0.10566000000E+00 0.  1.
         23    2    1    0    0    0  0.86362905763E+01  0.28084440217E+02  0.44217818773E+01  0.95286813497E+02  0.90535646980E+02 0.  0.
         13    1    3    3    0    0  0.39474586876E+02  0.42473470361E+02  0.14547778185E+02  0.59782001536E+02  0.10566000000E+00 0. -1.
         22    1    1    0    0    0 -0.86362905763E+01 -0.28084440217E+02 -0.44217818773E+01  0.29713186503E+02  0.00000000000E+00 0. -1.
</event>
<event>
 5    1  0.1668518E-003  0.9118800E+02  0.7818608E-02  0.1130116E+00
         25   -1    0    0    0    0  0.00000000000E+00  0.00000000000E+00  0.99999998245E-14  0.12500000000E+03  0.12500000000E+03 0.  0.
        -13    1    3    3    0    0 -0.18854069950E+02  0.27916920416E+02  0.38594166463E+01  0.33907766958E+02  0.10566000000E+00 0.  1.
         23    2    1    0    0    0  0.18436468540E+02 -0.16461000260E+02  0.19008387884E+02  0.93820091217E+02  0.88487416078E+02 0.  0.
         13    1    3    3    0    0  0.37290538491E+02 -0.44377920676E+02  0.15148971237E+02  0.59912324258E+02  0.10566000000E+00 0. -1.
         22    1    1    0    0    0 -0.18436468540E+02  0.16461000260E+02 -0.19008387884E+02  0.31179908783E+02  0.00000000000E+00 0. -1.
</event>
<event>
 5    1  0.1668518E-003  0.9118800E+02  0.7818608E-02  0.1130116E+00
         25   -1    0    0    0    0  0.00000000000E+00  0.00000000000E+00  0.99999998245E-14  0.12500000000E+03  0.12500000000E+03 0.  0.
        -13    1    3    3    0    0 -0.41369040851E+02 -0.37904120201E+02 -0.18139194334E+02  0.58967460555E+02  0.10566000000E+00 0. -1.
         23    2    1    0    0    0 -0.25017902447E+02 -0.45133602932E+01 -0.12830115197E+02  0.96524085265E+02  0.92228093965E+02 0.  0.
         13    1    3    3    0    0  0.16351138404E+02  0.33390759908E+02  0.53090791374E+01  0.37556624710E+02  0.10566000000E+00 0.  1.
         22    1    1    0    0    0  0.25017902447E+02  0.45133602932E+01  0.12830115197E+02  0.28475914735E+02  0.00000000000E+00 0. -1.
</event>
<event>
 5    1  0.1668518E-003  0.9118800E+02  0.7818608E-02  0.1130116E+00
         25   -1    0    0    0    0  0.00000000000E+00  0.00000000000E+00  0.99999998245E-14  0.12500000000E+03  0.12500000000E+03 0.  0.
        -13    1    3    3    0    0 -0.11447572551E+02 -0.31628927982E+00  0.34683871829E+02  0.36525731824E+02  0.10566000000E+00 0.  1.
         23    2    1    0    0    0 -0.15607926922E+02 -0.17759694859E+01 -0.24512419554E+02  0.95886083005E+02  0.91359294826E+02 0.  0.
         13    1    3    3    0    0 -0.41603543715E+01 -0.14596802061E+01 -0.59196291383E+02  0.59360351181E+02  0.10566000000E+00 0. -1.
         22    1    1    0    0    0  0.15607926922E+02  0.17759694859E+01  0.24512419554E+02  0.29113916995E+02  0.00000000000E+00 0. -1.
</event>
<event>
 5    1  0.1668518E-003  0.9118800E+02  0.7818608E-02  0.1130116E+00
         25   -1    0    0    0    0  0.00000000000E+00  0.00000000000E+00  0.99999998245E-14  0.12500000000E+03  0.12500000000E+03 0.  0.
        -13    1    3    3    0    0  0.48359741261E+02  0.24762833977E+02  0.30644207385E+02  0.62377408825E+02  0.10566000000E+00 0. -1.
         23    2    1    0    0    0  0.28109741841E+02  0.11303615783E+02  0.17024161393E+02  0.90247282304E+02  0.83287577561E+02 0.  0.
         13    1    3    3    0    0 -0.20249999420E+02 -0.13459218194E+02 -0.13620045992E+02  0.27869873479E+02  0.10566000000E+00 0.  1.
         22    1    1    0    0    0 -0.28109741841E+02 -0.11303615783E+02 -0.17024161393E+02  0.34752717696E+02  0.00000000000E+00 0. -1.
</event>
<event>
 5    1  0.1668518E-003  0.9118800E+02  0.7818608E-02  0.1130116E+00
         25   -1    0    0    0    0  0.00000000000E+00  0.00000000000E+00  0.99999998245E-14  0.12500000000E+03  0.12500000000E+03 0.  0.
        -13    1    3    3    0    0  0.28610197118E+02 -0.91055690193E+01 -0.42889636582E+02  0.52354434927E+02  0.10566000000E+00 0.  1.
         23    2    1    0    0    0  0.27269558250E+02  0.49476366268E+01 -0.23537091917E+00  0.97284240677E+02  0.93252668430E+02 0.  0.
         13    1    3    3    0    0 -0.13406388673E+01  0.14053205646E+02  0.42654265663E+02  0.44929805751E+02  0.10566000000E+00 0. -1.
         22    1    1    0    0    0 -0.27269558250E+02 -0.49476366268E+01  0.23537091917E+00  0.27715759323E+02  0.00000000000E+00 0.  1.
</event>
<event>
 5    1  0.1668518E-003  0.9118800E+02  0.7818608E-02  0.1130116E+00
         25   -1    0    0    0    0  0.00000000000E+00  0.00000000000E+00  0.99999998245E-14  0.12500000000E+03  0.12500000000E+03 0.  0.
        -13    1    3    3    0    0 -0.46357951698E+01  0.48278172706E+01  0.19610772972E+02  0.20721775914E+02  0.10566000000E+00 0. -1.
         23    2    1    0    0    0  0.28910532644E+02 -0.16714496711E+02 -0.26999269252E+02  0.82056387690E+02  0.69922077504E+02 0.  0.
         13    1    3    3    0    0  0.33546327814E+02 -0.21542313981E+02 -0.46610042224E+02  0.61334611776E+02  0.10566000000E+00 0.  1.
         22    1    1    0    0    0 -0.28910532644E+02  0.16714496711E+02  0.26999269252E+02  0.42943612310E+02  0.00000000000E+00 0.  1.
</event>
<event>
 5    1  0.1668518E-003  0.9118800E+02  0.7818608E-02  0.1130116E+00
         25   -1    0    0    0    0  0.00000000000E+00  0.00000000000E+00  0.99999998245E-14  0.12500000000E+03  0.12500000000E+03 0.  0.
        -13    1    3    3    0    0  0.29614706607E+02 -0.27111109907E+02  0.13237721302E+02  0.42276371145E+02  0.10566000000E+00 0.  1.
         23    2    1    0    0    0 -0.12999271983E+02 -0.21327983038E+02  0.27750881643E+02  0.87664020509E+02  0.79315856721E+02 0.  0.
         13    1    3    3    0    0 -0.42613978591E+02  0.57831268699E+01  0.14513160341E+02  0.45387649365E+02  0.10566000000E+00 0. -1.
         22    1    1    0    0    0  0.12999271983E+02  0.21327983038E+02 -0.27750881643E+02  0.37335979491E+02  0.00000000000E+00 0. -1.
</event>
<event>
 5    1  0.1668518E-003  0.9118800E+02  0.7818608E-02  0.1130116E+00
         25   -1    0    0    0    0  0.00000000000E+00  0.00000000000E+00  0.99999998245E-14  0.12500000000E+03  0.12500000000E+03 0.  0.
        -13    1    3    3    0    0 -0.12316806045E+02 -0.33056845423E+02  0.14724947236E+02  0.38226875044E+02  0.10566000000E+00 0. -1.
         23    2    1    0    0    0 -0.85237390836E+01  0.19870211349E+02 -0.14654702095E+02  0.98880281002E+02  0.95368077734E+02 0.  0.
         13    1    3    3    0    0  0.37930669609E+01  0.52927056772E+02 -0.29379649331E+02  0.60653405959E+02  0.10566000000E+00 0.  1.
         22    1    1    0    0    0  0.85237390836E+01 -0.19870211349E+02  0.14654702095E+02  0.26119718998E+02  0.00000000000E+00 0.  1.
</event>
<event>
 5    1  0.1668518E-003  0.9118800E+02  0.7818608E-02  0.1130116E+00
         25   -1    0    0    0    0  0.00000000000E+00  0.00000000000E+00  0.99999998245E-14  0.12500000000E+03  0.12500000000E+03 0.  0.
        -13    1    3    3    0    0 -0.47049117084E+02  0.65274454280E+01 -0.73081394458E+01  0.48058787213E+02  0.10566000000E+00 0. -1.
         23    2    1    0    0    0 -0.13296378554E+02  0.27409549854E+02  0.12075783592E+02  0.92229561260E+02  0.86211311990E+02 0.  0.
         13    1    3    3    0    0  0.33752738531E+02  0.20882104426E+02  0.19383923038E+02  0.44170774047E+02  0.10566000000E+00 0.  1.
         22    1    1    0    0    0  0.13296378554E+02 -0.27409549854E+02 -0.12075783592E+02  0.32770438740E+02  0.00000000000E+00 0.  1.
</event>
<event>
 5    1  0.1668518E-003  0.9118800E+02  0.7818608E-02  0.1130116E+00
         25   -1    0    0    0    0  0.00000000000E+00  0.00000000000E+00  0.99999998245E-14  0.12500000000E+03  0.12500000000E+03 0.  0.
        -13    1    3    3    0    0  0.23879512030E+02  0.14106835264E+02  0.22562058615E+02  0.35753203338E+02  0.10566000000E+00 0.  1.
         23    2    1    0    0    0  0.89645665991E+01 -0.10813562511E+02 -0.27779232526E+02  0.93871518697E+02  0.88560034295E+02 0.  0.
         13    1    3    3    0    0 -0.14914945431E+02 -0.24920397775E+02 -0.50341291141E+02  0.58118315359E+02  0.10566000000E+00 0. -1.
         22    1    1    0    0    0 -0.89645665991E+01  0.10813562511E+02  0.27779232526E+02  0.31128481303E+02  0.00000000000E+00 0. -1.
</event>
<event>
 5    1  0.1668518E-003  0.9118800E+02  0.7818608E-02  0.1130116E+00
         25   -1    0    0    0    0  0.00000000000E+00  0.00000000000E+00  0.99999998245E-14  0.12500000000E+03  0.12500000000E+03 0.  0.
        -13    1    3    3    0    0  0.78279611273E+01 -0.29183479322E+02 -0.53961963833E+02  0.61845429463E+02  0.10566000000E+00 0. -1.
         23    2    1    0    0    0 -0.16489498838E+01 -0.12270357998E+02 -0.29120415903E+02  0.93357001667E+02  0.87830805625E+02 0.  0.
         13    1    3    3    0    0 -0.94769110110E+01  0.16913121324E+02  0.24841547929E+02  0.31511572204E+02  0.10566000000E+00 0.  1.
         22    1    1    0    0    0  0.16489498838E+01  0.12270357998E+02  0.29120415903E+02  0.31642998333E+02  0.00000000000E+00 0. -1.
</event>
<event>
 5    1  0.1668518E-003  0.9118800E+02  0.7818608E-02  0.1130116E+00
         25   -1    0    0    0    0  0.00000000000E+00  0.00000000000E+00  0.99999998245E-14  0.12500000000E+03  0.12500000000E+03 0.  0.
        -13    1    3    3    0    0  0.26858069073E+02 -0.11955669710E+02  0.38656709642E+02  0.48565896233E+02  0.10566000000E+00 0.  1.
         23    2    1    0    0    0 -0.17347793081E+02 -0.39515693705E+01  0.22517207045E+02  0.96301821689E+02  0.91926358691E+02 0.  0.
         13    1    3    3    0    0 -0.44205862154E+02  0.80041003391E+01 -0.16139502597E+02  0.47735925456E+02  0.10566000000E+00 0. -1.
         22    1    1    0    0    0  0.17347793081E+02  0.39515693705E+01 -0.22517207045E+02  0.28698178311E+02  0.00000000000E+00 0.  1.
</event>
<event>
 5    1  0.1668518E-003  0.9118800E+02  0.7818608E-02  0.1130116E+00
         25   -1    0    0    0    0  0.00000000000E+00  0.00000000000E+00  0.99999998245E-14  0.12500000000E+03  0.12500000000E+03 0.  0.
        -13    1    3    3    0    0  0.12125398834E+02 -0.29060864323E+02 -0.22469825085E+02  0.38684148374E+02  0.10566000000E+00 0. -1.
         23    2    1    0    0    0 -0.21378433167E+02  0.15745756090E+02 -0.13034343244E+02  0.95421961807E+02  0.90722050527E+02 0.  0.
         13    1    3    3    0    0 -0.33503832001E+02  0.44806620413E+02  0.94354818410E+01  0.56737813433E+02  0.10566000000E+00 0.  1.
         22    1    1    0    0    0  0.21378433167E+02 -0.15745756090E+02  0.13034343244E+02  0.29578038193E+02  0.00000000000E+00 0.  1.
</event>
<event>
 5    1  0.1668518E-003  0.9118800E+02  0.7818608E-02  0.1130116E+00
         25   -1    0    0    0    0  0.00000000000E+00  0.00000000000E+00  0.99999998245E-14  0.12500000000E+03  0.12500000000E+03 0.  0.
        -13    1    3    3    0    0  0.33062287549E+02  0.18398204983E+02 -0.19419567707E+02  0.42529279074E+02  0.10566000000E+00 0.  1.
         23    2    1    0    0    0  0.95896382985E+01 -0.23865403384E+02  0.79446152021E+01  0.98080944443E+02  0.94314559378E+02 0.  0.
         13    1    3    3    0    0 -0.23472649251E+02 -0.42263608367E+02  0.27364182909E+02  0.55551665369E+02  0.10566000000E+00 0. -1.
         22    1    1    0    0    0 -0.95896382985E+01  0.23865403384E+02 -0.79446152021E+01  0.26919055557E+02  0.00000000000E+00 0. -1.
</event>
<event>
 5    1  0.1668518E-003  0.9118800E+02  0.7818608E-02  0.1130116E+00
         25   -1    0    0    0    0  0.00000000000E+00  0.00000000000E+00  0.99999998245E-14  0.12500000000E+03  0.12500000000E+03 0.  0.
        -13    1    3    3    0    0 -0.46780432328E+01  0.12672758735E+02  0.57769051722E+02  0.59327543379E+02  0.10566000000E+00 0. -1.
         23    2    1    0    0    0  0.83782973451E+01 -0.29795663983E+01  0.29568490894E+02  0.94123320514E+02  0.88914735160E+02 0.  0.
         13    1    3    3    0    0  0.13056340578E+02 -0.15652325134E+02 -0.28200560829E+02  0.34795777135E+02  0.10566000000E+00 0.  1.
         22    1    1    0    0    0 -0.83782973451E+01  0.29795663983E+01 -0.29568490894E+02  0.30876679486E+02  0.00000000000E+00 0. -1.
</event>
<event>
 5    1  0.1668518E-003  0.9118800E+02  0.7818608E-02  0.1130116E+00
         25   -1    0    0    0    0  0.00000000000E+00  0.00000000000E+00  0.99999998245E-14  0.12500000000E+03  0.12500000000E+03 0.  0.
        -13    1    3    3    0    0 -0.29752337651E+02  0.17456870637E+02 -0.13260701780E+02  0.36956749098E+02  0.10566000000E+00 0.  1.
         23    2    1    0    0    0  0.71508328801E+01 -0.19121305545E+02  0.18159126916E+02  0.97677616741E+02  0.93778484660E+02 0.  0.
         13    1    3    3    0    0  0.36903170531E+02 -0.36578176182E+02  0.31419828696E+02  0.60720867643E+02  0.10566000000E+00 0. -1.
         22    1    1    0    0    0 -0.71508328801E+01  0.19121305545E+02 -0.18159126916E+02  0.27322383259E+02  0.00000000000E+00 0. -1.
</event>
<event>
 5    1  0.1668518E-003  0.9118800E+02  0.7818608E-02  0.1130116E+00
         25   -1    0    0    0    0  0.00000000000E+00  0.00000000000E+00  0.99999998245E-14  0.12500000000E+03  0.12500000000E+03 0.  0.
        -13    1    3    3    0    0  0.47646954846E+02  0.16876306946E+02  0.13936822883E+01  0.50566743583E+02  0.10566000000E+00 0.  1.
         23    2    1    0    0    0  0.15069773182E+02 -0.29595567480E+01 -0.24085095866E+02  0.96435181030E+02  0.92107520092E+02 0.  0.
         13    1    3    3    0    0 -0.32577181664E+02 -0.19835863694E+02 -0.25478778154E+02  0.45868437448E+02  0.10566000000E+00 0. -1.
         22    1    1    0    0    0 -0.15069773182E+02  0.29595567480E+01  0.24085095866E+02  0.28564818970E+02  0.00000000000E+00 0. -1.
</event>
<event>
 4    1  0.1668518E-003  0.9118800E+02  0.7818608E-02  0.1130116E+00
         25   -1    0    0    0    0  0.00000000000E+00  0.00000000000E+00  0.99999998245E-14  0.12500000000E+03  0.12500000000E+03 0.  0.
        -13    1    1    0    0    0  0.21877223426E+02  0.13316938707E+02  0.10760007264E+02  0.27780257049E+02  0.10566000000E+00 0.  1.
         13    1    1    0    0    0  0.27786622829E+02  0.54972735800E+01 -0.29504833809E+02  0.40900645559E+02  0.10566000000E+00 0. -1.
         22    1    1    0    0    0 -0.49663846255E+02 -0.18814212287E+02  0.18744826545E+02  0.56319097392E+02  0.00000000000E+00 0.  1.
</event>
<event>
 5    1  0.1668518E-003  0.9118800E+02  0.7818608E-02  0.1130116E+00
         25   -1    0    0    0    0  0.00000000000E+00  0.00000000000E+00  0.99999998245E-14  0.12500000000E+03  0.12500000000E+03 0.  0.
        -13    1    3    3    0    0 -0.23059085146E+02 -0.14979307402E+02  0.55905262545E+02  0.62301770459E+02  0.10566000000E+00 0. -1.
         23    2    1    0    0    0 -0.75522709948E+01 -0.75470011739E+01  0.27412776856E+02  0.95581394342E+02  0.90941456913E+02 0.  0.
         13    1    3    3    0    0  0.15506814152E+02  0.74323062281E+01 -0.28492485689E+02  0.33279623883E+02  0.10566000000E+00 0.  1.
         22    1    1    0    0    0  0.75522709948E+01  0.75470011739E+01 -0.27412776856E+02  0.29418605658E+02  0.00000000000E+00 0. -1.
</event>
<event>
 5    1  0.1668518E-003  0.9118800E+02  0.7818608E-02  0.1130116E+00
         25   -1    0    0    0    0  0.00000000000E+00  0.00000000000E+00  0.99999998245E-14  0.12500000000E+03  0.12500000000E+03 0.  0.
        -13    1    3    3    0    0  0.38077496088E+02  0.12240428534E+02  0.12506360906E+02  0.41906372142E+02  0.10566000000E+00 0. -1.
         23    2    1    0    0    0 -0.23576031706E+01 -0.22805469018E+02  0.18213498022E+02  0.95718961425E+02  0.91130348163E+02 0.  0.
         13    1    3    3    0    0 -0.40435099258E+02 -0.35045897551E+02  0.57071371161E+01  0.53812589283E+02  0.10566000000E+00 0.  1.
         22    1    1    0    0    0  0.23576031706E+01  0.22805469018E+02 -0.18213498022E+02  0.29281038575E+02  0.00000000000E+00 0.  1.
</event>
<event>
 5    1  0.1668518E-003  0.9118800E+02  0.7818608E-02  0.1130116E+00
         25   -1    0    0    0    0  0.00000000000E+00  0.00000000000E+00  0.99999998245E-14  0.12500000000E+03  0.12500000000E+03 0.  0.
        -13    1    3    3    0    0  0.15298487231E+02 -0.63549417243E-02  0.58326546430E+02  0.60299593153E+02  0.10566000000E+00 0.  1.
         23    2    1    0    0    0  0.72217299807E+00 -0.94763669038E+01  0.29961996324E+02  0.93566828234E+02  0.88128922940E+02 0.  0.
         13    1    3    3    0    0 -0.14576314233E+02 -0.94700119620E+01 -0.28364550106E+02  0.33267235081E+02  0.10566000000E+00 0. -1.
         22    1    1    0    0    0 -0.72217299807E+00  0.94763669038E+01 -0.29961996324E+02  0.31433171766E+02  0.00000000000E+00 0.  1.
</event>
<event>
 5    1  0.1668518E-003  0.9118800E+02  0.7818608E-02  0.1130116E+00
         25   -1    0    0    0    0  0.00000000000E+00  0.00000000000E+00  0.99999998245E-14  0.12500000000E+03  0.12500000000E+03 0.  0.
        -13    1    3    3    0    0 -0.40123695949E+02  0.27573701985E+02  0.18366803500E+02  0.52034321872E+02  0.10566000000E+00 0.  1.
         23    2    1    0    0    0 -0.14470648484E+02  0.13909055388E+02 -0.17619212415E+02  0.98292358108E+02  0.94594341939E+02 0.  0.
         13    1    3    3    0    0  0.25653047466E+02 -0.13664646597E+02 -0.35986015915E+02  0.46258036236E+02  0.10566000000E+00 0. -1.
         22    1    1    0    0    0  0.14470648484E+02 -0.13909055388E+02  0.17619212415E+02  0.26707641892E+02  0.00000000000E+00 0. -1.
</event>
<event>
 5    1  0.1668518E-003  0.9118800E+02  0.7818608E-02  0.1130116E+00
         25   -1    0    0    0    0  0.00000000000E+00  0.00000000000E+00  0.99999998245E-14  0.12500000000E+03  0.12500000000E+03 0.  0.
        -13    1    3    3    0    0 -0.52868092031E+02 -0.23348219893E+02 -0.14753797111E+02  0.59647801472E+02  0.10566000000E+00 0. -1.
         23    2    1    0    0    0 -0.23389675984E+02 -0.19651129036E+02  0.30753713996E+01  0.94296551915E+02  0.89157938394E+02 0.  0.
         13    1    3    3    0    0  0.29478416047E+02  0.36970908566E+01  0.17829168510E+02  0.34648750443E+02  0.10566000000E+00 0.  1.
         22    1    1    0    0    0  0.23389675984E+02  0.19651129036E+02 -0.30753713996E+01  0.30703448085E+02  0.00000000000E+00 0. -1.
</event>
<event>
 5    1  0.1668518E-003  0.9118800E+02  0.7818608E-02  0.1130116E+00
         25   -1    0    0    0    0  0.00000000000E+00  0.00000000000E+00  0.99999998245E-14  0.12500000000E+03  0.12500000000E+03 0.  0.
        -13    1    3    3    0    0 -0.14360671266E+02  0.97120870341E+00  0.31926752214E+02  0.35021433387E+02  0.10566000000E+00 0.  1.
         23    2    1    0    0    0 -0.36245638576E+01  0.16126774722E+02 -0.25071894308E+02  0.94969844984E+02  0.90096954699E+02 0.  0.
         13    1    3    3    0    0  0.10736107409E+02  0.15155566018E+02 -0.56998646522E+02  0.59948411597E+02  0.10566000000E+00 0. -1.
         22    1    1    0    0    0  0.36245638576E+01 -0.16126774722E+02  0.25071894308E+02  0.30030155016E+02  0.00000000000E+00 0. -1.
</event>
<event>
 5    1  0.1668518E-003  0.9118800E+02  0.7818608E-02  0.1130116E+00
         25   -1    0    0    0    0  0.00000000000E+00  0.00000000000E+00  0.99999998245E-14  0.12500000000E+03  0.12500000000E+03 0.  0.
        -13    1    3    3    0    0  0.10170390072E+01 -0.54014473689E+02  0.23440040991E+02  0.58890104618E+02  0.10566000000E+00 0. -1.
         23    2    1    0    0    0 -0.11463681571E+02 -0.26876967831E+02  0.18962229965E+01  0.95718895912E+02  0.91130258301E+02 0.  0.
         13    1    3    3    0    0 -0.12480720578E+02  0.27137505858E+02 -0.21543817994E+02  0.36828791294E+02  0.10566000000E+00 0.  1.
         22    1    1    0    0    0  0.11463681571E+02  0.26876967831E+02 -0.18962229965E+01  0.29281104088E+02  0.00000000000E+00 0. -1.
</event>
<event>
 5    1  0.1668518E-003  0.9118800E+02  0.7818608E-02  0.1130116E+00
         25   -1    0    0    0    0  0.00000000000E+00  0.00000000000E+00  0.99999998245E-14  0.12500000000E+03  0.12500000000E+03 0.  0.
        -13    1    3    3    0    0 -0.14343007754E+02 -0.92547041044E+01 -0.28740890299E+02  0.33427853038E+02  0.10566000000E+00 0. -1.
         23    2    1    0    0    0  0.28251538109E+02 -0.46423995564E+01  0.13280543433E+02  0.93439358165E+02  0.87947936537E+02 0.  0.
         13    1    3    3    0    0  0.42594545863E+02  0.46123045480E+01  0.42021433733E+02  0.60011505127E+02  0.10566000000E+00 0.  1.
         22    1    1    0    0    0 -0.28251538109E+02  0.46423995564E+01 -0.13280543433E+02  0.31560641835E+02  0.00000000000E+00 0.  1.
</event>
<event>
 5    1  0.1668518E-003  0.9118800E+02  0.7818608E-02  0.1130116E+00
         25   -1    0    0    0    0  0.00000000000E+00  0.00000000000E+00  0.99999998245E-14  0.12500000000E+03  0.12500000000E+03 0.  0.
        -13    1    3    3    0    0 -0.20468497518E+02 -0.15767837493E+02  0.51185556924E+02  0.57337217333E+02  0.10566000000E+00 0. -1.
         23    2    1    0    0    0 -0.13619010829E+02  0.94657800742E+01  0.28836564002E+02  0.91734013290E+02  0.85489784901E+02 0.  0.
         13    1    3    3    0    0  0.68494866893E+01  0.25233617567E+02 -0.22348992922E+02  0.34396795957E+02  0.10566000000E+00 0.  1.
         22    1    1    0    0    0  0.13619010829E+02 -0.94657800742E+01 -0.28836564002E+02  0.33265986710E+02  0.00000000000E+00 0. -1.
</event>
<event>
 5    1  0.1668518E-003  0.9118800E+02  0.7818608E-02  0.1130116E+00
         25   -1    0    0    0    0  0.00000000000E+00  0.00000000000E+00  0.99999998245E-14  0.12500000000E+03  0.12500000000E+03 0.  0.
        -13    1    3    3    0    0 -0.34315206947E+02  0.10863539584E+01  0.48635530978E+02  0.59532676996E+02  0.10566000000E+00 0.  1.
         23    2    1    0    0    0 -0.10307006289E+02 -0.12054625094E+02  0.23202147071E+02  0.96895053931E+02  0.92729517861E+02 0.  0.
         13    1    3    3    0    0  0.24008200658E+02 -0.13140979053E+02 -0.25433383907E+02  0.37362376936E+02  0.10566000000E+00 0. -1.
         22    1    1    0    0    0  0.10307006289E+02  0.12054625094E+02 -0.23202147071E+02  0.28104946069E+02  0.00000000000E+00 0.  1.
</event>
<event>
 5    1  0.1668518E-003  0.9118800E+02  0.7818608E-02  0.1130116E+00
         25   -1    0    0    0    0  0.00000000000E+00  0.00000000000E+00  0.99999998245E-14  0.12500000000E+03  0.12500000000E+03 0.  0.
        -13    1    3    3    0    0  0.39390561093E+02 -0.27151814581E+02  0.39246216737E+02  0.61879835410E+02  0.10566000000E+00 0. -1.
         23    2    1    0    0    0  0.22670752613E+02 -0.11309964273E+02  0.14001953367E+02  0.96052927368E+02  0.91587290832E+02 0.  0.
         13    1    3    3    0    0 -0.16719808480E+02  0.15841850308E+02 -0.25244263370E+02  0.34173091957E+02  0.10566000000E+00 0.  1.
         22    1    1    0    0    0 -0.22670752613E+02  0.11309964273E+02 -0.14001953367E+02  0.28947072632E+02  0.00000000000E+00 0. -1.
</event>
<event>
 5    1  0.1668518E-003  0.9118800E+02  0.7818608E-02  0.1130116E+00
         25   -1    0    0    0    0  0.00000000000E+00  0.00000000000E+00  0.99999998245E-14  0.12500000000E+03  0.12500000000E+03 0.  0.
        -13    1    3    3    0    0 -0.29128156429E+02  0.39984386567E+02  0.36793838993E+02  0.61652237737E+02  0.10566000000E+00 0. -1.
         23    2    1    0    0    0 -0.10105749384E+02  0.24955170603E+02  0.15414137844E+02  0.93976100246E+02  0.88707525394E+02 0.  0.
         13    1    3    3    0    0  0.19022407045E+02 -0.15029215964E+02 -0.21379701149E+02  0.32323862509E+02  0.10566000000E+00 0.  1.
         22    1    1    0    0    0  0.10105749384E+02 -0.24955170603E+02 -0.15414137844E+02  0.31023899754E+02  0.00000000000E+00 0. -1.
</event>
<event>
 5    1  0.1668518E-003  0.9118800E+02  0.7818608E-02  0.1130116E+00
         25   -1    0    0    0    0  0.00000000000E+00  0.00000000000E+00  0.99999998245E-14  0.12500000000E+03  0.12500000000E+03 0.  0.
        -13    1    3    3    0    0  0.37628424016E+02  0.42311000622E+02 -0.26195097208E+02  0.62388407171E+02  0.10566000000E+00 0.  1.
         23    2    1    0    0    0  0.16737581211E+02  0.21298823653E+02 -0.10245174914E+02  0.96038816964E+02  0.91568030672E+02 0.  0.
         13    1    3    3    0    0 -0.20890842805E+02 -0.21012176968E+02  0.15949922294E+02  0.33650409793E+02  0.10566000000E+00 0. -1.
         22    1    1    0    0    0 -0.16737581211E+02 -0.21298823653E+02  0.10245174914E+02  0.28961183036E+02  0.00000000000E+00 0.  1.
</event>
<event>
 5    1  0.1668518E-003  0.9118800E+02  0.7818608E-02  0.1130116E+00
         25   -1    0    0    0    0  0.00000000000E+00  0.00000000000E+00  0.99999998245E-14  0.12500000000E+03  0.12500000000E+03 0.  0.
        -13    1    3    3    0    0  0.34771631405E+02  0.26668569583E+01 -0.87937679604E+01  0.35965539000E+02  0.10566000000E+00 0.  1.
         23    2    1    0    0    0 -0.22644572959E+02  0.15787827280E+02 -0.11889998767E+02  0.94943316128E+02  0.90060141195E+02 0.  0.
         13    1    3    3    0    0 -0.57416204364E+02  0.13120970321E+02 -0.30962308061E+01  0.58977777128E+02  0.10566000000E+00 0. -1.
         22    1    1    0    0    0  0.22644572959E+02 -0.15787827280E+02  0.11889998767E+02  0.30056683872E+02  0.00000000000E+00 0. -1.
</event>
<event>
 5    1  0.1668518E-003  0.9118800E+02  0.7818608E-02  0.1130116E+00
         25   -1    0    0    0    0  0.00000000000E+00  0.00000000000E+00  0.99999998245E-14  0.12500000000E+03  0.12500000000E+03 0.  0.
        -13    1    3    3    0    0  0.61148401362E+01 -0.30958631675E+02  0.40515667819E+02  0.51355220260E+02  0.10566000000E+00 0.  1.
         23    2    1    0    0    0 -0.11746551795E+02  0.74779976023E+01  0.24797948517E+02  0.96559884356E+02  0.92276600983E+02 0.  0.
         13    1    3    3    0    0 -0.17861391931E+02  0.38436629278E+02 -0.15717719302E+02  0.45204664096E+02  0.10566000000E+00 0. -1.
         22    1    1    0    0    0  0.11746551795E+02 -0.74779976023E+01 -0.24797948517E+02  0.28440115644E+02  0.00000000000E+00 0.  1.
</event>
<event>
 5    1  0.1668518E-003  0.9118800E+02  0.7818608E-02  0.1130116E+00
         25   -1    0    0    0    0  0.00000000000E+00  0.00000000000E+00  0.99999998245E-14  0.12500000000E+03  0.12500000000E+03 0.  0.
        -13    1    3    3    0    0 -0.33719422206E+02  0.14005913357E+00  0.11380200185E+02  0.35588469632E+02  0.10566000000E+00 0.  1.
         23    2    1    0    0    0  0.24043115825E+02 -0.11313698226E+02  0.14817256710E+02  0.94575958807E+02  0.89548811838E+02 0.  0.
         13    1    3    3    0    0  0.57762538031E+02 -0.11453757360E+02  0.34370565252E+01  0.58987489174E+02  0.10566000000E+00 0. -1.
         22    1    1    0    0    0 -0.24043115825E+02  0.11313698226E+02 -0.14817256710E+02  0.30424041193E+02  0.00000000000E+00 0. -1.
</event>
<event>
 5    1  0.1668518E-003  0.9118800E+02  0.7818608E-02  0.1130116E+00
         25   -1    0    0    0    0  0.00000000000E+00  0.00000000000E+00  0.99999998245E-14  0.12500000000E+03  0.12500000000E+03 0.  0.
        -13    1    3    3    0    0  0.47449382980E+01 -0.77774058315E+01  0.49774524177E+02  0.50601550391E+02  0.10566000000E+00 0.  1.
         23    2    1    0    0    0 -0.53966419761E+01 -0.27785004693E+02  0.12603388663E+02  0.94016526402E+02  0.88764472626E+02 0.  0.
         13    1    3    3    0    0 -0.10141580274E+02 -0.20007598861E+02 -0.37171135513E+02  0.43414976011E+02  0.10566000000E+00 0. -1.
         22    1    1    0    0    0  0.53966419761E+01  0.27785004693E+02 -0.12603388663E+02  0.30983473598E+02  0.00000000000E+00 0. -1.
</event>
<event>
 5    1  0.1668518E-003  0.9118800E+02  0.7818608E-02  0.1130116E+00
         25   -1    0    0    0    0  0.00000000000E+00  0.00000000000E+00  0.99999998245E-14  0.12500000000E+03  0.12500000000E+03 0.  0.
        -13    1    3    3    0    0  0.20080214533E+02 -0.21847310369E+02  0.11534868687E+02  0.31836839443E+02  0.10566000000E+00 0.  1.
         23    2    1    0    0    0 -0.23603793470E+02  0.20240175533E+02 -0.14558564420E+01  0.93872467336E+02  0.88561373262E+02 0.  0.
         13    1    3    3    0    0 -0.43684008002E+02  0.42087485902E+02 -0.12990725129E+02  0.62035627893E+02  0.10566000000E+00 0. -1.
         22    1    1    0    0    0  0.23603793470E+02 -0.20240175533E+02  0.14558564420E+01  0.31127532664E+02  0.00000000000E+00 0. -1.
</event>
<event>
 5    1  0.1668518E-003  0.9118800E+02  0.7818608E-02  0.1130116E+00
         25   -1    0    0    0    0  0.00000000000E+00  0.00000000000E+00  0.99999998245E-14  0.12500000000E+03  0.12500000000E+03 0.  0.
        -13    1    3    3    0    0 -0.15126204551E+02  0.33753241390E+02  0.37724644002E+02  0.52832218367E+02  0.10566000000E+00 0. -1.
         23    2    1    0    0    0  0.13379603856E+02  0.24456933160E+02  0.59995140665E+01  0.96484222823E+02  0.92174051153E+02 0.  0.
         13    1    3    3    0    0  0.28505808407E+02 -0.92963082302E+01 -0.31725129935E+02  0.43652004457E+02  0.10566000000E+00 0.  1.
         22    1    1    0    0    0 -0.13379603856E+02 -0.24456933160E+02 -0.59995140665E+01  0.28515777177E+02  0.00000000000E+00 0. -1.
</event>
<event>
 5    1  0.1668518E-003  0.9118800E+02  0.7818608E-02  0.1130116E+00
         25   -1    0    0    0    0  0.00000000000E+00  0.00000000000E+00  0.99999998245E-14  0.12500000000E+03  0.12500000000E+03 0.  0.
        -13    1    3    3    0    0  0.31121868073E+01 -0.26242090978E+02  0.21612783514E+02  0.34138784701E+02  0.10566000000E+00 0. -1.
         23    2    1    0    0    0 -0.50226607676E+01  0.27541944717E+02 -0.77462824983E+01  0.95951923772E+02  0.91449335389E+02 0.  0.
         13    1    3    3    0    0 -0.81348475749E+01  0.53784035695E+02 -0.29359066012E+02  0.61813139071E+02  0.10566000000E+00 0.  1.
         22    1    1    0    0    0  0.50226607676E+01 -0.27541944717E+02  0.77462824983E+01  0.29048076228E+02  0.00000000000E+00 0.  1.
</event>
<event>
 5    1  0.1668518E-003  0.9118800E+02  0.7818608E-02  0.1130116E+00
         25   -1    0    0    0    0  0.00000000000E+00  0.00000000000E+00  0.99999998245E-14  0.12500000000E+03  0.12500000000E+03 0.  0.
        -13    1    3    3    0    0 -0.26052392070E+02  0.44669354496E+01  0.51217549768E+02  0.57636179724E+02  0.10566000000E+00 0.  1.
         23    2    1    0    0    0 -0.17487973133E+02 -0.14632715159E+02  0.25631848991E+02  0.90693481087E+02  0.83954572667E+02 0.  0.
         13    1    3    3    0    0  0.85644189373E+01 -0.19099650609E+02 -0.25585700777E+02  0.33057301363E+02  0.10566000000E+00 0. -1.
         22    1    1    0    0    0  0.17487973133E+02  0.14632715159E+02 -0.25631848991E+02  0.34306518913E+02  0.00000000000E+00 0.  1.
</event>
<event>
 5    1  0.1668518E-003  0.9118800E+02  0.7818608E-02  0.1130116E+00
         25   -1    0    0    0    0  0.00000000000E+00  0.00000000000E+00  0.99999998245E-14  0.12500000000E+03  0.12500000000E+03 0.  0.
        -13    1    3    3    0    0  0.96658183770E+01 -0.12619104272E+02  0.36949375967E+02  0.40223592405E+02  0.10566000000E+00 0.  1.
         23    2    1    0    0    0 -0.30594957452E+02 -0.17317646223E+02  0.11845499876E+02  0.87901911646E+02  0.79689885879E+02 0.  0.
         13    1    3    3    0    0 -0.40260775829E+02 -0.46985419510E+01 -0.25103876091E+02  0.47678319241E+02  0.10566000000E+00 0. -1.
         22    1    1    0    0    0  0.30594957452E+02  0.17317646223E+02 -0.11845499876E+02  0.37098088354E+02  0.00000000000E+00 0. -1.
</event>
<event>
 5    1  0.1668518E-003  0.9118800E+02  0.7818608E-02  0.1130116E+00
         25   -1    0    0    0    0  0.00000000000E+00  0.00000000000E+00  0.99999998245E-14  0.12500000000E+03  0.12500000000E+03 0.  0.
        -13    1    3    3    0    0  0.11204178729E+01  0.16067987320E+02 -0.38526774627E+02  0.41758341441E+02  0.10566000000E+00 0. -1.
         23    2    1    0    0    0 -0.59861150256E+01 -0.26839586002E+02 -0.41636903504E+01  0.97187533960E+02  0.93122948246E+02 0.  0.
         13    1    3    3    0    0 -0.71065328985E+01 -0.42907573322E+02  0.34363084277E+02  0.55429192519E+02  0.10566000000E+00 0.  1.
         22    1    1    0    0    0  0.59861150256E+01  0.26839586002E+02  0.41636903504E+01  0.27812466040E+02  0.00000000000E+00 0. -1.
</event>
<event>
 5    1  0.1668518E-003  0.9118800E+02  0.7818608E-02  0.1130116E+00
         25   -1    0    0    0    0  0.00000000000E+00  0.00000000000E+00  0.99999998245E-14  0.12500000000E+03  0.12500000000E+03 0.  0.
        -13    1    3    3    0    0 -0.56927911275E+02  0.65644529151E+01 -0.13837236283E+02  0.58952178893E+02  0.10566000000E+00 0. -1.
         23    2    1    0    0    0 -0.21846924624E+02 -0.16391467437E+01 -0.19800300008E+02  0.95469900136E+02  0.90788077598E+02 0.  0.
         13    1    3    3    0    0  0.35080986651E+02 -0.82035996587E+01 -0.59630637255E+01  0.36517721243E+02  0.10566000000E+00 0.  1.
         22    1    1    0    0    0  0.21846924624E+02  0.16391467437E+01  0.19800300008E+02  0.29530099864E+02  0.00000000000E+00 0. -1.
</event>
<event>
 5    1  0.1668518E-003  0.9118800E+02  0.7818608E-02  0.1130116E+00
         25   -1    0    0    0    0  0.00000000000E+00  0.00000000000E+00  0.99999998245E-14  0.12500000000E+03  0.12500000000E+03 0.  0.
        -13    1    3    3    0    0 -0.23249786447E+01  0.39291926116E+02 -0.12792168497E+02  0.41387337707E+02  0.10566000000E+00 0.  1.
         23    2    1    0    0    0  0.16307845770E+02  0.15498965682E+00  0.22449471453E+02  0.97252051897E+02  0.93209511178E+02 0.  0.
         13    1    3    3    0    0  0.18632824414E+02 -0.39136936459E+02  0.35241639950E+02  0.55864714189E+02  0.10566000000E+00 0. -1.
         22    1    1    0    0    0 -0.16307845770E+02 -0.15498965682E+00 -0.22449471453E+02  0.27747948103E+02  0.00000000000E+00 0. -1.
</event>
<event>
 5    1  0.1668518E-003  0.9118800E+02  0.7818608E-02  0.1130116E+00
         25   -1    0    0    0    0  0.00000000000E+00  0.00000000000E+00  0.99999998245E-14  0.12500000000E+03  0.12500000000E+03 0.  0.
        -13    1    3    3    0    0  0.18716861909E+02  0.30561206007E+02  0.43587223491E+01  0.36101493831E+02  0.10566000000E+00 0.  1.
         23    2    1    0    0    0 -0.28676682707E+02 -0.47542587654E+01 -0.34831614574E+01  0.95723942867E+02  0.91137180760E+02 0.  0.
         13    1    3    3    0    0 -0.47393544616E+02 -0.35315464772E+02 -0.78418838065E+01  0.59622449036E+02  0.10566000000E+00 0. -1.
         22    1    1    0    0    0  0.28676682707E+02  0.47542587654E+01  0.34831614574E+01  0.29276057133E+02  0.00000000000E+00 0. -1.
</event>
<event>
 5    1  0.1668518E-003  0.9118800E+02  0.7818608E-02  0.1130116E+00
         25   -1    0    0    0    0  0.00000000000E+00  0.00000000000E+00  0.99999998245E-14  0.12500000000E+03  0.12500000000E+03 0.  0.
        -13    1    3    3    0    0 -0.22267935828E+02  0.50900239313E+02 -0.21844689916E+02  0.59698383309E+02  0.10566000000E+00 0. -1.
         23    2    1    0    0    0 -0.65619524832E+00  0.25489566532E+02 -0.13018467568E+00  0.99501656088E+02  0.96179072683E+02 0.  0.
         13    1    3    3    0    0  0.21611740580E+02 -0.25410672781E+02  0.21714505241E+02  0.39803272779E+02  0.10566000000E+00 0.  1.
         22    1    1    0    0    0  0.65619524832E+00 -0.25489566532E+02  0.13018467568E+00  0.25498343912E+02  0.00000000000E+00 0. -1.
</event>
<event>
 5    1  0.1668518E-003  0.9118800E+02  0.7818608E-02  0.1130116E+00
         25   -1    0    0    0    0  0.00000000000E+00  0.00000000000E+00  0.99999998245E-14  0.12500000000E+03  0.12500000000E+03 0.  0.
        -13    1    3    3    0    0 -0.50912638115E+02 -0.23158040328E+02 -0.13875289526E+02  0.57627479340E+02  0.10566000000E+00 0.  1.
         23    2    1    0    0    0 -0.27076931459E+02 -0.97286425724E+01  0.10601501327E+02  0.94337343006E+02  0.89215109435E+02 0.  0.
         13    1    3    3    0    0  0.23835706657E+02  0.13429397755E+02  0.24476790853E+02  0.36709863666E+02  0.10566000000E+00 0. -1.
         22    1    1    0    0    0  0.27076931459E+02  0.97286425724E+01 -0.10601501327E+02  0.30662656994E+02  0.00000000000E+00 0.  1.
</event>
<event>
 5    1  0.1668518E-003  0.9118800E+02  0.7818608E-02  0.1130116E+00
         25   -1    0    0    0    0  0.00000000000E+00  0.00000000000E+00  0.99999998245E-14  0.12500000000E+03  0.12500000000E+03 0.  0.
        -13    1    3    3    0    0  0.19892392577E+01 -0.36462782263E+02  0.22534246746E+02  0.42910313488E+02  0.10566000000E+00 0.  1.
         23    2    1    0    0    0 -0.27948010669E+02  0.43586175544E+01  0.70339606392E+01  0.95852693956E+02  0.91313599694E+02 0.  0.
         13    1    3    3    0    0 -0.29937249927E+02  0.40821399817E+02 -0.15500286106E+02  0.52942380468E+02  0.10566000000E+00 0. -1.
         22    1    1    0    0    0  0.27948010669E+02 -0.43586175544E+01 -0.70339606392E+01  0.29147306044E+02  0.00000000000E+00 0. -1.
</event>
<event>
 5    1  0.1668518E-003  0.9118800E+02  0.7818608E-02  0.1130116E+00
         25   -1    0    0    0    0  0.00000000000E+00  0.00000000000E+00  0.99999998245E-14  0.12500000000E+03  0.12500000000E+03 0.  0.
        -13    1    3    3    0    0  0.48138352613E+02 -0.28186853185E+02 -0.13966085369E+02  0.57505324878E+02  0.10566000000E+00 0. -1.
         23    2    1    0    0    0  0.21440002748E+02  0.51216942601E+00 -0.18121990765E+02  0.96922560932E+02  0.92766590068E+02 0.  0.
         13    1    3    3    0    0 -0.26698349865E+02  0.28699022611E+02 -0.41559053962E+01  0.39417236053E+02  0.10566000000E+00 0.  1.
         22    1    1    0    0    0 -0.21440002748E+02 -0.51216942601E+00  0.18121990765E+02  0.28077439068E+02  0.00000000000E+00 0. -1.
</event>
<event>
 5    1  0.1668518E-003  0.9118800E+02  0.7818608E-02  0.1130116E+00
         25   -1    0    0    0    0  0.00000000000E+00  0.00000000000E+00  0.99999998245E-14  0.12500000000E+03  0.12500000000E+03 0.  0.
        -13    1    3    3    0    0  0.30941924532E+02 -0.48334977471E+02  0.83420196465E+01  0.57993734116E+02  0.10566000000E+00 0.  1.
         23    2    1    0    0    0  0.21124118789E+02 -0.11978511155E+02  0.15311181262E+02  0.96292067373E+02  0.91913093970E+02 0.  0.
         13    1    3    3    0    0 -0.98178057425E+01  0.36356466316E+02  0.69691616152E+01  0.38298333257E+02  0.10566000000E+00 0. -1.
         22    1    1    0    0    0 -0.21124118789E+02  0.11978511155E+02 -0.15311181262E+02  0.28707932627E+02  0.00000000000E+00 0.  1.
</event>
<event>
 5    1  0.1668518E-003  0.9118800E+02  0.7818608E-02  0.1130116E+00
         25   -1    0    0    0    0  0.00000000000E+00  0.00000000000E+00  0.99999998245E-14  0.12500000000E+03  0.12500000000E+03 0.  0.
        -13    1    3    3    0    0 -0.30617530816E+02 -0.16189300032E+02  0.12286773901E+02  0.36749185103E+02  0.10566000000E+00 0. -1.
         23    2    1    0    0    0  0.12295877300E+02 -0.91254124118E+01 -0.26088190025E+02  0.94750117206E+02  0.89791588144E+02 0.  0.
         13    1    3    3    0    0  0.42913408116E+02  0.70638876202E+01 -0.38374963926E+02  0.58000932103E+02  0.10566000000E+00 0.  1.
         22    1    1    0    0    0 -0.12295877300E+02  0.91254124118E+01  0.26088190025E+02  0.30249882794E+02  0.00000000000E+00 0.  1.
</event>
<event>
 5    1  0.1668518E-003  0.9118800E+02  0.7818608E-02  0.1130116E+00
         25   -1    0    0    0    0  0.00000000000E+00  0.00000000000E+00  0.99999998245E-14  0.12500000000E+03  0.12500000000E+03 0.  0.
        -13    1    3    3    0    0  0.20058171142E+01  0.25673807763E+02 -0.36370232431E+02  0.44564253370E+02  0.10566000000E+00 0. -1.
         23    2    1    0    0    0 -0.13534037885E+01 -0.22811308392E+02 -0.15059326900E+02  0.97632668763E+02  0.93718553076E+02 0.  0.
         13    1    3    3    0    0 -0.33592209027E+01 -0.48485116155E+02  0.21310905531E+02  0.53068415392E+02  0.10566000000E+00 0.  1.
         22    1    1    0    0    0  0.13534037885E+01  0.22811308392E+02  0.15059326900E+02  0.27367331237E+02  0.00000000000E+00 0.  1.
</event>
<event>
 5    1  0.1668518E-003  0.9118800E+02  0.7818608E-02  0.1130116E+00
         25   -1    0    0    0    0  0.00000000000E+00  0.00000000000E+00  0.99999998245E-14  0.12500000000E+03  0.12500000000E+03 0.  0.
        -13    1    3    3    0    0 -0.30768646200E+02 -0.13587906607E+02 -0.16685246116E+02  0.37546629635E+02  0.10566000000E+00 0.  1.
         23    2    1    0    0    0  0.16217876660E+02 -0.18474719427E+02  0.16601459012E+02  0.95336163050E+02  0.90603756889E+02 0.  0.
         13    1    3    3    0    0  0.46986522860E+02 -0.48868128199E+01  0.33286705128E+02  0.57789533415E+02  0.10566000000E+00 0. -1.
         22    1    1    0    0    0 -0.16217876660E+02  0.18474719427E+02 -0.16601459012E+02  0.29663836950E+02  0.00000000000E+00 0. -1.
</event>
<event>
 5    1  0.1668518E-003  0.9118800E+02  0.7818608E-02  0.1130116E+00
         25   -1    0    0    0    0  0.00000000000E+00  0.00000000000E+00  0.99999998245E-14  0.12500000000E+03  0.12500000000E+03 0.  0.
        -13    1    3    3    0    0 -0.37950607159E+00  0.33826365870E+02 -0.14680133879E+02  0.36876612475E+02  0.10566000000E+00 0. -1.
         23    2    1    0    0    0  0.26926180426E+02 -0.11349354074E+02  0.85581167883E+01  0.94552202162E+02  0.89515644110E+02 0.  0.
         13    1    3    3    0    0  0.27305686498E+02 -0.45175719944E+02  0.23238250668E+02  0.57675589687E+02  0.10566000000E+00 0.  1.
         22    1    1    0    0    0 -0.26926180426E+02  0.11349354074E+02 -0.85581167883E+01  0.30447797838E+02  0.00000000000E+00 0.  1.
</event>
<event>
 5    1  0.1668518E-003  0.9118800E+02  0.7818608E-02  0.1130116E+00
         25   -1    0    0    0    0  0.00000000000E+00  0.00000000000E+00  0.99999998245E-14  0.12500000000E+03  0.12500000000E+03 0.  0.
        -13    1    3    3    0    0 -0.42832210802E+02 -0.16646733877E+02 -0.37603046426E+02  0.59377708743E+02  0.10566000000E+00 0. -1.
         23    2    1    0    0    0 -0.98045700324E+01 -0.16125792900E+02 -0.22310770058E+02  0.95777726804E+02  0.91210918759E+02 0.  0.
         13    1    3    3    0    0  0.33027640769E+02  0.52094097663E+00  0.15292276368E+02  0.36400018061E+02  0.10566000000E+00 0.  1.
         22    1    1    0    0    0  0.98045700324E+01  0.16125792900E+02  0.22310770058E+02  0.29222273196E+02  0.00000000000E+00 0. -1.
</event>
<event>
 5    1  0.1668518E-003  0.9118800E+02  0.7818608E-02  0.1130116E+00
         25   -1    0    0    0    0  0.00000000000E+00  0.00000000000E+00  0.99999998245E-14  0.12500000000E+03  0.12500000000E+03 0.  0.
        -13    1    3    3    0    0  0.27459396674E+02  0.88198838811E+01 -0.17635988720E+02  0.33806036141E+02  0.10566000000E+00 0.  1.
         23    2    1    0    0    0 -0.48937409600E+01 -0.23004857545E+02  0.21047435384E+02  0.93437891270E+02  0.87945851621E+02 0.  0.
         13    1    3    3    0    0 -0.32353137634E+02 -0.31824741426E+02  0.38683424104E+02  0.59631855129E+02  0.10566000000E+00 0. -1.
         22    1    1    0    0    0  0.48937409600E+01  0.23004857545E+02 -0.21047435384E+02  0.31562108730E+02  0.00000000000E+00 0. -1.
</event>
<event>
 5    1  0.1668518E-003  0.9118800E+02  0.7818608E-02  0.1130116E+00
         25   -1    0    0    0    0  0.00000000000E+00  0.00000000000E+00  0.99999998245E-14  0.12500000000E+03  0.12500000000E+03 0.  0.
        -13    1    3    3    0    0 -0.12283795648E+02  0.41411306446E+02  0.41416908253E+02  0.59842788959E+02  0.10566000000E+00 0.  1.
         23    2    1    0    0    0 -0.10322647256E+02  0.25243534457E+02  0.87270012395E+01  0.96365167560E+02  0.92012455080E+02 0.  0.
         13    1    3    3    0    0  0.19611483917E+01 -0.16167771989E+02 -0.32689907013E+02  0.36522378601E+02  0.10566000000E+00 0. -1.
         22    1    1    0    0    0  0.10322647256E+02 -0.25243534457E+02 -0.87270012395E+01  0.28634832440E+02  0.00000000000E+00 0.  1.
</event>
<event>
 5    1  0.1668518E-003  0.9118800E+02  0.7818608E-02  0.1130116E+00
         25   -1    0    0    0    0  0.00000000000E+00  0.00000000000E+00  0.99999998245E-14  0.12500000000E+03  0.12500000000E+03 0.  0.
        -13    1    3    3    0    0 -0.36001311099E+02  0.22800252333E+02  0.20472251245E+02  0.47276528451E+02  0.10566000000E+00 0. -1.
         23    2    1    0    0    0  0.75240324813E+01  0.29913016388E+02  0.73226709855E+01  0.93297931856E+02  0.87746697739E+02 0.  0.
         13    1    3    3    0    0  0.43525343581E+02  0.71127640550E+01 -0.13149580260E+02  0.46021403405E+02  0.10566000000E+00 0.  1.
         22    1    1    0    0    0 -0.75240324813E+01 -0.29913016388E+02 -0.73226709855E+01  0.31702068144E+02  0.00000000000E+00 0. -1.
</event>
<event>
 5    1  0.1668518E-003  0.9118800E+02  0.7818608E-02  0.1130116E+00
         25   -1    0    0    0    0  0.00000000000E+00  0.00000000000E+00  0.99999998245E-14  0.12500000000E+03  0.12500000000E+03 0.  0.
        -13    1    3    3    0    0 -0.37423845504E+02 -0.47794663054E+02 -0.17790938462E+01  0.60729320495E+02  0.10566000000E+00 0.  1.
         23    2    1    0    0    0 -0.99420808469E+01 -0.27765044465E+02 -0.57054811615E+01  0.94961771341E+02  0.90085752676E+02 0.  0.
         13    1    3    3    0    0  0.27481764658E+02  0.20029618590E+02 -0.39263873153E+01  0.34232450846E+02  0.10566000000E+00 0. -1.
         22    1    1    0    0    0  0.99420808469E+01  0.27765044465E+02  0.57054811615E+01  0.30038228659E+02  0.00000000000E+00 0.  1.
</event>
<event>
 5    1  0.1668518E-003  0.9118800E+02  0.7818608E-02  0.1130116E+00
         25   -1    0    0    0    0  0.00000000000E+00  0.00000000000E+00  0.99999998245E-14  0.12500000000E+03  0.12500000000E+03 0.  0.
        -13    1    3    3    0    0 -0.29065056650E+02  0.26943241356E+02  0.19072923131E+00  0.39632856502E+02  0.10566000000E+00 0.  1.
         23    2    1    0    0    0 -0.27250347438E+01 -0.12678379811E+02  0.27574278218E+02  0.94528571608E+02  0.89482640228E+02 0.  0.
         13    1    3    3    0    0  0.26340021906E+02 -0.39621621167E+02  0.27383548987E+02  0.54895715106E+02  0.10566000000E+00 0. -1.
         22    1    1    0    0    0  0.27250347438E+01  0.12678379811E+02 -0.27574278218E+02  0.30471428392E+02  0.00000000000E+00 0. -1.
</event>
<event>
 5    1  0.1668518E-003  0.9118800E+02  0.7818608E-02  0.1130116E+00
         25   -1    0    0    0    0  0.00000000000E+00  0.00000000000E+00  0.99999998245E-14  0.12500000000E+03  0.12500000000E+03 0.  0.
        -13    1    3    3    0    0 -0.17399586785E+02  0.45057940021E+02  0.18222827791E+02  0.51624085424E+02  0.10566000000E+00 0.  1.
         23    2    1    0    0    0  0.12582215988E+02  0.15914295509E+02  0.23710268023E+02  0.93794972033E+02  0.88451924841E+02 0.  0.
         13    1    3    3    0    0  0.29981802773E+02 -0.29143644512E+02  0.54874402328E+01  0.42170886608E+02  0.10566000000E+00 0. -1.
         22    1    1    0    0    0 -0.12582215988E+02 -0.15914295509E+02 -0.23710268023E+02  0.31205027967E+02  0.00000000000E+00 0.  1.
</event>
<event>
 5    1  0.1668518E-003  0.9118800E+02  0.7818608E-02  0.1130116E+00
         25   -1    0    0    0    0  0.00000000000E+00  0.00000000000E+00  0.99999998245E-14  0.12500000000E+03  0.12500000000E+03 0.  0.
        -13    1    3    3    0    0 -0.54512969384E+02 -0.15871156901E+02  0.78409334213E+01  0.57315345706E+02  0.10566000000E+00 0. -1.
         23    2    1    0    0    0 -0.21782287882E+02 -0.22445007256E+02  0.13061061349E+02  0.91105491010E+02  0.84565789493E+02 0.  0.
         13    1    3    3    0    0  0.32730681502E+02 -0.65738503547E+01  0.52201279281E+01  0.33790145304E+02  0.10566000000E+00 0.  1.
         22    1    1    0    0    0  0.21782287882E+02  0.22445007256E+02 -0.13061061349E+02  0.33894508990E+02  0.00000000000E+00 0. -1.
</event>
<event>
 5    1  0.1668518E-003  0.9118800E+02  0.7818608E-02  0.1130116E+00
         25   -1    0    0    0    0  0.00000000000E+00  0.00000000000E+00  0.99999998245E-14  0.12500000000E+03  0.12500000000E+03 0.  0.
        -13    1    3    3    0    0 -0.40163529502E+02  0.19014484826E+02  0.29847337817E+02  0.53530687218E+02  0.10566000000E+00 0.  1.
         23    2    1    0    0    0  0.17061739790E+01  0.17686068280E+02  0.22934190316E+02  0.95988189882E+02  0.91498893275E+02 0.  0.
         13    1    3    3    0    0  0.41869703481E+02 -0.13284165466E+01 -0.69131475009E+01  0.42457502664E+02  0.10566000000E+00 0. -1.
         22    1    1    0    0    0 -0.17061739790E+01 -0.17686068280E+02 -0.22934190316E+02  0.29011810118E+02  0.00000000000E+00 0.  1.
</event>
<event>
 5    1  0.1668518E-003  0.9118800E+02  0.7818608E-02  0.1130116E+00
         25   -1    0    0    0    0  0.00000000000E+00  0.00000000000E+00  0.99999998245E-14  0.12500000000E+03  0.12500000000E+03 0.  0.
        -13    1    3    3    0    0  0.55693437920E+01  0.34293037254E+02 -0.68288300721E+01  0.35407260252E+02  0.10566000000E+00 0.  1.
         23    2    1    0    0    0  0.40296146923E+01 -0.21468497581E+02 -0.22793613987E+02  0.93429712995E+02  0.87934226834E+02 0.  0.
         13    1    3    3    0    0 -0.15397290997E+01 -0.55761534835E+02 -0.15964783915E+02  0.58022452743E+02  0.10566000000E+00 0. -1.
         22    1    1    0    0    0 -0.40296146923E+01  0.21468497581E+02  0.22793613987E+02  0.31570287005E+02  0.00000000000E+00 0. -1.
</event>
<event>
 5    1  0.1668518E-003  0.9118800E+02  0.7818608E-02  0.1130116E+00
         25   -1    0    0    0    0  0.00000000000E+00  0.00000000000E+00  0.99999998245E-14  0.12500000000E+03  0.12500000000E+03 0.  0.
        -13    1    3    3    0    0 -0.14157931620E+02 -0.30144726743E+01  0.56128413712E+02  0.57965024481E+02  0.10566000000E+00 0.  1.
         23    2    1    0    0    0  0.84563753101E+01  0.68476401077E+01  0.25366508163E+02  0.97398184936E+02  0.93405279476E+02 0.  0.
         13    1    3    3    0    0  0.22614306930E+02  0.98621127820E+01 -0.30761905549E+02  0.39433160455E+02  0.10566000000E+00 0. -1.
         22    1    1    0    0    0 -0.84563753101E+01 -0.68476401077E+01 -0.25366508163E+02  0.27601815064E+02  0.00000000000E+00 0.  1.
</event>
<event>
 5    1  0.1668518E-003  0.9118800E+02  0.7818608E-02  0.1130116E+00
         25   -1    0    0    0    0  0.00000000000E+00  0.00000000000E+00  0.99999998245E-14  0.12500000000E+03  0.12500000000E+03 0.  0.
        -13    1    3    3    0    0 -0.17595927935E+02 -0.17165032098E+02  0.22631144301E+02  0.33413094189E+02  0.10566000000E+00 0.  1.
         23    2    1    0    0    0  0.18520703329E+02  0.23127698571E+02 -0.62054570227E+01  0.94727659657E+02  0.89760319263E+02 0.  0.
         13    1    3    3    0    0  0.36116631264E+02  0.40292730669E+02 -0.28836601324E+02  0.61314565468E+02  0.10566000000E+00 0. -1.
         22    1    1    0    0    0 -0.18520703329E+02 -0.23127698571E+02  0.62054570227E+01  0.30272340343E+02  0.00000000000E+00 0. -1.
</event>
<event>
 5    1  0.1668518E-003  0.9118800E+02  0.7818608E-02  0.1130116E+00
         25   -1    0    0    0    0  0.00000000000E+00  0.00000000000E+00  0.99999998245E-14  0.12500000000E+03  0.12500000000E+03 0.  0.
        -13    1    3    3    0    0 -0.20773816955E+02  0.25454404534E+01 -0.12253572534E+02  0.24252668757E+02  0.10566000000E+00 0.  1.
         23    2    1    0    0    0  0.15210095525E+02  0.34766272720E+02  0.19775360226E+02  0.82208580337E+02  0.70193625667E+02 0.  0.
         13    1    3    3    0    0  0.35983912479E+02  0.32220832266E+02  0.32028932761E+02  0.57955911580E+02  0.10566000000E+00 0. -1.
         22    1    1    0    0    0 -0.15210095525E+02 -0.34766272720E+02 -0.19775360226E+02  0.42791419663E+02  0.00000000000E+00 0. -1.
</event>
<event>
 5    1  0.1668518E-003  0.9118800E+02  0.7818608E-02  0.1130116E+00
         25   -1    0    0    0    0  0.00000000000E+00  0.00000000000E+00  0.99999998245E-14  0.12500000000E+03  0.12500000000E+03 0.  0.
        -13    1    3    3    0    0  0.27478302481E+02 -0.21840250031E+02  0.56105342403E+01  0.35546348436E+02  0.10566000000E+00 0.  1.
         23    2    1    0    0    0 -0.17272448828E+01  0.29697513458E+02 -0.15301678841E+01  0.95212971041E+02  0.90433637327E+02 0.  0.
         13    1    3    3    0    0 -0.29205547363E+02  0.51537763489E+02 -0.71407021244E+01  0.59666622605E+02  0.10566000000E+00 0. -1.
         22    1    1    0    0    0  0.17272448828E+01 -0.29697513458E+02  0.15301678841E+01  0.29787028959E+02  0.00000000000E+00 0. -1.
</event>
<event>
 5    1  0.1668518E-003  0.9118800E+02  0.7818608E-02  0.1130116E+00
         25   -1    0    0    0    0  0.00000000000E+00  0.00000000000E+00  0.99999998245E-14  0.12500000000E+03  0.12500000000E+03 0.  0.
        -13    1    3    3    0    0 -0.25226156437E+02  0.20947479004E+02  0.31958517962E+00  0.32791296771E+02  0.10566000000E+00 0. -1.
         23    2    1    0    0    0  0.58714801904E+01 -0.25691989048E+02 -0.19465026972E+02  0.92236607991E+02  0.86221528622E+02 0.  0.
         13    1    3    3    0    0  0.31097636628E+02 -0.46639468052E+02 -0.19784612152E+02  0.59445311220E+02  0.10566000000E+00 0.  1.
         22    1    1    0    0    0 -0.58714801904E+01  0.25691989048E+02  0.19465026972E+02  0.32763392009E+02  0.00000000000E+00 0.  1.
</event>
<event>
 5    1  0.1668518E-003  0.9118800E+02  0.7818608E-02  0.1130116E+00
         25   -1    0    0    0    0  0.00000000000E+00  0.00000000000E+00  0.99999998245E-14  0.12500000000E+03  0.12500000000E+03 0.  0.
        -13    1    3    3    0    0 -0.31617697138E+02  0.19384899965E+01  0.33850943944E+02  0.46360911183E+02  0.10566000000E+00 0.  1.
         23    2    1    0    0    0 -0.26272366533E+01 -0.28406719544E+02  0.92381804220E+01  0.95013535300E+02  0.90157550016E+02 0.  0.
         13    1    3    3    0    0  0.28990460484E+02 -0.30345209541E+02 -0.24612763522E+02  0.48652624117E+02  0.10566000000E+00 0. -1.
         22    1    1    0    0    0  0.26272366533E+01  0.28406719544E+02 -0.92381804220E+01  0.29986464700E+02  0.00000000000E+00 0. -1.
</event>
<event>
 5    1  0.1668518E-003  0.9118800E+02  0.7818608E-02  0.1130116E+00
         25   -1    0    0    0    0  0.00000000000E+00  0.00000000000E+00  0.99999998245E-14  0.12500000000E+03  0.12500000000E+03 0.  0.
        -13    1    3    3    0    0  0.30159545138E+02  0.18347437874E+02 -0.10905529964E+01  0.35318934148E+02  0.10566000000E+00 0. -1.
         23    2    1    0    0    0 -0.21485978165E+02 -0.10985044627E+02 -0.15349358696E+02  0.96400677009E+02  0.92060682445E+02 0.  0.
         13    1    3    3    0    0 -0.51645523303E+02 -0.29332482502E+02 -0.14258805699E+02  0.61081742861E+02  0.10566000000E+00 0.  1.
         22    1    1    0    0    0  0.21485978165E+02  0.10985044627E+02  0.15349358696E+02  0.28599322991E+02  0.00000000000E+00 0.  1.
</event>
<event>
 5    1  0.1668518E-003  0.9118800E+02  0.7818608E-02  0.1130116E+00
         25   -1    0    0    0    0  0.00000000000E+00  0.00000000000E+00  0.99999998245E-14  0.12500000000E+03  0.12500000000E+03 0.  0.
        -13    1    3    3    0    0 -0.18884697817E+02  0.24655925001E+02  0.12218274058E+02  0.33374299008E+02  0.10566000000E+00 0.  1.
         23    2    1    0    0    0  0.12218806849E+02 -0.24424100944E+02 -0.10468972540E+02  0.95752173863E+02  0.91175893007E+02 0.  0.
         13    1    3    3    0    0  0.31103504666E+02 -0.49080025944E+02 -0.22687246598E+02  0.62377874855E+02  0.10566000000E+00 0. -1.
         22    1    1    0    0    0 -0.12218806849E+02  0.24424100944E+02  0.10468972540E+02  0.29247826137E+02  0.00000000000E+00 0. -1.
</event>
<event>
 5    1  0.1668518E-003  0.9118800E+02  0.7818608E-02  0.1130116E+00
         25   -1    0    0    0    0  0.00000000000E+00  0.00000000000E+00  0.99999998245E-14  0.12500000000E+03  0.12500000000E+03 0.  0.
        -13    1    3    3    0    0 -0.47063586868E+02 -0.71059995889E+01 -0.39431538973E+01  0.47760193318E+02  0.10566000000E+00 0.  1.
         23    2    1    0    0    0 -0.88235030582E+01 -0.30637534112E+02 -0.52926266698E+01  0.92680894199E+02  0.86863246254E+02 0.  0.
         13    1    3    3    0    0  0.38240083810E+02 -0.23531534523E+02 -0.13494727726E+01  0.44920700881E+02  0.10566000000E+00 0. -1.
         22    1    1    0    0    0  0.88235030582E+01  0.30637534112E+02  0.52926266698E+01  0.32319105801E+02  0.00000000000E+00 0.  1.
</event>
<event>
 5    1  0.1668518E-003  0.9118800E+02  0.7818608E-02  0.1130116E+00
         25   -1    0    0    0    0  0.00000000000E+00  0.00000000000E+00  0.99999998245E-14  0.12500000000E+03  0.12500000000E+03 0.  0.
        -13    1    3    3    0    0  0.22408088949E+02  0.26167262727E+02  0.74223588013E+01  0.35241320395E+02  0.10566000000E+00 0. -1.
         23    2    1    0    0    0 -0.50753609137E+01 -0.28080580519E+02  0.43820688789E+01  0.96129932138E+02  0.91692328112E+02 0.  0.
         13    1    3    3    0    0 -0.27483449863E+02 -0.54247843246E+02 -0.30402899224E+01  0.60888611743E+02  0.10566000000E+00 0.  1.
         22    1    1    0    0    0  0.50753609137E+01  0.28080580519E+02 -0.43820688789E+01  0.28870067862E+02  0.00000000000E+00 0.  1.
</event>
<event>
 5    1  0.1668518E-003  0.9118800E+02  0.7818608E-02  0.1130116E+00
         25   -1    0    0    0    0  0.00000000000E+00  0.00000000000E+00  0.99999998245E-14  0.12500000000E+03  0.12500000000E+03 0.  0.
        -13    1    3    3    0    0 -0.31533114304E+02  0.20960536523E+02  0.12908086445E+02  0.40003890421E+02  0.10566000000E+00 0.  1.
         23    2    1    0    0    0 -0.10675753176E+02 -0.27079115637E+02 -0.52265206585E+01  0.95426925629E+02  0.90728889596E+02 0.  0.
         13    1    3    3    0    0  0.20857361128E+02 -0.48039652160E+02 -0.18134607104E+02  0.55423035209E+02  0.10566000000E+00 0. -1.
         22    1    1    0    0    0  0.10675753176E+02  0.27079115637E+02  0.52265206585E+01  0.29573074371E+02  0.00000000000E+00 0.  1.
</event>
<event>
 4    1  0.1668518E-003  0.9118800E+02  0.7818608E-02  0.1130116E+00
         25   -1    0    0    0    0  0.00000000000E+00  0.00000000000E+00  0.99999998245E-14  0.12500000000E+03  0.12500000000E+03 0.  0.
        -13    1    1    0    0    0 -0.28010357522E+02  0.10742965616E+02  0.24051594738E+02  0.38451031355E+02  0.10566000000E+00 0. -1.
         13    1    1    0    0    0 -0.25793797877E+02  0.38823775229E+01 -0.14918539256E+02  0.30049406678E+02  0.10566000000E+00 0.  1.
         22    1    1    0    0    0  0.53804155399E+02 -0.14625343139E+02 -0.91330554827E+01  0.56499561968E+02  0.00000000000E+00 0. -1.
</event>
<event>
 5    1  0.1668518E-003  0.9118800E+02  0.7818608E-02  0.1130116E+00
         25   -1    0    0    0    0  0.00000000000E+00  0.00000000000E+00  0.99999998245E-14  0.12500000000E+03  0.12500000000E+03 0.  0.
        -13    1    3    3    0    0 -0.10789968107E+02 -0.20211785070E+02  0.33749330897E+02  0.40791765927E+02  0.10566000000E+00 0.  1.
         23    2    1    0    0    0 -0.24630535280E+02  0.12015823368E+02 -0.90613389057E+01  0.96135642357E+02  0.91700112264E+02 0.  0.
         13    1    3    3    0    0 -0.13840567172E+02  0.32227608438E+02 -0.42810669802E+02  0.55343876430E+02  0.10566000000E+00 0. -1.
         22    1    1    0    0    0  0.24630535280E+02 -0.12015823368E+02  0.90613389057E+01  0.28864357643E+02  0.00000000000E+00 0. -1.
</event>
<event>
 5    1  0.1668518E-003  0.9118800E+02  0.7818608E-02  0.1130116E+00
         25   -1    0    0    0    0  0.00000000000E+00  0.00000000000E+00  0.99999998245E-14  0.12500000000E+03  0.12500000000E+03 0.  0.
        -13    1    3    3    0    0  0.16844678591E+02  0.29341554217E+02 -0.25462692021E+02  0.42344183186E+02  0.10566000000E+00 0. -1.
         23    2    1    0    0    0  0.11659888336E+01 -0.22547139842E+02 -0.15897004572E+02  0.97387542678E+02  0.93391036344E+02 0.  0.
         13    1    3    3    0    0 -0.15678689757E+02 -0.51888694059E+02  0.95656874488E+01  0.55043359491E+02  0.10566000000E+00 0.  1.
         22    1    1    0    0    0 -0.11659888336E+01  0.22547139842E+02  0.15897004572E+02  0.27612457322E+02  0.00000000000E+00 0.  1.
</event>
<event>
 5    1  0.1668518E-003  0.9118800E+02  0.7818608E-02  0.1130116E+00
         25   -1    0    0    0    0  0.00000000000E+00  0.00000000000E+00  0.99999998245E-14  0.12500000000E+03  0.12500000000E+03 0.  0.
        -13    1    3    3    0    0 -0.13272487458E+02  0.26089722031E+02  0.44944195147E+02  0.53636036024E+02  0.10566000000E+00 0.  1.
         23    2    1    0    0    0 -0.28124589690E+01  0.29105014366E+02  0.46289381997E+01  0.95395289976E+02  0.90685293704E+02 0.  0.
         13    1    3    3    0    0  0.10460028489E+02  0.30152923356E+01 -0.40315256947E+02  0.41759253952E+02  0.10566000000E+00 0. -1.
         22    1    1    0    0    0  0.28124589690E+01 -0.29105014366E+02 -0.46289381997E+01  0.29604710024E+02  0.00000000000E+00 0.  1.
</event>
<event>
 5    1  0.1668518E-003  0.9118800E+02  0.7818608E-02  0.1130116E+00
         25   -1    0    0    0    0  0.00000000000E+00  0.00000000000E+00  0.99999998245E-14  0.12500000000E+03  0.12500000000E+03 0.  0.
        -13    1    3    3    0    0  0.37982195182E+02 -0.12254471042E+02 -0.17221242549E+02  0.43467247098E+02  0.10566000000E+00 0. -1.
         23    2    1    0    0    0  0.28253624524E+02  0.14627405199E+02  0.17695502581E+02  0.88594518363E+02  0.80768989042E+02 0.  0.
         13    1    3    3    0    0 -0.97285706580E+01  0.26881876241E+02  0.34916745130E+02  0.45127271265E+02  0.10566000000E+00 0.  1.
         22    1    1    0    0    0 -0.28253624524E+02 -0.14627405199E+02 -0.17695502581E+02  0.36405481637E+02  0.00000000000E+00 0.  1.
</event>
<event>
 5    1  0.1668518E-003  0.9118800E+02  0.7818608E-02  0.1130116E+00
         25   -1    0    0    0    0  0.00000000000E+00  0.00000000000E+00  0.99999998245E-14  0.12500000000E+03  0.12500000000E+03 0.  0.
        -13    1    3    3    0    0  0.35219607867E+02  0.23481529316E+02  0.15119973214E+02  0.44949168528E+02  0.10566000000E+00 0. -1.
         23    2    1    0    0    0 -0.14529752719E+02  0.25265562663E+00  0.20229801608E+02  0.10009171981E+03  0.96942921105E+02 0.  0.
         13    1    3    3    0    0 -0.49749360586E+02 -0.23228873690E+02  0.51098283940E+01  0.55142551281E+02  0.10566000000E+00 0.  1.
         22    1    1    0    0    0  0.14529752719E+02 -0.25265562663E+00 -0.20229801608E+02  0.24908280190E+02  0.00000000000E+00 0.  1.
</event>
<event>
 5    1  0.1668518E-003  0.9118800E+02  0.7818608E-02  0.1130116E+00
         25   -1    0    0    0    0  0.00000000000E+00  0.00000000000E+00  0.99999998245E-14  0.12500000000E+03  0.12500000000E+03 0.  0.
        -13    1    3    3    0    0  0.10963612846E+02  0.20015559270E+01 -0.45050420481E+02  0.46408604615E+02  0.10566000000E+00 0.  1.
         23    2    1    0    0    0  0.28237369896E+02 -0.75180553545E+01  0.20817183549E+00  0.95778200766E+02  0.91211568298E+02 0.  0.
         13    1    3    3    0    0  0.17273757050E+02 -0.95196112814E+01  0.45258592316E+02  0.49369596151E+02  0.10566000000E+00 0. -1.
         22    1    1    0    0    0 -0.28237369896E+02  0.75180553545E+01 -0.20817183549E+00  0.29221799234E+02  0.00000000000E+00 0. -1.
</event>
<event>
 5    1  0.1668518E-003  0.9118800E+02  0.7818608E-02  0.1130116E+00
         25   -1    0    0    0    0  0.00000000000E+00  0.00000000000E+00  0.99999998245E-14  0.12500000000E+03  0.12500000000E+03 0.  0.
        -13    1    3    3    0    0  0.18259146650E+02 -0.52578044816E+02 -0.15322779173E+02  0.57729073773E+02  0.10566000000E+00 0.  1.
         23    2    1    0    0    0  0.21488529895E+02 -0.15610803689E+02  0.13382242058E+01  0.98405922598E+02  0.94744290854E+02 0.  0.
         13    1    3    3    0    0  0.32293832449E+01  0.36967241127E+02  0.16661003379E+02  0.40676848825E+02  0.10566000000E+00 0. -1.
         22    1    1    0    0    0 -0.21488529895E+02  0.15610803689E+02 -0.13382242058E+01  0.26594077402E+02  0.00000000000E+00 0.  1.
</event>
<event>
 5    1  0.1668518E-003  0.9118800E+02  0.7818608E-02  0.1130116E+00
         25   -1    0    0    0    0  0.00000000000E+00  0.00000000000E+00  0.99999998245E-14  0.12500000000E+03  0.12500000000E+03 0.  0.
        -13    1    3    3    0    0 -0.41912614119E+02 -0.14332598406E+02  0.18571892016E+02  0.48031416140E+02  0.10566000000E+00 0.  1.
         23    2    1    0    0    0 -0.33817362873E+01  0.14346040506E+02  0.24479524266E+02  0.96425673642E+02  0.92094616621E+02 0.  0.
         13    1    3    3    0    0  0.38530877832E+02  0.28678638912E+02  0.59076322499E+01  0.48394257502E+02  0.10566000000E+00 0. -1.
         22    1    1    0    0    0  0.33817362873E+01 -0.14346040506E+02 -0.24479524266E+02  0.28574326358E+02  0.00000000000E+00 0.  1.
</event>
<event>
 5    1  0.1668518E-003  0.9118800E+02  0.7818608E-02  0.1130116E+00
         25   -1    0    0    0    0  0.00000000000E+00  0.00000000000E+00  0.99999998245E-14  0.12500000000E+03  0.12500000000E+03 0.  0.
        -13    1    3    3    0    0  0.34725662731E+02 -0.64139911099E+01  0.26565228295E+02  0.44189743747E+02  0.10566000000E+00 0. -1.
         23    2    1    0    0    0 -0.16434511360E+01 -0.28649775164E+02 -0.31177489527E+01  0.96134260669E+02  0.91698228812E+02 0.  0.
         13    1    3    3    0    0 -0.36369113867E+02 -0.22235784054E+02 -0.29682977247E+02  0.51944516922E+02  0.10566000000E+00 0.  1.
         22    1    1    0    0    0  0.16434511360E+01  0.28649775164E+02  0.31177489527E+01  0.28865739331E+02  0.00000000000E+00 0.  1.
</event>
<event>
 5    1  0.1668518E-003  0.9118800E+02  0.7818608E-02  0.1130116E+00
         25   -1    0    0    0    0  0.00000000000E+00  0.00000000000E+00  0.99999998245E-14  0.12500000000E+03  0.12500000000E+03 0.  0.
        -13    1    3    3    0    0  0.31607153906E+01  0.31783592271E+01 -0.35386187306E+02  0.35669111360E+02  0.10566000000E+00 0.  1.
         23    2    1    0    0    0 -0.48002183704E+01  0.24731348975E+02  0.18164930784E+02  0.93941242316E+02  0.88658392603E+02 0.  0.
         13    1    3    3    0    0 -0.79609337610E+01  0.21552989748E+02  0.53551118089E+02  0.58272130955E+02  0.10566000000E+00 0. -1.
         22    1    1    0    0    0  0.48002183704E+01 -0.24731348975E+02 -0.18164930784E+02  0.31058757684E+02  0.00000000000E+00 0. -1.
</event>
<event>
 5    1  0.1668518E-003  0.9118800E+02  0.7818608E-02  0.1130116E+00
         25   -1    0    0    0    0  0.00000000000E+00  0.00000000000E+00  0.99999998245E-14  0.12500000000E+03  0.12500000000E+03 0.  0.
        -13    1    3    3    0    0 -0.33378217131E+02 -0.32146469061E+02 -0.32846138188E+02  0.56801239509E+02  0.10566000000E+00 0.  1.
         23    2    1    0    0    0  0.25753273440E+01 -0.18651646721E+02 -0.20559079394E+02  0.97121836828E+02  0.93034720438E+02 0.  0.
         13    1    3    3    0    0  0.35953544475E+02  0.13494822340E+02  0.12287058794E+02  0.40320597319E+02  0.10566000000E+00 0. -1.
         22    1    1    0    0    0 -0.25753273440E+01  0.18651646721E+02  0.20559079394E+02  0.27878163172E+02  0.00000000000E+00 0.  1.
</event>
<event>
 5    1  0.1668518E-003  0.9118800E+02  0.7818608E-02  0.1130116E+00
         25   -1    0    0    0    0  0.00000000000E+00  0.00000000000E+00  0.99999998245E-14  0.12500000000E+03  0.12500000000E+03 0.  0.
        -13    1    3    3    0    0 -0.57867482845E+02  0.99451093943E+00 -0.60469859373E+01  0.58191166217E+02  0.10566000000E+00 0.  1.
         23    2    1    0    0    0 -0.24218874447E+02  0.10574302832E+02 -0.15410347601E+02  0.94408357791E+02  0.89314553393E+02 0.  0.
         13    1    3    3    0    0  0.33648608398E+02  0.95797918930E+01 -0.93633616633E+01  0.36217191574E+02  0.10566000000E+00 0. -1.
         22    1    1    0    0    0  0.24218874447E+02 -0.10574302832E+02  0.15410347601E+02  0.30591642209E+02  0.00000000000E+00 0.  1.
</event>
<event>
 5    1  0.1668518E-003  0.9118800E+02  0.7818608E-02  0.1130116E+00
         25   -1    0    0    0    0  0.00000000000E+00  0.00000000000E+00  0.99999998245E-14  0.12500000000E+03  0.12500000000E+03 0.  0.
        -13    1    3    3    0    0  0.21310338828E+02  0.49487391783E+02  0.60343571123E+01  0.54217682690E+02  0.10566000000E+00 0. -1.
         23    2    1    0    0    0  0.24422008804E+02  0.26723919330E+02 -0.15418026758E+02  0.85651328771E+02  0.76077803548E+02 0.  0.
         13    1    3    3    0    0  0.31116699762E+01 -0.22763472454E+02 -0.21452383870E+02  0.31433646081E+02  0.10566000000E+00 0.  1.
         22    1    1    0    0    0 -0.24422008804E+02 -0.26723919330E+02  0.15418026758E+02  0.39348671229E+02  0.00000000000E+00 0. -1.
</event>
<event>
 5    1  0.1668518E-003  0.9118800E+02  0.7818608E-02  0.1130116E+00
         25   -1    0    0    0    0  0.00000000000E+00  0.00000000000E+00  0.99999998245E-14  0.12500000000E+03  0.12500000000E+03 0.  0.
        -13    1    3    3    0    0  0.29294796433E+02  0.12769080598E+01 -0.31575526315E+02  0.43091073534E+02  0.10566000000E+00 0.  1.
         23    2    1    0    0    0  0.78381144352E+01  0.21767405651E+02  0.14356430588E+02  0.97772016492E+02  0.93904228462E+02 0.  0.
         13    1    3    3    0    0 -0.21456681998E+02  0.20490497591E+02  0.45931956903E+02  0.54680942958E+02  0.10566000000E+00 0. -1.
         22    1    1    0    0    0 -0.78381144352E+01 -0.21767405651E+02 -0.14356430588E+02  0.27227983508E+02  0.00000000000E+00 0. -1.
</event>
<event>
 5    1  0.1668518E-003  0.9118800E+02  0.7818608E-02  0.1130116E+00
         25   -1    0    0    0    0  0.00000000000E+00  0.00000000000E+00  0.99999998245E-14  0.12500000000E+03  0.12500000000E+03 0.  0.
        -13    1    3    3    0    0 -0.10862569103E+02 -0.13555781009E+02  0.34985858661E+02  0.39061183757E+02  0.10566000000E+00 0.  1.
         23    2    1    0    0    0 -0.16994980554E+02 -0.68022865350E+01 -0.21776228400E+02  0.96551720799E+02  0.92265541779E+02 0.  0.
         13    1    3    3    0    0 -0.61324114506E+01  0.67534944741E+01 -0.56762087061E+02  0.57490537042E+02  0.10566000000E+00 0. -1.
         22    1    1    0    0    0  0.16994980554E+02  0.68022865350E+01  0.21776228400E+02  0.28448279201E+02  0.00000000000E+00 0. -1.
</event>
<event>
 5    1  0.1668518E-003  0.9118800E+02  0.7818608E-02  0.1130116E+00
         25   -1    0    0    0    0  0.00000000000E+00  0.00000000000E+00  0.99999998245E-14  0.12500000000E+03  0.12500000000E+03 0.  0.
        -13    1    3    3    0    0  0.54117355724E+02  0.18905906362E+02  0.20715290106E+02  0.60952898981E+02  0.10566000000E+00 0.  1.
         23    2    1    0    0    0  0.26976832369E+02  0.86206317370E+01 -0.11615780199E+00  0.96679013633E+02  0.92437835371E+02 0.  0.
         13    1    3    3    0    0 -0.27140523356E+02 -0.10285274625E+02 -0.20831447908E+02  0.35726114652E+02  0.10566000000E+00 0. -1.
         22    1    1    0    0    0 -0.26976832369E+02 -0.86206317370E+01  0.11615780199E+00  0.28320986367E+02  0.00000000000E+00 0.  1.
</event>
<event>
 5    1  0.1668518E-003  0.9118800E+02  0.7818608E-02  0.1130116E+00
         25   -1    0    0    0    0  0.00000000000E+00  0.00000000000E+00  0.99999998245E-14  0.12500000000E+03  0.12500000000E+03 0.  0.
        -13    1    3    3    0    0  0.54213749280E+02  0.80494890733E+01 -0.27755408652E+02  0.61435321752E+02  0.10566000000E+00 0.  1.
         23    2    1    0    0    0  0.23569903591E+02  0.11543633382E+02 -0.10916352875E+02  0.96575317292E+02  0.92297504424E+02 0.  0.
         13    1    3    3    0    0 -0.30643845689E+02  0.34941443090E+01  0.16839055777E+02  0.35139995540E+02  0.10566000000E+00 0. -1.
         22    1    1    0    0    0 -0.23569903591E+02 -0.11543633382E+02  0.10916352875E+02  0.28424682708E+02  0.00000000000E+00 0.  1.
</event>
<event>
 5    1  0.1668518E-003  0.9118800E+02  0.7818608E-02  0.1130116E+00
         25   -1    0    0    0    0  0.00000000000E+00  0.00000000000E+00  0.99999998245E-14  0.12500000000E+03  0.12500000000E+03 0.  0.
        -13    1    3    3    0    0  0.18768836743E+02  0.30725262915E+02  0.40989655478E+01  0.36237048673E+02  0.10566000000E+00 0. -1.
         23    2    1    0    0    0  0.68082741939E+01 -0.25727839605E+02  0.14222473806E+02  0.94824627767E+02  0.89895255391E+02 0.  0.
         13    1    3    3    0    0 -0.11960562549E+02 -0.56453102520E+02  0.10123508258E+02  0.58587579094E+02  0.10566000000E+00 0.  1.
         22    1    1    0    0    0 -0.68082741939E+01  0.25727839605E+02 -0.14222473806E+02  0.30175372233E+02  0.00000000000E+00 0.  1.
</event>
<event>
 5    1  0.1668518E-003  0.9118800E+02  0.7818608E-02  0.1130116E+00
         25   -1    0    0    0    0  0.00000000000E+00  0.00000000000E+00  0.99999998245E-14  0.12500000000E+03  0.12500000000E+03 0.  0.
        -13    1    3    3    0    0  0.44574664635E+02  0.33568445053E+02  0.15534567524E+02  0.57923010823E+02  0.10566000000E+00 0. -1.
         23    2    1    0    0    0  0.17154902641E+02  0.22558857135E+02 -0.78360693916E+01  0.95595974708E+02  0.90961495573E+02 0.  0.
         13    1    3    3    0    0 -0.27419761994E+02 -0.11009587918E+02 -0.23370636916E+02  0.37672963884E+02  0.10566000000E+00 0.  1.
         22    1    1    0    0    0 -0.17154902641E+02 -0.22558857135E+02  0.78360693916E+01  0.29404025292E+02  0.00000000000E+00 0. -1.
</event>
<event>
 5    1  0.1668518E-003  0.9118800E+02  0.7818608E-02  0.1130116E+00
         25   -1    0    0    0    0  0.00000000000E+00  0.00000000000E+00  0.99999998245E-14  0.12500000000E+03  0.12500000000E+03 0.  0.
        -13    1    3    3    0    0 -0.21438666830E+02 -0.34004748564E+02  0.42960807018E+02  0.58835205991E+02  0.10566000000E+00 0.  1.
         23    2    1    0    0    0  0.35069452268E+01 -0.10930824154E+02  0.25490125091E+02  0.97044176659E+02  0.92930318868E+02 0.  0.
         13    1    3    3    0    0  0.24945612056E+02  0.23073924410E+02 -0.17470681927E+02  0.38208970669E+02  0.10566000000E+00 0. -1.
         22    1    1    0    0    0 -0.35069452268E+01  0.10930824154E+02 -0.25490125091E+02  0.27955823341E+02  0.00000000000E+00 0.  1.
</event>
<event>
 5    1  0.1668518E-003  0.9118800E+02  0.7818608E-02  0.1130116E+00
         25   -1    0    0    0    0  0.00000000000E+00  0.00000000000E+00  0.99999998245E-14  0.12500000000E+03  0.12500000000E+03 0.  0.
        -13    1    3    3    0    0  0.37222828410E+02  0.24180682591E+02  0.13521454184E+02  0.46401349686E+02  0.10566000000E+00 0. -1.
         23    2    1    0    0    0 -0.11481703763E+02  0.25995228784E+02  0.81593526968E+01  0.95433862659E+02  0.90738446453E+02 0.  0.
         13    1    3    3    0    0 -0.48704532173E+02  0.18145461924E+01 -0.53621014868E+01  0.49032512973E+02  0.10566000000E+00 0.  1.
         22    1    1    0    0    0  0.11481703763E+02 -0.25995228784E+02 -0.81593526968E+01  0.29566137341E+02  0.00000000000E+00 0. -1.
</event>
<event>
 5    1  0.1668518E-003  0.9118800E+02  0.7818608E-02  0.1130116E+00
         25   -1    0    0    0    0  0.00000000000E+00  0.00000000000E+00  0.99999998245E-14  0.12500000000E+03  0.12500000000E+03 0.  0.
        -13    1    3    3    0    0  0.95886290454E+01  0.38778417049E+01  0.38692073042E+02  0.40050807028E+02  0.10566000000E+00 0. -1.
         23    2    1    0    0    0 -0.60053272130E+01  0.26082979706E+02 -0.10515022626E+02  0.96243235820E+02  0.91846660010E+02 0.  0.
         13    1    3    3    0    0 -0.15593956258E+02  0.22205138001E+02 -0.49207095668E+02  0.56192428792E+02  0.10566000000E+00 0.  1.
         22    1    1    0    0    0  0.60053272130E+01 -0.26082979706E+02  0.10515022626E+02  0.28756764180E+02  0.00000000000E+00 0.  1.
</event>
<event>
 5    1  0.1668518E-003  0.9118800E+02  0.7818608E-02  0.1130116E+00
         25   -1    0    0    0    0  0.00000000000E+00  0.00000000000E+00  0.99999998245E-14  0.12500000000E+03  0.12500000000E+03 0.  0.
        -13    1    3    3    0    0  0.40026671570E+02  0.21673818268E+02  0.42781747081E+02  0.62467414567E+02  0.10566000000E+00 0. -1.
         23    2    1    0    0    0  0.25224556450E+02  0.15112833139E+02  0.26936235303E+02  0.85122227422E+02  0.75203436460E+02 0.  0.
         13    1    3    3    0    0 -0.14802115121E+02 -0.65609851290E+01 -0.15845511779E+02  0.22654812855E+02  0.10566000000E+00 0.  1.
         22    1    1    0    0    0 -0.25224556450E+02 -0.15112833139E+02 -0.26936235303E+02  0.39877772578E+02  0.00000000000E+00 0. -1.
</event>
<event>
 5    1  0.1668518E-003  0.9118800E+02  0.7818608E-02  0.1130116E+00
         25   -1    0    0    0    0  0.00000000000E+00  0.00000000000E+00  0.99999998245E-14  0.12500000000E+03  0.12500000000E+03 0.  0.
        -13    1    3    3    0    0 -0.29207798973E+02 -0.30944345475E+02  0.54970106736E+01  0.42905434716E+02  0.10566000000E+00 0.  1.
         23    2    1    0    0    0  0.12127280466E+02 -0.17473970935E+02 -0.22042362454E+02  0.94368703353E+02  0.89259037852E+02 0.  0.
         13    1    3    3    0    0  0.41335079440E+02  0.13470374541E+02 -0.27539373127E+02  0.51463268637E+02  0.10566000000E+00 0. -1.
         22    1    1    0    0    0 -0.12127280466E+02  0.17473970935E+02  0.22042362454E+02  0.30631296647E+02  0.00000000000E+00 0. -1.
</event>
<event>
 5    1  0.1668518E-003  0.9118800E+02  0.7818608E-02  0.1130116E+00
         25   -1    0    0    0    0  0.00000000000E+00  0.00000000000E+00  0.99999998245E-14  0.12500000000E+03  0.12500000000E+03 0.  0.
        -13    1    3    3    0    0 -0.14493643245E+01  0.44520070581E+02 -0.43096701659E+02  0.61979627293E+02  0.10566000000E+00 0.  1.
         23    2    1    0    0    0 -0.13630278352E+01  0.23168986185E+02 -0.14627071456E+02  0.97566243694E+02  0.93629914682E+02 0.  0.
         13    1    3    3    0    0  0.86336489273E-01 -0.21351084396E+02  0.28469630204E+02  0.35586616400E+02  0.10566000000E+00 0. -1.
         22    1    1    0    0    0  0.13630278352E+01 -0.23168986185E+02  0.14627071456E+02  0.27433756306E+02  0.00000000000E+00 0.  1.
</event>
<event>
 5    1  0.1668518E-003  0.9118800E+02  0.7818608E-02  0.1130116E+00
         25   -1    0    0    0    0  0.00000000000E+00  0.00000000000E+00  0.99999998245E-14  0.12500000000E+03  0.12500000000E+03 0.  0.
        -13    1    3    3    0    0 -0.20030119876E+02 -0.42777782818E+02 -0.96666444552E+01  0.48214101507E+02  0.10566000000E+00 0.  1.
         23    2    1    0    0    0 -0.29514097017E+02  0.26992950462E+01 -0.20289342236E+01  0.95293356121E+02  0.90544679746E+02 0.  0.
         13    1    3    3    0    0 -0.94839771411E+01  0.45477077864E+02  0.76377102316E+01  0.47079254614E+02  0.10566000000E+00 0. -1.
         22    1    1    0    0    0  0.29514097017E+02 -0.26992950462E+01  0.20289342236E+01  0.29706643879E+02  0.00000000000E+00 0.  1.
</event>
<event>
 5    1  0.1668518E-003  0.9118800E+02  0.7818608E-02  0.1130116E+00
         25   -1    0    0    0    0  0.00000000000E+00  0.00000000000E+00  0.99999998245E-14  0.12500000000E+03  0.12500000000E+03 0.  0.
        -13    1    3    3    0    0 -0.18187385671E+02 -0.28486823233E+02  0.20624823737E+02  0.39593870911E+02  0.10566000000E+00 0. -1.
         23    2    1    0    0    0 -0.18198460178E+02  0.22992508324E+02 -0.15274810479E+01  0.95637224411E+02  0.91018163588E+02 0.  0.
         13    1    3    3    0    0 -0.11074507317E-01  0.51479331558E+02 -0.22152304785E+02  0.56043353501E+02  0.10566000000E+00 0.  1.
         22    1    1    0    0    0  0.18198460178E+02 -0.22992508324E+02  0.15274810479E+01  0.29362775589E+02  0.00000000000E+00 0.  1.
</event>
<event>
 5    1  0.1668518E-003  0.9118800E+02  0.7818608E-02  0.1130116E+00
         25   -1    0    0    0    0  0.00000000000E+00  0.00000000000E+00  0.99999998245E-14  0.12500000000E+03  0.12500000000E+03 0.  0.
        -13    1    3    3    0    0  0.14986212096E+02  0.40286277815E+02 -0.26373874816E+02  0.50429784552E+02  0.10566000000E+00 0.  1.
         23    2    1    0    0    0 -0.91565134974E+01  0.12386721005E+02 -0.33610255450E+02  0.88028093529E+02  0.79887567132E+02 0.  0.
         13    1    3    3    0    0 -0.24142725593E+02 -0.27899556809E+02 -0.72363806344E+01  0.37598308977E+02  0.10566000000E+00 0. -1.
         22    1    1    0    0    0  0.91565134974E+01 -0.12386721005E+02  0.33610255450E+02  0.36971906471E+02  0.00000000000E+00 0.  1.
</event>
<event>
 5    1  0.1668518E-003  0.9118800E+02  0.7818608E-02  0.1130116E+00
         25   -1    0    0    0    0  0.00000000000E+00  0.00000000000E+00  0.99999998245E-14  0.12500000000E+03  0.12500000000E+03 0.  0.
        -13    1    3    3    0    0  0.45130975075E+02 -0.31717260882E+02  0.26946519766E+02  0.61391494856E+02  0.10566000000E+00 0. -1.
         23    2    1    0    0    0  0.18854095762E+02 -0.96691519040E+01  0.18859647006E+02  0.96633546032E+02  0.92376330886E+02 0.  0.
         13    1    3    3    0    0 -0.26276879314E+02  0.22048108978E+02 -0.80868727593E+01  0.35242051175E+02  0.10566000000E+00 0.  1.
         22    1    1    0    0    0 -0.18854095762E+02  0.96691519040E+01 -0.18859647006E+02  0.28366453968E+02  0.00000000000E+00 0. -1.
</event>
<event>
 5    1  0.1668518E-003  0.9118800E+02  0.7818608E-02  0.1130116E+00
         25   -1    0    0    0    0  0.00000000000E+00  0.00000000000E+00  0.99999998245E-14  0.12500000000E+03  0.12500000000E+03 0.  0.
        -13    1    3    3    0    0 -0.13901696239E+02  0.14568426372E+02  0.38764331129E+02  0.43682728134E+02  0.10566000000E+00 0.  1.
         23    2    1    0    0    0 -0.26672214311E+02 -0.85999176126E+01 -0.66105372905E+01  0.96206514583E+02  0.91796670123E+02 0.  0.
         13    1    3    3    0    0 -0.12770518073E+02 -0.23168343985E+02 -0.45374868420E+02  0.52523786449E+02  0.10566000000E+00 0. -1.
         22    1    1    0    0    0  0.26672214311E+02  0.85999176126E+01  0.66105372905E+01  0.28793485417E+02  0.00000000000E+00 0. -1.
</event>
<event>
 5    1  0.1668518E-003  0.9118800E+02  0.7818608E-02  0.1130116E+00
         25   -1    0    0    0    0  0.00000000000E+00  0.00000000000E+00  0.99999998245E-14  0.12500000000E+03  0.12500000000E+03 0.  0.
        -13    1    3    3    0    0 -0.34474944991E+02  0.15513878303E+02 -0.35463506791E+01  0.37970910172E+02  0.10566000000E+00 0.  1.
         23    2    1    0    0    0  0.24695959215E+02  0.11896995272E+02  0.20221784460E+01  0.97513310427E+02  0.93559219784E+02 0.  0.
         13    1    3    3    0    0  0.59170904206E+02 -0.36168830308E+01  0.55685291251E+01  0.59542400254E+02  0.10566000000E+00 0. -1.
         22    1    1    0    0    0 -0.24695959215E+02 -0.11896995272E+02 -0.20221784460E+01  0.27486689573E+02  0.00000000000E+00 0. -1.
</event>
<event>
 5    1  0.1668518E-003  0.9118800E+02  0.7818608E-02  0.1130116E+00
         25   -1    0    0    0    0  0.00000000000E+00  0.00000000000E+00  0.99999998245E-14  0.12500000000E+03  0.12500000000E+03 0.  0.
        -13    1    3    3    0    0 -0.50685733802E+01 -0.33268465246E+02 -0.49471451077E+02  0.59832406367E+02  0.10566000000E+00 0.  1.
         23    2    1    0    0    0 -0.13392721289E+02 -0.18555938476E+02 -0.16823423368E+02  0.96597264039E+02  0.92327222474E+02 0.  0.
         13    1    3    3    0    0 -0.83241479087E+01  0.14712526770E+02  0.32648027709E+02  0.36764857673E+02  0.10566000000E+00 0. -1.
         22    1    1    0    0    0  0.13392721289E+02  0.18555938476E+02  0.16823423368E+02  0.28402735961E+02  0.00000000000E+00 0.  1.
</event>
<event>
 5    1  0.1668518E-003  0.9118800E+02  0.7818608E-02  0.1130116E+00
         25   -1    0    0    0    0  0.00000000000E+00  0.00000000000E+00  0.99999998245E-14  0.12500000000E+03  0.12500000000E+03 0.  0.
        -13    1    3    3    0    0  0.25425604345E+02  0.32672584112E+02  0.14806640032E+02  0.43968248339E+02  0.10566000000E+00 0. -1.
         23    2    1    0    0    0 -0.23082271749E+02  0.16976863894E+02  0.42586434168E+01  0.96032065650E+02  0.91558813953E+02 0.  0.
         13    1    3    3    0    0 -0.48507876094E+02 -0.15695720219E+02 -0.10547996616E+02  0.52063817311E+02  0.10566000000E+00 0.  1.
         22    1    1    0    0    0  0.23082271749E+02 -0.16976863894E+02 -0.42586434168E+01  0.28967934350E+02  0.00000000000E+00 0. -1.
</event>
<event>
 5    1  0.1668518E-003  0.9118800E+02  0.7818608E-02  0.1130116E+00
         25   -1    0    0    0    0  0.00000000000E+00  0.00000000000E+00  0.99999998245E-14  0.12500000000E+03  0.12500000000E+03 0.  0.
        -13    1    3    3    0    0 -0.44469543051E+01  0.30264350660E+01  0.53811414482E+02  0.54079702333E+02  0.10566000000E+00 0.  1.
         23    2    1    0    0    0 -0.95019033885E+01  0.22778134852E+02  0.21595542247E+02  0.92205228461E+02  0.86176024017E+02 0.  0.
         13    1    3    3    0    0 -0.50549490834E+01  0.19751699786E+02 -0.32215872235E+02  0.38125526129E+02  0.10566000000E+00 0. -1.
         22    1    1    0    0    0  0.95019033885E+01 -0.22778134852E+02 -0.21595542247E+02  0.32794771539E+02  0.00000000000E+00 0.  1.
</event>
<event>
 5    1  0.1668518E-003  0.9118800E+02  0.7818608E-02  0.1130116E+00
         25   -1    0    0    0    0  0.00000000000E+00  0.00000000000E+00  0.99999998245E-14  0.12500000000E+03  0.12500000000E+03 0.  0.
        -13    1    3    3    0    0 -0.14000269176E+02  0.33984129682E+02 -0.41254076470E+02  0.55252498556E+02  0.10566000000E+00 0.  1.
         23    2    1    0    0    0  0.53543569662E+01  0.15444978982E+02 -0.39662332032E+02  0.82101082805E+02  0.70001933553E+02 0.  0.
         13    1    3    3    0    0  0.19354626142E+02 -0.18539150700E+02  0.15917444377E+01  0.26848584249E+02  0.10566000000E+00 0. -1.
         22    1    1    0    0    0 -0.53543569662E+01 -0.15444978982E+02  0.39662332032E+02  0.42898917195E+02  0.00000000000E+00 0.  1.
</event>
<event>
 5    1  0.1668518E-003  0.9118800E+02  0.7818608E-02  0.1130116E+00
         25   -1    0    0    0    0  0.00000000000E+00  0.00000000000E+00  0.99999998245E-14  0.12500000000E+03  0.12500000000E+03 0.  0.
        -13    1    3    3    0    0  0.15482031510E+02  0.14289263644E+02 -0.25205538885E+02  0.32851281705E+02  0.10566000000E+00 0.  1.
         23    2    1    0    0    0 -0.22751678567E+02 -0.14321096677E+01  0.20402403791E+02  0.94406734464E+02  0.89312281439E+02 0.  0.
         13    1    3    3    0    0 -0.38233710077E+02 -0.15721373312E+02  0.45607942676E+02  0.61555452758E+02  0.10566000000E+00 0. -1.
         22    1    1    0    0    0  0.22751678567E+02  0.14321096677E+01 -0.20402403791E+02  0.30593265536E+02  0.00000000000E+00 0. -1.
</event>
<event>
 5    1  0.1668518E-003  0.9118800E+02  0.7818608E-02  0.1130116E+00
         25   -1    0    0    0    0  0.00000000000E+00  0.00000000000E+00  0.99999998245E-14  0.12500000000E+03  0.12500000000E+03 0.  0.
        -13    1    3    3    0    0  0.25331753535E+02 -0.21266427279E+02  0.19365758979E+02  0.38327567771E+02  0.10566000000E+00 0.  1.
         23    2    1    0    0    0 -0.17193816454E+02 -0.15535654369E+02 -0.18337991859E+02  0.95448928507E+02  0.90759198580E+02 0.  0.
         13    1    3    3    0    0 -0.42525569989E+02  0.57307729097E+01 -0.37703750838E+02  0.57121360736E+02  0.10566000000E+00 0. -1.
         22    1    1    0    0    0  0.17193816454E+02  0.15535654369E+02  0.18337991859E+02  0.29551071493E+02  0.00000000000E+00 0. -1.
</event>
<event>
 5    1  0.1668518E-003  0.9118800E+02  0.7818608E-02  0.1130116E+00
         25   -1    0    0    0    0  0.00000000000E+00  0.00000000000E+00  0.99999998245E-14  0.12500000000E+03  0.12500000000E+03 0.  0.
        -13    1    3    3    0    0  0.34633863365E+02 -0.10089101744E+02 -0.55535390677E+01  0.36498594847E+02  0.10566000000E+00 0. -1.
         23    2    1    0    0    0 -0.11871343972E+02  0.26292562974E+02 -0.59452636291E+01  0.95545393653E+02  0.90891960113E+02 0.  0.
         13    1    3    3    0    0 -0.46505207337E+02  0.36381664718E+02 -0.39172456136E+00  0.59046798806E+02  0.10566000000E+00 0.  1.
         22    1    1    0    0    0  0.11871343972E+02 -0.26292562974E+02  0.59452636291E+01  0.29454606347E+02  0.00000000000E+00 0.  1.
</event>
<event>
 5    1  0.1668518E-003  0.9118800E+02  0.7818608E-02  0.1130116E+00
         25   -1    0    0    0    0  0.00000000000E+00  0.00000000000E+00  0.99999998245E-14  0.12500000000E+03  0.12500000000E+03 0.  0.
        -13    1    3    3    0    0 -0.69322857213E+01  0.50259682983E+02 -0.27977634921E+02  0.57938342561E+02  0.10566000000E+00 0.  1.
         23    2    1    0    0    0  0.99675108925E+01  0.16751930753E+02 -0.21424647248E+02  0.96034607424E+02  0.91562284026E+02 0.  0.
         13    1    3    3    0    0  0.16899796614E+02 -0.33507752230E+02  0.65529876724E+01  0.38096264863E+02  0.10566000000E+00 0. -1.
         22    1    1    0    0    0 -0.99675108925E+01 -0.16751930753E+02  0.21424647248E+02  0.28965392576E+02  0.00000000000E+00 0.  1.
</event>
<event>
 5    1  0.1668518E-003  0.9118800E+02  0.7818608E-02  0.1130116E+00
         25   -1    0    0    0    0  0.00000000000E+00  0.00000000000E+00  0.99999998245E-14  0.12500000000E+03  0.12500000000E+03 0.  0.
        -13    1    3    3    0    0  0.31965592700E+01 -0.31194926284E+01  0.43032738663E+02  0.43264038026E+02  0.10566000000E+00 0.  1.
         23    2    1    0    0    0 -0.49050848708E+01 -0.35040426419E+02  0.29742020622E+02  0.78777936741E+02  0.63792508849E+02 0.  0.
         13    1    3    3    0    0 -0.81016441408E+01 -0.31920933791E+02 -0.13290718041E+02  0.35513898715E+02  0.10566000000E+00 0. -1.
         22    1    1    0    0    0  0.49050848708E+01  0.35040426419E+02 -0.29742020622E+02  0.46222063259E+02  0.00000000000E+00 0.  1.
</event>
<event>
 5    1  0.1668518E-003  0.9118800E+02  0.7818608E-02  0.1130116E+00
         25   -1    0    0    0    0  0.00000000000E+00  0.00000000000E+00  0.99999998245E-14  0.12500000000E+03  0.12500000000E+03 0.  0.
        -13    1    3    3    0    0  0.17432524142E+02  0.36831209874E+02 -0.31970939841E+02  0.51793658657E+02  0.10566000000E+00 0. -1.
         23    2    1    0    0    0  0.28338711463E+02  0.37643123335E+01 -0.46838633266E+01  0.96031203159E+02  0.91557636437E+02 0.  0.
         13    1    3    3    0    0  0.10906187321E+02 -0.33066897540E+02  0.27287076515E+02  0.44237544502E+02  0.10566000000E+00 0.  1.
         22    1    1    0    0    0 -0.28338711463E+02 -0.37643123335E+01  0.46838633266E+01  0.28968796841E+02  0.00000000000E+00 0. -1.
</event>
<event>
 5    1  0.1668518E-003  0.9118800E+02  0.7818608E-02  0.1130116E+00
         25   -1    0    0    0    0  0.00000000000E+00  0.00000000000E+00  0.99999998245E-14  0.12500000000E+03  0.12500000000E+03 0.  0.
        -13    1    3    3    0    0 -0.81101129439E+01  0.19496494953E+02  0.24726690870E+02  0.32516267510E+02  0.10566000000E+00 0.  1.
         23    2    1    0    0    0 -0.12683544853E+02 -0.31909015664E+02 -0.19410610591E+01  0.90607772554E+02  0.83826864062E+02 0.  0.
         13    1    3    3    0    0 -0.45734319094E+01 -0.51405510617E+02 -0.26667751929E+02  0.58091505043E+02  0.10566000000E+00 0. -1.
         22    1    1    0    0    0  0.12683544853E+02  0.31909015664E+02  0.19410610591E+01  0.34392227446E+02  0.00000000000E+00 0. -1.
</event>
<event>
 5    1  0.1668518E-003  0.9118800E+02  0.7818608E-02  0.1130116E+00
         25   -1    0    0    0    0  0.00000000000E+00  0.00000000000E+00  0.99999998245E-14  0.12500000000E+03  0.12500000000E+03 0.  0.
        -13    1    3    3    0    0 -0.39870276255E+02 -0.15430805744E+02  0.39206900497E+02  0.58008110684E+02  0.10566000000E+00 0. -1.
         23    2    1    0    0    0 -0.25793008604E+02 -0.12704109159E+02  0.40660243611E+01  0.95961986355E+02  0.91463088668E+02 0.  0.
         13    1    3    3    0    0  0.14077267652E+02  0.27266965855E+01 -0.35140876135E+02  0.37953875670E+02  0.10566000000E+00 0.  1.
         22    1    1    0    0    0  0.25793008604E+02  0.12704109159E+02 -0.40660243611E+01  0.29038013645E+02  0.00000000000E+00 0. -1.
</event>
<event>
 5    1  0.1668518E-003  0.9118800E+02  0.7818608E-02  0.1130116E+00
         25   -1    0    0    0    0  0.00000000000E+00  0.00000000000E+00  0.99999998245E-14  0.12500000000E+03  0.12500000000E+03 0.  0.
        -13    1    3    3    0    0 -0.15701969608E+02  0.26911122918E+02 -0.25822603407E+02  0.40467003806E+02  0.10566000000E+00 0. -1.
         23    2    1    0    0    0  0.10138819414E+02 -0.21585876465E+02 -0.15978133932E+02  0.96293790117E+02  0.91915436839E+02 0.  0.
         13    1    3    3    0    0  0.25840789022E+02 -0.48496999384E+02  0.98444694745E+01  0.55826786311E+02  0.10566000000E+00 0.  1.
         22    1    1    0    0    0 -0.10138819414E+02  0.21585876465E+02  0.15978133932E+02  0.28706209883E+02  0.00000000000E+00 0.  1.
</event>
<event>
 5    1  0.1668518E-003  0.9118800E+02  0.7818608E-02  0.1130116E+00
         25   -1    0    0    0    0  0.00000000000E+00  0.00000000000E+00  0.99999998245E-14  0.12500000000E+03  0.12500000000E+03 0.  0.
        -13    1    3    3    0    0 -0.13980592510E+02 -0.11525457812E+02 -0.36664974449E+02  0.40897734168E+02  0.10566000000E+00 0. -1.
         23    2    1    0    0    0  0.27187774226E+02  0.92465296326E+01 -0.80149039882E+01  0.95185371651E+02  0.90395480600E+02 0.  0.
         13    1    3    3    0    0  0.41168366736E+02  0.20771987444E+02  0.28650070461E+02  0.54287637483E+02  0.10566000000E+00 0.  1.
         22    1    1    0    0    0 -0.27187774226E+02 -0.92465296326E+01  0.80149039882E+01  0.29814628349E+02  0.00000000000E+00 0. -1.
</event>
<event>
 5    1  0.1668518E-003  0.9118800E+02  0.7818608E-02  0.1130116E+00
         25   -1    0    0    0    0  0.00000000000E+00  0.00000000000E+00  0.99999998245E-14  0.12500000000E+03  0.12500000000E+03 0.  0.
        -13    1    3    3    0    0  0.21454863449E+00  0.32733251597E+02  0.15799021776E+02  0.36347380158E+02  0.10566000000E+00 0.  1.
         23    2    1    0    0    0 -0.25670138561E+02 -0.14725062257E+02 -0.62910379083E+01  0.94745072630E+02  0.89784565251E+02 0.  0.
         13    1    3    3    0    0 -0.25884687196E+02 -0.47458313854E+02 -0.22090059685E+02  0.58397692472E+02  0.10566000000E+00 0. -1.
         22    1    1    0    0    0  0.25670138561E+02  0.14725062257E+02  0.62910379083E+01  0.30254927370E+02  0.00000000000E+00 0. -1.
</event>
<event>
 5    1  0.1668518E-003  0.9118800E+02  0.7818608E-02  0.1130116E+00
         25   -1    0    0    0    0  0.00000000000E+00  0.00000000000E+00  0.99999998245E-14  0.12500000000E+03  0.12500000000E+03 0.  0.
        -13    1    3    3    0    0 -0.68762844429E+01  0.24321811821E+02 -0.30307869112E+02  0.39464058486E+02  0.10566000000E+00 0.  1.
         23    2    1    0    0    0  0.14938921762E+02 -0.18789843799E+02  0.64152737203E+01  0.10015275970E+03  0.97021595154E+02 0.  0.
         13    1    3    3    0    0  0.21815206205E+02 -0.43111655620E+02  0.36723142833E+02  0.60688701219E+02  0.10566000000E+00 0. -1.
         22    1    1    0    0    0 -0.14938921762E+02  0.18789843799E+02 -0.64152737203E+01  0.24847240295E+02  0.00000000000E+00 0. -1.
</event>
<event>
 5    1  0.1668518E-003  0.9118800E+02  0.7818608E-02  0.1130116E+00
         25   -1    0    0    0    0  0.00000000000E+00  0.00000000000E+00  0.99999998245E-14  0.12500000000E+03  0.12500000000E+03 0.  0.
        -13    1    3    3    0    0 -0.46529121559E+02  0.21408808238E+02  0.17506577590E+02  0.54127512840E+02  0.10566000000E+00 0. -1.
         23    2    1    0    0    0 -0.24771139235E+02  0.52290476099E+01 -0.14300395106E+02  0.95923315559E+02  0.91410223113E+02 0.  0.
         13    1    3    3    0    0  0.21757982324E+02 -0.16179760628E+02 -0.31806972696E+02  0.41795802719E+02  0.10566000000E+00 0.  1.
         22    1    1    0    0    0  0.24771139235E+02 -0.52290476099E+01  0.14300395106E+02  0.29076684441E+02  0.00000000000E+00 0. -1.
</event>
<event>
 5    1  0.1668518E-003  0.9118800E+02  0.7818608E-02  0.1130116E+00
         25   -1    0    0    0    0  0.00000000000E+00  0.00000000000E+00  0.99999998245E-14  0.12500000000E+03  0.12500000000E+03 0.  0.
        -13    1    3    3    0    0 -0.39953514301E+02  0.24378542242E+00  0.14312584964E+02  0.42440593643E+02  0.10566000000E+00 0. -1.
         23    2    1    0    0    0 -0.85474663761E+01  0.53298101575E+01 -0.27921420429E+02  0.95317146759E+02  0.90577517573E+02 0.  0.
         13    1    3    3    0    0  0.31406047925E+02  0.50860247351E+01 -0.42234005393E+02  0.52876553116E+02  0.10566000000E+00 0.  1.
         22    1    1    0    0    0  0.85474663761E+01 -0.53298101575E+01  0.27921420429E+02  0.29682853241E+02  0.00000000000E+00 0.  1.
</event>
<event>
 5    1  0.1668518E-003  0.9118800E+02  0.7818608E-02  0.1130116E+00
         25   -1    0    0    0    0  0.00000000000E+00  0.00000000000E+00  0.99999998245E-14  0.12500000000E+03  0.12500000000E+03 0.  0.
        -13    1    3    3    0    0 -0.36934273303E+02  0.99564146717E+01  0.18007942784E+02  0.42279639365E+02  0.10566000000E+00 0. -1.
         23    2    1    0    0    0 -0.38834632711E+01 -0.21176315080E+02 -0.15296729492E+02  0.98589631951E+02  0.94986356850E+02 0.  0.
         13    1    3    3    0    0  0.33050810031E+02 -0.31132729752E+02 -0.33304672276E+02  0.56309992585E+02  0.10566000000E+00 0.  1.
         22    1    1    0    0    0  0.38834632711E+01  0.21176315080E+02  0.15296729492E+02  0.26410368049E+02  0.00000000000E+00 0.  1.
</event>
<event>
 5    1  0.1668518E-003  0.9118800E+02  0.7818608E-02  0.1130116E+00
         25   -1    0    0    0    0  0.00000000000E+00  0.00000000000E+00  0.99999998245E-14  0.12500000000E+03  0.12500000000E+03 0.  0.
        -13    1    3    3    0    0  0.21870233291E+02 -0.39883637018E+01  0.32479851351E+02  0.39359446859E+02  0.10566000000E+00 0.  1.
         23    2    1    0    0    0  0.59094734849E-01  0.29194257893E+02 -0.65950333314E+01  0.95070037575E+02  0.90235854259E+02 0.  0.
         13    1    3    3    0    0 -0.21811138556E+02  0.33182621594E+02 -0.39074884682E+02  0.55710590716E+02  0.10566000000E+00 0. -1.
         22    1    1    0    0    0 -0.59094734849E-01 -0.29194257893E+02  0.65950333314E+01  0.29929962425E+02  0.00000000000E+00 0. -1.
</event>
<event>
 5    1  0.1668518E-003  0.9118800E+02  0.7818608E-02  0.1130116E+00
         25   -1    0    0    0    0  0.00000000000E+00  0.00000000000E+00  0.99999998245E-14  0.12500000000E+03  0.12500000000E+03 0.  0.
        -13    1    3    3    0    0  0.14486993179E+01 -0.18809021728E+02  0.94614336243E+01  0.21104689487E+02  0.10566000000E+00 0.  1.
         23    2    1    0    0    0 -0.13336800286E+01  0.40808848604E+02 -0.82170323156E+01  0.83350744942E+02  0.72198935141E+02 0.  0.
         13    1    3    3    0    0 -0.27823793465E+01  0.59617870332E+02 -0.17678465940E+02  0.62246055455E+02  0.10566000000E+00 0. -1.
         22    1    1    0    0    0  0.13336800286E+01 -0.40808848604E+02  0.82170323156E+01  0.41649255058E+02  0.00000000000E+00 0. -1.
</event>
<event>
 5    1  0.1668518E-003  0.9118800E+02  0.7818608E-02  0.1130116E+00
         25   -1    0    0    0    0  0.00000000000E+00  0.00000000000E+00  0.99999998245E-14  0.12500000000E+03  0.12500000000E+03 0.  0.
        -13    1    3    3    0    0 -0.30087322478E+02 -0.10943623049E+01 -0.38427771827E+02  0.48817511349E+02  0.10566000000E+00 0.  1.
         23    2    1    0    0    0 -0.27533832530E+02  0.53512171505E+01  0.80571382631E+01  0.95816701082E+02  0.91264315427E+02 0.  0.
         13    1    3    3    0    0  0.25534899481E+01  0.64455794554E+01  0.46484910090E+02  0.46999189733E+02  0.10566000000E+00 0. -1.
         22    1    1    0    0    0  0.27533832530E+02 -0.53512171505E+01 -0.80571382631E+01  0.29183298918E+02  0.00000000000E+00 0.  1.
</event>
<event>
 5    1  0.1668518E-003  0.9118800E+02  0.7818608E-02  0.1130116E+00
         25   -1    0    0    0    0  0.00000000000E+00  0.00000000000E+00  0.99999998245E-14  0.12500000000E+03  0.12500000000E+03 0.  0.
        -13    1    3    3    0    0 -0.64137345705E+01 -0.25900153689E+02 -0.20720418279E+02  0.33783144465E+02  0.10566000000E+00 0.  1.
         23    2    1    0    0    0 -0.62384268245E+01  0.26878339153E+02  0.10926121234E+02  0.95322681892E+02  0.90585155920E+02 0.  0.
         13    1    3    3    0    0  0.17530774599E+00  0.52778492842E+02  0.31646539514E+02  0.61539537427E+02  0.10566000000E+00 0. -1.
         22    1    1    0    0    0  0.62384268245E+01 -0.26878339153E+02 -0.10926121234E+02  0.29677318108E+02  0.00000000000E+00 0. -1.
</event>
<event>
 5    1  0.1668518E-003  0.9118800E+02  0.7818608E-02  0.1130116E+00
         25   -1    0    0    0    0  0.00000000000E+00  0.00000000000E+00  0.99999998245E-14  0.12500000000E+03  0.12500000000E+03 0.  0.
        -13    1    3    3    0    0  0.23934547243E+02 -0.11125381822E+02 -0.25857389200E+02  0.36949322222E+02  0.10566000000E+00 0.  1.
         23    2    1    0    0    0 -0.58704893411E+01  0.16110381753E+02  0.20401537379E+02  0.98349863551E+02  0.94670300980E+02 0.  0.
         13    1    3    3    0    0 -0.29805036584E+02  0.27235763575E+02  0.46258926578E+02  0.61400541329E+02  0.10566000000E+00 0. -1.
         22    1    1    0    0    0  0.58704893411E+01 -0.16110381753E+02 -0.20401537379E+02  0.26650136449E+02  0.00000000000E+00 0. -1.
</event>
<event>
 5    1  0.1668518E-003  0.9118800E+02  0.7818608E-02  0.1130116E+00
         25   -1    0    0    0    0  0.00000000000E+00  0.00000000000E+00  0.99999998245E-14  0.12500000000E+03  0.12500000000E+03 0.  0.
        -13    1    3    3    0    0 -0.36108509434E+02  0.27699846183E+02  0.29227532601E+02  0.54086650461E+02  0.10566000000E+00 0. -1.
         23    2    1    0    0    0 -0.14165817076E+02  0.24745671924E+02 -0.61588900830E+01  0.95828942778E+02  0.91281080704E+02 0.  0.
         13    1    3    3    0    0  0.21942692358E+02 -0.29541742585E+01 -0.35386422684E+02  0.41742292317E+02  0.10566000000E+00 0.  1.
         22    1    1    0    0    0  0.14165817076E+02 -0.24745671924E+02  0.61588900830E+01  0.29171057222E+02  0.00000000000E+00 0. -1.
</event>
<event>
 5    1  0.1668518E-003  0.9118800E+02  0.7818608E-02  0.1130116E+00
         25   -1    0    0    0    0  0.00000000000E+00  0.00000000000E+00  0.99999998245E-14  0.12500000000E+03  0.12500000000E+03 0.  0.
        -13    1    3    3    0    0 -0.23763341001E+02  0.36965262101E+01 -0.30306445498E+02  0.38689177871E+02  0.10566000000E+00 0. -1.
         23    2    1    0    0    0 -0.15663063104E+02 -0.75640923012E+01  0.24348382231E+02  0.95076919353E+02  0.90245386797E+02 0.  0.
         13    1    3    3    0    0  0.81002778970E+01 -0.11260618511E+02  0.54654827729E+02  0.56387741482E+02  0.10566000000E+00 0.  1.
         22    1    1    0    0    0  0.15663063104E+02  0.75640923012E+01 -0.24348382231E+02  0.29923080647E+02  0.00000000000E+00 0.  1.
</event>
<event>
 5    1  0.1668518E-003  0.9118800E+02  0.7818608E-02  0.1130116E+00
         25   -1    0    0    0    0  0.00000000000E+00  0.00000000000E+00  0.99999998245E-14  0.12500000000E+03  0.12500000000E+03 0.  0.
        -13    1    3    3    0    0 -0.30053307325E+02  0.14276900481E+02  0.18211219286E+02  0.37930078308E+02  0.10566000000E+00 0.  1.
         23    2    1    0    0    0  0.46206885295E+00 -0.11810143933E+02 -0.25265032825E+02  0.97107081706E+02  0.93014893573E+02 0.  0.
         13    1    3    3    0    0  0.30515376178E+02 -0.26087044413E+02 -0.43476252111E+02  0.59177003398E+02  0.10566000000E+00 0. -1.
         22    1    1    0    0    0 -0.46206885295E+00  0.11810143933E+02  0.25265032825E+02  0.27892918294E+02  0.00000000000E+00 0. -1.
</event>
<event>
 5    1  0.1668518E-003  0.9118800E+02  0.7818608E-02  0.1130116E+00
         25   -1    0    0    0    0  0.00000000000E+00  0.00000000000E+00  0.99999998245E-14  0.12500000000E+03  0.12500000000E+03 0.  0.
        -13    1    3    3    0    0  0.20852352057E+01  0.12235635691E+02 -0.33026429692E+02  0.35281938848E+02  0.10566000000E+00 0.  1.
         23    2    1    0    0    0 -0.38379934702E+01  0.23926334147E+01  0.27622673668E+02  0.97009519670E+02  0.92883690266E+02 0.  0.
         13    1    3    3    0    0 -0.59232286759E+01 -0.98430022767E+01  0.60649103360E+02  0.61727580822E+02  0.10566000000E+00 0. -1.
         22    1    1    0    0    0  0.38379934702E+01 -0.23926334147E+01 -0.27622673668E+02  0.27990480330E+02  0.00000000000E+00 0. -1.
</event>
<event>
 5    1  0.1668518E-003  0.9118800E+02  0.7818608E-02  0.1130116E+00
         25   -1    0    0    0    0  0.00000000000E+00  0.00000000000E+00  0.99999998245E-14  0.12500000000E+03  0.12500000000E+03 0.  0.
        -13    1    3    3    0    0 -0.98992195381E+00  0.38706443549E+02 -0.27420024388E+02  0.47445101108E+02  0.10566000000E+00 0. -1.
         23    2    1    0    0    0 -0.55425204748E+01 -0.68907252692E+01 -0.30374637748E+02  0.93364256824E+02  0.87841130491E+02 0.  0.
         13    1    3    3    0    0 -0.45525985209E+01 -0.45597168818E+02 -0.29546133602E+01  0.45919155716E+02  0.10566000000E+00 0.  1.
         22    1    1    0    0    0  0.55425204748E+01  0.68907252692E+01  0.30374637748E+02  0.31635743176E+02  0.00000000000E+00 0.  1.
</event>
<event>
 5    1  0.1668518E-003  0.9118800E+02  0.7818608E-02  0.1130116E+00
         25   -1    0    0    0    0  0.00000000000E+00  0.00000000000E+00  0.99999998245E-14  0.12500000000E+03  0.12500000000E+03 0.  0.
        -13    1    3    3    0    0  0.10338025103E+02 -0.43951798528E+02  0.38991310332E+02  0.59657093479E+02  0.10566000000E+00 0.  1.
         23    2    1    0    0    0  0.14559385282E+02 -0.23164120581E+02  0.93905258249E+01  0.96073642515E+02  0.91615558879E+02 0.  0.
         13    1    3    3    0    0  0.42213601791E+01  0.20787677947E+02 -0.29600784508E+02  0.36416549036E+02  0.10566000000E+00 0. -1.
         22    1    1    0    0    0 -0.14559385282E+02  0.23164120581E+02 -0.93905258249E+01  0.28926357485E+02  0.00000000000E+00 0.  1.
</event>
<event>
 5    1  0.1668518E-003  0.9118800E+02  0.7818608E-02  0.1130116E+00
         25   -1    0    0    0    0  0.00000000000E+00  0.00000000000E+00  0.99999998245E-14  0.12500000000E+03  0.12500000000E+03 0.  0.
        -13    1    3    3    0    0  0.35075308374E+02  0.34513108578E+02 -0.12729107200E+02  0.50827878722E+02  0.10566000000E+00 0. -1.
         23    2    1    0    0    0 -0.82137978472E+01  0.19831012780E+02 -0.18190265247E+02  0.96864234634E+02  0.92687963936E+02 0.  0.
         13    1    3    3    0    0 -0.43289106221E+02 -0.14682095798E+02 -0.54611580474E+01  0.46036355912E+02  0.10566000000E+00 0.  1.
         22    1    1    0    0    0  0.82137978472E+01 -0.19831012780E+02  0.18190265247E+02  0.28135765366E+02  0.00000000000E+00 0.  1.
</event>
<event>
 5    1  0.1668518E-003  0.9118800E+02  0.7818608E-02  0.1130116E+00
         25   -1    0    0    0    0  0.00000000000E+00  0.00000000000E+00  0.99999998245E-14  0.12500000000E+03  0.12500000000E+03 0.  0.
        -13    1    3    3    0    0  0.95619288243E+01 -0.11686148158E+02  0.31911267187E+02  0.35303493866E+02  0.10566000000E+00 0. -1.
         23    2    1    0    0    0 -0.41591909223E+01 -0.82124425197E+01 -0.27303462850E+02  0.96186423948E+02  0.91769308525E+02 0.  0.
         13    1    3    3    0    0 -0.13721119747E+02  0.34737056380E+01 -0.59214730038E+02  0.60882930082E+02  0.10566000000E+00 0.  1.
         22    1    1    0    0    0  0.41591909223E+01  0.82124425197E+01  0.27303462850E+02  0.28813576052E+02  0.00000000000E+00 0.  1.
</event>
<event>
 5    1  0.1668518E-003  0.9118800E+02  0.7818608E-02  0.1130116E+00
         25   -1    0    0    0    0  0.00000000000E+00  0.00000000000E+00  0.99999998245E-14  0.12500000000E+03  0.12500000000E+03 0.  0.
        -13    1    3    3    0    0  0.19935030040E+02  0.45536856782E+02  0.18974584933E+02  0.53207676004E+02  0.10566000000E+00 0. -1.
         23    2    1    0    0    0  0.24933655194E+02  0.40603732786E+01  0.16015244622E+02  0.95089101438E+02  0.90262258776E+02 0.  0.
         13    1    3    3    0    0  0.49986251535E+01 -0.41476483504E+02 -0.29593403111E+01  0.41881425434E+02  0.10566000000E+00 0.  1.
         22    1    1    0    0    0 -0.24933655194E+02 -0.40603732786E+01 -0.16015244622E+02  0.29910898562E+02  0.00000000000E+00 0.  1.
</event>
<event>
 5    1  0.1668518E-003  0.9118800E+02  0.7818608E-02  0.1130116E+00
         25   -1    0    0    0    0  0.00000000000E+00  0.00000000000E+00  0.99999998245E-14  0.12500000000E+03  0.12500000000E+03 0.  0.
        -13    1    3    3    0    0 -0.18095135231E+02 -0.70886085537E+01  0.47338440832E+02  0.51172467546E+02  0.10566000000E+00 0. -1.
         23    2    1    0    0    0 -0.25972180558E+02  0.10404043196E+02  0.65240215916E+01  0.96270900893E+02  0.91884303465E+02 0.  0.
         13    1    3    3    0    0 -0.78770453274E+01  0.17492651750E+02 -0.40814419241E+02  0.45098433347E+02  0.10566000000E+00 0.  1.
         22    1    1    0    0    0  0.25972180558E+02 -0.10404043196E+02 -0.65240215916E+01  0.28729099107E+02  0.00000000000E+00 0. -1.
</event>
<event>
 5    1  0.1668518E-003  0.9118800E+02  0.7818608E-02  0.1130116E+00
         25   -1    0    0    0    0  0.00000000000E+00  0.00000000000E+00  0.99999998245E-14  0.12500000000E+03  0.12500000000E+03 0.  0.
        -13    1    3    3    0    0  0.56488627664E+01  0.30638545860E+02 -0.22976548790E+02  0.38711278735E+02  0.10566000000E+00 0. -1.
         23    2    1    0    0    0 -0.35052942230E+02  0.65630212426E+01 -0.13006339087E+02  0.87040194109E+02  0.78326550589E+02 0.  0.
         13    1    3    3    0    0 -0.40701804997E+02 -0.24075524618E+02  0.99702097034E+01  0.48328915374E+02  0.10566000000E+00 0.  1.
         22    1    1    0    0    0  0.35052942230E+02 -0.65630212426E+01  0.13006339087E+02  0.37959805891E+02  0.00000000000E+00 0. -1.
</event>
<event>
 5    1  0.1668518E-003  0.9118800E+02  0.7818608E-02  0.1130116E+00
         25   -1    0    0    0    0  0.00000000000E+00  0.00000000000E+00  0.99999998245E-14  0.12500000000E+03  0.12500000000E+03 0.  0.
        -13    1    3    3    0    0 -0.89505881852E+01  0.28495060946E+02 -0.26021760545E+02  0.39613441066E+02  0.10566000000E+00 0.  1.
         23    2    1    0    0    0 -0.10479760111E+02 -0.23989359983E+02 -0.19143221466E+02  0.92568877718E+02  0.86701899803E+02 0.  0.
         13    1    3    3    0    0 -0.15291719255E+01 -0.52484420930E+02  0.68785390793E+01  0.52955436652E+02  0.10566000000E+00 0. -1.
         22    1    1    0    0    0  0.10479760111E+02  0.23989359983E+02  0.19143221466E+02  0.32431122282E+02  0.00000000000E+00 0.  1.
</event>
<event>
 5    1  0.1668518E-003  0.9118800E+02  0.7818608E-02  0.1130116E+00
         25   -1    0    0    0    0  0.00000000000E+00  0.00000000000E+00  0.99999998245E-14  0.12500000000E+03  0.12500000000E+03 0.  0.
        -13    1    3    3    0    0  0.28660194364E+02 -0.20591586524E+02  0.43517461069E+01  0.35557967248E+02  0.10566000000E+00 0.  1.
         23    2    1    0    0    0 -0.26000250466E+02  0.49555894944E+01  0.11156569221E+02  0.96276491713E+02  0.91891908938E+02 0.  0.
         13    1    3    3    0    0 -0.54660444830E+02  0.25547176019E+02  0.68048231139E+01  0.60718524465E+02  0.10566000000E+00 0. -1.
         22    1    1    0    0    0  0.26000250466E+02 -0.49555894944E+01 -0.11156569221E+02  0.28723508287E+02  0.00000000000E+00 0. -1.
</event>
<event>
 5    1  0.1668518E-003  0.9118800E+02  0.7818608E-02  0.1130116E+00
         25   -1    0    0    0    0  0.00000000000E+00  0.00000000000E+00  0.99999998245E-14  0.12500000000E+03  0.12500000000E+03 0.  0.
        -13    1    3    3    0    0 -0.60382709058E+01  0.41309542843E+02 -0.17149808153E+02  0.45133868981E+02  0.10566000000E+00 0. -1.
         23    2    1    0    0    0  0.28333063184E+02  0.28877569274E+02 -0.26439150961E+01  0.84457839678E+02  0.74090889584E+02 0.  0.
         13    1    3    3    0    0  0.34371334090E+02 -0.12431973569E+02  0.14505893057E+02  0.39323970697E+02  0.10566000000E+00 0.  1.
         22    1    1    0    0    0 -0.28333063184E+02 -0.28877569274E+02  0.26439150961E+01  0.40542160322E+02  0.00000000000E+00 0.  1.
</event>
<event>
 5    1  0.1668518E-003  0.9118800E+02  0.7818608E-02  0.1130116E+00
         25   -1    0    0    0    0  0.00000000000E+00  0.00000000000E+00  0.99999998245E-14  0.12500000000E+03  0.12500000000E+03 0.  0.
        -13    1    3    3    0    0  0.46679473630E+02  0.26749811531E+01  0.27826964731E+02  0.54410292342E+02  0.10566000000E+00 0.  1.
         23    2    1    0    0    0  0.27352078927E+02 -0.10075092454E+02 -0.58411672308E+01  0.95271849297E+02  0.90514983976E+02 0.  0.
         13    1    3    3    0    0 -0.19327394702E+02 -0.12750073607E+02 -0.33668131962E+02  0.40861556955E+02  0.10566000000E+00 0. -1.
         22    1    1    0    0    0 -0.27352078927E+02  0.10075092454E+02  0.58411672308E+01  0.29728150703E+02  0.00000000000E+00 0.  1.
</event>
<event>
 5    1  0.1668518E-003  0.9118800E+02  0.7818608E-02  0.1130116E+00
         25   -1    0    0    0    0  0.00000000000E+00  0.00000000000E+00  0.99999998245E-14  0.12500000000E+03  0.12500000000E+03 0.  0.
        -13    1    3    3    0    0  0.23452740871E+02  0.14724742652E+02  0.27461680250E+02  0.39000053163E+02  0.10566000000E+00 0.  1.
         23    2    1    0    0    0 -0.24961459183E+02 -0.10252116455E+02  0.10291956246E+02  0.96119129173E+02  0.91677599735E+02 0.  0.
         13    1    3    3    0    0 -0.48414200055E+02 -0.24976859108E+02 -0.17169724004E+02  0.57119076010E+02  0.10566000000E+00 0. -1.
         22    1    1    0    0    0  0.24961459183E+02  0.10252116455E+02 -0.10291956246E+02  0.28880870827E+02  0.00000000000E+00 0. -1.
</event>
<event>
 5    1  0.1668518E-003  0.9118800E+02  0.7818608E-02  0.1130116E+00
         25   -1    0    0    0    0  0.00000000000E+00  0.00000000000E+00  0.99999998245E-14  0.12500000000E+03  0.12500000000E+03 0.  0.
        -13    1    3    3    0    0  0.29565044925E+02  0.14428445953E+02 -0.20138731885E+02  0.38572679711E+02  0.10566000000E+00 0.  1.
         23    2    1    0    0    0  0.22932092033E+02  0.33399210533E+02  0.17207563496E+02  0.80983090173E+02  0.67976264558E+02 0.  0.
         13    1    3    3    0    0 -0.66329528924E+01  0.18970764580E+02  0.37346295382E+02  0.42410410462E+02  0.10566000000E+00 0. -1.
         22    1    1    0    0    0 -0.22932092033E+02 -0.33399210533E+02 -0.17207563496E+02  0.44016909827E+02  0.00000000000E+00 0.  1.
</event>
<event>
 5    1  0.1668518E-003  0.9118800E+02  0.7818608E-02  0.1130116E+00
         25   -1    0    0    0    0  0.00000000000E+00  0.00000000000E+00  0.99999998245E-14  0.12500000000E+03  0.12500000000E+03 0.  0.
        -13    1    3    3    0    0  0.46219050855E+02  0.17169440681E+00 -0.37534099671E+02  0.59540321993E+02  0.10566000000E+00 0.  1.
         23    2    1    0    0    0  0.34516044667E+02  0.12415829061E+02 -0.26285722283E+02  0.79872964349E+02  0.65903270686E+02 0.  0.
         13    1    3    3    0    0 -0.11703006188E+02  0.12244134654E+02  0.11248377388E+02  0.20332642355E+02  0.10566000000E+00 0. -1.
         22    1    1    0    0    0 -0.34516044667E+02 -0.12415829061E+02  0.26285722283E+02  0.45127035651E+02  0.00000000000E+00 0.  1.
</event>
<event>
 5    1  0.1668518E-003  0.9118800E+02  0.7818608E-02  0.1130116E+00
         25   -1    0    0    0    0  0.00000000000E+00  0.00000000000E+00  0.99999998245E-14  0.12500000000E+03  0.12500000000E+03 0.  0.
        -13    1    3    3    0    0  0.26127988085E+02 -0.51681008717E+02  0.85292426037E+01  0.58535096880E+02  0.10566000000E+00 0.  1.
         23    2    1    0    0    0  0.21323589829E+02 -0.18856586992E+02 -0.77645251675E+01  0.95494844395E+02  0.90822415178E+02 0.  0.
         13    1    3    3    0    0 -0.48043982554E+01  0.32824421725E+02 -0.16293767771E+02  0.36959747515E+02  0.10566000000E+00 0. -1.
         22    1    1    0    0    0 -0.21323589829E+02  0.18856586992E+02  0.77645251675E+01  0.29505155605E+02  0.00000000000E+00 0.  1.
</event>
<event>
 5    1  0.1668518E-003  0.9118800E+02  0.7818608E-02  0.1130116E+00
         25   -1    0    0    0    0  0.00000000000E+00  0.00000000000E+00  0.99999998245E-14  0.12500000000E+03  0.12500000000E+03 0.  0.
        -13    1    3    3    0    0  0.22149578598E+02  0.30135007613E+02  0.63212477154E+01  0.37930091650E+02  0.10566000000E+00 0.  1.
         23    2    1    0    0    0 -0.15255169892E+02 -0.43899603093E+00 -0.25146126016E+02  0.95585027969E+02  0.90946451236E+02 0.  0.
         13    1    3    3    0    0 -0.37404748490E+02 -0.30574003644E+02 -0.31467373731E+02  0.57654936319E+02  0.10566000000E+00 0. -1.
         22    1    1    0    0    0  0.15255169892E+02  0.43899603093E+00  0.25146126016E+02  0.29414972031E+02  0.00000000000E+00 0. -1.
</event>
<event>
 5    1  0.1668518E-003  0.9118800E+02  0.7818608E-02  0.1130116E+00
         25   -1    0    0    0    0  0.00000000000E+00  0.00000000000E+00  0.99999998245E-14  0.12500000000E+03  0.12500000000E+03 0.  0.
        -13    1    3    3    0    0  0.21550132320E+02 -0.43627483384E+01  0.18374276470E+02  0.28654266278E+02  0.10566000000E+00 0. -1.
         23    2    1    0    0    0 -0.30363692236E+02  0.97814796055E+01 -0.12556535241E+02  0.90717384482E+02  0.83990154903E+02 0.  0.
         13    1    3    3    0    0 -0.51913824556E+02  0.14144227944E+02 -0.30930811711E+02  0.62063118205E+02  0.10566000000E+00 0.  1.
         22    1    1    0    0    0  0.30363692236E+02 -0.97814796055E+01  0.12556535241E+02  0.34282615518E+02  0.00000000000E+00 0.  1.
</event>
<event>
 5    1  0.1668518E-003  0.9118800E+02  0.7818608E-02  0.1130116E+00
         25   -1    0    0    0    0  0.00000000000E+00  0.00000000000E+00  0.99999998245E-14  0.12500000000E+03  0.12500000000E+03 0.  0.
        -13    1    3    3    0    0  0.15297137616E+01  0.12672347507E+02  0.45120922059E+02  0.46891760332E+02  0.10566000000E+00 0.  1.
         23    2    1    0    0    0  0.23843251390E+02 -0.14792833565E+02  0.16153343451E+02  0.92623170841E+02  0.86780140068E+02 0.  0.
         13    1    3    3    0    0  0.22313537628E+02 -0.27465181071E+02 -0.28967578607E+02  0.45731410509E+02  0.10566000000E+00 0. -1.
         22    1    1    0    0    0 -0.23843251390E+02  0.14792833565E+02 -0.16153343451E+02  0.32376829159E+02  0.00000000000E+00 0.  1.
</event>
<event>
 5    1  0.1668518E-003  0.9118800E+02  0.7818608E-02  0.1130116E+00
         25   -1    0    0    0    0  0.00000000000E+00  0.00000000000E+00  0.99999998245E-14  0.12500000000E+03  0.12500000000E+03 0.  0.
        -13    1    3    3    0    0 -0.12322706961E+02  0.41518145047E+02 -0.12849157384E+02  0.45174301152E+02  0.10566000000E+00 0. -1.
         23    2    1    0    0    0  0.66836460777E+01  0.13859709353E+02  0.24928288089E+02  0.95705252770E+02  0.91111542586E+02 0.  0.
         13    1    3    3    0    0  0.19006353039E+02 -0.27658435694E+02  0.37777445473E+02  0.50530951618E+02  0.10566000000E+00 0.  1.
         22    1    1    0    0    0 -0.66836460777E+01 -0.13859709353E+02 -0.24928288089E+02  0.29294747230E+02  0.00000000000E+00 0. -1.
</event>
<event>
 5    1  0.1668518E-003  0.9118800E+02  0.7818608E-02  0.1130116E+00
         25   -1    0    0    0    0  0.00000000000E+00  0.00000000000E+00  0.99999998245E-14  0.12500000000E+03  0.12500000000E+03 0.  0.
        -13    1    3    3    0    0  0.11655875453E+02  0.56598975141E+02  0.41705266387E+01  0.57937102759E+02  0.10566000000E+00 0.  1.
         23    2    1    0    0    0  0.19834824781E+02  0.20955138150E+02 -0.51825050410E+01  0.95684535694E+02  0.91083115468E+02 0.  0.
         13    1    3    3    0    0  0.81789493278E+01 -0.35643836991E+02 -0.93530316796E+01  0.37747432935E+02  0.10566000000E+00 0. -1.
         22    1    1    0    0    0 -0.19834824781E+02 -0.20955138150E+02  0.51825050410E+01  0.29315464306E+02  0.00000000000E+00 0.  1.
</event>
<event>
 5    1  0.1668518E-003  0.9118800E+02  0.7818608E-02  0.1130116E+00
         25   -1    0    0    0    0  0.00000000000E+00  0.00000000000E+00  0.99999998245E-14  0.12500000000E+03  0.12500000000E+03 0.  0.
        -13    1    3    3    0    0 -0.11646844955E+02 -0.12952888812E+02  0.33485062472E+02  0.37745024821E+02  0.10566000000E+00 0.  1.
         23    2    1    0    0    0 -0.27889546756E+02  0.53725296198E+01 -0.15597185078E+02  0.92596866277E+02  0.86742242127E+02 0.  0.
         13    1    3    3    0    0 -0.16242701800E+02  0.18325418432E+02 -0.49082247550E+02  0.54851841455E+02  0.10566000000E+00 0. -1.
         22    1    1    0    0    0  0.27889546756E+02 -0.53725296198E+01  0.15597185078E+02  0.32403133723E+02  0.00000000000E+00 0. -1.
</event>
<event>
 5    1  0.1668518E-003  0.9118800E+02  0.7818608E-02  0.1130116E+00
         25   -1    0    0    0    0  0.00000000000E+00  0.00000000000E+00  0.99999998245E-14  0.12500000000E+03  0.12500000000E+03 0.  0.
        -13    1    3    3    0    0  0.33041091612E+02 -0.18290153748E+02 -0.19251232036E+02  0.42389439227E+02  0.10566000000E+00 0.  1.
         23    2    1    0    0    0  0.10816452618E+02 -0.69381165140E+01  0.27086267706E+02  0.95020023245E+02  0.90166544856E+02 0.  0.
         13    1    3    3    0    0 -0.22224638994E+02  0.11352037234E+02  0.46337499741E+02  0.52630584018E+02  0.10566000000E+00 0. -1.
         22    1    1    0    0    0 -0.10816452618E+02  0.69381165140E+01 -0.27086267706E+02  0.29979976755E+02  0.00000000000E+00 0. -1.
</event>
<event>
 5    1  0.1668518E-003  0.9118800E+02  0.7818608E-02  0.1130116E+00
         25   -1    0    0    0    0  0.00000000000E+00  0.00000000000E+00  0.99999998245E-14  0.12500000000E+03  0.12500000000E+03 0.  0.
        -13    1    3    3    0    0  0.30933292865E+02  0.11742771807E+02 -0.16147679303E+02  0.36817387307E+02  0.10566000000E+00 0.  1.
         23    2    1    0    0    0 -0.33587010051E+01 -0.31393965097E+02 -0.51792911312E+01  0.93004891411E+02  0.87328247737E+02 0.  0.
         13    1    3    3    0    0 -0.34291993871E+02 -0.43136736904E+02  0.10968388172E+02  0.56187504104E+02  0.10566000000E+00 0. -1.
         22    1    1    0    0    0  0.33587010051E+01  0.31393965097E+02  0.51792911312E+01  0.31995108589E+02  0.00000000000E+00 0. -1.
</event>
<event>
 5    1  0.1668518E-003  0.9118800E+02  0.7818608E-02  0.1130116E+00
         25   -1    0    0    0    0  0.00000000000E+00  0.00000000000E+00  0.99999998245E-14  0.12500000000E+03  0.12500000000E+03 0.  0.
        -13    1    3    3    0    0  0.61227389901E+01  0.14609363411E+02  0.34402205941E+02  0.37874059323E+02  0.10566000000E+00 0.  1.
         23    2    1    0    0    0  0.23202149015E+02  0.29798052011E+01 -0.18826290351E+02  0.94972543126E+02  0.90100698007E+02 0.  0.
         13    1    3    3    0    0  0.17079410025E+02 -0.11629558210E+02 -0.53228496292E+02  0.57098483802E+02  0.10566000000E+00 0. -1.
         22    1    1    0    0    0 -0.23202149015E+02 -0.29798052011E+01  0.18826290351E+02  0.30027456874E+02  0.00000000000E+00 0.  1.
</event>
<event>
 5    1  0.1668518E-003  0.9118800E+02  0.7818608E-02  0.1130116E+00
         25   -1    0    0    0    0  0.00000000000E+00  0.00000000000E+00  0.99999998245E-14  0.12500000000E+03  0.12500000000E+03 0.  0.
        -13    1    3    3    0    0 -0.58607015927E+02 -0.61360132793E+01 -0.35124128898E+01  0.59032035229E+02  0.10566000000E+00 0. -1.
         23    2    1    0    0    0 -0.26931512785E+02 -0.91655319407E+01 -0.14971302189E+02  0.92852632365E+02  0.87110034389E+02 0.  0.
         13    1    3    3    0    0  0.31675503143E+02 -0.30295186614E+01 -0.11458889299E+02  0.33820597136E+02  0.10566000000E+00 0.  1.
         22    1    1    0    0    0  0.26931512785E+02  0.91655319407E+01  0.14971302189E+02  0.32147367635E+02  0.00000000000E+00 0. -1.
</event>
<event>
 5    1  0.1668518E-003  0.9118800E+02  0.7818608E-02  0.1130116E+00
         25   -1    0    0    0    0  0.00000000000E+00  0.00000000000E+00  0.99999998245E-14  0.12500000000E+03  0.12500000000E+03 0.  0.
        -13    1    3    3    0    0 -0.54807540799E+01  0.20894290615E+02  0.23033830794E+02  0.31578134376E+02  0.10566000000E+00 0. -1.
         23    2    1    0    0    0 -0.34030291009E+02 -0.19995709238E+02  0.26908799360E+01  0.85438276973E+02  0.75726938689E+02 0.  0.
         13    1    3    3    0    0 -0.28549536929E+02 -0.40889999853E+02 -0.20342950858E+02  0.53860142596E+02  0.10566000000E+00 0.  1.
         22    1    1    0    0    0  0.34030291009E+02  0.19995709238E+02 -0.26908799360E+01  0.39561723027E+02  0.00000000000E+00 0. -1.
</event>
<event>
 5    1  0.1668518E-003  0.9118800E+02  0.7818608E-02  0.1130116E+00
         25   -1    0    0    0    0  0.00000000000E+00  0.00000000000E+00  0.99999998245E-14  0.12500000000E+03  0.12500000000E+03 0.  0.
        -13    1    3    3    0    0 -0.25415185110E+02  0.55439606935E+01 -0.55451461846E+02  0.61249840157E+02  0.10566000000E+00 0. -1.
         23    2    1    0    0    0 -0.11555506344E+02 -0.63487562953E+01 -0.23757348995E+02  0.97829279277E+02  0.93980422531E+02 0.  0.
         13    1    3    3    0    0  0.13859678766E+02 -0.11892716989E+02  0.31694112851E+02  0.36579439120E+02  0.10566000000E+00 0.  1.
         22    1    1    0    0    0  0.11555506344E+02  0.63487562953E+01  0.23757348995E+02  0.27170720723E+02  0.00000000000E+00 0. -1.
</event>
<event>
 5    1  0.1668518E-003  0.9118800E+02  0.7818608E-02  0.1130116E+00
         25   -1    0    0    0    0  0.00000000000E+00  0.00000000000E+00  0.99999998245E-14  0.12500000000E+03  0.12500000000E+03 0.  0.
        -13    1    3    3    0    0 -0.10722731382E+02 -0.39441665016E+02 -0.30437198981E+01  0.40986550262E+02  0.10566000000E+00 0.  1.
         23    2    1    0    0    0  0.27474988764E+02 -0.13632968849E+01 -0.10741149203E+02  0.95468561292E+02  0.90786234215E+02 0.  0.
         13    1    3    3    0    0  0.38197720146E+02  0.38078368132E+02 -0.76974293053E+01  0.54482011030E+02  0.10566000000E+00 0. -1.
         22    1    1    0    0    0 -0.27474988764E+02  0.13632968849E+01  0.10741149203E+02  0.29531438708E+02  0.00000000000E+00 0. -1.
</event>
<event>
 5    1  0.1668518E-003  0.9118800E+02  0.7818608E-02  0.1130116E+00
         25   -1    0    0    0    0  0.00000000000E+00  0.00000000000E+00  0.99999998245E-14  0.12500000000E+03  0.12500000000E+03 0.  0.
        -13    1    3    3    0    0  0.19209031674E+02 -0.37614325698E+01  0.29819924697E+02  0.35670356682E+02  0.10566000000E+00 0.  1.
         23    2    1    0    0    0 -0.48141814917E+01 -0.11788391835E+02 -0.25491293911E+02  0.96505288372E+02  0.92202614351E+02 0.  0.
         13    1    3    3    0    0 -0.24023213166E+02 -0.80269592654E+01 -0.55311218608E+02  0.60834931691E+02  0.10566000000E+00 0. -1.
         22    1    1    0    0    0  0.48141814917E+01  0.11788391835E+02  0.25491293911E+02  0.28494711628E+02  0.00000000000E+00 0. -1.
</event>
<event>
 5    1  0.1668518E-003  0.9118800E+02  0.7818608E-02  0.1130116E+00
         25   -1    0    0    0    0  0.00000000000E+00  0.00000000000E+00  0.99999998245E-14  0.12500000000E+03  0.12500000000E+03 0.  0.
        -13    1    3    3    0    0 -0.27259624292E+02 -0.75959569816E+01  0.45008168025E+02  0.53165139255E+02  0.10566000000E+00 0.  1.
         23    2    1    0    0    0 -0.91215472296E+01 -0.20935976445E+02  0.15487789098E+01  0.10211077874E+03  0.99512284097E+02 0.  0.
         13    1    3    3    0    0  0.18138077062E+02 -0.13340019463E+02 -0.43459389115E+02  0.48945639490E+02  0.10566000000E+00 0. -1.
         22    1    1    0    0    0  0.91215472296E+01  0.20935976445E+02 -0.15487789098E+01  0.22889221255E+02  0.00000000000E+00 0.  1.
</event>
<event>
 5    1  0.1668518E-003  0.9118800E+02  0.7818608E-02  0.1130116E+00
         25   -1    0    0    0    0  0.00000000000E+00  0.00000000000E+00  0.99999998245E-14  0.12500000000E+03  0.12500000000E+03 0.  0.
        -13    1    3    3    0    0  0.16783305600E+01 -0.19024394379E+02  0.38889986901E+02  0.43326511747E+02  0.10566000000E+00 0. -1.
         23    2    1    0    0    0 -0.15691642842E+02 -0.22370144573E+02 -0.10452535066E+02  0.95744120033E+02  0.91164850729E+02 0.  0.
         13    1    3    3    0    0 -0.17369973402E+02 -0.33457501943E+01 -0.49342521967E+02  0.52417608287E+02  0.10566000000E+00 0.  1.
         22    1    1    0    0    0  0.15691642842E+02  0.22370144573E+02  0.10452535066E+02  0.29255879967E+02  0.00000000000E+00 0. -1.
</event>
<event>
 5    1  0.1668518E-003  0.9118800E+02  0.7818608E-02  0.1130116E+00
         25   -1    0    0    0    0  0.00000000000E+00  0.00000000000E+00  0.99999998245E-14  0.12500000000E+03  0.12500000000E+03 0.  0.
        -13    1    3    3    0    0  0.47907337359E+02 -0.70378126456E+01 -0.26255842219E+02  0.55081977038E+02  0.10566000000E+00 0.  1.
         23    2    1    0    0    0  0.60519022623E+01 -0.65351881988E+01 -0.26606677316E+02  0.96942033509E+02  0.92792825031E+02 0.  0.
         13    1    3    3    0    0 -0.41855435097E+02  0.50262444678E+00 -0.35083509701E+00  0.41860056472E+02  0.10566000000E+00 0. -1.
         22    1    1    0    0    0 -0.60519022623E+01  0.65351881988E+01  0.26606677316E+02  0.28057966491E+02  0.00000000000E+00 0.  1.
</event>
<event>
 5    1  0.1668518E-003  0.9118800E+02  0.7818608E-02  0.1130116E+00
         25   -1    0    0    0    0  0.00000000000E+00  0.00000000000E+00  0.99999998245E-14  0.12500000000E+03  0.12500000000E+03 0.  0.
        -13    1    3    3    0    0 -0.46334529424E+02 -0.13414603565E+02 -0.75858500395E+01  0.48830282516E+02  0.10566000000E+00 0. -1.
         23    2    1    0    0    0 -0.17205406758E+02  0.86127020817E+01  0.21958378673E+02  0.95804537120E+02  0.91247653559E+02 0.  0.
         13    1    3    3    0    0  0.29129122666E+02  0.22027305646E+02  0.29544228712E+02  0.46974254604E+02  0.10566000000E+00 0.  1.
         22    1    1    0    0    0  0.17205406758E+02 -0.86127020817E+01 -0.21958378673E+02  0.29195462880E+02  0.00000000000E+00 0. -1.
</event>
<event>
 5    1  0.1668518E-003  0.9118800E+02  0.7818608E-02  0.1130116E+00
         25   -1    0    0    0    0  0.00000000000E+00  0.00000000000E+00  0.99999998245E-14  0.12500000000E+03  0.12500000000E+03 0.  0.
        -13    1    3    3    0    0  0.33816501045E+02 -0.59976505718E+01 -0.13666053146E+02  0.36963491826E+02  0.10566000000E+00 0.  1.
         23    2    1    0    0    0 -0.13303899759E+02 -0.91268276912E+01  0.23107974845E+02  0.96817181938E+02  0.92624486419E+02 0.  0.
         13    1    3    3    0    0 -0.47120400804E+02 -0.31291771193E+01  0.36774027991E+02  0.59853690112E+02  0.10566000000E+00 0. -1.
         22    1    1    0    0    0  0.13303899759E+02  0.91268276912E+01 -0.23107974845E+02  0.28182818062E+02  0.00000000000E+00 0. -1.
</event>
<event>
 5    1  0.1668518E-003  0.9118800E+02  0.7818608E-02  0.1130116E+00
         25   -1    0    0    0    0  0.00000000000E+00  0.00000000000E+00  0.99999998245E-14  0.12500000000E+03  0.12500000000E+03 0.  0.
        -13    1    3    3    0    0  0.76725063842E+01 -0.29798404458E+02 -0.34817860702E+02  0.46466190401E+02  0.10566000000E+00 0. -1.
         23    2    1    0    0    0 -0.26604523915E+02 -0.11936079386E+02 -0.47059286613E+01  0.95463303360E+02  0.90778994487E+02 0.  0.
         13    1    3    3    0    0 -0.34277030299E+02  0.17862325072E+02  0.30111932041E+02  0.48997112959E+02  0.10566000000E+00 0.  1.
         22    1    1    0    0    0  0.26604523915E+02  0.11936079386E+02  0.47059286613E+01  0.29536696640E+02  0.00000000000E+00 0. -1.
</event>
<event>
 5    1  0.1668518E-003  0.9118800E+02  0.7818608E-02  0.1130116E+00
         25   -1    0    0    0    0  0.00000000000E+00  0.00000000000E+00  0.99999998245E-14  0.12500000000E+03  0.12500000000E+03 0.  0.
        -13    1    3    3    0    0  0.61154681947E+01  0.34233531901E+02  0.12951220816E+02  0.37109014300E+02  0.10566000000E+00 0. -1.
         23    2    1    0    0    0 -0.12754978076E+02 -0.38145314761E+01 -0.26670045729E+02  0.95191755247E+02  0.90404307484E+02 0.  0.
         13    1    3    3    0    0 -0.18870446271E+02 -0.38048063378E+02 -0.39621266544E+02  0.58082740946E+02  0.10566000000E+00 0.  1.
         22    1    1    0    0    0  0.12754978076E+02  0.38145314761E+01  0.26670045729E+02  0.29808244753E+02  0.00000000000E+00 0.  1.
</event>
<event>
 5    1  0.1668518E-003  0.9118800E+02  0.7818608E-02  0.1130116E+00
         25   -1    0    0    0    0  0.00000000000E+00  0.00000000000E+00  0.99999998245E-14  0.12500000000E+03  0.12500000000E+03 0.  0.
        -13    1    3    3    0    0 -0.81116877874E+01  0.32543908635E+02  0.91691470308E+01  0.34770531910E+02  0.10566000000E+00 0.  1.
         23    2    1    0    0    0 -0.67480655145E+01 -0.16899411119E+02 -0.24409758786E+02  0.94553936078E+02  0.89518065325E+02 0.  0.
         13    1    3    3    0    0  0.13636222729E+01 -0.49443319754E+02 -0.33578905817E+02  0.59783404168E+02  0.10566000000E+00 0. -1.
         22    1    1    0    0    0  0.67480655145E+01  0.16899411119E+02  0.24409758786E+02  0.30446063922E+02  0.00000000000E+00 0. -1.
</event>
<event>
 5    1  0.1668518E-003  0.9118800E+02  0.7818608E-02  0.1130116E+00
         25   -1    0    0    0    0  0.00000000000E+00  0.00000000000E+00  0.99999998245E-14  0.12500000000E+03  0.12500000000E+03 0.  0.
        -13    1    3    3    0    0 -0.36521501638E+02 -0.74872955791E+01  0.38411677040E+02  0.53528943330E+02  0.10566000000E+00 0.  1.
         23    2    1    0    0    0 -0.35229724026E+02 -0.54674628083E+01  0.27811239506E+01  0.89240228539E+02  0.81762198690E+02 0.  0.
         13    1    3    3    0    0  0.12917776114E+01  0.20198327708E+01 -0.35630553089E+02  0.35711285209E+02  0.10566000000E+00 0. -1.
         22    1    1    0    0    0  0.35229724026E+02  0.54674628083E+01 -0.27811239506E+01  0.35759771461E+02  0.00000000000E+00 0.  1.
</event>
<event>
 5    1  0.1668518E-003  0.9118800E+02  0.7818608E-02  0.1130116E+00
         25   -1    0    0    0    0  0.00000000000E+00  0.00000000000E+00  0.99999998245E-14  0.12500000000E+03  0.12500000000E+03 0.  0.
        -13    1    3    3    0    0  0.17162491126E+02  0.26358222547E+02 -0.18090682875E+02  0.36284858666E+02  0.10566000000E+00 0. -1.
         23    2    1    0    0    0 -0.28440991159E+02 -0.69378832379E+01  0.46657725612E+00  0.95721306446E+02  0.91133564681E+02 0.  0.
         13    1    3    3    0    0 -0.45603482285E+02 -0.33296105785E+02  0.18557260131E+02  0.59436447779E+02  0.10566000000E+00 0.  1.
         22    1    1    0    0    0  0.28440991159E+02  0.69378832379E+01 -0.46657725612E+00  0.29278693554E+02  0.00000000000E+00 0.  1.
</event>
<event>
 5    1  0.1668518E-003  0.9118800E+02  0.7818608E-02  0.1130116E+00
         25   -1    0    0    0    0  0.00000000000E+00  0.00000000000E+00  0.99999998245E-14  0.12500000000E+03  0.12500000000E+03 0.  0.
        -13    1    3    3    0    0 -0.43883240669E+02 -0.41728989863E+01  0.84288392851E+01  0.44879933080E+02  0.10566000000E+00 0. -1.
         23    2    1    0    0    0  0.27864182489E+01 -0.21095190223E+02  0.19938582042E+02  0.95839783419E+02  0.91295924634E+02 0.  0.
         13    1    3    3    0    0  0.46669658918E+02 -0.16922291236E+02  0.11509742757E+02  0.50959850339E+02  0.10566000000E+00 0.  1.
         22    1    1    0    0    0 -0.27864182489E+01  0.21095190223E+02 -0.19938582042E+02  0.29160216581E+02  0.00000000000E+00 0.  1.
</event>
<event>
 5    1  0.1668518E-003  0.9118800E+02  0.7818608E-02  0.1130116E+00
         25   -1    0    0    0    0  0.00000000000E+00  0.00000000000E+00  0.99999998245E-14  0.12500000000E+03  0.12500000000E+03 0.  0.
        -13    1    3    3    0    0  0.50631965567E+02  0.13901654575E+02  0.33181302030E+02  0.62111688960E+02  0.10566000000E+00 0.  1.
         23    2    1    0    0    0  0.24333283466E+02  0.10441847970E+02  0.12651813306E+02  0.95653633049E+02  0.91040695639E+02 0.  0.
         13    1    3    3    0    0 -0.26298682101E+02 -0.34598066046E+01 -0.20529488724E+02  0.33541944089E+02  0.10566000000E+00 0. -1.
         22    1    1    0    0    0 -0.24333283466E+02 -0.10441847970E+02 -0.12651813306E+02  0.29346366951E+02  0.00000000000E+00 0.  1.
</event>
<event>
 5    1  0.1668518E-003  0.9118800E+02  0.7818608E-02  0.1130116E+00
         25   -1    0    0    0    0  0.00000000000E+00  0.00000000000E+00  0.99999998245E-14  0.12500000000E+03  0.12500000000E+03 0.  0.
        -13    1    3    3    0    0 -0.62246672787E+02 -0.22269894310E+01 -0.13222452611E+01  0.62300619993E+02  0.10566000000E+00 0.  1.
         23    2    1    0    0    0 -0.29892005892E+02 -0.44993186012E+01  0.19539695769E+00  0.94770642347E+02  0.89820156906E+02 0.  0.
         13    1    3    3    0    0  0.32354666894E+02 -0.22723291702E+01  0.15176422188E+01  0.32470022354E+02  0.10566000000E+00 0. -1.
         22    1    1    0    0    0  0.29892005892E+02  0.44993186012E+01 -0.19539695769E+00  0.30229357653E+02  0.00000000000E+00 0.  1.
</event>
<event>
 5    1  0.1668518E-003  0.9118800E+02  0.7818608E-02  0.1130116E+00
         25   -1    0    0    0    0  0.00000000000E+00  0.00000000000E+00  0.99999998245E-14  0.12500000000E+03  0.12500000000E+03 0.  0.
        -13    1    3    3    0    0  0.40308793770E+02 -0.15857778714E+01  0.74926316861E+01  0.41030040705E+02  0.10566000000E+00 0.  1.
         23    2    1    0    0    0  0.20545675927E+01 -0.10517176668E+02 -0.28650732855E+02  0.94410839400E+02  0.89318026456E+02 0.  0.
         13    1    3    3    0    0 -0.38254226177E+02 -0.89313987970E+01 -0.36143364542E+02  0.53380798695E+02  0.10566000000E+00 0. -1.
         22    1    1    0    0    0 -0.20545675927E+01  0.10517176668E+02  0.28650732855E+02  0.30589160600E+02  0.00000000000E+00 0. -1.
</event>
<event>
 5    1  0.1668518E-003  0.9118800E+02  0.7818608E-02  0.1130116E+00
         25   -1    0    0    0    0  0.00000000000E+00  0.00000000000E+00  0.99999998245E-14  0.12500000000E+03  0.12500000000E+03 0.  0.
        -13    1    3    3    0    0 -0.46662650703E+02 -0.15132543840E+02 -0.25363233911E+02  0.55224103905E+02  0.10566000000E+00 0.  1.
         23    2    1    0    0    0 -0.11391946745E+02 -0.25485570279E+02 -0.74960653900E+01  0.96095299008E+02  0.91645102172E+02 0.  0.
         13    1    3    3    0    0  0.35270703958E+02 -0.10353026439E+02  0.17867168521E+02  0.40871195103E+02  0.10566000000E+00 0. -1.
         22    1    1    0    0    0  0.11391946745E+02  0.25485570279E+02  0.74960653900E+01  0.28904700992E+02  0.00000000000E+00 0.  1.
</event>
<event>
 5    1  0.1668518E-003  0.9118800E+02  0.7818608E-02  0.1130116E+00
         25   -1    0    0    0    0  0.00000000000E+00  0.00000000000E+00  0.99999998245E-14  0.12500000000E+03  0.12500000000E+03 0.  0.
        -13    1    3    3    0    0  0.48804456656E+02  0.22619484849E+01 -0.16329904382E+02  0.51513768467E+02  0.10566000000E+00 0.  1.
         23    2    1    0    0    0  0.61340247720E+01  0.10486810852E+02 -0.26238681071E+02  0.96085162181E+02  0.91631274930E+02 0.  0.
         13    1    3    3    0    0 -0.42670431884E+02  0.82248623675E+01 -0.99087766883E+01  0.44571393714E+02  0.10566000000E+00 0. -1.
         22    1    1    0    0    0 -0.61340247720E+01 -0.10486810852E+02  0.26238681071E+02  0.28914837819E+02  0.00000000000E+00 0.  1.
</event>
<event>
 5    1  0.1668518E-003  0.9118800E+02  0.7818608E-02  0.1130116E+00
         25   -1    0    0    0    0  0.00000000000E+00  0.00000000000E+00  0.99999998245E-14  0.12500000000E+03  0.12500000000E+03 0.  0.
        -13    1    3    3    0    0  0.40699961058E+01  0.35895330708E+02  0.44122238999E+02  0.57024755794E+02  0.10566000000E+00 0.  1.
         23    2    1    0    0    0 -0.15155068667E+02  0.87028722738E+01  0.21542724166E+02  0.97260045843E+02  0.93220230963E+02 0.  0.
         13    1    3    3    0    0 -0.19225064773E+02 -0.27192458435E+02 -0.22579514833E+02  0.40235290050E+02  0.10566000000E+00 0. -1.
         22    1    1    0    0    0  0.15155068667E+02 -0.87028722738E+01 -0.21542724166E+02  0.27739954157E+02  0.00000000000E+00 0.  1.
</event>
<event>
 5    1  0.1668518E-003  0.9118800E+02  0.7818608E-02  0.1130116E+00
         25   -1    0    0    0    0  0.00000000000E+00  0.00000000000E+00  0.99999998245E-14  0.12500000000E+03  0.12500000000E+03 0.  0.
        -13    1    3    3    0    0  0.15713533629E+02  0.29031198372E+01  0.56392941342E+02  0.58613294065E+02  0.10566000000E+00 0.  1.
         23    2    1    0    0    0  0.20478806437E+02  0.67964584373E+01  0.19816810033E+02  0.95703595438E+02  0.91109268791E+02 0.  0.
         13    1    3    3    0    0  0.47652728081E+01  0.38933386001E+01 -0.36576131309E+02  0.37090301373E+02  0.10566000000E+00 0. -1.
         22    1    1    0    0    0 -0.20478806437E+02 -0.67964584373E+01 -0.19816810033E+02  0.29296404562E+02  0.00000000000E+00 0.  1.
</event>
<event>
 5    1  0.1668518E-003  0.9118800E+02  0.7818608E-02  0.1130116E+00
         25   -1    0    0    0    0  0.00000000000E+00  0.00000000000E+00  0.99999998245E-14  0.12500000000E+03  0.12500000000E+03 0.  0.
        -13    1    3    3    0    0 -0.21681440032E+02  0.32438591245E+02 -0.15210869934E+01  0.39047047436E+02  0.10566000000E+00 0. -1.
         23    2    1    0    0    0  0.15407731560E+02 -0.26951162047E+01 -0.25187668179E+02  0.95350708752E+02  0.90623822410E+02 0.  0.
         13    1    3    3    0    0  0.37089171591E+02 -0.35133707450E+02 -0.23666581186E+02  0.56303661316E+02  0.10566000000E+00 0.  1.
         22    1    1    0    0    0 -0.15407731560E+02  0.26951162047E+01  0.25187668179E+02  0.29649291248E+02  0.00000000000E+00 0.  1.
</event>
<event>
 5    1  0.1668518E-003  0.9118800E+02  0.7818608E-02  0.1130116E+00
         25   -1    0    0    0    0  0.00000000000E+00  0.00000000000E+00  0.99999998245E-14  0.12500000000E+03  0.12500000000E+03 0.  0.
        -13    1    3    3    0    0 -0.30390477162E+02 -0.37177380586E+02 -0.10512923745E+02  0.49155584211E+02  0.10566000000E+00 0. -1.
         23    2    1    0    0    0  0.46418696790E+01 -0.22746535037E+02  0.17208313852E+02  0.96102285973E+02  0.91654631598E+02 0.  0.
         13    1    3    3    0    0  0.35032346841E+02  0.14430845549E+02  0.27721237597E+02  0.46946701763E+02  0.10566000000E+00 0.  1.
         22    1    1    0    0    0 -0.46418696790E+01  0.22746535037E+02 -0.17208313852E+02  0.28897714027E+02  0.00000000000E+00 0.  1.
</event>
<event>
 5    1  0.1668518E-003  0.9118800E+02  0.7818608E-02  0.1130116E+00
         25   -1    0    0    0    0  0.00000000000E+00  0.00000000000E+00  0.99999998245E-14  0.12500000000E+03  0.12500000000E+03 0.  0.
        -13    1    3    3    0    0  0.20127509466E+01  0.34936801647E+02 -0.40719337300E+02  0.53690845308E+02  0.10566000000E+00 0.  1.
         23    2    1    0    0    0  0.15736777695E+02  0.25278541122E+02 -0.28805027502E+01  0.95084316662E+02  0.90255632320E+02 0.  0.
         13    1    3    3    0    0  0.13724026749E+02 -0.96582605250E+01  0.37838834550E+02  0.41393471354E+02  0.10566000000E+00 0. -1.
         22    1    1    0    0    0 -0.15736777695E+02 -0.25278541122E+02  0.28805027502E+01  0.29915683338E+02  0.00000000000E+00 0. -1.
</event>
<event>
 5    1  0.1668518E-003  0.9118800E+02  0.7818608E-02  0.1130116E+00
         25   -1    0    0    0    0  0.00000000000E+00  0.00000000000E+00  0.99999998245E-14  0.12500000000E+03  0.12500000000E+03 0.  0.
        -13    1    3    3    0    0  0.12652113200E+02  0.32093545365E+02  0.28984955471E+01  0.34619128571E+02  0.10566000000E+00 0.  1.
         23    2    1    0    0    0 -0.13145505357E+02 -0.22246314900E+02  0.13729347079E+02  0.95739142034E+02  0.91158024926E+02 0.  0.
         13    1    3    3    0    0 -0.25797618558E+02 -0.54339860264E+02  0.10830851532E+02  0.61120013463E+02  0.10566000000E+00 0. -1.
         22    1    1    0    0    0  0.13145505357E+02  0.22246314900E+02 -0.13729347079E+02  0.29260857966E+02  0.00000000000E+00 0. -1.
</event>
<event>
 5    1  0.1668518E-003  0.9118800E+02  0.7818608E-02  0.1130116E+00
         25   -1    0    0    0    0  0.00000000000E+00  0.00000000000E+00  0.99999998245E-14  0.12500000000E+03  0.12500000000E+03 0.  0.
        -13    1    3    3    0    0  0.17044614357E+02  0.56056179467E+02 -0.15380892023E+02  0.60575549015E+02  0.10566000000E+00 0.  1.
         23    2    1    0    0    0 -0.12137943473E+01  0.28134600145E+02 -0.12353755004E+01  0.96812144908E+02  0.92617688522E+02 0.  0.
         13    1    3    3    0    0 -0.18258408704E+02 -0.27921579322E+02  0.14145516522E+02  0.36236595894E+02  0.10566000000E+00 0. -1.
         22    1    1    0    0    0  0.12137943473E+01 -0.28134600145E+02  0.12353755004E+01  0.28187855092E+02  0.00000000000E+00 0.  1.
</event>
<event>
 5    1  0.1668518E-003  0.9118800E+02  0.7818608E-02  0.1130116E+00
         25   -1    0    0    0    0  0.00000000000E+00  0.00000000000E+00  0.99999998245E-14  0.12500000000E+03  0.12500000000E+03 0.  0.
        -13    1    3    3    0    0 -0.26364965475E+02  0.45485468304E+01 -0.38782632795E+02  0.47115862015E+02  0.10566000000E+00 0.  1.
         23    2    1    0    0    0  0.17529096993E+02 -0.10744770814E+02 -0.16368043039E+02  0.98720118452E+02  0.95157919340E+02 0.  0.
         13    1    3    3    0    0  0.43894062468E+02 -0.15293317644E+02  0.22414589756E+02  0.51604256438E+02  0.10566000000E+00 0. -1.
         22    1    1    0    0    0 -0.17529096993E+02  0.10744770814E+02  0.16368043039E+02  0.26279881548E+02  0.00000000000E+00 0. -1.
</event>
<event>
 5    1  0.1668518E-003  0.9118800E+02  0.7818608E-02  0.1130116E+00
         25   -1    0    0    0    0  0.00000000000E+00  0.00000000000E+00  0.99999998245E-14  0.12500000000E+03  0.12500000000E+03 0.  0.
        -13    1    3    3    0    0  0.37582559633E+02  0.29934182745E+02  0.23577342434E+02  0.53520148781E+02  0.10566000000E+00 0.  1.
         23    2    1    0    0    0  0.26499209537E+02  0.44448287404E+01 -0.92949290802E+01  0.96568321977E+02  0.92288030070E+02 0.  0.
         13    1    3    3    0    0 -0.11083350097E+02 -0.25489354005E+02 -0.32872271514E+02  0.43048173196E+02  0.10566000000E+00 0. -1.
         22    1    1    0    0    0 -0.26499209537E+02 -0.44448287404E+01  0.92949290802E+01  0.28431678023E+02  0.00000000000E+00 0. -1.
</event>
<event>
 5    1  0.1668518E-003  0.9118800E+02  0.7818608E-02  0.1130116E+00
         25   -1    0    0    0    0  0.00000000000E+00  0.00000000000E+00  0.99999998245E-14  0.12500000000E+03  0.12500000000E+03 0.  0.
        -13    1    3    3    0    0 -0.43524430134E+02 -0.22388656364E+02  0.97465706096E+01  0.49906259677E+02  0.10566000000E+00 0. -1.
         23    2    1    0    0    0 -0.14502385561E+02 -0.20329194581E+02 -0.21098412204E+02  0.92308436305E+02  0.86325599195E+02 0.  0.
         13    1    3    3    0    0  0.29022044573E+02  0.20594617824E+01 -0.30844982814E+02  0.42402176629E+02  0.10566000000E+00 0.  1.
         22    1    1    0    0    0  0.14502385561E+02  0.20329194581E+02  0.21098412204E+02  0.32691563695E+02  0.00000000000E+00 0. -1.
</event>
<event>
 5    1  0.1668518E-003  0.9118800E+02  0.7818608E-02  0.1130116E+00
         25   -1    0    0    0    0  0.00000000000E+00  0.00000000000E+00  0.99999998245E-14  0.12500000000E+03  0.12500000000E+03 0.  0.
        -13    1    3    3    0    0  0.14095115544E+02 -0.12457591130E+02  0.42513309117E+02  0.46489315709E+02  0.10566000000E+00 0. -1.
         23    2    1    0    0    0 -0.22940443096E+02 -0.15154611078E+02  0.10327989430E+02  0.95630057337E+02  0.91008320137E+02 0.  0.
         13    1    3    3    0    0 -0.37035558640E+02 -0.26970199476E+01 -0.32185319687E+02  0.49140741628E+02  0.10566000000E+00 0.  1.
         22    1    1    0    0    0  0.22940443096E+02  0.15154611078E+02 -0.10327989430E+02  0.29369942663E+02  0.00000000000E+00 0.  1.
</event>
<event>
 5    1  0.1668518E-003  0.9118800E+02  0.7818608E-02  0.1130116E+00
         25   -1    0    0    0    0  0.00000000000E+00  0.00000000000E+00  0.99999998245E-14  0.12500000000E+03  0.12500000000E+03 0.  0.
        -13    1    3    3    0    0  0.20699636165E+02  0.61571448476E+01 -0.17342374205E+02  0.27697553631E+02  0.10566000000E+00 0.  1.
         23    2    1    0    0    0 -0.24311339115E+02 -0.12282966414E+02  0.21783596365E+02  0.90122535297E+02  0.83100143347E+02 0.  0.
         13    1    3    3    0    0 -0.45010975280E+02 -0.18440111262E+02  0.39125970570E+02  0.62424981666E+02  0.10566000000E+00 0. -1.
         22    1    1    0    0    0  0.24311339115E+02  0.12282966414E+02 -0.21783596365E+02  0.34877464703E+02  0.00000000000E+00 0. -1.
</event>
<event>
 5    1  0.1668518E-003  0.9118800E+02  0.7818608E-02  0.1130116E+00
         25   -1    0    0    0    0  0.00000000000E+00  0.00000000000E+00  0.99999998245E-14  0.12500000000E+03  0.12500000000E+03 0.  0.
        -13    1    3    3    0    0 -0.37337263136E+02 -0.16779971955E+02 -0.22761678337E+02  0.46837419251E+02  0.10566000000E+00 0.  1.
         23    2    1    0    0    0  0.10666368716E+02 -0.14035805007E+02 -0.24341301060E+02  0.94945479856E+02  0.90063144316E+02 0.  0.
         13    1    3    3    0    0  0.48003631852E+02  0.27441669477E+01 -0.15796227230E+01  0.48108060606E+02  0.10566000000E+00 0. -1.
         22    1    1    0    0    0 -0.10666368716E+02  0.14035805007E+02  0.24341301060E+02  0.30054520144E+02  0.00000000000E+00 0.  1.
</event>
<event>
 5    1  0.1668518E-003  0.9118800E+02  0.7818608E-02  0.1130116E+00
         25   -1    0    0    0    0  0.00000000000E+00  0.00000000000E+00  0.99999998245E-14  0.12500000000E+03  0.12500000000E+03 0.  0.
        -13    1    3    3    0    0  0.36815545596E+02 -0.87595941700E+01  0.17534154647E+01  0.37884040404E+02  0.10566000000E+00 0.  1.
         23    2    1    0    0    0 -0.17616215221E+02 -0.37667566425E+00  0.22223484802E+02  0.96638825835E+02  0.92383475031E+02 0.  0.
         13    1    3    3    0    0 -0.54431760817E+02  0.83829185058E+01  0.20470069337E+02  0.58754785431E+02  0.10566000000E+00 0. -1.
         22    1    1    0    0    0  0.17616215221E+02  0.37667566425E+00 -0.22223484802E+02  0.28361174165E+02  0.00000000000E+00 0. -1.
</event>
<event>
 5    1  0.1668518E-003  0.9118800E+02  0.7818608E-02  0.1130116E+00
         25   -1    0    0    0    0  0.00000000000E+00  0.00000000000E+00  0.99999998245E-14  0.12500000000E+03  0.12500000000E+03 0.  0.
        -13    1    3    3    0    0  0.21740834143E+02 -0.73719740347E+01  0.31824859159E+02  0.39240829437E+02  0.10566000000E+00 0.  1.
         23    2    1    0    0    0  0.12557692696E+02  0.18520155640E+02 -0.18096292584E+02  0.96222098477E+02  0.91817888340E+02 0.  0.
         13    1    3    3    0    0 -0.91831414473E+01  0.25892129675E+02 -0.49921151743E+02  0.56981269039E+02  0.10566000000E+00 0. -1.
         22    1    1    0    0    0 -0.12557692696E+02 -0.18520155640E+02  0.18096292584E+02  0.28777901523E+02  0.00000000000E+00 0. -1.
</event>
<event>
 5    1  0.1668518E-003  0.9118800E+02  0.7818608E-02  0.1130116E+00
         25   -1    0    0    0    0  0.00000000000E+00  0.00000000000E+00  0.99999998245E-14  0.12500000000E+03  0.12500000000E+03 0.  0.
        -13    1    3    3    0    0  0.41635645592E+02 -0.35868263458E+02 -0.15112551879E+02  0.56995260292E+02  0.10566000000E+00 0. -1.
         23    2    1    0    0    0  0.59775716540E+01 -0.28362398898E+02 -0.12342404299E+01  0.95988271621E+02  0.91499004941E+02 0.  0.
         13    1    3    3    0    0 -0.35658073938E+02  0.75058645603E+01  0.13878311450E+02  0.38993011329E+02  0.10566000000E+00 0.  1.
         22    1    1    0    0    0 -0.59775716540E+01  0.28362398898E+02  0.12342404299E+01  0.29011728379E+02  0.00000000000E+00 0. -1.
</event>
<event>
 5    1  0.1668518E-003  0.9118800E+02  0.7818608E-02  0.1130116E+00
         25   -1    0    0    0    0  0.00000000000E+00  0.00000000000E+00  0.99999998245E-14  0.12500000000E+03  0.12500000000E+03 0.  0.
        -13    1    3    3    0    0  0.32091321976E+02  0.98340097969E+01  0.24166847395E+02  0.41359501591E+02  0.10566000000E+00 0. -1.
         23    2    1    0    0    0 -0.61907108957E+01 -0.18869500076E+02  0.29430448543E+02  0.89495996903E+02  0.82152292881E+02 0.  0.
         13    1    3    3    0    0 -0.38282032871E+02 -0.28703509873E+02  0.52636011473E+01  0.48136495311E+02  0.10566000000E+00 0.  1.
         22    1    1    0    0    0  0.61907108957E+01  0.18869500076E+02 -0.29430448543E+02  0.35504003097E+02  0.00000000000E+00 0.  1.
</event>
<event>
 5    1  0.1668518E-003  0.9118800E+02  0.7818608E-02  0.1130116E+00
         25   -1    0    0    0    0  0.00000000000E+00  0.00000000000E+00  0.99999998245E-14  0.12500000000E+03  0.12500000000E+03 0.  0.
        -13    1    3    3    0    0  0.22274915414E+02  0.25212357078E+02  0.23533334962E+02  0.41056836515E+02  0.10566000000E+00 0.  1.
         23    2    1    0    0    0  0.75645728000E+01  0.94803464362E+01 -0.26678944769E+02  0.95693587320E+02  0.91095536828E+02 0.  0.
         13    1    3    3    0    0 -0.14710342614E+02 -0.15732010642E+02 -0.50212279731E+02  0.54636750805E+02  0.10566000000E+00 0. -1.
         22    1    1    0    0    0 -0.75645728000E+01 -0.94803464362E+01  0.26678944769E+02  0.29306412680E+02  0.00000000000E+00 0. -1.
</event>
<event>
 5    1  0.1668518E-003  0.9118800E+02  0.7818608E-02  0.1130116E+00
         25   -1    0    0    0    0  0.00000000000E+00  0.00000000000E+00  0.99999998245E-14  0.12500000000E+03  0.12500000000E+03 0.  0.
        -13    1    3    3    0    0 -0.21292333317E+02  0.35156111858E+02 -0.13469104711E+02  0.43252093647E+02  0.10566000000E+00 0. -1.
         23    2    1    0    0    0 -0.22138873245E+02 -0.16950300155E+02 -0.96081770941E+01  0.95508315562E+02  0.90840953818E+02 0.  0.
         13    1    3    3    0    0 -0.84653992778E+00 -0.52106412013E+02  0.38609276164E+01  0.52256221915E+02  0.10566000000E+00 0.  1.
         22    1    1    0    0    0  0.22138873245E+02  0.16950300155E+02  0.96081770941E+01  0.29491684438E+02  0.00000000000E+00 0.  1.
</event>
<event>
 5    1  0.1668518E-003  0.9118800E+02  0.7818608E-02  0.1130116E+00
         25   -1    0    0    0    0  0.00000000000E+00  0.00000000000E+00  0.99999998245E-14  0.12500000000E+03  0.12500000000E+03 0.  0.
        -13    1    3    3    0    0 -0.16025735430E+02  0.12188880704E+02  0.58950451955E+02  0.62294140644E+02  0.10566000000E+00 0.  1.
         23    2    1    0    0    0 -0.49336181379E+01  0.81110397161E+01  0.28658871603E+02  0.94809596314E+02  0.89874351616E+02 0.  0.
         13    1    3    3    0    0  0.11092117292E+02 -0.40778409883E+01 -0.30291580352E+02  0.32515455670E+02  0.10566000000E+00 0. -1.
         22    1    1    0    0    0  0.49336181379E+01 -0.81110397161E+01 -0.28658871603E+02  0.30190403686E+02  0.00000000000E+00 0.  1.
</event>
<event>
 5    1  0.1668518E-003  0.9118800E+02  0.7818608E-02  0.1130116E+00
         25   -1    0    0    0    0  0.00000000000E+00  0.00000000000E+00  0.99999998245E-14  0.12500000000E+03  0.12500000000E+03 0.  0.
        -13    1    3    3    0    0  0.13129816057E+01  0.17926123195E+02 -0.35756930624E+02  0.40020483071E+02  0.10566000000E+00 0.  1.
         23    2    1    0    0    0 -0.91642599121E+01 -0.27702474129E+02 -0.68979140964E+01  0.95016805516E+02  0.90162083932E+02 0.  0.
         13    1    3    3    0    0 -0.10477241518E+02 -0.45628597323E+02  0.28859016528E+02  0.54996322445E+02  0.10566000000E+00 0. -1.
         22    1    1    0    0    0  0.91642599121E+01  0.27702474129E+02  0.68979140964E+01  0.29983194484E+02  0.00000000000E+00 0.  1.
</event>
<event>
 5    1  0.1668518E-003  0.9118800E+02  0.7818608E-02  0.1130116E+00
         25   -1    0    0    0    0  0.00000000000E+00  0.00000000000E+00  0.99999998245E-14  0.12500000000E+03  0.12500000000E+03 0.  0.
        -13    1    3    3    0    0 -0.45236477922E+01 -0.21433160681E+02  0.51047452275E+02  0.55549053223E+02  0.10566000000E+00 0.  1.
         23    2    1    0    0    0  0.89354993022E+01 -0.25779809295E+02  0.15935337762E+02  0.93402900375E+02  0.87896103974E+02 0.  0.
         13    1    3    3    0    0  0.13459147094E+02 -0.43466486147E+01 -0.35112114513E+02  0.37853847153E+02  0.10566000000E+00 0. -1.
         22    1    1    0    0    0 -0.89354993022E+01  0.25779809295E+02 -0.15935337762E+02  0.31597099625E+02  0.00000000000E+00 0.  1.
</event>
<event>
 5    1  0.1668518E-003  0.9118800E+02  0.7818608E-02  0.1130116E+00
         25   -1    0    0    0    0  0.00000000000E+00  0.00000000000E+00  0.99999998245E-14  0.12500000000E+03  0.12500000000E+03 0.  0.
        -13    1    3    3    0    0  0.15813736542E+01 -0.41195145363E+02 -0.42986820084E+02  0.59560209948E+02  0.10566000000E+00 0. -1.
         23    2    1    0    0    0 -0.61442106752E+00 -0.28090635863E+02 -0.99099758090E+01  0.95206226205E+02  0.90424313938E+02 0.  0.
         13    1    3    3    0    0 -0.21957947217E+01  0.13104509500E+02  0.33076844275E+02  0.35646016256E+02  0.10566000000E+00 0.  1.
         22    1    1    0    0    0  0.61442106752E+00  0.28090635863E+02  0.99099758090E+01  0.29793773795E+02  0.00000000000E+00 0. -1.
</event>
<event>
 5    1  0.1668518E-003  0.9118800E+02  0.7818608E-02  0.1130116E+00
         25   -1    0    0    0    0  0.00000000000E+00  0.00000000000E+00  0.99999998245E-14  0.12500000000E+03  0.12500000000E+03 0.  0.
        -13    1    3    3    0    0 -0.11687677252E+02  0.25415248290E+02 -0.34341915885E+02  0.44293509636E+02  0.10566000000E+00 0. -1.
         23    2    1    0    0    0  0.25894769403E+02 -0.26819445296E+01 -0.14047413062E+02  0.95418557800E+02  0.90717360246E+02 0.  0.
         13    1    3    3    0    0  0.37582446655E+02 -0.28097192819E+02  0.20294502823E+02  0.51125048164E+02  0.10566000000E+00 0.  1.
         22    1    1    0    0    0 -0.25894769403E+02  0.26819445296E+01  0.14047413062E+02  0.29581442200E+02  0.00000000000E+00 0. -1.
</event>
<event>
 5    1  0.1668518E-003  0.9118800E+02  0.7818608E-02  0.1130116E+00
         25   -1    0    0    0    0  0.00000000000E+00  0.00000000000E+00  0.99999998245E-14  0.12500000000E+03  0.12500000000E+03 0.  0.
        -13    1    3    3    0    0  0.23109444232E+02  0.33547684421E+02  0.39336865534E+02  0.56629441961E+02  0.10566000000E+00 0. -1.
         23    2    1    0    0    0  0.20631522761E+02  0.36550539937E+01  0.30677887391E+02  0.87849603960E+02  0.79607794781E+02 0.  0.
         13    1    3    3    0    0 -0.24779214712E+01 -0.29892630428E+02 -0.86589781427E+01  0.31220161998E+02  0.10566000000E+00 0.  1.
         22    1    1    0    0    0 -0.20631522761E+02 -0.36550539937E+01 -0.30677887391E+02  0.37150396040E+02  0.00000000000E+00 0. -1.
</event>
<event>
 5    1  0.1668518E-003  0.9118800E+02  0.7818608E-02  0.1130116E+00
         25   -1    0    0    0    0  0.00000000000E+00  0.00000000000E+00  0.99999998245E-14  0.12500000000E+03  0.12500000000E+03 0.  0.
        -13    1    3    3    0    0  0.31724609452E+02  0.74615821586E+01  0.75093420252E+01  0.33444393175E+02  0.10566000000E+00 0. -1.
         23    2    1    0    0    0 -0.25761513175E+02  0.92056236187E+01 -0.13268444384E+02  0.94595219395E+02  0.89575693403E+02 0.  0.
         13    1    3    3    0    0 -0.57486122627E+02  0.17440414601E+01 -0.20777786409E+02  0.61150826220E+02  0.10566000000E+00 0.  1.
         22    1    1    0    0    0  0.25761513175E+02 -0.92056236187E+01  0.13268444384E+02  0.30404780605E+02  0.00000000000E+00 0.  1.
</event>
<event>
 5    1  0.1668518E-003  0.9118800E+02  0.7818608E-02  0.1130116E+00
         25   -1    0    0    0    0  0.00000000000E+00  0.00000000000E+00  0.99999998245E-14  0.12500000000E+03  0.12500000000E+03 0.  0.
        -13    1    3    3    0    0 -0.30189610589E+01  0.38485192452E+01 -0.47565836461E+02  0.47816787727E+02  0.10566000000E+00 0.  1.
         23    2    1    0    0    0 -0.26024985458E+02  0.72163054422E+01 -0.33334633653E+01  0.97788110865E+02  0.93925649938E+02 0.  0.
         13    1    3    3    0    0 -0.23006024399E+02  0.33677861970E+01  0.44232373095E+02  0.49971323138E+02  0.10566000000E+00 0. -1.
         22    1    1    0    0    0  0.26024985458E+02 -0.72163054422E+01  0.33334633653E+01  0.27211889135E+02  0.00000000000E+00 0. -1.
</event>
<event>
 5    1  0.1668518E-003  0.9118800E+02  0.7818608E-02  0.1130116E+00
         25   -1    0    0    0    0  0.00000000000E+00  0.00000000000E+00  0.99999998245E-14  0.12500000000E+03  0.12500000000E+03 0.  0.
        -13    1    3    3    0    0 -0.28144458812E+02  0.12137696649E+02 -0.14150978716E+02  0.33759378022E+02  0.10566000000E+00 0.  1.
         23    2    1    0    0    0  0.18713821773E+02 -0.13944001071E+02 -0.27408519642E+02  0.89001816154E+02  0.81396892070E+02 0.  0.
         13    1    3    3    0    0  0.46858280585E+02 -0.26081697720E+02 -0.13257540926E+02  0.55242438132E+02  0.10566000000E+00 0. -1.
         22    1    1    0    0    0 -0.18713821773E+02  0.13944001071E+02  0.27408519642E+02  0.35998183846E+02  0.00000000000E+00 0. -1.
</event>
<event>
 5    1  0.1668518E-003  0.9118800E+02  0.7818608E-02  0.1130116E+00
         25   -1    0    0    0    0  0.00000000000E+00  0.00000000000E+00  0.99999998245E-14  0.12500000000E+03  0.12500000000E+03 0.  0.
        -13    1    3    3    0    0 -0.39608035638E+02  0.51127989949E+00  0.36058203080E+02  0.53565502589E+02  0.10566000000E+00 0.  1.
         23    2    1    0    0    0 -0.25456088686E+02 -0.12778815595E+02 -0.21626760234E+01  0.96434500761E+02  0.92106596887E+02 0.  0.
         13    1    3    3    0    0  0.14151946952E+02 -0.13290095494E+02 -0.38220879103E+02  0.42868998171E+02  0.10566000000E+00 0. -1.
         22    1    1    0    0    0  0.25456088686E+02  0.12778815595E+02  0.21626760234E+01  0.28565499239E+02  0.00000000000E+00 0.  1.
</event>
<event>
 5    1  0.1668518E-003  0.9118800E+02  0.7818608E-02  0.1130116E+00
         25   -1    0    0    0    0  0.00000000000E+00  0.00000000000E+00  0.99999998245E-14  0.12500000000E+03  0.12500000000E+03 0.  0.
        -13    1    3    3    0    0 -0.32921458158E+02 -0.17950983156E+02  0.19114446287E+02  0.42088400117E+02  0.10566000000E+00 0. -1.
         23    2    1    0    0    0  0.63307564194E+00  0.24040368405E+02  0.16367760395E+02  0.95909732243E+02  0.91391646559E+02 0.  0.
         13    1    3    3    0    0  0.33554533800E+02  0.41991351561E+02 -0.27466858916E+01  0.53821332126E+02  0.10566000000E+00 0.  1.
         22    1    1    0    0    0 -0.63307564194E+00 -0.24040368405E+02 -0.16367760395E+02  0.29090267757E+02  0.00000000000E+00 0.  1.
</event>
<event>
 5    1  0.1668518E-003  0.9118800E+02  0.7818608E-02  0.1130116E+00
         25   -1    0    0    0    0  0.00000000000E+00  0.00000000000E+00  0.99999998245E-14  0.12500000000E+03  0.12500000000E+03 0.  0.
        -13    1    3    3    0    0 -0.43373156508E+02  0.24532647905E+02  0.37301575191E+02  0.62245483326E+02  0.10566000000E+00 0. -1.
         23    2    1    0    0    0 -0.21012165338E+02  0.12710577308E+02  0.13504387875E+02  0.96974326777E+02  0.92836316678E+02 0.  0.
         13    1    3    3    0    0  0.22360991169E+02 -0.11822070598E+02 -0.23797187316E+02  0.34728843451E+02  0.10566000000E+00 0.  1.
         22    1    1    0    0    0  0.21012165338E+02 -0.12710577308E+02 -0.13504387875E+02  0.28025673223E+02  0.00000000000E+00 0. -1.
</event>
<event>
 5    1  0.1668518E-003  0.9118800E+02  0.7818608E-02  0.1130116E+00
         25   -1    0    0    0    0  0.00000000000E+00  0.00000000000E+00  0.99999998245E-14  0.12500000000E+03  0.12500000000E+03 0.  0.
        -13    1    3    3    0    0 -0.29634273235E+02 -0.23879407421E+02 -0.77345706762E+01  0.38836207288E+02  0.10566000000E+00 0.  1.
         23    2    1    0    0    0  0.25183200792E+02 -0.17078221842E+02 -0.31271778632E+00  0.94570457515E+02  0.89541132329E+02 0.  0.
         13    1    3    3    0    0  0.54817474027E+02  0.68011855787E+01  0.74218528899E+01  0.55734250227E+02  0.10566000000E+00 0. -1.
         22    1    1    0    0    0 -0.25183200792E+02  0.17078221842E+02  0.31271778632E+00  0.30429542485E+02  0.00000000000E+00 0. -1.
</event>
<event>
 5    1  0.1668518E-003  0.9118800E+02  0.7818608E-02  0.1130116E+00
         25   -1    0    0    0    0  0.00000000000E+00  0.00000000000E+00  0.99999998245E-14  0.12500000000E+03  0.12500000000E+03 0.  0.
        -13    1    3    3    0    0  0.25109483719E+02 -0.54159865827E+02  0.12180007818E+01  0.59709898082E+02  0.10566000000E+00 0. -1.
         23    2    1    0    0    0  0.89633474390E+01 -0.24878624051E+02  0.13471348098E+02  0.95322318966E+02  0.90584655110E+02 0.  0.
         13    1    3    3    0    0 -0.16146136280E+02  0.29281241776E+02  0.12253347317E+02  0.35612420884E+02  0.10566000000E+00 0.  1.
         22    1    1    0    0    0 -0.89633474390E+01  0.24878624051E+02 -0.13471348098E+02  0.29677681034E+02  0.00000000000E+00 0. -1.
</event>
<event>
 5    1  0.1668518E-003  0.9118800E+02  0.7818608E-02  0.1130116E+00
         25   -1    0    0    0    0  0.00000000000E+00  0.00000000000E+00  0.99999998245E-14  0.12500000000E+03  0.12500000000E+03 0.  0.
        -13    1    3    3    0    0  0.32320815259E+02 -0.20523137794E+02 -0.12670103774E+02  0.40328364430E+02  0.10566000000E+00 0.  1.
         23    2    1    0    0    0 -0.12607336262E+02  0.11273594810E+02 -0.23121154618E+02  0.96353418033E+02  0.91996491825E+02 0.  0.
         13    1    3    3    0    0 -0.44928151521E+02  0.31796732604E+02 -0.10451050844E+02  0.56025053602E+02  0.10566000000E+00 0. -1.
         22    1    1    0    0    0  0.12607336262E+02 -0.11273594810E+02  0.23121154618E+02  0.28646581967E+02  0.00000000000E+00 0. -1.
</event>
<event>
 5    1  0.1668518E-003  0.9118800E+02  0.7818608E-02  0.1130116E+00
         25   -1    0    0    0    0  0.00000000000E+00  0.00000000000E+00  0.99999998245E-14  0.12500000000E+03  0.12500000000E+03 0.  0.
        -13    1    3    3    0    0 -0.19235494573E+02 -0.42625649889E+02 -0.19407112523E+02  0.50631980609E+02  0.10566000000E+00 0.  1.
         23    2    1    0    0    0  0.18317875553E+02 -0.10764002311E+02  0.48959294765E+00  0.10374798805E+03  0.10154800349E+03 0.  0.
         13    1    3    3    0    0  0.37553370126E+02  0.31861647578E+02  0.19896705471E+02  0.53116007444E+02  0.10566000000E+00 0. -1.
         22    1    1    0    0    0 -0.18317875553E+02  0.10764002311E+02 -0.48959294765E+00  0.21252011947E+02  0.00000000000E+00 0. -1.
</event>
<event>
 5    1  0.1668518E-003  0.9118800E+02  0.7818608E-02  0.1130116E+00
         25   -1    0    0    0    0  0.00000000000E+00  0.00000000000E+00  0.99999998245E-14  0.12500000000E+03  0.12500000000E+03 0.  0.
        -13    1    3    3    0    0  0.11923288238E+01 -0.52334688445E+02  0.27961980773E+02  0.59348334394E+02  0.10566000000E+00 0. -1.
         23    2    1    0    0    0  0.82110480867E+00 -0.35693299071E+02  0.32420288551E+01  0.89150361749E+02  0.81624692570E+02 0.  0.
         13    1    3    3    0    0 -0.37122401511E+00  0.16641389374E+02 -0.24719951918E+02  0.29802027354E+02  0.10566000000E+00 0.  1.
         22    1    1    0    0    0 -0.82110480867E+00  0.35693299071E+02 -0.32420288551E+01  0.35849638251E+02  0.00000000000E+00 0. -1.
</event>
<event>
 5    1  0.1668518E-003  0.9118800E+02  0.7818608E-02  0.1130116E+00
         25   -1    0    0    0    0  0.00000000000E+00  0.00000000000E+00  0.99999998245E-14  0.12500000000E+03  0.12500000000E+03 0.  0.
        -13    1    3    3    0    0  0.45523796482E+02 -0.35591316307E+02  0.48436332186E+01  0.57988186637E+02  0.10566000000E+00 0.  1.
         23    2    1    0    0    0  0.97077547471E+01 -0.28300716363E+02  0.56693084318E+01  0.94548200267E+02  0.89510055674E+02 0.  0.
         13    1    3    3    0    0 -0.35816041735E+02  0.72905999448E+01  0.82567521322E+00  0.36560013631E+02  0.10566000000E+00 0. -1.
         22    1    1    0    0    0 -0.97077547471E+01  0.28300716363E+02 -0.56693084318E+01  0.30451799733E+02  0.00000000000E+00 0.  1.
</event>
<event>
 5    1  0.1668518E-003  0.9118800E+02  0.7818608E-02  0.1130116E+00
         25   -1    0    0    0    0  0.00000000000E+00  0.00000000000E+00  0.99999998245E-14  0.12500000000E+03  0.12500000000E+03 0.  0.
        -13    1    3    3    0    0  0.24899933349E+02  0.14820923441E+02 -0.80381081359E+01  0.30071395027E+02  0.10566000000E+00 0. -1.
         23    2    1    0    0    0 -0.20520264730E+02 -0.22626252224E+02  0.11893122789E+02  0.92220815691E+02  0.86198630632E+02 0.  0.
         13    1    3    3    0    0 -0.45420198078E+02 -0.37447175665E+02  0.19931230925E+02  0.62149420665E+02  0.10566000000E+00 0.  1.
         22    1    1    0    0    0  0.20520264730E+02  0.22626252224E+02 -0.11893122789E+02  0.32779184309E+02  0.00000000000E+00 0.  1.
</event>
<event>
 5    1  0.1668518E-003  0.9118800E+02  0.7818608E-02  0.1130116E+00
         25   -1    0    0    0    0  0.00000000000E+00  0.00000000000E+00  0.99999998245E-14  0.12500000000E+03  0.12500000000E+03 0.  0.
        -13    1    3    3    0    0 -0.31585063762E+01  0.21052020934E+02 -0.32140421365E+02  0.38551025894E+02  0.10566000000E+00 0.  1.
         23    2    1    0    0    0 -0.23923782415E+01  0.17986780124E+02  0.24073630754E+02  0.94853898584E+02  0.89935947463E+02 0.  0.
         13    1    3    3    0    0  0.76612813464E+00 -0.30652408101E+01  0.56214052119E+02  0.56302872690E+02  0.10566000000E+00 0. -1.
         22    1    1    0    0    0  0.23923782415E+01 -0.17986780124E+02 -0.24073630754E+02  0.30146101416E+02  0.00000000000E+00 0. -1.
</event>
<event>
 5    1  0.1668518E-003  0.9118800E+02  0.7818608E-02  0.1130116E+00
         25   -1    0    0    0    0  0.00000000000E+00  0.00000000000E+00  0.99999998245E-14  0.12500000000E+03  0.12500000000E+03 0.  0.
        -13    1    3    3    0    0 -0.60925545693E+01  0.56385637632E+02  0.39296385975E+01  0.56849912717E+02  0.10566000000E+00 0.  1.
         23    2    1    0    0    0 -0.14110722331E+02  0.22254051730E+02 -0.12808482176E+02  0.95701322235E+02  0.91106149951E+02 0.  0.
         13    1    3    3    0    0 -0.80181677617E+01 -0.34131585903E+02 -0.16738120774E+02  0.38851409518E+02  0.10566000000E+00 0. -1.
         22    1    1    0    0    0  0.14110722331E+02 -0.22254051730E+02  0.12808482176E+02  0.29298677765E+02  0.00000000000E+00 0.  1.
</event>
<event>
 5    1  0.1668518E-003  0.9118800E+02  0.7818608E-02  0.1130116E+00
         25   -1    0    0    0    0  0.00000000000E+00  0.00000000000E+00  0.99999998245E-14  0.12500000000E+03  0.12500000000E+03 0.  0.
        -13    1    3    3    0    0  0.33874564407E+02 -0.51255486703E+02  0.64826520255E+01  0.61779017249E+02  0.10566000000E+00 0.  1.
         23    2    1    0    0    0  0.10623607960E+02 -0.26178252211E+02  0.66455856129E+01  0.95977151363E+02  0.91483811905E+02 0.  0.
         13    1    3    3    0    0 -0.23250956448E+02  0.25077234492E+02  0.16293358743E+00  0.34198134114E+02  0.10566000000E+00 0. -1.
         22    1    1    0    0    0 -0.10623607960E+02  0.26178252211E+02 -0.66455856129E+01  0.29022848637E+02  0.00000000000E+00 0.  1.
</event>
<event>
 5    1  0.1668518E-003  0.9118800E+02  0.7818608E-02  0.1130116E+00
         25   -1    0    0    0    0  0.00000000000E+00  0.00000000000E+00  0.99999998245E-14  0.12500000000E+03  0.12500000000E+03 0.  0.
        -13    1    3    3    0    0 -0.34993870804E+02 -0.39465590616E+02  0.64447091612E+01  0.53138021009E+02  0.10566000000E+00 0.  1.
         23    2    1    0    0    0  0.29145671936E+00 -0.21997872245E+02  0.20485671003E+02  0.94939160910E+02  0.90054373728E+02 0.  0.
         13    1    3    3    0    0  0.35285327524E+02  0.17467718371E+02  0.14040961842E+02  0.41801139901E+02  0.10566000000E+00 0. -1.
         22    1    1    0    0    0 -0.29145671936E+00  0.21997872245E+02 -0.20485671003E+02  0.30060839090E+02  0.00000000000E+00 0.  1.
</event>
<event>
 5    1  0.1668518E-003  0.9118800E+02  0.7818608E-02  0.1130116E+00
         25   -1    0    0    0    0  0.00000000000E+00  0.00000000000E+00  0.99999998245E-14  0.12500000000E+03  0.12500000000E+03 0.  0.
        -13    1    3    3    0    0  0.34555297809E+02 -0.70611421059E+01 -0.11362177789E+02  0.37054535251E+02  0.10566000000E+00 0. -1.
         23    2    1    0    0    0 -0.31537281099E+01  0.10190231180E+02  0.28496509377E+02  0.94572416146E+02  0.89543866549E+02 0.  0.
         13    1    3    3    0    0 -0.37709025919E+02  0.17251373286E+02  0.39858687166E+02  0.57517880895E+02  0.10566000000E+00 0.  1.
         22    1    1    0    0    0  0.31537281099E+01 -0.10190231180E+02 -0.28496509377E+02  0.30427583854E+02  0.00000000000E+00 0.  1.
</event>
<event>
 5    1  0.1668518E-003  0.9118800E+02  0.7818608E-02  0.1130116E+00
         25   -1    0    0    0    0  0.00000000000E+00  0.00000000000E+00  0.99999998245E-14  0.12500000000E+03  0.12500000000E+03 0.  0.
        -13    1    3    3    0    0 -0.27698617040E+02 -0.49324322720E+01 -0.18516157919E+02  0.33680877990E+02  0.10566000000E+00 0.  1.
         23    2    1    0    0    0  0.25197585973E+02  0.15956066356E+02  0.41210127468E+01  0.94891909086E+02  0.89988761918E+02 0.  0.
         13    1    3    3    0    0  0.52896203013E+02  0.20888498628E+02  0.22637170666E+02  0.61211031096E+02  0.10566000000E+00 0. -1.
         22    1    1    0    0    0 -0.25197585973E+02 -0.15956066356E+02 -0.41210127468E+01  0.30108090914E+02  0.00000000000E+00 0. -1.
</event>
<event>
 5    1  0.1668518E-003  0.9118800E+02  0.7818608E-02  0.1130116E+00
         25   -1    0    0    0    0  0.00000000000E+00  0.00000000000E+00  0.99999998245E-14  0.12500000000E+03  0.12500000000E+03 0.  0.
        -13    1    3    3    0    0 -0.10046198108E+02 -0.91302870739E+01  0.40872421943E+02  0.43068019202E+02  0.10566000000E+00 0. -1.
         23    2    1    0    0    0 -0.30281216489E+02  0.93687304897E+01 -0.11938905422E+01  0.93280123618E+02  0.87721325255E+02 0.  0.
         13    1    3    3    0    0 -0.20235018382E+02  0.18499017564E+02 -0.42066312485E+02  0.50212104416E+02  0.10566000000E+00 0.  1.
         22    1    1    0    0    0  0.30281216489E+02 -0.93687304897E+01  0.11938905422E+01  0.31719876382E+02  0.00000000000E+00 0.  1.
</event>
<event>
 5    1  0.1668518E-003  0.9118800E+02  0.7818608E-02  0.1130116E+00
         25   -1    0    0    0    0  0.00000000000E+00  0.00000000000E+00  0.99999998245E-14  0.12500000000E+03  0.12500000000E+03 0.  0.
        -13    1    3    3    0    0 -0.34654565942E+02 -0.15917910019E+02  0.12604237762E+02  0.40164620919E+02  0.10566000000E+00 0.  1.
         23    2    1    0    0    0  0.12994693524E+02  0.10628981189E+02  0.23827130430E+02  0.95852625411E+02  0.91313505862E+02 0.  0.
         13    1    3    3    0    0  0.47649259466E+02  0.26546891208E+02  0.11222892668E+02  0.55688004492E+02  0.10566000000E+00 0. -1.
         22    1    1    0    0    0 -0.12994693524E+02 -0.10628981189E+02 -0.23827130430E+02  0.29147374589E+02  0.00000000000E+00 0. -1.
</event>
<event>
 5    1  0.1668518E-003  0.9118800E+02  0.7818608E-02  0.1130116E+00
         25   -1    0    0    0    0  0.00000000000E+00  0.00000000000E+00  0.99999998245E-14  0.12500000000E+03  0.12500000000E+03 0.  0.
        -13    1    3    3    0    0 -0.32646808422E+02  0.19511913431E+02  0.63725338875E+01  0.38563573720E+02  0.10566000000E+00 0. -1.
         23    2    1    0    0    0  0.10912649708E+02 -0.23171582101E+01 -0.25759823919E+02  0.96928240630E+02  0.92774242963E+02 0.  0.
         13    1    3    3    0    0  0.43559458130E+02 -0.21829071641E+02 -0.32132357806E+02  0.58364666910E+02  0.10566000000E+00 0.  1.
         22    1    1    0    0    0 -0.10912649708E+02  0.23171582101E+01  0.25759823919E+02  0.28071759370E+02  0.00000000000E+00 0.  1.
</event>
<event>
 5    1  0.1668518E-003  0.9118800E+02  0.7818608E-02  0.1130116E+00
         25   -1    0    0    0    0  0.00000000000E+00  0.00000000000E+00  0.99999998245E-14  0.12500000000E+03  0.12500000000E+03 0.  0.
        -13    1    3    3    0    0  0.17721549326E+02 -0.39267019666E+02 -0.74496425441E+00  0.43087333171E+02  0.10566000000E+00 0. -1.
         23    2    1    0    0    0  0.11227383198E+02  0.74032602797E+01 -0.25393697697E+02  0.96264964260E+02  0.91876226876E+02 0.  0.
         13    1    3    3    0    0 -0.64941661282E+01  0.46670279946E+02 -0.24648733442E+02  0.53177631089E+02  0.10566000000E+00 0.  1.
         22    1    1    0    0    0 -0.11227383198E+02 -0.74032602797E+01  0.25393697697E+02  0.28735035740E+02  0.00000000000E+00 0.  1.
</event>
<event>
 5    1  0.1668518E-003  0.9118800E+02  0.7818608E-02  0.1130116E+00
         25   -1    0    0    0    0  0.00000000000E+00  0.00000000000E+00  0.99999998245E-14  0.12500000000E+03  0.12500000000E+03 0.  0.
        -13    1    3    3    0    0 -0.10833091746E+02  0.20062362071E+02  0.50580785331E+02  0.55482260745E+02  0.10566000000E+00 0. -1.
         23    2    1    0    0    0 -0.12897158956E+02 -0.98891330042E+01  0.26250002014E+02  0.94126155626E+02  0.88918720788E+02 0.  0.
         13    1    3    3    0    0 -0.20640672098E+01 -0.29951495076E+02 -0.24330783317E+02  0.38643894881E+02  0.10566000000E+00 0.  1.
         22    1    1    0    0    0  0.12897158956E+02  0.98891330042E+01 -0.26250002014E+02  0.30873844374E+02  0.00000000000E+00 0. -1.
</event>
<event>
 5    1  0.1668518E-003  0.9118800E+02  0.7818608E-02  0.1130116E+00
         25   -1    0    0    0    0  0.00000000000E+00  0.00000000000E+00  0.99999998245E-14  0.12500000000E+03  0.12500000000E+03 0.  0.
        -13    1    3    3    0    0 -0.26765166064E+02 -0.17792771338E+02  0.23401916350E+02  0.39756982773E+02  0.10566000000E+00 0.  1.
         23    2    1    0    0    0  0.18481753365E+02 -0.20012484138E+02 -0.99362709551E+01  0.96003375898E+02  0.91519637098E+02 0.  0.
         13    1    3    3    0    0  0.45246919429E+02 -0.22197128001E+01 -0.33338187305E+02  0.56246393125E+02  0.10566000000E+00 0. -1.
         22    1    1    0    0    0 -0.18481753365E+02  0.20012484138E+02  0.99362709551E+01  0.28996624102E+02  0.00000000000E+00 0. -1.
</event>
<event>
 5    1  0.1668518E-003  0.9118800E+02  0.7818608E-02  0.1130116E+00
         25   -1    0    0    0    0  0.00000000000E+00  0.00000000000E+00  0.99999998245E-14  0.12500000000E+03  0.12500000000E+03 0.  0.
        -13    1    3    3    0    0 -0.15128836773E+02 -0.49394120765E+02 -0.23142775165E+02  0.56606184067E+02  0.10566000000E+00 0. -1.
         23    2    1    0    0    0 -0.22705326931E+02 -0.12095452020E+02 -0.13841030046E+02  0.95786887476E+02  0.91223472138E+02 0.  0.
         13    1    3    3    0    0 -0.75764901583E+01  0.37298668745E+02  0.93017451195E+01  0.39180703408E+02  0.10566000000E+00 0.  1.
         22    1    1    0    0    0  0.22705326931E+02  0.12095452020E+02  0.13841030046E+02  0.29213112524E+02  0.00000000000E+00 0. -1.
</event>
<event>
 5    1  0.1668518E-003  0.9118800E+02  0.7818608E-02  0.1130116E+00
         25   -1    0    0    0    0  0.00000000000E+00  0.00000000000E+00  0.99999998245E-14  0.12500000000E+03  0.12500000000E+03 0.  0.
        -13    1    3    3    0    0  0.41223892411E+02  0.14917552606E+02  0.39589215330E+02  0.59069956964E+02  0.10566000000E+00 0.  1.
         23    2    1    0    0    0  0.90450532508E+01  0.18935212070E+01  0.27755915545E+02  0.95746124041E+02  0.91167598467E+02 0.  0.
         13    1    3    3    0    0 -0.32178839160E+02 -0.13024031399E+02 -0.11833299785E+02  0.36676167077E+02  0.10566000000E+00 0. -1.
         22    1    1    0    0    0 -0.90450532508E+01 -0.18935212070E+01 -0.27755915545E+02  0.29253875959E+02  0.00000000000E+00 0.  1.
</event>
<event>
 5    1  0.1668518E-003  0.9118800E+02  0.7818608E-02  0.1130116E+00
         25   -1    0    0    0    0  0.00000000000E+00  0.00000000000E+00  0.99999998245E-14  0.12500000000E+03  0.12500000000E+03 0.  0.
        -13    1    3    3    0    0  0.35374107644E+02 -0.57736836376E+01  0.40845678561E+01  0.36074336764E+02  0.10566000000E+00 0. -1.
         23    2    1    0    0    0 -0.24039572289E+02 -0.15351670272E+02  0.35424990342E+01  0.96257625092E+02  0.91866241204E+02 0.  0.
         13    1    3    3    0    0 -0.59413679934E+02 -0.95779866341E+01 -0.54206882186E+00  0.60183288327E+02  0.10566000000E+00 0.  1.
         22    1    1    0    0    0  0.24039572289E+02  0.15351670272E+02 -0.35424990342E+01  0.28742374908E+02  0.00000000000E+00 0.  1.
</event>
<event>
 5    1  0.1668518E-003  0.9118800E+02  0.7818608E-02  0.1130116E+00
         25   -1    0    0    0    0  0.00000000000E+00  0.00000000000E+00  0.99999998245E-14  0.12500000000E+03  0.12500000000E+03 0.  0.
        -13    1    3    3    0    0  0.17349264954E+02 -0.51830595247E+01 -0.37860064990E+01  0.18498813738E+02  0.10566000000E+00 0. -1.
         23    2    1    0    0    0 -0.30680953807E+02  0.32208728794E+02  0.58782842307E+01  0.80130440580E+02  0.66389834652E+02 0.  0.
         13    1    3    3    0    0 -0.48030218761E+02  0.37391788318E+02  0.96642907298E+01  0.61631626842E+02  0.10566000000E+00 0.  1.
         22    1    1    0    0    0  0.30680953807E+02 -0.32208728794E+02 -0.58782842307E+01  0.44869559420E+02  0.00000000000E+00 0.  1.
</event>
<event>
 5    1  0.1668518E-003  0.9118800E+02  0.7818608E-02  0.1130116E+00
         25   -1    0    0    0    0  0.00000000000E+00  0.00000000000E+00  0.99999998245E-14  0.12500000000E+03  0.12500000000E+03 0.  0.
        -13    1    3    3    0    0  0.25080529537E+02  0.24332277567E+02  0.71455116375E+01  0.35667382775E+02  0.10566000000E+00 0.  1.
         23    2    1    0    0    0 -0.54225982373E+01 -0.13887237247E+02 -0.26200642921E+02  0.94854791102E+02  0.89937187946E+02 0.  0.
         13    1    3    3    0    0 -0.30503127774E+02 -0.38219514814E+02 -0.33346154558E+02  0.59187408327E+02  0.10566000000E+00 0. -1.
         22    1    1    0    0    0  0.54225982373E+01  0.13887237247E+02  0.26200642921E+02  0.30145208898E+02  0.00000000000E+00 0. -1.
</event>
<event>
 5    1  0.1668518E-003  0.9118800E+02  0.7818608E-02  0.1130116E+00
         25   -1    0    0    0    0  0.00000000000E+00  0.00000000000E+00  0.99999998245E-14  0.12500000000E+03  0.12500000000E+03 0.  0.
        -13    1    3    3    0    0 -0.67235368748E+01  0.35021746410E+02  0.16374260238E+02  0.39241001925E+02  0.10566000000E+00 0.  1.
         23    2    1    0    0    0  0.15606858877E+02  0.18072473173E+01 -0.24144447705E+02  0.96193845417E+02  0.91779416834E+02 0.  0.
         13    1    3    3    0    0  0.22330395752E+02 -0.33214499093E+02 -0.40518707942E+02  0.56952843492E+02  0.10566000000E+00 0. -1.
         22    1    1    0    0    0 -0.15606858877E+02 -0.18072473173E+01  0.24144447705E+02  0.28806154583E+02  0.00000000000E+00 0. -1.
</event>
<event>
 5    1  0.1668518E-003  0.9118800E+02  0.7818608E-02  0.1130116E+00
         25   -1    0    0    0    0  0.00000000000E+00  0.00000000000E+00  0.99999998245E-14  0.12500000000E+03  0.12500000000E+03 0.  0.
        -13    1    3    3    0    0  0.25619200717E+02  0.18221485701E+02  0.39021100169E+02  0.50110112842E+02  0.10566000000E+00 0.  1.
         23    2    1    0    0    0 -0.16490333386E+02  0.11281306340E+02  0.19643341137E+02  0.96981081053E+02  0.92845410567E+02 0.  0.
         13    1    3    3    0    0 -0.42109534103E+02 -0.69401793608E+01 -0.19377759032E+02  0.46870968212E+02  0.10566000000E+00 0. -1.
         22    1    1    0    0    0  0.16490333386E+02 -0.11281306340E+02 -0.19643341137E+02  0.28018918947E+02  0.00000000000E+00 0.  1.
</event>
<event>
 5    1  0.1668518E-003  0.9118800E+02  0.7818608E-02  0.1130116E+00
         25   -1    0    0    0    0  0.00000000000E+00  0.00000000000E+00  0.99999998245E-14  0.12500000000E+03  0.12500000000E+03 0.  0.
        -13    1    3    3    0    0 -0.93867270474E+01 -0.31118170899E+02 -0.26750548849E+02  0.42095774521E+02  0.10566000000E+00 0. -1.
         23    2    1    0    0    0 -0.20849242356E+02  0.13237663156E+02  0.73792477457E+01  0.99224431530E+02  0.95818097886E+02 0.  0.
         13    1    3    3    0    0 -0.11462515309E+02  0.44355834056E+02  0.34129796595E+02  0.57128657009E+02  0.10566000000E+00 0.  1.
         22    1    1    0    0    0  0.20849242356E+02 -0.13237663156E+02 -0.73792477457E+01  0.25775568470E+02  0.00000000000E+00 0.  1.
</event>
<event>
 5    1  0.1668518E-003  0.9118800E+02  0.7818608E-02  0.1130116E+00
         25   -1    0    0    0    0  0.00000000000E+00  0.00000000000E+00  0.99999998245E-14  0.12500000000E+03  0.12500000000E+03 0.  0.
        -13    1    3    3    0    0 -0.13797229445E+02  0.45184393541E+02  0.97046722518E+00  0.47254057294E+02  0.10566000000E+00 0.  1.
         23    2    1    0    0    0 -0.14302663606E+02 -0.81574341190E+00 -0.22057288076E+02  0.98698753246E+02  0.95129849740E+02 0.  0.
         13    1    3    3    0    0 -0.50543416072E+00 -0.46000136953E+02 -0.23027755301E+02  0.51444695953E+02  0.10566000000E+00 0. -1.
         22    1    1    0    0    0  0.14302663606E+02  0.81574341190E+00  0.22057288076E+02  0.26301246754E+02  0.00000000000E+00 0. -1.
</event>
<event>
 5    1  0.1668518E-003  0.9118800E+02  0.7818608E-02  0.1130116E+00
         25   -1    0    0    0    0  0.00000000000E+00  0.00000000000E+00  0.99999998245E-14  0.12500000000E+03  0.12500000000E+03 0.  0.
        -13    1    3    3    0    0  0.27840432907E+02  0.32525629861E+02 -0.32969918713E+02  0.54037329748E+02  0.10566000000E+00 0. -1.
         23    2    1    0    0    0 -0.31789106287E+01  0.23893656872E+02  0.10430389461E+01  0.10087324635E+03  0.97945452100E+02 0.  0.
         13    1    3    3    0    0 -0.31019343535E+02 -0.86319729891E+01  0.34012957659E+02  0.46835916601E+02  0.10566000000E+00 0.  1.
         22    1    1    0    0    0  0.31789106287E+01 -0.23893656872E+02 -0.10430389461E+01  0.24126753651E+02  0.00000000000E+00 0.  1.
</event>
<event>
 5    1  0.1668518E-003  0.9118800E+02  0.7818608E-02  0.1130116E+00
         25   -1    0    0    0    0  0.00000000000E+00  0.00000000000E+00  0.99999998245E-14  0.12500000000E+03  0.12500000000E+03 0.  0.
        -13    1    3    3    0    0  0.17766132203E+02  0.51055112007E+02 -0.13179586278E+02  0.55641464521E+02  0.10566000000E+00 0. -1.
         23    2    1    0    0    0  0.20873006144E+02  0.18082510038E+02  0.95156239918E+01  0.95790298619E+02  0.91228146177E+02 0.  0.
         13    1    3    3    0    0  0.31068739415E+01 -0.32972601969E+02  0.22695210269E+02  0.40148834099E+02  0.10566000000E+00 0.  1.
         22    1    1    0    0    0 -0.20873006144E+02 -0.18082510038E+02 -0.95156239918E+01  0.29209701381E+02  0.00000000000E+00 0. -1.
</event>
<event>
 5    1  0.1668518E-003  0.9118800E+02  0.7818608E-02  0.1130116E+00
         25   -1    0    0    0    0  0.00000000000E+00  0.00000000000E+00  0.99999998245E-14  0.12500000000E+03  0.12500000000E+03 0.  0.
        -13    1    3    3    0    0  0.61880187358E+02 -0.41149988479E+01  0.66808188869E+01  0.62375758978E+02  0.10566000000E+00 0.  1.
         23    2    1    0    0    0  0.28014804493E+02 -0.10527231334E+01  0.56894654644E+01  0.96393925224E+02  0.92051514415E+02 0.  0.
         13    1    3    3    0    0 -0.33865382865E+02  0.30622757145E+01 -0.99135342245E+00  0.34018166247E+02  0.10566000000E+00 0. -1.
         22    1    1    0    0    0 -0.28014804493E+02  0.10527231334E+01 -0.56894654644E+01  0.28606074776E+02  0.00000000000E+00 0.  1.
</event>
<event>
 5    1  0.1668518E-003  0.9118800E+02  0.7818608E-02  0.1130116E+00
         25   -1    0    0    0    0  0.00000000000E+00  0.00000000000E+00  0.99999998245E-14  0.12500000000E+03  0.12500000000E+03 0.  0.
        -13    1    3    3    0    0 -0.16670477145E+02 -0.11398670124E+02  0.38467591911E+02  0.43446533583E+02  0.10566000000E+00 0.  1.
         23    2    1    0    0    0  0.25821636445E+02  0.48072712730E+01  0.16792367178E+02  0.93825485390E+02  0.88495035722E+02 0.  0.
         13    1    3    3    0    0  0.42492113589E+02  0.16205941397E+02 -0.21675224734E+02  0.50378951807E+02  0.10566000000E+00 0. -1.
         22    1    1    0    0    0 -0.25821636445E+02 -0.48072712730E+01 -0.16792367178E+02  0.31174514610E+02  0.00000000000E+00 0. -1.
</event>
<event>
 5    1  0.1668518E-003  0.9118800E+02  0.7818608E-02  0.1130116E+00
         25   -1    0    0    0    0  0.00000000000E+00  0.00000000000E+00  0.99999998245E-14  0.12500000000E+03  0.12500000000E+03 0.  0.
        -13    1    3    3    0    0 -0.24579495791E+02 -0.49700066635E+02  0.22422569127E+02  0.59808285439E+02  0.10566000000E+00 0. -1.
         23    2    1    0    0    0 -0.14080614819E+02 -0.25334990768E+02 -0.21034145105E+01  0.95938860595E+02  0.91431477888E+02 0.  0.
         13    1    3    3    0    0  0.10498880972E+02  0.24365075867E+02 -0.24525983637E+02  0.36130575156E+02  0.10566000000E+00 0.  1.
         22    1    1    0    0    0  0.14080614819E+02  0.25334990768E+02  0.21034145105E+01  0.29061139405E+02  0.00000000000E+00 0. -1.
</event>
<event>
 5    1  0.1668518E-003  0.9118800E+02  0.7818608E-02  0.1130116E+00
         25   -1    0    0    0    0  0.00000000000E+00  0.00000000000E+00  0.99999998245E-14  0.12500000000E+03  0.12500000000E+03 0.  0.
        -13    1    3    3    0    0  0.11382825482E+02 -0.24569570810E+02 -0.52321383551E+02  0.58913248650E+02  0.10566000000E+00 0.  1.
         23    2    1    0    0    0  0.18722717884E+02 -0.50850927459E+01 -0.22399358869E+02  0.95366748222E+02  0.90645943403E+02 0.  0.
         13    1    3    3    0    0  0.73398924021E+01  0.19484478064E+02  0.29922024682E+02  0.36453499572E+02  0.10566000000E+00 0. -1.
         22    1    1    0    0    0 -0.18722717884E+02  0.50850927459E+01  0.22399358869E+02  0.29633251778E+02  0.00000000000E+00 0.  1.
</event>
<event>
 5    1  0.1668518E-003  0.9118800E+02  0.7818608E-02  0.1130116E+00
         25   -1    0    0    0    0  0.00000000000E+00  0.00000000000E+00  0.99999998245E-14  0.12500000000E+03  0.12500000000E+03 0.  0.
        -13    1    3    3    0    0 -0.30594986288E+02 -0.13512057300E+02  0.42962720775E+01  0.33720883682E+02  0.10566000000E+00 0.  1.
         23    2    1    0    0    0  0.11221691631E+02  0.29255226426E+02  0.26003073535E+01  0.93558685863E+02  0.88117373235E+02 0.  0.
         13    1    3    3    0    0  0.41816677920E+02  0.42767283726E+02 -0.16959647241E+01  0.59837802182E+02  0.10566000000E+00 0. -1.
         22    1    1    0    0    0 -0.11221691631E+02 -0.29255226426E+02 -0.26003073535E+01  0.31441314137E+02  0.00000000000E+00 0. -1.
</event>
<event>
 5    1  0.1668518E-003  0.9118800E+02  0.7818608E-02  0.1130116E+00
         25   -1    0    0    0    0  0.00000000000E+00  0.00000000000E+00  0.99999998245E-14  0.12500000000E+03  0.12500000000E+03 0.  0.
        -13    1    3    3    0    0 -0.28907664841E+02 -0.86332556696E+01 -0.23371466529E+02  0.38163107863E+02  0.10566000000E+00 0.  1.
         23    2    1    0    0    0  0.26144902745E+02  0.39828936210E+01 -0.12780199198E+02  0.95627344814E+02  0.91004594409E+02 0.  0.
         13    1    3    3    0    0  0.55052567585E+02  0.12616149291E+02  0.10591267331E+02  0.57464236951E+02  0.10566000000E+00 0. -1.
         22    1    1    0    0    0 -0.26144902745E+02 -0.39828936210E+01  0.12780199198E+02  0.29372655186E+02  0.00000000000E+00 0. -1.
</event>
<event>
 5    1  0.1668518E-003  0.9118800E+02  0.7818608E-02  0.1130116E+00
         25   -1    0    0    0    0  0.00000000000E+00  0.00000000000E+00  0.99999998245E-14  0.12500000000E+03  0.12500000000E+03 0.  0.
        -13    1    3    3    0    0 -0.22816003561E+02  0.33538463865E+02  0.60998441630E+01  0.41019725008E+02  0.10566000000E+00 0. -1.
         23    2    1    0    0    0  0.40365538607E+01 -0.90197579039E+01  0.27556733490E+02  0.95725038679E+02  0.91138683718E+02 0.  0.
         13    1    3    3    0    0  0.26852557421E+02 -0.42558221769E+02  0.21456889327E+02  0.54705313671E+02  0.10566000000E+00 0.  1.
         22    1    1    0    0    0 -0.40365538607E+01  0.90197579039E+01 -0.27556733490E+02  0.29274961321E+02  0.00000000000E+00 0. -1.
</event>
<event>
 5    1  0.1668518E-003  0.9118800E+02  0.7818608E-02  0.1130116E+00
         25   -1    0    0    0    0  0.00000000000E+00  0.00000000000E+00  0.99999998245E-14  0.12500000000E+03  0.12500000000E+03 0.  0.
        -13    1    3    3    0    0  0.20289297840E+02 -0.16749929341E+02 -0.22072633422E+02  0.34342802011E+02  0.10566000000E+00 0. -1.
         23    2    1    0    0    0 -0.16093829083E+02 -0.33054103219E+01  0.24842591386E+02  0.95215920046E+02  0.90437713435E+02 0.  0.
         13    1    3    3    0    0 -0.36383126923E+02  0.13444519019E+02  0.46915224808E+02  0.60873118034E+02  0.10566000000E+00 0.  1.
         22    1    1    0    0    0  0.16093829083E+02  0.33054103219E+01 -0.24842591386E+02  0.29784079954E+02  0.00000000000E+00 0.  1.
</event>
<event>
 5    1  0.1668518E-003  0.9118800E+02  0.7818608E-02  0.1130116E+00
         25   -1    0    0    0    0  0.00000000000E+00  0.00000000000E+00  0.99999998245E-14  0.12500000000E+03  0.12500000000E+03 0.  0.
        -13    1    3    3    0    0 -0.30650833840E+02  0.28475479365E+02 -0.14081525638E+02  0.44143256206E+02  0.10566000000E+00 0. -1.
         23    2    1    0    0    0  0.14797874755E+02  0.60273119912E+01 -0.24361974980E+02  0.95865631772E+02  0.91331308668E+02 0.  0.
         13    1    3    3    0    0  0.45448708595E+02 -0.22448167374E+02 -0.10280449342E+02  0.51722375566E+02  0.10566000000E+00 0.  1.
         22    1    1    0    0    0 -0.14797874755E+02 -0.60273119912E+01  0.24361974980E+02  0.29134368228E+02  0.00000000000E+00 0. -1.
</event>
<event>
 5    1  0.1668518E-003  0.9118800E+02  0.7818608E-02  0.1130116E+00
         25   -1    0    0    0    0  0.00000000000E+00  0.00000000000E+00  0.99999998245E-14  0.12500000000E+03  0.12500000000E+03 0.  0.
        -13    1    3    3    0    0 -0.17315162729E+02  0.38876252501E+02 -0.26627687376E+02  0.50201820364E+02  0.10566000000E+00 0.  1.
         23    2    1    0    0    0 -0.27883760941E+02 -0.17269330886E+01 -0.11064521387E+02  0.94951538215E+02  0.90071552412E+02 0.  0.
         13    1    3    3    0    0 -0.10568598212E+02 -0.40603185589E+02  0.15563165988E+02  0.44749717851E+02  0.10566000000E+00 0. -1.
         22    1    1    0    0    0  0.27883760941E+02  0.17269330886E+01  0.11064521387E+02  0.30048461785E+02  0.00000000000E+00 0.  1.
</event>
<event>
 5    1  0.1668518E-003  0.9118800E+02  0.7818608E-02  0.1130116E+00
         25   -1    0    0    0    0  0.00000000000E+00  0.00000000000E+00  0.99999998245E-14  0.12500000000E+03  0.12500000000E+03 0.  0.
        -13    1    3    3    0    0  0.39251522519E+02  0.11662943485E+01  0.38914722777E+02  0.55284799677E+02  0.10566000000E+00 0. -1.
         23    2    1    0    0    0  0.28448637203E+02 -0.69951246654E+01  0.84365336070E+00  0.95691835970E+02  0.91093133619E+02 0.  0.
         13    1    3    3    0    0 -0.10802885315E+02 -0.81614190139E+01 -0.38071069416E+02  0.40407036293E+02  0.10566000000E+00 0.  1.
         22    1    1    0    0    0 -0.28448637203E+02  0.69951246654E+01 -0.84365336070E+00  0.29308164030E+02  0.00000000000E+00 0. -1.
</event>
<event>
 5    1  0.1668518E-003  0.9118800E+02  0.7818608E-02  0.1130116E+00
         25   -1    0    0    0    0  0.00000000000E+00  0.00000000000E+00  0.99999998245E-14  0.12500000000E+03  0.12500000000E+03 0.  0.
        -13    1    3    3    0    0  0.92953442629E+01 -0.49362435335E+02  0.21004135974E+02  0.54444819214E+02  0.10566000000E+00 0.  1.
         23    2    1    0    0    0  0.13936973513E+02 -0.21579644533E+02 -0.10978746516E+02  0.97063408154E+02  0.92956183434E+02 0.  0.
         13    1    3    3    0    0  0.46416292503E+01  0.27782790802E+02 -0.31982882491E+02  0.42618588941E+02  0.10566000000E+00 0. -1.
         22    1    1    0    0    0 -0.13936973513E+02  0.21579644533E+02  0.10978746516E+02  0.27936591846E+02  0.00000000000E+00 0.  1.
</event>
<event>
 5    1  0.1668518E-003  0.9118800E+02  0.7818608E-02  0.1130116E+00
         25   -1    0    0    0    0  0.00000000000E+00  0.00000000000E+00  0.99999998245E-14  0.12500000000E+03  0.12500000000E+03 0.  0.
        -13    1    3    3    0    0  0.39098484975E+02 -0.28113343997E+02  0.13959328301E+02  0.50139063102E+02  0.10566000000E+00 0. -1.
         23    2    1    0    0    0  0.26026177987E+02  0.56783478314E+01 -0.13055893147E+02  0.95334162399E+02  0.90600996682E+02 0.  0.
         13    1    3    3    0    0 -0.13072306988E+02  0.33791691828E+02 -0.27015221448E+02  0.45195099298E+02  0.10566000000E+00 0.  1.
         22    1    1    0    0    0 -0.26026177987E+02 -0.56783478314E+01  0.13055893147E+02  0.29665837601E+02  0.00000000000E+00 0. -1.
</event>
<event>
 5    1  0.1668518E-003  0.9118800E+02  0.7818608E-02  0.1130116E+00
         25   -1    0    0    0    0  0.00000000000E+00  0.00000000000E+00  0.99999998245E-14  0.12500000000E+03  0.12500000000E+03 0.  0.
        -13    1    3    3    0    0  0.14223194315E+02 -0.45555833036E+02 -0.17827911356E+02  0.50945841514E+02  0.10566000000E+00 0.  1.
         23    2    1    0    0    0  0.17738473544E+02 -0.17664266797E+02  0.16274160514E+02  0.95141532766E+02  0.90334839300E+02 0.  0.
         13    1    3    3    0    0  0.35152792290E+01  0.27891566240E+02  0.34102071870E+02  0.44195691252E+02  0.10566000000E+00 0. -1.
         22    1    1    0    0    0 -0.17738473544E+02  0.17664266797E+02 -0.16274160514E+02  0.29858467234E+02  0.00000000000E+00 0.  1.
</event>
<event>
 5    1  0.1668518E-003  0.9118800E+02  0.7818608E-02  0.1130116E+00
         25   -1    0    0    0    0  0.00000000000E+00  0.00000000000E+00  0.99999998245E-14  0.12500000000E+03  0.12500000000E+03 0.  0.
        -13    1    3    3    0    0  0.21183344247E+02 -0.23446167058E+02 -0.27057325781E+02  0.41600082520E+02  0.10566000000E+00 0.  1.
         23    2    1    0    0    0  0.20360271470E+02  0.36211089520E+01  0.20216106945E+02  0.96080386164E+02  0.91624759432E+02 0.  0.
         13    1    3    3    0    0 -0.82307277706E+00  0.27067276010E+02  0.47273432726E+02  0.54480303644E+02  0.10566000000E+00 0. -1.
         22    1    1    0    0    0 -0.20360271470E+02 -0.36211089520E+01 -0.20216106945E+02  0.28919613836E+02  0.00000000000E+00 0.  1.
</event>
<event>
 5    1  0.1668518E-003  0.9118800E+02  0.7818608E-02  0.1130116E+00
         25   -1    0    0    0    0  0.00000000000E+00  0.00000000000E+00  0.99999998245E-14  0.12500000000E+03  0.12500000000E+03 0.  0.
        -13    1    3    3    0    0 -0.43092099964E+02  0.13174011455E+02 -0.32735831332E+02  0.55696763588E+02  0.10566000000E+00 0.  1.
         23    2    1    0    0    0 -0.23633653567E+02 -0.13960396075E+02 -0.11695873479E+02  0.95163182208E+02  0.90364791551E+02 0.  0.
         13    1    3    3    0    0  0.19458446397E+02 -0.27134407530E+02  0.21039957853E+02  0.39466418620E+02  0.10566000000E+00 0. -1.
         22    1    1    0    0    0  0.23633653567E+02  0.13960396075E+02  0.11695873479E+02  0.29836817792E+02  0.00000000000E+00 0.  1.
</event>
<event>
 5    1  0.1668518E-003  0.9118800E+02  0.7818608E-02  0.1130116E+00
         25   -1    0    0    0    0  0.00000000000E+00  0.00000000000E+00  0.99999998245E-14  0.12500000000E+03  0.12500000000E+03 0.  0.
        -13    1    3    3    0    0 -0.28189780780E+02  0.37554318638E+02 -0.62188619020E+01  0.47367457143E+02  0.10566000000E+00 0. -1.
         23    2    1    0    0    0 -0.11885410424E+02 -0.16568686001E+02 -0.54301492597E+01  0.10389855792E+03  0.10173317788E+03 0.  0.
         13    1    3    3    0    0  0.16304370356E+02 -0.54123004638E+02  0.78871264227E+00  0.56531100781E+02  0.10566000000E+00 0.  1.
         22    1    1    0    0    0  0.11885410424E+02  0.16568686001E+02  0.54301492597E+01  0.21101442077E+02  0.00000000000E+00 0.  1.
</event>
<event>
 5    1  0.1668518E-003  0.9118800E+02  0.7818608E-02  0.1130116E+00
         25   -1    0    0    0    0  0.00000000000E+00  0.00000000000E+00  0.99999998245E-14  0.12500000000E+03  0.12500000000E+03 0.  0.
        -13    1    3    3    0    0  0.34874347359E+02 -0.14432997430E+02  0.34240529366E+02  0.50960342756E+02  0.10566000000E+00 0. -1.
         23    2    1    0    0    0 -0.85278469853E+01  0.65693050296E+01  0.21692874566E+02  0.10078304830E+03  0.97830271770E+02 0.  0.
         13    1    3    3    0    0 -0.43402194344E+02  0.21002302460E+02 -0.12547654800E+02  0.49822705542E+02  0.10566000000E+00 0.  1.
         22    1    1    0    0    0  0.85278469853E+01 -0.65693050296E+01 -0.21692874566E+02  0.24216951702E+02  0.00000000000E+00 0. -1.
</event>
<event>
 5    1  0.1668518E-003  0.9118800E+02  0.7818608E-02  0.1130116E+00
         25   -1    0    0    0    0  0.00000000000E+00  0.00000000000E+00  0.99999998245E-14  0.12500000000E+03  0.12500000000E+03 0.  0.
        -13    1    3    3    0    0 -0.16964839035E+02 -0.26452867560E+02  0.18205172531E+02  0.36318031838E+02  0.10566000000E+00 0.  1.
         23    2    1    0    0    0  0.28141663546E+02  0.27927779300E+01 -0.72609913071E+01  0.95802828382E+02  0.91245312732E+02 0.  0.
         13    1    3    3    0    0  0.45106502582E+02  0.29245645490E+02 -0.25466163838E+02  0.59484796544E+02  0.10566000000E+00 0. -1.
         22    1    1    0    0    0 -0.28141663546E+02 -0.27927779300E+01  0.72609913071E+01  0.29197171618E+02  0.00000000000E+00 0. -1.
</event>
<event>
 5    1  0.1668518E-003  0.9118800E+02  0.7818608E-02  0.1130116E+00
         25   -1    0    0    0    0  0.00000000000E+00  0.00000000000E+00  0.99999998245E-14  0.12500000000E+03  0.12500000000E+03 0.  0.
        -13    1    3    3    0    0  0.34323021785E+02  0.31925424175E+02 -0.16092009390E+02  0.49560735098E+02  0.10566000000E+00 0. -1.
         23    2    1    0    0    0 -0.85059422909E+01  0.14602669892E+02 -0.23193313818E+02  0.96302982244E+02  0.91927936782E+02 0.  0.
         13    1    3    3    0    0 -0.42828964076E+02 -0.17322754282E+02 -0.71013044273E+01  0.46742247147E+02  0.10566000000E+00 0.  1.
         22    1    1    0    0    0  0.85059422909E+01 -0.14602669892E+02  0.23193313818E+02  0.28697017756E+02  0.00000000000E+00 0.  1.
</event>
<event>
 5    1  0.1668518E-003  0.9118800E+02  0.7818608E-02  0.1130116E+00
         25   -1    0    0    0    0  0.00000000000E+00  0.00000000000E+00  0.99999998245E-14  0.12500000000E+03  0.12500000000E+03 0.  0.
        -13    1    3    3    0    0 -0.26160477474E+02 -0.23726231487E+02 -0.36732189298E+02  0.50956545575E+02  0.10566000000E+00 0.  1.
         23    2    1    0    0    0  0.11510634423E+02 -0.98700264559E+01 -0.29625612437E+02  0.91719539677E+02  0.85468619500E+02 0.  0.
         13    1    3    3    0    0  0.37671111897E+02  0.13856205031E+02  0.71065768612E+01  0.40762994102E+02  0.10566000000E+00 0. -1.
         22    1    1    0    0    0 -0.11510634423E+02  0.98700264559E+01  0.29625612437E+02  0.33280460323E+02  0.00000000000E+00 0.  1.
</event>
<event>
 5    1  0.1668518E-003  0.9118800E+02  0.7818608E-02  0.1130116E+00
         25   -1    0    0    0    0  0.00000000000E+00  0.00000000000E+00  0.99999998245E-14  0.12500000000E+03  0.12500000000E+03 0.  0.
        -13    1    3    3    0    0 -0.27259514087E+02  0.13486503699E+01 -0.17535233017E+02  0.32440646218E+02  0.10566000000E+00 0. -1.
         23    2    1    0    0    0  0.21767646920E+02  0.32066968128E+01  0.20813921778E+02  0.94712499333E+02  0.89739204550E+02 0.  0.
         13    1    3    3    0    0  0.49027161006E+02  0.18580464429E+01  0.38349154794E+02  0.62271853115E+02  0.10566000000E+00 0.  1.
         22    1    1    0    0    0 -0.21767646920E+02 -0.32066968128E+01 -0.20813921778E+02  0.30287500667E+02  0.00000000000E+00 0.  1.
</event>
<event>
 5    1  0.1668518E-003  0.9118800E+02  0.7818608E-02  0.1130116E+00
         25   -1    0    0    0    0  0.00000000000E+00  0.00000000000E+00  0.99999998245E-14  0.12500000000E+03  0.12500000000E+03 0.  0.
        -13    1    3    3    0    0  0.45374762613E+02 -0.11969284093E+02 -0.18501871885E+02  0.50442673117E+02  0.10566000000E+00 0. -1.
         23    2    1    0    0    0  0.18560645712E+02 -0.15258414678E+02  0.17371486928E+02  0.95350626552E+02  0.90623709028E+02 0.  0.
         13    1    3    3    0    0 -0.26814116901E+02 -0.32891305851E+01  0.35873358813E+02  0.44907953435E+02  0.10566000000E+00 0.  1.
         22    1    1    0    0    0 -0.18560645712E+02  0.15258414678E+02 -0.17371486928E+02  0.29649373448E+02  0.00000000000E+00 0. -1.
</event>
<event>
 5    1  0.1668518E-003  0.9118800E+02  0.7818608E-02  0.1130116E+00
         25   -1    0    0    0    0  0.00000000000E+00  0.00000000000E+00  0.99999998245E-14  0.12500000000E+03  0.12500000000E+03 0.  0.
        -13    1    3    3    0    0 -0.52466582393E+02 -0.25477053092E+02 -0.20534778906E+02  0.61834543833E+02  0.10566000000E+00 0.  1.
         23    2    1    0    0    0 -0.26959587237E+02 -0.77499391542E+01 -0.52200324750E+01  0.96467042916E+02  0.92150750019E+02 0.  0.
         13    1    3    3    0    0  0.25506995156E+02  0.17727113938E+02  0.15314746431E+02  0.34632499083E+02  0.10566000000E+00 0. -1.
         22    1    1    0    0    0  0.26959587237E+02  0.77499391542E+01  0.52200324750E+01  0.28532957084E+02  0.00000000000E+00 0.  1.
</event>
<event>
 5    1  0.1668518E-003  0.9118800E+02  0.7818608E-02  0.1130116E+00
         25   -1    0    0    0    0  0.00000000000E+00  0.00000000000E+00  0.99999998245E-14  0.12500000000E+03  0.12500000000E+03 0.  0.
        -13    1    3    3    0    0  0.13255638524E+02 -0.34415282553E+02 -0.12470116111E+02  0.38931203240E+02  0.10566000000E+00 0. -1.
         23    2    1    0    0    0 -0.28186372465E+02  0.36592942990E+01 -0.84302257779E+01  0.95353234001E+02  0.90627305490E+02 0.  0.
         13    1    3    3    0    0 -0.41442010989E+02  0.38074576852E+02  0.40398903331E+01  0.56422030761E+02  0.10566000000E+00 0.  1.
         22    1    1    0    0    0  0.28186372465E+02 -0.36592942990E+01  0.84302257779E+01  0.29646765999E+02  0.00000000000E+00 0.  1.
</event>
<event>
 5    1  0.1668518E-003  0.9118800E+02  0.7818608E-02  0.1130116E+00
         25   -1    0    0    0    0  0.00000000000E+00  0.00000000000E+00  0.99999998245E-14  0.12500000000E+03  0.12500000000E+03 0.  0.
        -13    1    3    3    0    0  0.20718094738E+02 -0.57648147227E+02  0.10625789858E+02  0.62172879155E+02  0.10566000000E+00 0. -1.
         23    2    1    0    0    0  0.11964374686E+02 -0.26146468675E+02  0.88435802307E+01  0.94916898480E+02  0.90023467051E+02 0.  0.
         13    1    3    3    0    0 -0.87537200521E+01  0.31501678552E+02 -0.17822096274E+01  0.32744019325E+02  0.10566000000E+00 0.  1.
         22    1    1    0    0    0 -0.11964374686E+02  0.26146468675E+02 -0.88435802307E+01  0.30083101520E+02  0.00000000000E+00 0. -1.
</event>
<event>
 5    1  0.1668518E-003  0.9118800E+02  0.7818608E-02  0.1130116E+00
         25   -1    0    0    0    0  0.00000000000E+00  0.00000000000E+00  0.99999998245E-14  0.12500000000E+03  0.12500000000E+03 0.  0.
        -13    1    3    3    0    0 -0.23868594054E+02  0.35041820444E+02  0.19222455016E+01  0.42442256702E+02  0.10566000000E+00 0.  1.
         23    2    1    0    0    0  0.71475799247E+01  0.16686950575E+02  0.31218092341E+02  0.88887515903E+02  0.81221173198E+02 0.  0.
         13    1    3    3    0    0  0.31016173978E+02 -0.18354869869E+02  0.29295846839E+02  0.46445259201E+02  0.10566000000E+00 0. -1.
         22    1    1    0    0    0 -0.71475799247E+01 -0.16686950575E+02 -0.31218092341E+02  0.36112484097E+02  0.00000000000E+00 0. -1.
</event>
<event>
 5    1  0.1668518E-003  0.9118800E+02  0.7818608E-02  0.1130116E+00
         25   -1    0    0    0    0  0.00000000000E+00  0.00000000000E+00  0.99999998245E-14  0.12500000000E+03  0.12500000000E+03 0.  0.
        -13    1    3    3    0    0  0.33497839045E+02  0.13086168729E+02  0.20932521805E+01  0.36024240470E+02  0.10566000000E+00 0.  1.
         23    2    1    0    0    0 -0.11607329446E+02 -0.15868163860E+02 -0.22606347249E+02  0.95040432962E+02  0.90194834888E+02 0.  0.
         13    1    3    3    0    0 -0.45105168491E+02 -0.28954332589E+02 -0.24699599430E+02  0.59016192492E+02  0.10566000000E+00 0. -1.
         22    1    1    0    0    0  0.11607329446E+02  0.15868163860E+02  0.22606347249E+02  0.29959567038E+02  0.00000000000E+00 0. -1.
</event>
<event>
 5    1  0.1668518E-003  0.9118800E+02  0.7818608E-02  0.1130116E+00
         25   -1    0    0    0    0  0.00000000000E+00  0.00000000000E+00  0.99999998245E-14  0.12500000000E+03  0.12500000000E+03 0.  0.
        -13    1    3    3    0    0  0.47139438092E+02  0.26800971765E+02  0.15918342122E+02  0.56513922985E+02  0.10566000000E+00 0.  1.
         23    2    1    0    0    0  0.25751397915E+02 -0.46211710120E+01  0.15626674455E+02  0.94525704756E+02  0.89478635378E+02 0.  0.
         13    1    3    3    0    0 -0.21388040178E+02 -0.31422142777E+02 -0.29166766733E+00  0.38011781771E+02  0.10566000000E+00 0. -1.
         22    1    1    0    0    0 -0.25751397915E+02  0.46211710120E+01 -0.15626674455E+02  0.30474295244E+02  0.00000000000E+00 0.  1.
</event>
<event>
 5    1  0.1668518E-003  0.9118800E+02  0.7818608E-02  0.1130116E+00
         25   -1    0    0    0    0  0.00000000000E+00  0.00000000000E+00  0.99999998245E-14  0.12500000000E+03  0.12500000000E+03 0.  0.
        -13    1    3    3    0    0  0.13786513878E+02 -0.17386836803E+02  0.53050152859E+02  0.57503912401E+02  0.10566000000E+00 0. -1.
         23    2    1    0    0    0  0.57617705156E+01 -0.23971987962E+02  0.16915230680E+02  0.95100514465E+02  0.90278062763E+02 0.  0.
         13    1    3    3    0    0 -0.80247433622E+01 -0.65851511587E+01 -0.36134922180E+02  0.37596602064E+02  0.10566000000E+00 0.  1.
         22    1    1    0    0    0 -0.57617705156E+01  0.23971987962E+02 -0.16915230680E+02  0.29899485535E+02  0.00000000000E+00 0. -1.
</event>
<event>
 5    1  0.1668518E-003  0.9118800E+02  0.7818608E-02  0.1130116E+00
         25   -1    0    0    0    0  0.00000000000E+00  0.00000000000E+00  0.99999998245E-14  0.12500000000E+03  0.12500000000E+03 0.  0.
        -13    1    3    3    0    0 -0.10425928935E+02  0.59372031981E+02  0.11663560937E+02  0.61398599279E+02  0.10566000000E+00 0. -1.
         23    2    1    0    0    0 -0.10835574031E+02  0.24602160921E+02  0.10343562903E+02  0.96196089152E+02  0.91782472663E+02 0.  0.
         13    1    3    3    0    0 -0.40964509563E+00 -0.34769871060E+02 -0.13199980337E+01  0.34797489873E+02  0.10566000000E+00 0.  1.
         22    1    1    0    0    0  0.10835574031E+02 -0.24602160921E+02 -0.10343562903E+02  0.28803910848E+02  0.00000000000E+00 0. -1.
</event>
<event>
 5    1  0.1668518E-003  0.9118800E+02  0.7818608E-02  0.1130116E+00
         25   -1    0    0    0    0  0.00000000000E+00  0.00000000000E+00  0.99999998245E-14  0.12500000000E+03  0.12500000000E+03 0.  0.
        -13    1    3    3    0    0  0.41485012673E+01  0.29439680116E+02  0.28845589640E+02  0.41424437640E+02  0.10566000000E+00 0. -1.
         23    2    1    0    0    0  0.25945658335E+02  0.41896327760E+01 -0.13599241554E+02  0.95408285280E+02  0.90703204574E+02 0.  0.
         13    1    3    3    0    0  0.21797157067E+02 -0.25250047340E+02 -0.42444831194E+02  0.53983847640E+02  0.10566000000E+00 0.  1.
         22    1    1    0    0    0 -0.25945658335E+02 -0.41896327760E+01  0.13599241554E+02  0.29591714720E+02  0.00000000000E+00 0. -1.
</event>
<event>
 5    1  0.1668518E-003  0.9118800E+02  0.7818608E-02  0.1130116E+00
         25   -1    0    0    0    0  0.00000000000E+00  0.00000000000E+00  0.99999998245E-14  0.12500000000E+03  0.12500000000E+03 0.  0.
        -13    1    3    3    0    0 -0.50273101067E+02 -0.28345454367E+01 -0.12463242901E+02  0.51872564294E+02  0.10566000000E+00 0.  1.
         23    2    1    0    0    0 -0.14400898161E+02 -0.22817191435E+02 -0.16881964730E+02  0.93172169003E+02  0.87567358363E+02 0.  0.
         13    1    3    3    0    0  0.35872202907E+02 -0.19982645999E+02 -0.44187218290E+01  0.41299604709E+02  0.10566000000E+00 0. -1.
         22    1    1    0    0    0  0.14400898161E+02  0.22817191435E+02  0.16881964730E+02  0.31827830997E+02  0.00000000000E+00 0.  1.
</event>
<event>
 5    1  0.1668518E-003  0.9118800E+02  0.7818608E-02  0.1130116E+00
         25   -1    0    0    0    0  0.00000000000E+00  0.00000000000E+00  0.99999998245E-14  0.12500000000E+03  0.12500000000E+03 0.  0.
        -13    1    3    3    0    0  0.55223831436E+02 -0.12165244345E+02 -0.23962023083E+02  0.61415425120E+02  0.10566000000E+00 0.  1.
         23    2    1    0    0    0  0.21047058644E+02 -0.12079026136E+02 -0.13858937177E+02  0.97054487129E+02  0.92944186382E+02 0.  0.
         13    1    3    3    0    0 -0.34176772791E+02  0.86218208535E-01  0.10103085906E+02  0.35639062009E+02  0.10566000000E+00 0. -1.
         22    1    1    0    0    0 -0.21047058644E+02  0.12079026136E+02  0.13858937177E+02  0.27945512871E+02  0.00000000000E+00 0.  1.
</event>
<event>
 5    1  0.1668518E-003  0.9118800E+02  0.7818608E-02  0.1130116E+00
         25   -1    0    0    0    0  0.00000000000E+00  0.00000000000E+00  0.99999998245E-14  0.12500000000E+03  0.12500000000E+03 0.  0.
        -13    1    3    3    0    0  0.74162723191E+01  0.31455541622E+02  0.13435388851E+02  0.34999614733E+02  0.10566000000E+00 0. -1.
         23    2    1    0    0    0  0.11223080134E+02 -0.25830483705E+02 -0.70679196842E+01  0.95963352384E+02  0.91464955562E+02 0.  0.
         13    1    3    3    0    0  0.38068078146E+01 -0.57286025327E+02 -0.20503308535E+02  0.60963737651E+02  0.10566000000E+00 0.  1.
         22    1    1    0    0    0 -0.11223080134E+02  0.25830483705E+02  0.70679196842E+01  0.29036647616E+02  0.00000000000E+00 0.  1.
</event>
<event>
 5    1  0.1668518E-003  0.9118800E+02  0.7818608E-02  0.1130116E+00
         25   -1    0    0    0    0  0.00000000000E+00  0.00000000000E+00  0.99999998245E-14  0.12500000000E+03  0.12500000000E+03 0.  0.
        -13    1    3    3    0    0 -0.24853265571E+02  0.36965134351E+02  0.12249325121E+02  0.46197003118E+02  0.10566000000E+00 0.  1.
         23    2    1    0    0    0 -0.28894847551E+02 -0.99748436707E+01  0.23334065430E+01  0.94342953382E+02  0.89222969832E+02 0.  0.
         13    1    3    3    0    0 -0.40415819792E+01 -0.46939978021E+02 -0.99159185785E+01  0.48145950264E+02  0.10566000000E+00 0. -1.
         22    1    1    0    0    0  0.28894847551E+02  0.99748436707E+01 -0.23334065430E+01  0.30657046618E+02  0.00000000000E+00 0.  1.
</event>
<event>
 5    1  0.1668518E-003  0.9118800E+02  0.7818608E-02  0.1130116E+00
         25   -1    0    0    0    0  0.00000000000E+00  0.00000000000E+00  0.99999998245E-14  0.12500000000E+03  0.12500000000E+03 0.  0.
        -13    1    3    3    0    0  0.33063586048E+02 -0.13352910222E+02 -0.32194817327E+02  0.48041839687E+02  0.10566000000E+00 0. -1.
         23    2    1    0    0    0 -0.12629251179E+02 -0.18453994244E+02 -0.18393441958E+02  0.96045439117E+02  0.91577070160E+02 0.  0.
         13    1    3    3    0    0 -0.45692837227E+02 -0.51010840215E+01  0.13801375369E+02  0.48003599429E+02  0.10566000000E+00 0.  1.
         22    1    1    0    0    0  0.12629251179E+02  0.18453994244E+02  0.18393441958E+02  0.28954560883E+02  0.00000000000E+00 0. -1.
</event>
<event>
 5    1  0.1668518E-003  0.9118800E+02  0.7818608E-02  0.1130116E+00
         25   -1    0    0    0    0  0.00000000000E+00  0.00000000000E+00  0.99999998245E-14  0.12500000000E+03  0.12500000000E+03 0.  0.
        -13    1    3    3    0    0  0.28693152331E+02  0.22358263518E+02  0.11537673075E+00  0.36376000523E+02  0.10566000000E+00 0.  1.
         23    2    1    0    0    0 -0.25340083384E+02 -0.77153223404E+01 -0.32871375306E+01  0.98308216660E+02  0.94615295618E+02 0.  0.
         13    1    3    3    0    0 -0.54033235715E+02 -0.30073585858E+02 -0.34025142614E+01  0.61932216137E+02  0.10566000000E+00 0. -1.
         22    1    1    0    0    0  0.25340083384E+02  0.77153223404E+01  0.32871375306E+01  0.26691783340E+02  0.00000000000E+00 0. -1.
</event>
<event>
 5    1  0.1668518E-003  0.9118800E+02  0.7818608E-02  0.1130116E+00
         25   -1    0    0    0    0  0.00000000000E+00  0.00000000000E+00  0.99999998245E-14  0.12500000000E+03  0.12500000000E+03 0.  0.
        -13    1    3    3    0    0 -0.18223829941E+02 -0.13629020525E+02 -0.56196751126E+02  0.60629565225E+02  0.10566000000E+00 0. -1.
         23    2    1    0    0    0 -0.16954507867E+02 -0.10913595790E+02 -0.21244645571E+02  0.95710123327E+02  0.91118224477E+02 0.  0.
         13    1    3    3    0    0  0.12693220741E+01  0.27154247348E+01  0.34952105555E+02  0.35080558103E+02  0.10566000000E+00 0.  1.
         22    1    1    0    0    0  0.16954507867E+02  0.10913595790E+02  0.21244645571E+02  0.29289876673E+02  0.00000000000E+00 0. -1.
</event>
<event>
 5    1  0.1668518E-003  0.9118800E+02  0.7818608E-02  0.1130116E+00
         25   -1    0    0    0    0  0.00000000000E+00  0.00000000000E+00  0.99999998245E-14  0.12500000000E+03  0.12500000000E+03 0.  0.
        -13    1    3    3    0    0 -0.27313717293E+00 -0.36216154792E+02  0.25010353183E+02  0.44013786502E+02  0.10566000000E+00 0.  1.
         23    2    1    0    0    0  0.15733980235E+02 -0.20158364611E+02 -0.18744191361E+02  0.93294125030E+02  0.87741274538E+02 0.  0.
         13    1    3    3    0    0  0.16007117408E+02  0.16057790181E+02 -0.43754544544E+02  0.49280338529E+02  0.10566000000E+00 0. -1.
         22    1    1    0    0    0 -0.15733980235E+02  0.20158364611E+02  0.18744191361E+02  0.31705874970E+02  0.00000000000E+00 0. -1.
</event>
<event>
 5    1  0.1668518E-003  0.9118800E+02  0.7818608E-02  0.1130116E+00
         25   -1    0    0    0    0  0.00000000000E+00  0.00000000000E+00  0.99999998245E-14  0.12500000000E+03  0.12500000000E+03 0.  0.
        -13    1    3    3    0    0 -0.53382853999E+02  0.71537262692E+01 -0.90392078213E+01  0.54613398930E+02  0.10566000000E+00 0.  1.
         23    2    1    0    0    0 -0.19171899942E+02  0.21416974949E+02  0.76382232169E+01  0.95257925135E+02  0.90495752850E+02 0.  0.
         13    1    3    3    0    0  0.34210954057E+02  0.14263248679E+02  0.16677431038E+02  0.40644526205E+02  0.10566000000E+00 0. -1.
         22    1    1    0    0    0  0.19171899942E+02 -0.21416974949E+02 -0.76382232169E+01  0.29742074865E+02  0.00000000000E+00 0.  1.
</event>
<event>
 5    1  0.1668518E-003  0.9118800E+02  0.7818608E-02  0.1130116E+00
         25   -1    0    0    0    0  0.00000000000E+00  0.00000000000E+00  0.99999998245E-14  0.12500000000E+03  0.12500000000E+03 0.  0.
        -13    1    3    3    0    0 -0.32030763118E+02 -0.11272642110E+02 -0.19386854859E+02  0.39101196292E+02  0.10566000000E+00 0. -1.
         23    2    1    0    0    0  0.14223786840E+02  0.20167222672E+02 -0.16909204555E+02  0.95084215185E+02  0.90255491779E+02 0.  0.
         13    1    3    3    0    0  0.46254549958E+02  0.31439864782E+02  0.24776503039E+01  0.55983018893E+02  0.10566000000E+00 0.  1.
         22    1    1    0    0    0 -0.14223786840E+02 -0.20167222672E+02  0.16909204555E+02  0.29915784815E+02  0.00000000000E+00 0.  1.
</event>
<event>
 5    1  0.1668518E-003  0.9118800E+02  0.7818608E-02  0.1130116E+00
         25   -1    0    0    0    0  0.00000000000E+00  0.00000000000E+00  0.99999998245E-14  0.12500000000E+03  0.12500000000E+03 0.  0.
        -13    1    3    3    0    0 -0.27074855129E+02 -0.61670613025E+01 -0.38355321689E+02  0.47352109681E+02  0.10566000000E+00 0.  1.
         23    2    1    0    0    0 -0.24797516070E+02  0.16273206526E+02  0.37352395074E+01  0.95105417413E+02  0.90284851183E+02 0.  0.
         13    1    3    3    0    0  0.22773390591E+01  0.22440267829E+02  0.42090561196E+02  0.47753307731E+02  0.10566000000E+00 0. -1.
         22    1    1    0    0    0  0.24797516070E+02 -0.16273206526E+02 -0.37352395074E+01  0.29894582587E+02  0.00000000000E+00 0. -1.
</event>
<event>
 5    1  0.1668518E-003  0.9118800E+02  0.7818608E-02  0.1130116E+00
         25   -1    0    0    0    0  0.00000000000E+00  0.00000000000E+00  0.99999998245E-14  0.12500000000E+03  0.12500000000E+03 0.  0.
        -13    1    3    3    0    0 -0.21515768375E+02 -0.47132514893E+01 -0.19420156103E+02  0.29364888140E+02  0.10566000000E+00 0.  1.
         23    2    1    0    0    0 -0.22593775795E+02 -0.11686238881E+02  0.33602642989E+02  0.82855196054E+02  0.71335818587E+02 0.  0.
         13    1    3    3    0    0 -0.10780074200E+01 -0.69729873912E+01  0.53022799092E+02  0.53490307914E+02  0.10566000000E+00 0. -1.
         22    1    1    0    0    0  0.22593775795E+02  0.11686238881E+02 -0.33602642989E+02  0.42144803946E+02  0.00000000000E+00 0. -1.
</event>
<event>
 5    1  0.1668518E-003  0.9118800E+02  0.7818608E-02  0.1130116E+00
         25   -1    0    0    0    0  0.00000000000E+00  0.00000000000E+00  0.99999998245E-14  0.12500000000E+03  0.12500000000E+03 0.  0.
        -13    1    3    3    0    0 -0.47419985711E+02  0.77434056235E+01  0.36999514639E+02  0.60643141600E+02  0.10566000000E+00 0. -1.
         23    2    1    0    0    0 -0.26861210268E+02 -0.36446484506E+01  0.10850873615E+02  0.95801549055E+02  0.91243560122E+02 0.  0.
         13    1    3    3    0    0  0.20558775444E+02 -0.11388054074E+02 -0.26148641024E+02  0.35158407455E+02  0.10566000000E+00 0.  1.
         22    1    1    0    0    0  0.26861210268E+02  0.36446484506E+01 -0.10850873615E+02  0.29198450945E+02  0.00000000000E+00 0.  1.
</event>
<event>
 5    1  0.1668518E-003  0.9118800E+02  0.7818608E-02  0.1130116E+00
         25   -1    0    0    0    0  0.00000000000E+00  0.00000000000E+00  0.99999998245E-14  0.12500000000E+03  0.12500000000E+03 0.  0.
        -13    1    3    3    0    0  0.27475606914E+02  0.17760791307E+02  0.38905396755E+02  0.50833018245E+02  0.10566000000E+00 0.  1.
         23    2    1    0    0    0  0.11582260449E+02 -0.19408331496E+02  0.16139765865E+02  0.97227277218E+02  0.93176280804E+02 0.  0.
         13    1    3    3    0    0 -0.15893346465E+02 -0.37169122803E+02 -0.22765630891E+02  0.46394258973E+02  0.10566000000E+00 0. -1.
         22    1    1    0    0    0 -0.11582260449E+02  0.19408331496E+02 -0.16139765865E+02  0.27772722782E+02  0.00000000000E+00 0. -1.
</event>
<event>
 5    1  0.1668518E-003  0.9118800E+02  0.7818608E-02  0.1130116E+00
         25   -1    0    0    0    0  0.00000000000E+00  0.00000000000E+00  0.99999998245E-14  0.12500000000E+03  0.12500000000E+03 0.  0.
        -13    1    3    3    0    0 -0.34403535993E+01  0.36131255640E+02 -0.80051696918E+01  0.37167157180E+02  0.10566000000E+00 0.  1.
         23    2    1    0    0    0  0.25371755070E+02 -0.13534866871E+02  0.43966860442E+01  0.95909633472E+02  0.91391511466E+02 0.  0.
         13    1    3    3    0    0  0.28812108669E+02 -0.49666122511E+02  0.12401855736E+02  0.58742476292E+02  0.10566000000E+00 0. -1.
         22    1    1    0    0    0 -0.25371755070E+02  0.13534866871E+02 -0.43966860442E+01  0.29090366528E+02  0.00000000000E+00 0. -1.
</event>
<event>
 5    1  0.1668518E-003  0.9118800E+02  0.7818608E-02  0.1130116E+00
         25   -1    0    0    0    0  0.00000000000E+00  0.00000000000E+00  0.99999998245E-14  0.12500000000E+03  0.12500000000E+03 0.  0.
        -13    1    3    3    0    0 -0.93088818600E+00  0.21964401328E+02 -0.23954032305E+02  0.32513202029E+02  0.10566000000E+00 0. -1.
         23    2    1    0    0    0  0.18960968357E+02 -0.12708455199E+02  0.21915423310E+02  0.93356534111E+02  0.87830140202E+02 0.  0.
         13    1    3    3    0    0  0.19891856543E+02 -0.34672856527E+02  0.45869455615E+02  0.60843332082E+02  0.10566000000E+00 0.  1.
         22    1    1    0    0    0 -0.18960968357E+02  0.12708455199E+02 -0.21915423310E+02  0.31643465889E+02  0.00000000000E+00 0.  1.
</event>
<event>
 5    1  0.1668518E-003  0.9118800E+02  0.7818608E-02  0.1130116E+00
         25   -1    0    0    0    0  0.00000000000E+00  0.00000000000E+00  0.99999998245E-14  0.12500000000E+03  0.12500000000E+03 0.  0.
        -13    1    3    3    0    0  0.23660654870E+02  0.66020818281E+01  0.19373041974E+02  0.31284820483E+02  0.10566000000E+00 0. -1.
         23    2    1    0    0    0 -0.16825619733E+02 -0.31226335084E+02  0.15286610609E+01  0.89496165181E+02  0.82152548927E+02 0.  0.
         13    1    3    3    0    0 -0.40486274603E+02 -0.37828416913E+02 -0.17844380913E+02  0.58211344698E+02  0.10566000000E+00 0.  1.
         22    1    1    0    0    0  0.16825619733E+02  0.31226335084E+02 -0.15286610609E+01  0.35503834819E+02  0.00000000000E+00 0.  1.
</event>
<event>
 5    1  0.1668518E-003  0.9118800E+02  0.7818608E-02  0.1130116E+00
         25   -1    0    0    0    0  0.00000000000E+00  0.00000000000E+00  0.99999998245E-14  0.12500000000E+03  0.12500000000E+03 0.  0.
        -13    1    3    3    0    0 -0.23012461528E+02 -0.27027837214E+02 -0.20447254635E+02  0.40965580140E+02  0.10566000000E+00 0.  1.
         23    2    1    0    0    0  0.30607909065E+01 -0.11122522057E+02  0.26000554279E+02  0.96555180424E+02  0.92270228709E+02 0.  0.
         13    1    3    3    0    0  0.26073252435E+02  0.15905315157E+02  0.46447808915E+02  0.55589600284E+02  0.10566000000E+00 0. -1.
         22    1    1    0    0    0 -0.30607909065E+01  0.11122522057E+02 -0.26000554279E+02  0.28444819576E+02  0.00000000000E+00 0. -1.
</event>
<event>
 5    1  0.1668518E-003  0.9118800E+02  0.7818608E-02  0.1130116E+00
         25   -1    0    0    0    0  0.00000000000E+00  0.00000000000E+00  0.99999998245E-14  0.12500000000E+03  0.12500000000E+03 0.  0.
        -13    1    3    3    0    0  0.10518685404E+02 -0.23059714000E+02 -0.27929644678E+02  0.37715638246E+02  0.10566000000E+00 0. -1.
         23    2    1    0    0    0 -0.22516361268E+02 -0.60612283663E+01  0.17093228908E+02  0.96088004417E+02  0.91635152122E+02 0.  0.
         13    1    3    3    0    0 -0.33035046672E+02  0.16998485634E+02  0.45022873586E+02  0.58372366172E+02  0.10566000000E+00 0.  1.
         22    1    1    0    0    0  0.22516361268E+02  0.60612283663E+01 -0.17093228908E+02  0.28911995583E+02  0.00000000000E+00 0.  1.
</event>
<event>
 5    1  0.1668518E-003  0.9118800E+02  0.7818608E-02  0.1130116E+00
         25   -1    0    0    0    0  0.00000000000E+00  0.00000000000E+00  0.99999998245E-14  0.12500000000E+03  0.12500000000E+03 0.  0.
        -13    1    3    3    0    0 -0.14487509420E+02  0.31186166620E+02 -0.31503394150E+02  0.46636251185E+02  0.10566000000E+00 0.  1.
         23    2    1    0    0    0 -0.78449014846E+01 -0.17339057782E+02 -0.20871023420E+02  0.96754911530E+02  0.92540412159E+02 0.  0.
         13    1    3    3    0    0  0.66426079352E+01 -0.48525224401E+02  0.10632370729E+02  0.50118660345E+02  0.10566000000E+00 0. -1.
         22    1    1    0    0    0  0.78449014846E+01  0.17339057782E+02  0.20871023420E+02  0.28245088470E+02  0.00000000000E+00 0. -1.
</event>
<event>
 5    1  0.1668518E-003  0.9118800E+02  0.7818608E-02  0.1130116E+00
         25   -1    0    0    0    0  0.00000000000E+00  0.00000000000E+00  0.99999998245E-14  0.12500000000E+03  0.12500000000E+03 0.  0.
        -13    1    3    3    0    0 -0.20962172388E+02  0.27677467018E+02  0.21161447928E+02  0.40660458608E+02  0.10566000000E+00 0.  1.
         23    2    1    0    0    0 -0.12440155646E+02 -0.24703955936E+02  0.13510812816E+01  0.97307612382E+02  0.93283991635E+02 0.  0.
         13    1    3    3    0    0  0.85220167417E+01 -0.52381422953E+02 -0.19810366647E+02  0.56647153774E+02  0.10566000000E+00 0. -1.
         22    1    1    0    0    0  0.12440155646E+02  0.24703955936E+02 -0.13510812816E+01  0.27692387618E+02  0.00000000000E+00 0. -1.
</event>
<event>
 5    1  0.1668518E-003  0.9118800E+02  0.7818608E-02  0.1130116E+00
         25   -1    0    0    0    0  0.00000000000E+00  0.00000000000E+00  0.99999998245E-14  0.12500000000E+03  0.12500000000E+03 0.  0.
        -13    1    3    3    0    0 -0.27492809358E+02  0.36079058084E+02 -0.24695864405E+02  0.51647360836E+02  0.10566000000E+00 0. -1.
         23    2    1    0    0    0 -0.10970715998E+02 -0.58878975856E+01 -0.25353262335E+02  0.96754436481E+02  0.92539770479E+02 0.  0.
         13    1    3    3    0    0  0.16522093360E+02 -0.41966955669E+02 -0.65739793042E+00  0.45107075645E+02  0.10566000000E+00 0.  1.
         22    1    1    0    0    0  0.10970715998E+02  0.58878975856E+01  0.25353262335E+02  0.28245563519E+02  0.00000000000E+00 0.  1.
</event>
<event>
 5    1  0.1668518E-003  0.9118800E+02  0.7818608E-02  0.1130116E+00
         25   -1    0    0    0    0  0.00000000000E+00  0.00000000000E+00  0.99999998245E-14  0.12500000000E+03  0.12500000000E+03 0.  0.
        -13    1    3    3    0    0 -0.23375840014E+02  0.20735511120E+02  0.21367626863E+02  0.37854695344E+02  0.10566000000E+00 0.  1.
         23    2    1    0    0    0  0.28645652927E+02  0.27959889732E+01  0.21649385704E+01  0.96136910336E+02  0.91701840679E+02 0.  0.
         13    1    3    3    0    0  0.52021492941E+02 -0.17939522147E+02 -0.19202688293E+02  0.58282214992E+02  0.10566000000E+00 0. -1.
         22    1    1    0    0    0 -0.28645652927E+02 -0.27959889732E+01 -0.21649385704E+01  0.28863089664E+02  0.00000000000E+00 0. -1.
</event>
<event>
 5    1  0.1668518E-003  0.9118800E+02  0.7818608E-02  0.1130116E+00
         25   -1    0    0    0    0  0.00000000000E+00  0.00000000000E+00  0.99999998245E-14  0.12500000000E+03  0.12500000000E+03 0.  0.
        -13    1    3    3    0    0 -0.21189813446E+02  0.29477394432E+02  0.77237644974E+01  0.37115935639E+02  0.10566000000E+00 0. -1.
         23    2    1    0    0    0  0.12397835735E+02 -0.22002314518E+02  0.77463382340E+01  0.98583832013E+02  0.94978723951E+02 0.  0.
         13    1    3    3    0    0  0.33587649180E+02 -0.51479708950E+02  0.22573736623E-01  0.61467896374E+02  0.10566000000E+00 0.  1.
         22    1    1    0    0    0 -0.12397835735E+02  0.22002314518E+02 -0.77463382340E+01  0.26416167987E+02  0.00000000000E+00 0.  1.
</event>
<event>
 5    1  0.1668518E-003  0.9118800E+02  0.7818608E-02  0.1130116E+00
         25   -1    0    0    0    0  0.00000000000E+00  0.00000000000E+00  0.99999998245E-14  0.12500000000E+03  0.12500000000E+03 0.  0.
        -13    1    3    3    0    0  0.17079884253E+02 -0.41096943370E+02 -0.37306783572E+02  0.58073130318E+02  0.10566000000E+00 0. -1.
         23    2    1    0    0    0 -0.76831038290E+01 -0.24552866716E+02 -0.15791558100E+02  0.94813137698E+02  0.89879276947E+02 0.  0.
         13    1    3    3    0    0 -0.24762988082E+02  0.16544076653E+02  0.21515225473E+02  0.36740007379E+02  0.10566000000E+00 0.  1.
         22    1    1    0    0    0  0.76831038290E+01  0.24552866716E+02  0.15791558100E+02  0.30186862302E+02  0.00000000000E+00 0. -1.
</event>
<event>
 5    1  0.1668518E-003  0.9118800E+02  0.7818608E-02  0.1130116E+00
         25   -1    0    0    0    0  0.00000000000E+00  0.00000000000E+00  0.99999998245E-14  0.12500000000E+03  0.12500000000E+03 0.  0.
        -13    1    3    3    0    0  0.25687178922E+02 -0.53559728128E+02  0.45729137788E+01  0.59576827228E+02  0.10566000000E+00 0. -1.
         23    2    1    0    0    0  0.18401437324E+02 -0.20654341836E+02  0.13175673780E+02  0.94359942692E+02  0.89246768417E+02 0.  0.
         13    1    3    3    0    0 -0.72857415978E+01  0.32905386292E+02  0.86027600016E+01  0.34783115463E+02  0.10566000000E+00 0.  1.
         22    1    1    0    0    0 -0.18401437324E+02  0.20654341836E+02 -0.13175673780E+02  0.30640057308E+02  0.00000000000E+00 0. -1.
</event>
<event>
 5    1  0.1668518E-003  0.9118800E+02  0.7818608E-02  0.1130116E+00
         25   -1    0    0    0    0  0.00000000000E+00  0.00000000000E+00  0.99999998245E-14  0.12500000000E+03  0.12500000000E+03 0.  0.
        -13    1    3    3    0    0 -0.49976074739E+01  0.15325257078E+02 -0.58400797446E+02  0.60584683636E+02  0.10566000000E+00 0.  1.
         23    2    1    0    0    0 -0.82919753908E+01  0.16286300083E+02 -0.25704254581E+02  0.93460990347E+02  0.87978676887E+02 0.  0.
         13    1    3    3    0    0 -0.32943679169E+01  0.96104300466E+00  0.32696542865E+02  0.32876306711E+02  0.10566000000E+00 0. -1.
         22    1    1    0    0    0  0.82919753908E+01 -0.16286300083E+02  0.25704254581E+02  0.31539009653E+02  0.00000000000E+00 0.  1.
</event>
<event>
 5    1  0.1668518E-003  0.9118800E+02  0.7818608E-02  0.1130116E+00
         25   -1    0    0    0    0  0.00000000000E+00  0.00000000000E+00  0.99999998245E-14  0.12500000000E+03  0.12500000000E+03 0.  0.
        -13    1    3    3    0    0  0.20217271514E+02 -0.11009429781E+01  0.27704533112E+02  0.34314755746E+02  0.10566000000E+00 0.  1.
         23    2    1    0    0    0 -0.25740707020E+02  0.11441589939E+02 -0.10041320282E+02  0.95094781539E+02  0.90270124541E+02 0.  0.
         13    1    3    3    0    0 -0.45957978534E+02  0.12542532917E+02 -0.37745853394E+02  0.60780025793E+02  0.10566000000E+00 0. -1.
         22    1    1    0    0    0  0.25740707020E+02 -0.11441589939E+02  0.10041320282E+02  0.29905218461E+02  0.00000000000E+00 0. -1.
</event>
<event>
 5    1  0.1668518E-003  0.9118800E+02  0.7818608E-02  0.1130116E+00
         25   -1    0    0    0    0  0.00000000000E+00  0.00000000000E+00  0.99999998245E-14  0.12500000000E+03  0.12500000000E+03 0.  0.
        -13    1    3    3    0    0 -0.43703283213E+02 -0.11261255539E+02  0.29603245976E+02  0.53973661875E+02  0.10566000000E+00 0.  1.
         23    2    1    0    0    0 -0.32256794407E+02  0.59711000827E+00 -0.50480945994E+01  0.92345129233E+02  0.86378714439E+02 0.  0.
         13    1    3    3    0    0  0.11446488806E+02  0.11858365548E+02 -0.34651340575E+02  0.38371467357E+02  0.10566000000E+00 0. -1.
         22    1    1    0    0    0  0.32256794407E+02 -0.59711000827E+00  0.50480945994E+01  0.32654870767E+02  0.00000000000E+00 0.  1.
</event>
<event>
 5    1  0.1668518E-003  0.9118800E+02  0.7818608E-02  0.1130116E+00
         25   -1    0    0    0    0  0.00000000000E+00  0.00000000000E+00  0.99999998245E-14  0.12500000000E+03  0.12500000000E+03 0.  0.
        -13    1    3    3    0    0 -0.30331143738E+02 -0.16915203197E+02  0.31781011370E+01  0.34874257993E+02  0.10566000000E+00 0.  1.
         23    2    1    0    0    0  0.28018307952E+02 -0.39287998875E+00 -0.63673909421E+01  0.96264593224E+02  0.91875722070E+02 0.  0.
         13    1    3    3    0    0  0.58349451690E+02  0.16522323209E+02 -0.95454920791E+01  0.61390335231E+02  0.10566000000E+00 0. -1.
         22    1    1    0    0    0 -0.28018307952E+02  0.39287998875E+00  0.63673909421E+01  0.28735406776E+02  0.00000000000E+00 0. -1.
</event>
<event>
 5    1  0.1668518E-003  0.9118800E+02  0.7818608E-02  0.1130116E+00
         25   -1    0    0    0    0  0.00000000000E+00  0.00000000000E+00  0.99999998245E-14  0.12500000000E+03  0.12500000000E+03 0.  0.
        -13    1    3    3    0    0 -0.19073228159E+02 -0.47452787994E+01 -0.33364168481E+02  0.38723179179E+02  0.10566000000E+00 0. -1.
         23    2    1    0    0    0  0.27412762957E+02  0.11788141847E+02 -0.84993852231E+01  0.93973246861E+02  0.88703504527E+02 0.  0.
         13    1    3    3    0    0  0.46485991117E+02  0.16533420646E+02  0.24864783258E+02  0.55250067682E+02  0.10566000000E+00 0.  1.
         22    1    1    0    0    0 -0.27412762957E+02 -0.11788141847E+02  0.84993852231E+01  0.31026753139E+02  0.00000000000E+00 0.  1.
</event>
<event>
 5    1  0.1668518E-003  0.9118800E+02  0.7818608E-02  0.1130116E+00
         25   -1    0    0    0    0  0.00000000000E+00  0.00000000000E+00  0.99999998245E-14  0.12500000000E+03  0.12500000000E+03 0.  0.
        -13    1    3    3    0    0  0.21571290366E+02 -0.33731189123E+02  0.54405689579E+01  0.40406987543E+02  0.10566000000E+00 0.  1.
         23    2    1    0    0    0 -0.21330650998E+02  0.59492650040E+01  0.12981759830E+02  0.99330630814E+02  0.95956540702E+02 0.  0.
         13    1    3    3    0    0 -0.42901941364E+02  0.39680454127E+02  0.75411908725E+01  0.58923643271E+02  0.10566000000E+00 0. -1.
         22    1    1    0    0    0  0.21330650998E+02 -0.59492650040E+01 -0.12981759830E+02  0.25669369186E+02  0.00000000000E+00 0. -1.
</event>
<event>
 5    1  0.1668518E-003  0.9118800E+02  0.7818608E-02  0.1130116E+00
         25   -1    0    0    0    0  0.00000000000E+00  0.00000000000E+00  0.99999998245E-14  0.12500000000E+03  0.12500000000E+03 0.  0.
        -13    1    3    3    0    0  0.31765114501E+02 -0.38400962588E+02 -0.20267865676E+02  0.53800129833E+02  0.10566000000E+00 0.  1.
         23    2    1    0    0    0 -0.59852023537E+01 -0.28028055859E+02 -0.45782554492E+01  0.95976647585E+02  0.91483123560E+02 0.  0.
         13    1    3    3    0    0 -0.37750316854E+02  0.10372906730E+02  0.15689610227E+02  0.42176517752E+02  0.10566000000E+00 0. -1.
         22    1    1    0    0    0  0.59852023537E+01  0.28028055859E+02  0.45782554492E+01  0.29023352415E+02  0.00000000000E+00 0.  1.
</event>
<event>
 5    1  0.1668518E-003  0.9118800E+02  0.7818608E-02  0.1130116E+00
         25   -1    0    0    0    0  0.00000000000E+00  0.00000000000E+00  0.99999998245E-14  0.12500000000E+03  0.12500000000E+03 0.  0.
        -13    1    3    3    0    0 -0.23090835081E+02 -0.19126366934E+02 -0.22313055396E+02  0.37374967318E+02  0.10566000000E+00 0. -1.
         23    2    1    0    0    0  0.23069541216E+02 -0.23166227517E+02  0.61178553179E+01  0.91738821684E+02  0.85496815268E+02 0.  0.
         13    1    3    3    0    0  0.46160376298E+02 -0.40398605828E+01  0.28430910714E+02  0.54363854366E+02  0.10566000000E+00 0.  1.
         22    1    1    0    0    0 -0.23069541216E+02  0.23166227517E+02 -0.61178553179E+01  0.33261178316E+02  0.00000000000E+00 0.  1.
</event>
<event>
 5    1  0.1668518E-003  0.9118800E+02  0.7818608E-02  0.1130116E+00
         25   -1    0    0    0    0  0.00000000000E+00  0.00000000000E+00  0.99999998245E-14  0.12500000000E+03  0.12500000000E+03 0.  0.
        -13    1    3    3    0    0 -0.24639045808E+02 -0.61168041247E+01 -0.39328655915E+02  0.46810812972E+02  0.10566000000E+00 0. -1.
         23    2    1    0    0    0  0.85518447060E+01 -0.26636888152E+02 -0.11435056344E+02  0.94777187889E+02  0.89829265678E+02 0.  0.
         13    1    3    3    0    0  0.33190890514E+02 -0.20520084027E+02  0.27893599571E+02  0.47966374917E+02  0.10566000000E+00 0.  1.
         22    1    1    0    0    0 -0.85518447060E+01  0.26636888152E+02  0.11435056344E+02  0.30222812111E+02  0.00000000000E+00 0. -1.
</event>
<event>
 5    1  0.1668518E-003  0.9118800E+02  0.7818608E-02  0.1130116E+00
         25   -1    0    0    0    0  0.00000000000E+00  0.00000000000E+00  0.99999998245E-14  0.12500000000E+03  0.12500000000E+03 0.  0.
        -13    1    3    3    0    0  0.25144874370E+02 -0.78355756265E+01  0.27217320716E+02  0.37874195219E+02  0.10566000000E+00 0. -1.
         23    2    1    0    0    0  0.63912980160E+01 -0.36766136265E+01 -0.27847191467E+02  0.96193190897E+02  0.91778525399E+02 0.  0.
         13    1    3    3    0    0 -0.18753576354E+02  0.41589620000E+01 -0.55064512183E+02  0.58318995679E+02  0.10566000000E+00 0.  1.
         22    1    1    0    0    0 -0.63912980160E+01  0.36766136265E+01  0.27847191467E+02  0.28806809103E+02  0.00000000000E+00 0.  1.
</event>
<event>
 5    1  0.1668518E-003  0.9118800E+02  0.7818608E-02  0.1130116E+00
         25   -1    0    0    0    0  0.00000000000E+00  0.00000000000E+00  0.99999998245E-14  0.12500000000E+03  0.12500000000E+03 0.  0.
        -13    1    3    3    0    0  0.54331304121E+01  0.35883915189E+02  0.13836545881E+02  0.38841156540E+02  0.10566000000E+00 0.  1.
         23    2    1    0    0    0 -0.29179244490E+02 -0.67031231447E+01  0.19175399410E+01  0.94999381201E+02  0.90137923762E+02 0.  0.
         13    1    3    3    0    0 -0.34612374903E+02 -0.42587038334E+02 -0.11919005940E+02  0.56158224661E+02  0.10566000000E+00 0. -1.
         22    1    1    0    0    0  0.29179244490E+02  0.67031231447E+01 -0.19175399410E+01  0.30000618799E+02  0.00000000000E+00 0. -1.
</event>
<event>
 5    1  0.1668518E-003  0.9118800E+02  0.7818608E-02  0.1130116E+00
         25   -1    0    0    0    0  0.00000000000E+00  0.00000000000E+00  0.99999998245E-14  0.12500000000E+03  0.12500000000E+03 0.  0.
        -13    1    3    3    0    0 -0.24740862302E+02  0.21613363012E+02 -0.19116854940E+02  0.38009380881E+02  0.10566000000E+00 0. -1.
         23    2    1    0    0    0  0.18580893525E+02 -0.17510598818E+02 -0.11912879488E+02  0.96825767573E+02  0.92636072312E+02 0.  0.
         13    1    3    3    0    0  0.43321755827E+02 -0.39123961830E+02  0.72039754523E+01  0.58816386692E+02  0.10566000000E+00 0.  1.
         22    1    1    0    0    0 -0.18580893525E+02  0.17510598818E+02  0.11912879488E+02  0.28174232427E+02  0.00000000000E+00 0.  1.
</event>
<event>
 5    1  0.1668518E-003  0.9118800E+02  0.7818608E-02  0.1130116E+00
         25   -1    0    0    0    0  0.00000000000E+00  0.00000000000E+00  0.99999998245E-14  0.12500000000E+03  0.12500000000E+03 0.  0.
        -13    1    3    3    0    0  0.52190911535E+02 -0.77980810712E+00  0.12193277883E+02  0.53602113177E+02  0.10566000000E+00 0. -1.
         23    2    1    0    0    0  0.13662725768E+02 -0.18751322982E+02  0.16786526612E+02  0.96363141501E+02  0.92009702615E+02 0.  0.
         13    1    3    3    0    0 -0.38528185767E+02 -0.17971514875E+02  0.45932487292E+01  0.42761028324E+02  0.10566000000E+00 0.  1.
         22    1    1    0    0    0 -0.13662725768E+02  0.18751322982E+02 -0.16786526612E+02  0.28636858499E+02  0.00000000000E+00 0. -1.
</event>
<event>
 5    1  0.1668518E-003  0.9118800E+02  0.7818608E-02  0.1130116E+00
         25   -1    0    0    0    0  0.00000000000E+00  0.00000000000E+00  0.99999998245E-14  0.12500000000E+03  0.12500000000E+03 0.  0.
        -13    1    3    3    0    0 -0.97822850576E+01  0.32711315179E+02 -0.27181459556E+02  0.43641335329E+02  0.10566000000E+00 0. -1.
         23    2    1    0    0    0  0.21367210326E+01 -0.18360188893E+02 -0.21887281757E+02  0.96351872388E+02  0.91994391661E+02 0.  0.
         13    1    3    3    0    0  0.11919006090E+02 -0.51071504072E+02  0.52941777990E+01  0.52710537059E+02  0.10566000000E+00 0.  1.
         22    1    1    0    0    0 -0.21367210326E+01  0.18360188893E+02  0.21887281757E+02  0.28648127612E+02  0.00000000000E+00 0.  1.
</event>
<event>
 5    1  0.1668518E-003  0.9118800E+02  0.7818608E-02  0.1130116E+00
         25   -1    0    0    0    0  0.00000000000E+00  0.00000000000E+00  0.99999998245E-14  0.12500000000E+03  0.12500000000E+03 0.  0.
        -13    1    3    3    0    0 -0.20964413175E+02  0.30174819676E+02  0.11631423991E+02  0.38539947462E+02  0.10566000000E+00 0.  1.
         23    2    1    0    0    0  0.22060552811E+02 -0.75856663886E+01  0.17143440063E+02  0.96049907391E+02  0.91583169020E+02 0.  0.
         13    1    3    3    0    0  0.43024965986E+02 -0.37760486064E+02  0.55120160712E+01  0.57509959930E+02  0.10566000000E+00 0. -1.
         22    1    1    0    0    0 -0.22060552811E+02  0.75856663886E+01 -0.17143440063E+02  0.28950092609E+02  0.00000000000E+00 0. -1.
</event>
<event>
 5    1  0.1668518E-003  0.9118800E+02  0.7818608E-02  0.1130116E+00
         25   -1    0    0    0    0  0.00000000000E+00  0.00000000000E+00  0.99999998245E-14  0.12500000000E+03  0.12500000000E+03 0.  0.
        -13    1    3    3    0    0  0.68100074943E+01 -0.36076045788E+02  0.15025200179E+02  0.39668943598E+02  0.10566000000E+00 0.  1.
         23    2    1    0    0    0 -0.25890531630E+01  0.17913643012E+02  0.23727219346E+02  0.95157367071E+02  0.90356747218E+02 0.  0.
         13    1    3    3    0    0 -0.93990606573E+01  0.53989688800E+02  0.87020191664E+01  0.55488423473E+02  0.10566000000E+00 0. -1.
         22    1    1    0    0    0  0.25890531630E+01 -0.17913643012E+02 -0.23727219346E+02  0.29842632929E+02  0.00000000000E+00 0. -1.
</event>
<event>
 5    1  0.1668518E-003  0.9118800E+02  0.7818608E-02  0.1130116E+00
         25   -1    0    0    0    0  0.00000000000E+00  0.00000000000E+00  0.99999998245E-14  0.12500000000E+03  0.12500000000E+03 0.  0.
        -13    1    3    3    0    0  0.20188953441E+02  0.51447829994E+02  0.82141182126E+01  0.55874466031E+02  0.10566000000E+00 0.  1.
         23    2    1    0    0    0 -0.26165078831E+00  0.19864117410E+02  0.21452386302E+02  0.95762070872E+02  0.91189460564E+02 0.  0.
         13    1    3    3    0    0 -0.20450604230E+02 -0.31583712584E+02  0.13238268090E+02  0.39887604841E+02  0.10566000000E+00 0. -1.
         22    1    1    0    0    0  0.26165078831E+00 -0.19864117410E+02 -0.21452386302E+02  0.29237929128E+02  0.00000000000E+00 0.  1.
</event>
<event>
 5    1  0.1668518E-003  0.9118800E+02  0.7818608E-02  0.1130116E+00
         25   -1    0    0    0    0  0.00000000000E+00  0.00000000000E+00  0.99999998245E-14  0.12500000000E+03  0.12500000000E+03 0.  0.
        -13    1    3    3    0    0 -0.24121097347E+02  0.11685281851E+02  0.19272380132E+02  0.33012254530E+02  0.10566000000E+00 0. -1.
         23    2    1    0    0    0  0.15360359703E+02 -0.19744399982E+02 -0.16644598990E+02  0.94952959274E+02  0.90073524514E+02 0.  0.
         13    1    3    3    0    0  0.39481457050E+02 -0.31429681833E+02 -0.35916979122E+02  0.61940704744E+02  0.10566000000E+00 0.  1.
         22    1    1    0    0    0 -0.15360359703E+02  0.19744399982E+02  0.16644598990E+02  0.30047040726E+02  0.00000000000E+00 0.  1.
</event>
<event>
 5    1  0.1668518E-003  0.9118800E+02  0.7818608E-02  0.1130116E+00
         25   -1    0    0    0    0  0.00000000000E+00  0.00000000000E+00  0.99999998245E-14  0.12500000000E+03  0.12500000000E+03 0.  0.
        -13    1    3    3    0    0  0.10713438025E+01  0.48463351737E+02  0.22250461583E+02  0.53337964376E+02  0.10566000000E+00 0. -1.
         23    2    1    0    0    0  0.11330694290E+02  0.23904926493E+02 -0.11359439185E+02  0.96209949595E+02  0.91801347478E+02 0.  0.
         13    1    3    3    0    0  0.10259350487E+02 -0.24558425244E+02 -0.33609900769E+02  0.42871985219E+02  0.10566000000E+00 0.  1.
         22    1    1    0    0    0 -0.11330694290E+02 -0.23904926493E+02  0.11359439185E+02  0.28790050405E+02  0.00000000000E+00 0. -1.
</event>
<event>
 5    1  0.1668518E-003  0.9118800E+02  0.7818608E-02  0.1130116E+00
         25   -1    0    0    0    0  0.00000000000E+00  0.00000000000E+00  0.99999998245E-14  0.12500000000E+03  0.12500000000E+03 0.  0.
        -13    1    3    3    0    0  0.32514117638E+01 -0.35149533898E+02  0.35485533007E+01  0.35477666303E+02  0.10566000000E+00 0. -1.
         23    2    1    0    0    0  0.62434748195E+01  0.25325210964E+02  0.11401313783E+02  0.96533576899E+02  0.92240957414E+02 0.  0.
         13    1    3    3    0    0  0.29920630557E+01  0.60474744862E+02  0.78527604824E+01  0.61055910596E+02  0.10566000000E+00 0.  1.
         22    1    1    0    0    0 -0.62434748195E+01 -0.25325210964E+02 -0.11401313783E+02  0.28466423101E+02  0.00000000000E+00 0.  1.
</event>
<event>
 5    1  0.1668518E-003  0.9118800E+02  0.7818608E-02  0.1130116E+00
         25   -1    0    0    0    0  0.00000000000E+00  0.00000000000E+00  0.99999998245E-14  0.12500000000E+03  0.12500000000E+03 0.  0.
        -13    1    3    3    0    0  0.15686501453E+02  0.47419646878E+02  0.23726224885E+02  0.55295878230E+02  0.10566000000E+00 0.  1.
         23    2    1    0    0    0 -0.91311640351E+01  0.27153812307E+02 -0.18488347222E+01  0.96292407463E+02  0.91913556485E+02 0.  0.
         13    1    3    3    0    0 -0.24817665488E+02 -0.20265834571E+02 -0.25575059608E+02  0.40996529232E+02  0.10566000000E+00 0. -1.
         22    1    1    0    0    0  0.91311640351E+01 -0.27153812307E+02  0.18488347222E+01  0.28707592537E+02  0.00000000000E+00 0.  1.
</event>
<event>
 5    1  0.1668518E-003  0.9118800E+02  0.7818608E-02  0.1130116E+00
         25   -1    0    0    0    0  0.00000000000E+00  0.00000000000E+00  0.99999998245E-14  0.12500000000E+03  0.12500000000E+03 0.  0.
        -13    1    3    3    0    0 -0.39360840447E+02  0.24928186023E+02  0.15000727190E+02  0.48946125479E+02  0.10566000000E+00 0. -1.
         23    2    1    0    0    0  0.70770558561E+01  0.27140845724E+02  0.65156323415E+01  0.96204797430E+02  0.91794331838E+02 0.  0.
         13    1    3    3    0    0  0.46437896303E+02  0.22126597012E+01 -0.84850948488E+01  0.47258671952E+02  0.10566000000E+00 0.  1.
         22    1    1    0    0    0 -0.70770558561E+01 -0.27140845724E+02 -0.65156323415E+01  0.28795202570E+02  0.00000000000E+00 0. -1.
</event>
<event>
 5    1  0.1668518E-003  0.9118800E+02  0.7818608E-02  0.1130116E+00
         25   -1    0    0    0    0  0.00000000000E+00  0.00000000000E+00  0.99999998245E-14  0.12500000000E+03  0.12500000000E+03 0.  0.
        -13    1    3    3    0    0  0.19615555791E+02 -0.99020587292E+01 -0.11972537042E+02  0.25023461058E+02  0.10566000000E+00 0.  1.
         23    2    1    0    0    0 -0.29120315191E+02  0.22962817115E+02 -0.17362800804E+02  0.84051855006E+02  0.73402750299E+02 0.  0.
         13    1    3    3    0    0 -0.48735870982E+02  0.32864875844E+02 -0.53902637618E+01  0.59028393948E+02  0.10566000000E+00 0. -1.
         22    1    1    0    0    0  0.29120315191E+02 -0.22962817115E+02  0.17362800804E+02  0.40948144994E+02  0.00000000000E+00 0. -1.
</event>
<event>
 5    1  0.1668518E-003  0.9118800E+02  0.7818608E-02  0.1130116E+00
         25   -1    0    0    0    0  0.00000000000E+00  0.00000000000E+00  0.99999998245E-14  0.12500000000E+03  0.12500000000E+03 0.  0.
        -13    1    3    3    0    0  0.32548540036E+02 -0.37193805083E+02  0.23660531336E+02  0.54796154082E+02  0.10566000000E+00 0.  1.
         23    2    1    0    0    0 -0.58069575201E+01 -0.24390830867E+02  0.13648715947E+02  0.96453181735E+02  0.92131945783E+02 0.  0.
         13    1    3    3    0    0 -0.38355497556E+02  0.12802974215E+02 -0.10011815389E+02  0.41657027654E+02  0.10566000000E+00 0. -1.
         22    1    1    0    0    0  0.58069575201E+01  0.24390830867E+02 -0.13648715947E+02  0.28546818265E+02  0.00000000000E+00 0.  1.
</event>
<event>
 5    1  0.1668518E-003  0.9118800E+02  0.7818608E-02  0.1130116E+00
         25   -1    0    0    0    0  0.00000000000E+00  0.00000000000E+00  0.99999998245E-14  0.12500000000E+03  0.12500000000E+03 0.  0.
        -13    1    3    3    0    0 -0.11315495747E+02  0.17774974504E+02 -0.18036454878E+02  0.27736528824E+02  0.10566000000E+00 0.  1.
         23    2    1    0    0    0  0.27466089624E+01 -0.32039291723E+02  0.15387456912E+02  0.89351242586E+02  0.81931743827E+02 0.  0.
         13    1    3    3    0    0  0.14062104710E+02 -0.49814266227E+02  0.33423911790E+02  0.61614713762E+02  0.10566000000E+00 0. -1.
         22    1    1    0    0    0 -0.27466089624E+01  0.32039291723E+02 -0.15387456912E+02  0.35648757414E+02  0.00000000000E+00 0. -1.
</event>
<event>
 5    1  0.1668518E-003  0.9118800E+02  0.7818608E-02  0.1130116E+00
         25   -1    0    0    0    0  0.00000000000E+00  0.00000000000E+00  0.99999998245E-14  0.12500000000E+03  0.12500000000E+03 0.  0.
        -13    1    3    3    0    0 -0.25316945635E+02  0.16820966684E+02  0.18078569153E+02  0.35365781246E+02  0.10566000000E+00 0. -1.
         23    2    1    0    0    0  0.13333862910E+02  0.23695044554E+01 -0.25962436340E+02  0.95717675089E+02  0.91128583728E+02 0.  0.
         13    1    3    3    0    0  0.38650808544E+02 -0.14451462228E+02 -0.44041005493E+02  0.60351893844E+02  0.10566000000E+00 0.  1.
         22    1    1    0    0    0 -0.13333862910E+02 -0.23695044554E+01  0.25962436340E+02  0.29282324911E+02  0.00000000000E+00 0.  1.
</event>
<event>
 5    1  0.1668518E-003  0.9118800E+02  0.7818608E-02  0.1130116E+00
         25   -1    0    0    0    0  0.00000000000E+00  0.00000000000E+00  0.99999998245E-14  0.12500000000E+03  0.12500000000E+03 0.  0.
        -13    1    3    3    0    0  0.20545040869E+02 -0.17739470792E+02  0.13942424481E+02  0.30515404188E+02  0.10566000000E+00 0. -1.
         23    2    1    0    0    0 -0.25262593231E+02  0.11958335309E+02 -0.16014900484E+02  0.92786998934E+02  0.87015801632E+02 0.  0.
         13    1    3    3    0    0 -0.45807634101E+02  0.29697806101E+02 -0.29957324965E+02  0.62271594746E+02  0.10566000000E+00 0.  1.
         22    1    1    0    0    0  0.25262593231E+02 -0.11958335309E+02  0.16014900484E+02  0.32213001066E+02  0.00000000000E+00 0.  1.
</event>
<event>
 5    1  0.1668518E-003  0.9118800E+02  0.7818608E-02  0.1130116E+00
         25   -1    0    0    0    0  0.00000000000E+00  0.00000000000E+00  0.99999998245E-14  0.12500000000E+03  0.12500000000E+03 0.  0.
        -13    1    3    3    0    0  0.29110319041E+02 -0.33817752286E+02  0.17656657693E+01  0.44656240146E+02  0.10566000000E+00 0. -1.
         23    2    1    0    0    0  0.65695401529E+01  0.31221258847E+01  0.28542779438E+02  0.95545004059E+02  0.90891424319E+02 0.  0.
         13    1    3    3    0    0 -0.22540778888E+02  0.36939878171E+02  0.26777113669E+02  0.50888763913E+02  0.10566000000E+00 0.  1.
         22    1    1    0    0    0 -0.65695401529E+01 -0.31221258847E+01 -0.28542779438E+02  0.29454995941E+02  0.00000000000E+00 0.  1.
</event>
<event>
 5    1  0.1668518E-003  0.9118800E+02  0.7818608E-02  0.1130116E+00
         25   -1    0    0    0    0  0.00000000000E+00  0.00000000000E+00  0.99999998245E-14  0.12500000000E+03  0.12500000000E+03 0.  0.
        -13    1    3    3    0    0  0.45164924313E+02  0.25765282501E+02 -0.24236126239E+02  0.57368293941E+02  0.10566000000E+00 0.  1.
         23    2    1    0    0    0  0.27815460449E+02  0.10256959267E+02  0.52097584974E+01  0.94899391418E+02  0.89999154743E+02 0.  0.
         13    1    3    3    0    0 -0.17349463864E+02 -0.15508323234E+02  0.29445884737E+02  0.37531097477E+02  0.10566000000E+00 0. -1.
         22    1    1    0    0    0 -0.27815460449E+02 -0.10256959267E+02 -0.52097584974E+01  0.30100608582E+02  0.00000000000E+00 0.  1.
</event>
<event>
 5    1  0.1668518E-003  0.9118800E+02  0.7818608E-02  0.1130116E+00
         25   -1    0    0    0    0  0.00000000000E+00  0.00000000000E+00  0.99999998245E-14  0.12500000000E+03  0.12500000000E+03 0.  0.
        -13    1    3    3    0    0  0.46889672205E+02  0.35525966055E+02  0.67504724954E+00  0.58831985148E+02  0.10566000000E+00 0. -1.
         23    2    1    0    0    0  0.38825441146E+02  0.11282674691E+02  0.28118703941E+01  0.84470748299E+02  0.74112664739E+02 0.  0.
         13    1    3    3    0    0 -0.80642310590E+01 -0.24243291364E+02  0.21368231445E+01  0.25638763151E+02  0.10566000000E+00 0.  1.
         22    1    1    0    0    0 -0.38825441146E+02 -0.11282674691E+02 -0.28118703941E+01  0.40529251701E+02  0.00000000000E+00 0. -1.
</event>
<event>
 5    1  0.1668518E-003  0.9118800E+02  0.7818608E-02  0.1130116E+00
         25   -1    0    0    0    0  0.00000000000E+00  0.00000000000E+00  0.99999998245E-14  0.12500000000E+03  0.12500000000E+03 0.  0.
        -13    1    3    3    0    0 -0.30329327015E+02  0.19403983716E+02  0.47946573406E+02  0.59960551420E+02  0.10566000000E+00 0.  1.
         23    2    1    0    0    0 -0.47462148406E+01  0.17413860889E+02  0.23160763596E+02  0.95636926647E+02  0.91017754651E+02 0.  0.
         13    1    3    3    0    0  0.25583112174E+02 -0.19901228270E+01 -0.24785809810E+02  0.35676375227E+02  0.10566000000E+00 0. -1.
         22    1    1    0    0    0  0.47462148406E+01 -0.17413860889E+02 -0.23160763596E+02  0.29363073353E+02  0.00000000000E+00 0.  1.
</event>
<event>
 5    1  0.1668518E-003  0.9118800E+02  0.7818608E-02  0.1130116E+00
         25   -1    0    0    0    0  0.00000000000E+00  0.00000000000E+00  0.99999998245E-14  0.12500000000E+03  0.12500000000E+03 0.  0.
        -13    1    3    3    0    0 -0.12438960355E+02 -0.26997200221E+02  0.48203429576E+02  0.56631778547E+02  0.10566000000E+00 0. -1.
         23    2    1    0    0    0 -0.12108588573E+02  0.26996253336E+01  0.32469971551E+02  0.90240757392E+02  0.83277784240E+02 0.  0.
         13    1    3    3    0    0  0.33037178263E+00  0.29696825554E+02 -0.15733458025E+02  0.33608978845E+02  0.10566000000E+00 0.  1.
         22    1    1    0    0    0  0.12108588573E+02 -0.26996253336E+01 -0.32469971551E+02  0.34759242608E+02  0.00000000000E+00 0. -1.
</event>
<event>
 5    1  0.1668518E-003  0.9118800E+02  0.7818608E-02  0.1130116E+00
         25   -1    0    0    0    0  0.00000000000E+00  0.00000000000E+00  0.99999998245E-14  0.12500000000E+03  0.12500000000E+03 0.  0.
        -13    1    3    3    0    0 -0.43857819997E+01 -0.42157334733E+02 -0.14157905023E+02  0.44687060703E+02  0.10566000000E+00 0. -1.
         23    2    1    0    0    0  0.27613500473E+02 -0.41936945457E+01 -0.12592075447E+02  0.94362558097E+02  0.89250431508E+02 0.  0.
         13    1    3    3    0    0  0.31999282472E+02  0.37963640188E+02  0.15658295768E+01  0.49675497394E+02  0.10566000000E+00 0.  1.
         22    1    1    0    0    0 -0.27613500473E+02  0.41936945457E+01  0.12592075447E+02  0.30637441903E+02  0.00000000000E+00 0.  1.
</event>
<event>
 5    1  0.1668518E-003  0.9118800E+02  0.7818608E-02  0.1130116E+00
         25   -1    0    0    0    0  0.00000000000E+00  0.00000000000E+00  0.99999998245E-14  0.12500000000E+03  0.12500000000E+03 0.  0.
        -13    1    3    3    0    0 -0.26913973428E+02  0.17235862461E+02  0.21388500004E+02  0.38456677144E+02  0.10566000000E+00 0.  1.
         23    2    1    0    0    0  0.20806975080E+02  0.14087691425E+02 -0.12366777647E+02  0.96994099710E+02  0.92862936242E+02 0.  0.
         13    1    3    3    0    0  0.47720948508E+02 -0.31481710362E+01 -0.33755277651E+02  0.58537422567E+02  0.10566000000E+00 0. -1.
         22    1    1    0    0    0 -0.20806975080E+02 -0.14087691425E+02  0.12366777647E+02  0.28005900290E+02  0.00000000000E+00 0. -1.
</event>
<event>
 5    1  0.1668518E-003  0.9118800E+02  0.7818608E-02  0.1130116E+00
         25   -1    0    0    0    0  0.00000000000E+00  0.00000000000E+00  0.99999998245E-14  0.12500000000E+03  0.12500000000E+03 0.  0.
        -13    1    3    3    0    0 -0.15702155042E+02 -0.17005527369E+01 -0.49395042288E+02  0.51858759330E+02  0.10566000000E+00 0. -1.
         23    2    1    0    0    0  0.90530414932E+01  0.19238274317E+02 -0.23101180412E+02  0.93603610154E+02  0.88181078120E+02 0.  0.
         13    1    3    3    0    0  0.24755196535E+02  0.20938827054E+02  0.26293861877E+02  0.41744850824E+02  0.10566000000E+00 0.  1.
         22    1    1    0    0    0 -0.90530414932E+01 -0.19238274317E+02  0.23101180412E+02  0.31396389846E+02  0.00000000000E+00 0.  1.
</event>
<event>
 5    1  0.1668518E-003  0.9118800E+02  0.7818608E-02  0.1130116E+00
         25   -1    0    0    0    0  0.00000000000E+00  0.00000000000E+00  0.99999998245E-14  0.12500000000E+03  0.12500000000E+03 0.  0.
        -13    1    3    3    0    0  0.30376517796E+02 -0.24881733823E+02 -0.92373581381E+00  0.39277193934E+02  0.10566000000E+00 0.  1.
         23    2    1    0    0    0 -0.21773338505E+02 -0.24255276043E+02  0.59014911479E+01  0.91875624031E+02  0.85696592743E+02 0.  0.
         13    1    3    3    0    0 -0.52149856301E+02  0.62645777981E+00  0.68252269617E+01  0.52598430097E+02  0.10566000000E+00 0. -1.
         22    1    1    0    0    0  0.21773338505E+02  0.24255276043E+02 -0.59014911479E+01  0.33124375969E+02  0.00000000000E+00 0. -1.
</event>
<event>
 5    1  0.1668518E-003  0.9118800E+02  0.7818608E-02  0.1130116E+00
         25   -1    0    0    0    0  0.00000000000E+00  0.00000000000E+00  0.99999998245E-14  0.12500000000E+03  0.12500000000E+03 0.  0.
        -13    1    3    3    0    0  0.41937214080E+02 -0.88099551036E+01 -0.25748715946E+00  0.42853502744E+02  0.10566000000E+00 0.  1.
         23    2    1    0    0    0 -0.75950643204E+00  0.12560390541E+02  0.25104975558E+02  0.96917976242E+02  0.92760412141E+02 0.  0.
         13    1    3    3    0    0 -0.42696720512E+02  0.21370345644E+02  0.25362462718E+02  0.54064473498E+02  0.10566000000E+00 0. -1.
         22    1    1    0    0    0  0.75950643204E+00 -0.12560390541E+02 -0.25104975558E+02  0.28082023758E+02  0.00000000000E+00 0. -1.
</event>
<event>
 5    1  0.1668518E-003  0.9118800E+02  0.7818608E-02  0.1130116E+00
         25   -1    0    0    0    0  0.00000000000E+00  0.00000000000E+00  0.99999998245E-14  0.12500000000E+03  0.12500000000E+03 0.  0.
        -13    1    3    3    0    0  0.73864552334E+01  0.37284391850E+02 -0.46427863474E+02  0.60002027194E+02  0.10566000000E+00 0. -1.
         23    2    1    0    0    0  0.11204985479E+02  0.26960143349E+02 -0.17482472857E+02  0.90970044281E+02  0.84365342827E+02 0.  0.
         13    1    3    3    0    0  0.38185302455E+01 -0.10324248500E+02  0.28945390617E+02  0.30968017088E+02  0.10566000000E+00 0.  1.
         22    1    1    0    0    0 -0.11204985479E+02 -0.26960143349E+02  0.17482472857E+02  0.34029955719E+02  0.00000000000E+00 0. -1.
</event>
<event>
 5    1  0.1668518E-003  0.9118800E+02  0.7818608E-02  0.1130116E+00
         25   -1    0    0    0    0  0.00000000000E+00  0.00000000000E+00  0.99999998245E-14  0.12500000000E+03  0.12500000000E+03 0.  0.
        -13    1    3    3    0    0 -0.20175775664E+02  0.23216094251E+02 -0.20432758076E+02  0.36926382473E+02  0.10566000000E+00 0.  1.
         23    2    1    0    0    0 -0.66881933982E+01 -0.29036541119E+02  0.14692677550E+01  0.95166941175E+02  0.90369991113E+02 0.  0.
         13    1    3    3    0    0  0.13487582266E+02 -0.52252635370E+02  0.21902025831E+02  0.58240558703E+02  0.10566000000E+00 0. -1.
         22    1    1    0    0    0  0.66881933982E+01  0.29036541119E+02 -0.14692677550E+01  0.29833058825E+02  0.00000000000E+00 0. -1.
</event>
<event>
 5    1  0.1668518E-003  0.9118800E+02  0.7818608E-02  0.1130116E+00
         25   -1    0    0    0    0  0.00000000000E+00  0.00000000000E+00  0.99999998245E-14  0.12500000000E+03  0.12500000000E+03 0.  0.
        -13    1    3    3    0    0 -0.15786074237E+02  0.31200728198E+02 -0.42830950651E+02  0.55291835542E+02  0.10566000000E+00 0.  1.
         23    2    1    0    0    0 -0.24187596758E+02  0.19252314028E+01 -0.15549803532E+02  0.96180861519E+02  0.91761731565E+02 0.  0.
         13    1    3    3    0    0 -0.84015225208E+01 -0.29275496795E+02  0.27281147119E+02  0.40889025978E+02  0.10566000000E+00 0. -1.
         22    1    1    0    0    0  0.24187596758E+02 -0.19252314028E+01  0.15549803532E+02  0.28819138481E+02  0.00000000000E+00 0.  1.
</event>
<event>
 5    1  0.1668518E-003  0.9118800E+02  0.7818608E-02  0.1130116E+00
         25   -1    0    0    0    0  0.00000000000E+00  0.00000000000E+00  0.99999998245E-14  0.12500000000E+03  0.12500000000E+03 0.  0.
        -13    1    3    3    0    0 -0.15297013370E+02  0.15786751755E+02 -0.26845717912E+02  0.34697606304E+02  0.10566000000E+00 0. -1.
         23    2    1    0    0    0  0.11315760061E+02 -0.69084423258E+01  0.24686667795E+02  0.96978498114E+02  0.92841933029E+02 0.  0.
         13    1    3    3    0    0  0.26612773431E+02 -0.22695194080E+02  0.51532385707E+02  0.62280891810E+02  0.10566000000E+00 0.  1.
         22    1    1    0    0    0 -0.11315760061E+02  0.69084423258E+01 -0.24686667795E+02  0.28021501886E+02  0.00000000000E+00 0.  1.
</event>
<event>
 5    1  0.1668518E-003  0.9118800E+02  0.7818608E-02  0.1130116E+00
         25   -1    0    0    0    0  0.00000000000E+00  0.00000000000E+00  0.99999998245E-14  0.12500000000E+03  0.12500000000E+03 0.  0.
        -13    1    3    3    0    0 -0.11204339466E+02  0.14002319781E+02  0.29636166937E+02  0.34639799897E+02  0.10566000000E+00 0.  1.
         23    2    1    0    0    0 -0.12054940950E+01 -0.85934061622E+01 -0.27111481197E+02  0.96533664475E+02  0.92241076093E+02 0.  0.
         13    1    3    3    0    0  0.99988453710E+01 -0.22595725943E+02 -0.56747648135E+02  0.61893864579E+02  0.10566000000E+00 0. -1.
         22    1    1    0    0    0  0.12054940950E+01  0.85934061622E+01  0.27111481197E+02  0.28466335525E+02  0.00000000000E+00 0. -1.
</event>
<event>
 5    1  0.1668518E-003  0.9118800E+02  0.7818608E-02  0.1130116E+00
         25   -1    0    0    0    0  0.00000000000E+00  0.00000000000E+00  0.99999998245E-14  0.12500000000E+03  0.12500000000E+03 0.  0.
        -13    1    3    3    0    0  0.53674793608E+02 -0.25238141264E+02 -0.12930555561E+02  0.60705499541E+02  0.10566000000E+00 0.  1.
         23    2    1    0    0    0  0.18929469263E+02 -0.17921072890E+02 -0.12196749440E+02  0.96220660935E+02  0.91815931263E+02 0.  0.
         13    1    3    3    0    0 -0.34745324345E+02  0.73170683737E+01  0.73380612059E+00  0.35515161394E+02  0.10566000000E+00 0. -1.
         22    1    1    0    0    0 -0.18929469263E+02  0.17921072890E+02  0.12196749440E+02  0.28779339065E+02  0.00000000000E+00 0.  1.
</event>
<event>
 5    1  0.1668518E-003  0.9118800E+02  0.7818608E-02  0.1130116E+00
         25   -1    0    0    0    0  0.00000000000E+00  0.00000000000E+00  0.99999998245E-14  0.12500000000E+03  0.12500000000E+03 0.  0.
        -13    1    3    3    0    0 -0.12116885104E+02  0.17187244868E+01 -0.31718760260E+02  0.33997997514E+02  0.10566000000E+00 0.  1.
         23    2    1    0    0    0  0.12324756981E+02 -0.15641450511E+02  0.21882047756E+02  0.95413201884E+02  0.90709979997E+02 0.  0.
         13    1    3    3    0    0  0.24441642085E+02 -0.17360174998E+02  0.53600808016E+02  0.61415204370E+02  0.10566000000E+00 0. -1.
         22    1    1    0    0    0 -0.12324756981E+02  0.15641450511E+02 -0.21882047756E+02  0.29586798116E+02  0.00000000000E+00 0. -1.
</event>
<event>
 5    1  0.1668518E-003  0.9118800E+02  0.7818608E-02  0.1130116E+00
         25   -1    0    0    0    0  0.00000000000E+00  0.00000000000E+00  0.99999998245E-14  0.12500000000E+03  0.12500000000E+03 0.  0.
        -13    1    3    3    0    0 -0.27573013752E+02 -0.45209183900E+02 -0.21198886956E+02  0.57039857718E+02  0.10566000000E+00 0. -1.
         23    2    1    0    0    0 -0.22335612831E+02 -0.72216599014E+01 -0.17806056484E+02  0.95536673308E+02  0.90879966587E+02 0.  0.
         13    1    3    3    0    0  0.52374009208E+01  0.37987523998E+02  0.33928304720E+01  0.38496815590E+02  0.10566000000E+00 0.  1.
         22    1    1    0    0    0  0.22335612831E+02  0.72216599014E+01  0.17806056484E+02  0.29463326692E+02  0.00000000000E+00 0. -1.
</event>
<event>
 5    1  0.1668518E-003  0.9118800E+02  0.7818608E-02  0.1130116E+00
         25   -1    0    0    0    0  0.00000000000E+00  0.00000000000E+00  0.99999998245E-14  0.12500000000E+03  0.12500000000E+03 0.  0.
        -13    1    3    3    0    0 -0.26969579540E+02  0.23629187272E+02  0.41027223560E+01  0.36090721889E+02  0.10566000000E+00 0. -1.
         23    2    1    0    0    0  0.24434848381E+02 -0.93907919803E+01  0.88402597826E+01  0.97370324243E+02  0.93367987345E+02 0.  0.
         13    1    3    3    0    0  0.51404427921E+02 -0.33019979253E+02  0.47375374266E+01  0.61279602354E+02  0.10566000000E+00 0.  1.
         22    1    1    0    0    0 -0.24434848381E+02  0.93907919803E+01 -0.88402597826E+01  0.27629675757E+02  0.00000000000E+00 0.  1.
</event>
<event>
 5    1  0.1668518E-003  0.9118800E+02  0.7818608E-02  0.1130116E+00
         25   -1    0    0    0    0  0.00000000000E+00  0.00000000000E+00  0.99999998245E-14  0.12500000000E+03  0.12500000000E+03 0.  0.
        -13    1    3    3    0    0 -0.39465034360E+02 -0.22543621091E+02  0.18513624960E+02  0.49076157777E+02  0.10566000000E+00 0.  1.
         23    2    1    0    0    0 -0.24960717336E+02  0.17803577750E+02  0.57989277597E+01  0.93796917559E+02  0.88454674211E+02 0.  0.
         13    1    3    3    0    0  0.14504317023E+02  0.40347198841E+02 -0.12714697200E+02  0.44720759783E+02  0.10566000000E+00 0. -1.
         22    1    1    0    0    0  0.24960717336E+02 -0.17803577750E+02 -0.57989277597E+01  0.31203082441E+02  0.00000000000E+00 0. -1.
</event>
<event>
 5    1  0.1668518E-003  0.9118800E+02  0.7818608E-02  0.1130116E+00
         25   -1    0    0    0    0  0.00000000000E+00  0.00000000000E+00  0.99999998245E-14  0.12500000000E+03  0.12500000000E+03 0.  0.
        -13    1    3    3    0    0  0.26958212473E+02  0.20926201226E+02 -0.71524882326E+01  0.34868615823E+02  0.10566000000E+00 0. -1.
         23    2    1    0    0    0 -0.25075723536E+02 -0.10963997911E+02 -0.97353332155E+01  0.95952145108E+02  0.91449637927E+02 0.  0.
         13    1    3    3    0    0 -0.52033936009E+02 -0.31890199136E+02 -0.25828449829E+01  0.61083529284E+02  0.10566000000E+00 0.  1.
         22    1    1    0    0    0  0.25075723536E+02  0.10963997911E+02  0.97353332155E+01  0.29047854892E+02  0.00000000000E+00 0.  1.
</event>
<event>
 5    1  0.1668518E-003  0.9118800E+02  0.7818608E-02  0.1130116E+00
         25   -1    0    0    0    0  0.00000000000E+00  0.00000000000E+00  0.99999998245E-14  0.12500000000E+03  0.12500000000E+03 0.  0.
        -13    1    3    3    0    0  0.18360059341E+02  0.42145629129E+02 -0.17166647240E+02  0.49071893943E+02  0.10566000000E+00 0. -1.
         23    2    1    0    0    0  0.58439141913E+00  0.75143266489E+00 -0.29266413736E+02  0.95718109055E+02  0.91129178992E+02 0.  0.
         13    1    3    3    0    0 -0.17775667922E+02 -0.41394196464E+02 -0.12099766496E+02  0.46646215112E+02  0.10566000000E+00 0.  1.
         22    1    1    0    0    0 -0.58439141913E+00 -0.75143266489E+00  0.29266413736E+02  0.29281890945E+02  0.00000000000E+00 0.  1.
</event>
<event>
 4    1  0.1668518E-003  0.9118800E+02  0.7818608E-02  0.1130116E+00
         25   -1    0    0    0    0  0.00000000000E+00  0.00000000000E+00  0.99999998245E-14  0.12500000000E+03  0.12500000000E+03 0.  0.
        -13    1    1    0    0    0  0.20053892165E+01  0.33676499722E+02  0.39279966090E+02  0.51778906124E+02  0.10566000000E+00 0.  1.
         13    1    1    0    0    0  0.13430082777E+02  0.63199597365E+01  0.33771974221E+00  0.14847027754E+02  0.10566000000E+00 0. -1.
         22    1    1    0    0    0 -0.15435471994E+02 -0.39996459458E+02 -0.39617685832E+02  0.58374066121E+02  0.00000000000E+00 0.  1.
</event>
<event>
 5    1  0.1668518E-003  0.9118800E+02  0.7818608E-02  0.1130116E+00
         25   -1    0    0    0    0  0.00000000000E+00  0.00000000000E+00  0.99999998245E-14  0.12500000000E+03  0.12500000000E+03 0.  0.
        -13    1    3    3    0    0  0.15790855558E+02 -0.21186580165E+02  0.26055444735E+02  0.37109562955E+02  0.10566000000E+00 0.  1.
         23    2    1    0    0    0  0.15390062337E+02  0.19928904744E+02 -0.15388899063E+02  0.95490112210E+02  0.90815901980E+02 0.  0.
         13    1    3    3    0    0 -0.40079322139E+00  0.41115484908E+02 -0.41444343798E+02  0.58380549255E+02  0.10566000000E+00 0. -1.
         22    1    1    0    0    0 -0.15390062337E+02 -0.19928904744E+02  0.15388899063E+02  0.29509887790E+02  0.00000000000E+00 0. -1.
</event>
<event>
 5    1  0.1668518E-003  0.9118800E+02  0.7818608E-02  0.1130116E+00
         25   -1    0    0    0    0  0.00000000000E+00  0.00000000000E+00  0.99999998245E-14  0.12500000000E+03  0.12500000000E+03 0.  0.
        -13    1    3    3    0    0  0.40903950499E+02 -0.12796803674E+02 -0.23619931756E+02  0.48936731511E+02  0.10566000000E+00 0. -1.
         23    2    1    0    0    0  0.24904398213E+02 -0.67072425531E+01  0.17737694921E+02  0.93697572392E+02  0.88314172691E+02 0.  0.
         13    1    3    3    0    0 -0.15999552286E+02  0.60895611212E+01  0.41357626678E+02  0.44760840882E+02  0.10566000000E+00 0.  1.
         22    1    1    0    0    0 -0.24904398213E+02  0.67072425531E+01 -0.17737694921E+02  0.31302427608E+02  0.00000000000E+00 0.  1.
</event>
<event>
 5    1  0.1668518E-003  0.9118800E+02  0.7818608E-02  0.1130116E+00
         25   -1    0    0    0    0  0.00000000000E+00  0.00000000000E+00  0.99999998245E-14  0.12500000000E+03  0.12500000000E+03 0.  0.
        -13    1    3    3    0    0 -0.28602105425E+02 -0.55294501429E+02  0.40454991063E+01  0.62385411356E+02  0.10566000000E+00 0.  1.
         23    2    1    0    0    0 -0.12406741258E+02 -0.29795156581E+02  0.22491321168E+01  0.92646682093E+02  0.86813999581E+02 0.  0.
         13    1    3    3    0    0  0.16195364167E+02  0.25499344848E+02 -0.17963669896E+01  0.30261270736E+02  0.10566000000E+00 0. -1.
         22    1    1    0    0    0  0.12406741258E+02  0.29795156581E+02 -0.22491321168E+01  0.32353317907E+02  0.00000000000E+00 0.  1.
</event>
<event>
 5    1  0.1668518E-003  0.9118800E+02  0.7818608E-02  0.1130116E+00
         25   -1    0    0    0    0  0.00000000000E+00  0.00000000000E+00  0.99999998245E-14  0.12500000000E+03  0.12500000000E+03 0.  0.
        -13    1    3    3    0    0 -0.12458644572E+02 -0.54790356022E+02 -0.17298565418E+02  0.58791602012E+02  0.10566000000E+00 0.  1.
         23    2    1    0    0    0  0.27891284509E+01 -0.29101414233E+02  0.40176030015E+01  0.95490464562E+02  0.90816386960E+02 0.  0.
         13    1    3    3    0    0  0.15247773023E+02  0.25688941789E+02  0.21316168419E+02  0.36698862550E+02  0.10566000000E+00 0. -1.
         22    1    1    0    0    0 -0.27891284509E+01  0.29101414233E+02 -0.40176030015E+01  0.29509535438E+02  0.00000000000E+00 0.  1.
</event>
<event>
 5    1  0.1668518E-003  0.9118800E+02  0.7818608E-02  0.1130116E+00
         25   -1    0    0    0    0  0.00000000000E+00  0.00000000000E+00  0.99999998245E-14  0.12500000000E+03  0.12500000000E+03 0.  0.
        -13    1    3    3    0    0 -0.23598476582E+02 -0.32647161796E+02 -0.47456000240E+02  0.62247958947E+02  0.10566000000E+00 0. -1.
         23    2    1    0    0    0 -0.85379889568E+01 -0.15432575987E+02 -0.25809716029E+02  0.93739752104E+02  0.88373853747E+02 0.  0.
         13    1    3    3    0    0  0.15060487625E+02  0.17214585809E+02  0.21646284211E+02  0.31491793157E+02  0.10566000000E+00 0.  1.
         22    1    1    0    0    0  0.85379889568E+01  0.15432575987E+02  0.25809716029E+02  0.31260247896E+02  0.00000000000E+00 0. -1.
</event>
<event>
 5    1  0.1668518E-003  0.9118800E+02  0.7818608E-02  0.1130116E+00
         25   -1    0    0    0    0  0.00000000000E+00  0.00000000000E+00  0.99999998245E-14  0.12500000000E+03  0.12500000000E+03 0.  0.
        -13    1    3    3    0    0  0.42648698184E+02  0.15371820643E+02 -0.35612801687E+02  0.57649693275E+02  0.10566000000E+00 0. -1.
         23    2    1    0    0    0  0.14268328467E+02 -0.80480111464E+01 -0.23432225965E+02  0.96409356525E+02  0.92072466738E+02 0.  0.
         13    1    3    3    0    0 -0.28380369716E+02 -0.23419831790E+02  0.12180575722E+02  0.38759663250E+02  0.10566000000E+00 0.  1.
         22    1    1    0    0    0 -0.14268328467E+02  0.80480111464E+01  0.23432225965E+02  0.28590643475E+02  0.00000000000E+00 0. -1.
</event>
<event>
 5    1  0.1668518E-003  0.9118800E+02  0.7818608E-02  0.1130116E+00
         25   -1    0    0    0    0  0.00000000000E+00  0.00000000000E+00  0.99999998245E-14  0.12500000000E+03  0.12500000000E+03 0.  0.
        -13    1    3    3    0    0 -0.28428778361E+02  0.20387151327E+02 -0.18448192565E+02  0.39549694705E+02  0.10566000000E+00 0. -1.
         23    2    1    0    0    0  0.23136965936E+02 -0.23269900854E+01 -0.17487112123E+02  0.95904756987E+02  0.91384841449E+02 0.  0.
         13    1    3    3    0    0  0.51565744297E+02 -0.22714141413E+02  0.96108044117E+00  0.56355062281E+02  0.10566000000E+00 0.  1.
         22    1    1    0    0    0 -0.23136965936E+02  0.23269900854E+01  0.17487112123E+02  0.29095243013E+02  0.00000000000E+00 0.  1.
</event>
<event>
 5    1  0.1668518E-003  0.9118800E+02  0.7818608E-02  0.1130116E+00
         25   -1    0    0    0    0  0.00000000000E+00  0.00000000000E+00  0.99999998245E-14  0.12500000000E+03  0.12500000000E+03 0.  0.
        -13    1    3    3    0    0  0.32748472448E+02  0.16086141460E+02 -0.79209706002E+01  0.37336032650E+02  0.10566000000E+00 0.  1.
         23    2    1    0    0    0 -0.23266080660E+02  0.10560302180E+02  0.11637676225E+02  0.96923924787E+02  0.92768427802E+02 0.  0.
         13    1    3    3    0    0 -0.56014553108E+02 -0.55258392798E+01  0.19558646826E+02  0.59587892137E+02  0.10566000000E+00 0. -1.
         22    1    1    0    0    0  0.23266080660E+02 -0.10560302180E+02 -0.11637676225E+02  0.28076075213E+02  0.00000000000E+00 0. -1.
</event>
<event>
 5    1  0.1668518E-003  0.9118800E+02  0.7818608E-02  0.1130116E+00
         25   -1    0    0    0    0  0.00000000000E+00  0.00000000000E+00  0.99999998245E-14  0.12500000000E+03  0.12500000000E+03 0.  0.
        -13    1    3    3    0    0  0.45432468584E+01 -0.10936755752E+02 -0.37417445591E+02  0.39247039595E+02  0.10566000000E+00 0. -1.
         23    2    1    0    0    0 -0.23968410580E+02  0.14075601867E+02  0.56510755362E+01  0.96635551682E+02  0.92379044813E+02 0.  0.
         13    1    3    3    0    0 -0.28511657438E+02  0.25012357619E+02  0.43068521127E+02  0.57388512088E+02  0.10566000000E+00 0.  1.
         22    1    1    0    0    0  0.23968410580E+02 -0.14075601867E+02 -0.56510755362E+01  0.28364448318E+02  0.00000000000E+00 0.  1.
</event>
<event>
 5    1  0.1668518E-003  0.9118800E+02  0.7818608E-02  0.1130116E+00
         25   -1    0    0    0    0  0.00000000000E+00  0.00000000000E+00  0.99999998245E-14  0.12500000000E+03  0.12500000000E+03 0.  0.
        -13    1    3    3    0    0 -0.20148244826E+02 -0.18713089169E+02 -0.46433249490E+02  0.53964704187E+02  0.10566000000E+00 0.  1.
         23    2    1    0    0    0 -0.17645259543E+02 -0.22359946106E+02 -0.44615282091E+01  0.96168981839E+02  0.91745547357E+02 0.  0.
         13    1    3    3    0    0  0.25029852828E+01 -0.36468569375E+01  0.41971721280E+02  0.42204277652E+02  0.10566000000E+00 0. -1.
         22    1    1    0    0    0  0.17645259543E+02  0.22359946106E+02  0.44615282091E+01  0.28831018161E+02  0.00000000000E+00 0.  1.
</event>
<event>
 5    1  0.1668518E-003  0.9118800E+02  0.7818608E-02  0.1130116E+00
         25   -1    0    0    0    0  0.00000000000E+00  0.00000000000E+00  0.99999998245E-14  0.12500000000E+03  0.12500000000E+03 0.  0.
        -13    1    3    3    0    0  0.28829538398E+02 -0.24581199818E+02  0.34423730233E+02  0.51189667276E+02  0.10566000000E+00 0.  1.
         23    2    1    0    0    0 -0.69472101660E+01 -0.53363607927E-01  0.29322129540E+02  0.94866068004E+02  0.89952859883E+02 0.  0.
         13    1    3    3    0    0 -0.35776748563E+02  0.24527836210E+02 -0.51016006926E+01  0.43676400728E+02  0.10566000000E+00 0. -1.
         22    1    1    0    0    0  0.69472101660E+01  0.53363607927E-01 -0.29322129540E+02  0.30133931996E+02  0.00000000000E+00 0.  1.
</event>
<event>
 5    1  0.1668518E-003  0.9118800E+02  0.7818608E-02  0.1130116E+00
         25   -1    0    0    0    0  0.00000000000E+00  0.00000000000E+00  0.99999998245E-14  0.12500000000E+03  0.12500000000E+03 0.  0.
        -13    1    3    3    0    0 -0.58841192186E+01  0.44559735380E+02 -0.27060013452E+02  0.52463781490E+02  0.10566000000E+00 0.  1.
         23    2    1    0    0    0 -0.26771192339E+02  0.13842268590E+02 -0.12893469888E+02  0.92219720795E+02  0.86197042866E+02 0.  0.
         13    1    3    3    0    0 -0.20887073120E+02 -0.30717466790E+02  0.14166543563E+02  0.39755939306E+02  0.10566000000E+00 0. -1.
         22    1    1    0    0    0  0.26771192339E+02 -0.13842268590E+02  0.12893469888E+02  0.32780279205E+02  0.00000000000E+00 0.  1.
</event>
<event>
 5    1  0.1668518E-003  0.9118800E+02  0.7818608E-02  0.1130116E+00
         25   -1    0    0    0    0  0.00000000000E+00  0.00000000000E+00  0.99999998245E-14  0.12500000000E+03  0.12500000000E+03 0.  0.
        -13    1    3    3    0    0  0.21754500804E+02 -0.22792536194E+02 -0.53696176417E+02  0.62257919474E+02  0.10566000000E+00 0.  1.
         23    2    1    0    0    0  0.73186083601E+01 -0.13255268339E+02 -0.24255209461E+02  0.96406655441E+02  0.92068799603E+02 0.  0.
         13    1    3    3    0    0 -0.14435892444E+02  0.95372678550E+01  0.29440966956E+02  0.34148735967E+02  0.10566000000E+00 0. -1.
         22    1    1    0    0    0 -0.73186083601E+01  0.13255268339E+02  0.24255209461E+02  0.28593344559E+02  0.00000000000E+00 0.  1.
</event>
<event>
 5    1  0.1668518E-003  0.9118800E+02  0.7818608E-02  0.1130116E+00
         25   -1    0    0    0    0  0.00000000000E+00  0.00000000000E+00  0.99999998245E-14  0.12500000000E+03  0.12500000000E+03 0.  0.
        -13    1    3    3    0    0 -0.31281925602E+02 -0.18413620270E+02  0.48820368599E+02  0.60836336469E+02  0.10566000000E+00 0.  1.
         23    2    1    0    0    0 -0.13181853527E+02 -0.17178498082E+02  0.35776241081E+02  0.83181326125E+02  0.71905017427E+02 0.  0.
         13    1    3    3    0    0  0.18100072076E+02  0.12351221875E+01 -0.13044127518E+02  0.22344989655E+02  0.10566000000E+00 0. -1.
         22    1    1    0    0    0  0.13181853527E+02  0.17178498082E+02 -0.35776241081E+02  0.41818673875E+02  0.00000000000E+00 0.  1.
</event>
<event>
 5    1  0.1668518E-003  0.9118800E+02  0.7818608E-02  0.1130116E+00
         25   -1    0    0    0    0  0.00000000000E+00  0.00000000000E+00  0.99999998245E-14  0.12500000000E+03  0.12500000000E+03 0.  0.
        -13    1    3    3    0    0 -0.39648639661E+02 -0.28558372920E+02 -0.11881926848E+02  0.50287042471E+02  0.10566000000E+00 0.  1.
         23    2    1    0    0    0  0.19309262713E+01 -0.27278537454E+02  0.81587030444E+01  0.96462103840E+02  0.92144050052E+02 0.  0.
         13    1    3    3    0    0  0.41579565932E+02  0.12798354670E+01  0.20040629892E+02  0.46175061369E+02  0.10566000000E+00 0. -1.
         22    1    1    0    0    0 -0.19309262713E+01  0.27278537454E+02 -0.81587030444E+01  0.28537896160E+02  0.00000000000E+00 0. -1.
</event>
<event>
 5    1  0.1668518E-003  0.9118800E+02  0.7818608E-02  0.1130116E+00
         25   -1    0    0    0    0  0.00000000000E+00  0.00000000000E+00  0.99999998245E-14  0.12500000000E+03  0.12500000000E+03 0.  0.
        -13    1    3    3    0    0  0.53413321623E+02  0.17541660001E+01 -0.21054751999E+02  0.57440175582E+02  0.10566000000E+00 0. -1.
         23    2    1    0    0    0  0.16994466546E+02  0.12715001606E+02 -0.20521920478E+02  0.95476579142E+02  0.90797273007E+02 0.  0.
         13    1    3    3    0    0 -0.36418855077E+02  0.10960835606E+02  0.53283152039E+00  0.38036403560E+02  0.10566000000E+00 0.  1.
         22    1    1    0    0    0 -0.16994466546E+02 -0.12715001606E+02  0.20521920478E+02  0.29523420858E+02  0.00000000000E+00 0. -1.
</event>
<event>
 5    1  0.1668518E-003  0.9118800E+02  0.7818608E-02  0.1130116E+00
         25   -1    0    0    0    0  0.00000000000E+00  0.00000000000E+00  0.99999998245E-14  0.12500000000E+03  0.12500000000E+03 0.  0.
        -13    1    3    3    0    0 -0.27247982035E+01  0.50827292553E+00 -0.44000293841E+02  0.44087638730E+02  0.10566000000E+00 0.  1.
         23    2    1    0    0    0 -0.16995910303E+02  0.22702619319E+02  0.14073652331E+01  0.96605448271E+02  0.92338302279E+02 0.  0.
         13    1    3    3    0    0 -0.14271112100E+02  0.22194346393E+02  0.45407659074E+02  0.52517809541E+02  0.10566000000E+00 0. -1.
         22    1    1    0    0    0  0.16995910303E+02 -0.22702619319E+02 -0.14073652331E+01  0.28394551729E+02  0.00000000000E+00 0.  1.
</event>
<event>
 5    1  0.1668518E-003  0.9118800E+02  0.7818608E-02  0.1130116E+00
         25   -1    0    0    0    0  0.00000000000E+00  0.00000000000E+00  0.99999998245E-14  0.12500000000E+03  0.12500000000E+03 0.  0.
        -13    1    3    3    0    0 -0.32757820847E+02 -0.14402034539E+01 -0.36516846089E+02  0.49077899557E+02  0.10566000000E+00 0.  1.
         23    2    1    0    0    0 -0.16330540873E+02 -0.24237372985E+02  0.76646576790E+00  0.95764331987E+02  0.91192559985E+02 0.  0.
         13    1    3    3    0    0  0.16427279973E+02 -0.22797169531E+02  0.37283311857E+02  0.46686432429E+02  0.10566000000E+00 0. -1.
         22    1    1    0    0    0  0.16330540873E+02  0.24237372985E+02 -0.76646576790E+00  0.29235668013E+02  0.00000000000E+00 0.  1.
</event>
<event>
 5    1  0.1668518E-003  0.9118800E+02  0.7818608E-02  0.1130116E+00
         25   -1    0    0    0    0  0.00000000000E+00  0.00000000000E+00  0.99999998245E-14  0.12500000000E+03  0.12500000000E+03 0.  0.
        -13    1    3    3    0    0  0.40842741627E+01 -0.31846950071E+02 -0.45479310793E+02  0.55671252892E+02  0.10566000000E+00 0.  1.
         23    2    1    0    0    0 -0.99409158075E+01 -0.26407250449E+02 -0.85978771287E+01  0.95502742932E+02  0.90833285381E+02 0.  0.
         13    1    3    3    0    0 -0.14025189970E+02  0.54396996216E+01  0.36881433665E+02  0.39831490041E+02  0.10566000000E+00 0. -1.
         22    1    1    0    0    0  0.99409158075E+01  0.26407250449E+02  0.85978771287E+01  0.29497257068E+02  0.00000000000E+00 0.  1.
</event>
<event>
 5    1  0.1668518E-003  0.9118800E+02  0.7818608E-02  0.1130116E+00
         25   -1    0    0    0    0  0.00000000000E+00  0.00000000000E+00  0.99999998245E-14  0.12500000000E+03  0.12500000000E+03 0.  0.
        -13    1    3    3    0    0 -0.43949393002E+01  0.21930587719E+02 -0.36193407275E+02  0.42546916026E+02  0.10566000000E+00 0. -1.
         23    2    1    0    0    0 -0.24337276083E+02  0.17673173504E+02  0.10212989358E+02  0.93236038967E+02  0.87658483570E+02 0.  0.
         13    1    3    3    0    0 -0.19942336783E+02 -0.42574142141E+01  0.46406396632E+02  0.50689122942E+02  0.10566000000E+00 0.  1.
         22    1    1    0    0    0  0.24337276083E+02 -0.17673173504E+02 -0.10212989358E+02  0.31763961033E+02  0.00000000000E+00 0.  1.
</event>
<event>
 5    1  0.1668518E-003  0.9118800E+02  0.7818608E-02  0.1130116E+00
         25   -1    0    0    0    0  0.00000000000E+00  0.00000000000E+00  0.99999998245E-14  0.12500000000E+03  0.12500000000E+03 0.  0.
        -13    1    3    3    0    0 -0.17612143165E+02 -0.50368822182E+02 -0.23491974582E+02  0.58301714114E+02  0.10566000000E+00 0.  1.
         23    2    1    0    0    0  0.54213240176E+01 -0.20718885187E+02 -0.19459563867E+02  0.96063214011E+02  0.91601329154E+02 0.  0.
         13    1    3    3    0    0  0.23033467183E+02  0.29649936995E+02  0.40324107148E+01  0.37761499897E+02  0.10566000000E+00 0. -1.
         22    1    1    0    0    0 -0.54213240176E+01  0.20718885187E+02  0.19459563867E+02  0.28936785989E+02  0.00000000000E+00 0.  1.
</event>
<event>
 5    1  0.1668518E-003  0.9118800E+02  0.7818608E-02  0.1130116E+00
         25   -1    0    0    0    0  0.00000000000E+00  0.00000000000E+00  0.99999998245E-14  0.12500000000E+03  0.12500000000E+03 0.  0.
        -13    1    3    3    0    0 -0.33055277749E+02 -0.31149680321E+02  0.31321026262E+00  0.45420955910E+02  0.10566000000E+00 0.  1.
         23    2    1    0    0    0  0.12923118650E+02 -0.17021053540E+02 -0.18168487878E+02  0.96949737773E+02  0.92803202764E+02 0.  0.
         13    1    3    3    0    0  0.45978396398E+02  0.14128626781E+02 -0.18481698141E+02  0.51528781863E+02  0.10566000000E+00 0. -1.
         22    1    1    0    0    0 -0.12923118650E+02  0.17021053540E+02  0.18168487878E+02  0.28050262227E+02  0.00000000000E+00 0.  1.
</event>
<event>
 5    1  0.1668518E-003  0.9118800E+02  0.7818608E-02  0.1130116E+00
         25   -1    0    0    0    0  0.00000000000E+00  0.00000000000E+00  0.99999998245E-14  0.12500000000E+03  0.12500000000E+03 0.  0.
        -13    1    3    3    0    0  0.74520588636E+01  0.51394178419E+02 -0.21502882525E+02  0.56207471723E+02  0.10566000000E+00 0. -1.
         23    2    1    0    0    0 -0.10452593415E+02  0.17330408256E+02 -0.22543845373E+02  0.94704377814E+02  0.89727891169E+02 0.  0.
         13    1    3    3    0    0 -0.17904652279E+02 -0.34063770162E+02 -0.10409628479E+01  0.38496906091E+02  0.10566000000E+00 0.  1.
         22    1    1    0    0    0  0.10452593415E+02 -0.17330408256E+02  0.22543845373E+02  0.30295622186E+02  0.00000000000E+00 0. -1.
</event>
<event>
 5    1  0.1668518E-003  0.9118800E+02  0.7818608E-02  0.1130116E+00
         25   -1    0    0    0    0  0.00000000000E+00  0.00000000000E+00  0.99999998245E-14  0.12500000000E+03  0.12500000000E+03 0.  0.
        -13    1    3    3    0    0 -0.34932445519E+02 -0.43189910245E+02 -0.11171303438E+02  0.56660861990E+02  0.10566000000E+00 0. -1.
         23    2    1    0    0    0 -0.42537738259E+01 -0.27907926815E+02  0.76347134845E+01  0.95755584792E+02  0.91180569190E+02 0.  0.
         13    1    3    3    0    0  0.30678671693E+02  0.15281983430E+02  0.18806016922E+02  0.39094722801E+02  0.10566000000E+00 0.  1.
         22    1    1    0    0    0  0.42537738259E+01  0.27907926815E+02 -0.76347134845E+01  0.29244415208E+02  0.00000000000E+00 0. -1.
</event>
<event>
 5    1  0.1668518E-003  0.9118800E+02  0.7818608E-02  0.1130116E+00
         25   -1    0    0    0    0  0.00000000000E+00  0.00000000000E+00  0.99999998245E-14  0.12500000000E+03  0.12500000000E+03 0.  0.
        -13    1    3    3    0    0 -0.34457201486E+01 -0.35419800958E+02 -0.11924497346E+02  0.37531854314E+02  0.10566000000E+00 0.  1.
         23    2    1    0    0    0 -0.19287008433E+02  0.14415284651E+02  0.15284760998E+02  0.96479603007E+02  0.92167785867E+02 0.  0.
         13    1    3    3    0    0 -0.15841288284E+02  0.49835085610E+02  0.27209258344E+02  0.58947748693E+02  0.10566000000E+00 0. -1.
         22    1    1    0    0    0  0.19287008433E+02 -0.14415284651E+02 -0.15284760998E+02  0.28520396993E+02  0.00000000000E+00 0. -1.
</event>
<event>
 5    1  0.1668518E-003  0.9118800E+02  0.7818608E-02  0.1130116E+00
         25   -1    0    0    0    0  0.00000000000E+00  0.00000000000E+00  0.99999998245E-14  0.12500000000E+03  0.12500000000E+03 0.  0.
        -13    1    3    3    0    0  0.10420171127E+02  0.14484076200E+01  0.30773265162E+02  0.32522036587E+02  0.10566000000E+00 0. -1.
         23    2    1    0    0    0 -0.44933643420E+01 -0.53395639849E+00 -0.29760510237E+02  0.94897451900E+02  0.89996460902E+02 0.  0.
         13    1    3    3    0    0 -0.14913535469E+02 -0.19823640185E+01 -0.60533775400E+02  0.62375415313E+02  0.10566000000E+00 0.  1.
         22    1    1    0    0    0  0.44933643420E+01  0.53395639849E+00  0.29760510237E+02  0.30102548100E+02  0.00000000000E+00 0.  1.
</event>
<event>
 5    1  0.1668518E-003  0.9118800E+02  0.7818608E-02  0.1130116E+00
         25   -1    0    0    0    0  0.00000000000E+00  0.00000000000E+00  0.99999998245E-14  0.12500000000E+03  0.12500000000E+03 0.  0.
        -13    1    3    3    0    0  0.10057697186E+02 -0.21338590373E+02  0.47447579924E+02  0.52988458333E+02  0.10566000000E+00 0. -1.
         23    2    1    0    0    0 -0.76287748521E+01 -0.25120448622E+02  0.62038620444E+01  0.98023657606E+02  0.94238603563E+02 0.  0.
         13    1    3    3    0    0 -0.17686472038E+02 -0.37818582492E+01 -0.41243717880E+02  0.45035199273E+02  0.10566000000E+00 0.  1.
         22    1    1    0    0    0  0.76287748521E+01  0.25120448622E+02 -0.62038620444E+01  0.26976342394E+02  0.00000000000E+00 0. -1.
</event>
<event>
 5    1  0.1668518E-003  0.9118800E+02  0.7818608E-02  0.1130116E+00
         25   -1    0    0    0    0  0.00000000000E+00  0.00000000000E+00  0.99999998245E-14  0.12500000000E+03  0.12500000000E+03 0.  0.
        -13    1    3    3    0    0 -0.19150481824E+02 -0.51019511646E+02 -0.12154316144E+02  0.55834309234E+02  0.10566000000E+00 0. -1.
         23    2    1    0    0    0 -0.20682780025E+02 -0.11414113304E+02 -0.17184730319E+02  0.95787428593E+02  0.91224213607E+02 0.  0.
         13    1    3    3    0    0 -0.15322982017E+01  0.39605398343E+02 -0.50304141755E+01  0.39953119359E+02  0.10566000000E+00 0.  1.
         22    1    1    0    0    0  0.20682780025E+02  0.11414113304E+02  0.17184730319E+02  0.29212571407E+02  0.00000000000E+00 0. -1.
</event>
<event>
 5    1  0.1668518E-003  0.9118800E+02  0.7818608E-02  0.1130116E+00
         25   -1    0    0    0    0  0.00000000000E+00  0.00000000000E+00  0.99999998245E-14  0.12500000000E+03  0.12500000000E+03 0.  0.
        -13    1    3    3    0    0  0.22482115983E+02 -0.93510167856E+01 -0.43101607593E+02  0.49504007869E+02  0.10566000000E+00 0. -1.
         23    2    1    0    0    0  0.18900508641E+02  0.21222301262E+02 -0.95920433015E+01  0.95006290786E+02  0.90147505215E+02 0.  0.
         13    1    3    3    0    0 -0.35816073421E+01  0.30573318047E+02  0.33509564292E+02  0.45502282917E+02  0.10566000000E+00 0.  1.
         22    1    1    0    0    0 -0.18900508641E+02 -0.21222301262E+02  0.95920433015E+01  0.29993709214E+02  0.00000000000E+00 0. -1.
</event>
<event>
 5    1  0.1668518E-003  0.9118800E+02  0.7818608E-02  0.1130116E+00
         25   -1    0    0    0    0  0.00000000000E+00  0.00000000000E+00  0.99999998245E-14  0.12500000000E+03  0.12500000000E+03 0.  0.
        -13    1    3    3    0    0 -0.18584100088E+02  0.83330202416E+01 -0.32927919691E+02  0.38717787406E+02  0.10566000000E+00 0. -1.
         23    2    1    0    0    0  0.17064472971E+02  0.21882469606E+02  0.94088895159E+01  0.95698704538E+02  0.91102558331E+02 0.  0.
         13    1    3    3    0    0  0.35648573059E+02  0.13549449364E+02  0.42336809207E+02  0.56980917131E+02  0.10566000000E+00 0.  1.
         22    1    1    0    0    0 -0.17064472971E+02 -0.21882469606E+02 -0.94088895159E+01  0.29301295462E+02  0.00000000000E+00 0.  1.
</event>
<event>
 5    1  0.1668518E-003  0.9118800E+02  0.7818608E-02  0.1130116E+00
         25   -1    0    0    0    0  0.00000000000E+00  0.00000000000E+00  0.99999998245E-14  0.12500000000E+03  0.12500000000E+03 0.  0.
        -13    1    3    3    0    0 -0.27453210948E+02  0.29439619572E+02 -0.16195616197E+02  0.43389850656E+02  0.10566000000E+00 0.  1.
         23    2    1    0    0    0  0.16559002956E+02  0.33537524471E+01 -0.24518097293E+02  0.95224417231E+02  0.90449457199E+02 0.  0.
         13    1    3    3    0    0  0.44012213903E+02 -0.26085867125E+02 -0.83224810968E+01  0.51834566575E+02  0.10566000000E+00 0. -1.
         22    1    1    0    0    0 -0.16559002956E+02 -0.33537524471E+01  0.24518097293E+02  0.29775582769E+02  0.00000000000E+00 0. -1.
</event>
<event>
 5    1  0.1668518E-003  0.9118800E+02  0.7818608E-02  0.1130116E+00
         25   -1    0    0    0    0  0.00000000000E+00  0.00000000000E+00  0.99999998245E-14  0.12500000000E+03  0.12500000000E+03 0.  0.
        -13    1    3    3    0    0  0.72481511443E+01 -0.27025760543E+02 -0.24606513810E+02  0.37261496399E+02  0.10566000000E+00 0.  1.
         23    2    1    0    0    0  0.17177990316E+02  0.24479529620E+02 -0.25201577954E+00  0.95093575378E+02  0.90268454316E+02 0.  0.
         13    1    3    3    0    0  0.99298391718E+01  0.51505290163E+02  0.24354498031E+02  0.57832078980E+02  0.10566000000E+00 0. -1.
         22    1    1    0    0    0 -0.17177990316E+02 -0.24479529620E+02  0.25201577954E+00  0.29906424622E+02  0.00000000000E+00 0. -1.
</event>
<event>
 5    1  0.1668518E-003  0.9118800E+02  0.7818608E-02  0.1130116E+00
         25   -1    0    0    0    0  0.00000000000E+00  0.00000000000E+00  0.99999998245E-14  0.12500000000E+03  0.12500000000E+03 0.  0.
        -13    1    3    3    0    0 -0.14127506308E+02 -0.21719576026E+02  0.28431948161E+01  0.26065711923E+02  0.10566000000E+00 0. -1.
         23    2    1    0    0    0  0.35086350204E+01  0.36224648996E+02 -0.83503911745E+01  0.87660145322E+02  0.79309749278E+02 0.  0.
         13    1    3    3    0    0  0.17636141329E+02  0.57944225022E+02 -0.11193585991E+02  0.61594433399E+02  0.10566000000E+00 0.  1.
         22    1    1    0    0    0 -0.35086350204E+01 -0.36224648996E+02  0.83503911745E+01  0.37339854678E+02  0.00000000000E+00 0.  1.
</event>
<event>
 5    1  0.1668518E-003  0.9118800E+02  0.7818608E-02  0.1130116E+00
         25   -1    0    0    0    0  0.00000000000E+00  0.00000000000E+00  0.99999998245E-14  0.12500000000E+03  0.12500000000E+03 0.  0.
        -13    1    3    3    0    0 -0.44490245564E+01 -0.34027576964E+02  0.18522218409E+02  0.38996840287E+02  0.10566000000E+00 0. -1.
         23    2    1    0    0    0 -0.18894530197E+02  0.20213832354E+02  0.88009078072E+01  0.95964534306E+02  0.91466570815E+02 0.  0.
         13    1    3    3    0    0 -0.14445505641E+02  0.54241409318E+02 -0.97213106017E+01  0.56967694019E+02  0.10566000000E+00 0.  1.
         22    1    1    0    0    0  0.18894530197E+02 -0.20213832354E+02 -0.88009078072E+01  0.29035465694E+02  0.00000000000E+00 0.  1.
</event>
<event>
 5    1  0.1668518E-003  0.9118800E+02  0.7818608E-02  0.1130116E+00
         25   -1    0    0    0    0  0.00000000000E+00  0.00000000000E+00  0.99999998245E-14  0.12500000000E+03  0.12500000000E+03 0.  0.
        -13    1    3    3    0    0  0.43317727871E+02  0.32640457677E+02  0.22788040023E+02  0.58831377320E+02  0.10566000000E+00 0.  1.
         23    2    1    0    0    0  0.94502749359E+01  0.13416814294E+02  0.21704630768E+02  0.97789531446E+02  0.93927540484E+02 0.  0.
         13    1    3    3    0    0 -0.33867452935E+02 -0.19223643382E+02 -0.10834092553E+01  0.38958154126E+02  0.10566000000E+00 0. -1.
         22    1    1    0    0    0 -0.94502749359E+01 -0.13416814294E+02 -0.21704630768E+02  0.27210468554E+02  0.00000000000E+00 0.  1.
</event>
<event>
 5    1  0.1668518E-003  0.9118800E+02  0.7818608E-02  0.1130116E+00
         25   -1    0    0    0    0  0.00000000000E+00  0.00000000000E+00  0.99999998245E-14  0.12500000000E+03  0.12500000000E+03 0.  0.
        -13    1    3    3    0    0  0.15412329723E+02 -0.13001126766E+02 -0.30168040833E+02  0.36286237838E+02  0.10566000000E+00 0.  1.
         23    2    1    0    0    0 -0.28413738475E+02  0.72782964549E+01  0.39368038167E+01  0.95405869540E+02  0.90699875330E+02 0.  0.
         13    1    3    3    0    0 -0.43826068198E+02  0.20279423221E+02  0.34104844650E+02  0.59119631702E+02  0.10566000000E+00 0. -1.
         22    1    1    0    0    0  0.28413738475E+02 -0.72782964549E+01 -0.39368038167E+01  0.29594130460E+02  0.00000000000E+00 0. -1.
</event>
<event>
 5    1  0.1668518E-003  0.9118800E+02  0.7818608E-02  0.1130116E+00
         25   -1    0    0    0    0  0.00000000000E+00  0.00000000000E+00  0.99999998245E-14  0.12500000000E+03  0.12500000000E+03 0.  0.
        -13    1    3    3    0    0 -0.30551304150E+02 -0.19647731302E+02  0.13552273653E+02  0.38769715188E+02  0.10566000000E+00 0.  1.
         23    2    1    0    0    0  0.14531984086E+02  0.14276804201E+02  0.21072665013E+02  0.95690225002E+02  0.91090922987E+02 0.  0.
         13    1    3    3    0    0  0.45083288236E+02  0.33924535503E+02  0.75203913594E+01  0.56920509814E+02  0.10566000000E+00 0. -1.
         22    1    1    0    0    0 -0.14531984086E+02 -0.14276804201E+02 -0.21072665013E+02  0.29309774998E+02  0.00000000000E+00 0. -1.
</event>
<event>
 5    1  0.1668518E-003  0.9118800E+02  0.7818608E-02  0.1130116E+00
         25   -1    0    0    0    0  0.00000000000E+00  0.00000000000E+00  0.99999998245E-14  0.12500000000E+03  0.12500000000E+03 0.  0.
        -13    1    3    3    0    0 -0.81568131665E+01 -0.61272220080E+02 -0.41251433814E+01  0.61950355338E+02  0.10566000000E+00 0.  1.
         23    2    1    0    0    0 -0.95944602576E+01 -0.28042260404E+02 -0.26345759264E+01  0.95244949563E+02  0.90477828172E+02 0.  0.
         13    1    3    3    0    0 -0.14376470911E+01  0.33229959676E+02  0.14905674550E+01  0.33294594225E+02  0.10566000000E+00 0. -1.
         22    1    1    0    0    0  0.95944602576E+01  0.28042260404E+02  0.26345759264E+01  0.29755050437E+02  0.00000000000E+00 0.  1.
</event>
<event>
 5    1  0.1668518E-003  0.9118800E+02  0.7818608E-02  0.1130116E+00
         25   -1    0    0    0    0  0.00000000000E+00  0.00000000000E+00  0.99999998245E-14  0.12500000000E+03  0.12500000000E+03 0.  0.
        -13    1    3    3    0    0  0.29197654438E+01 -0.42903315792E+02 -0.36338453022E+02  0.56300211973E+02  0.10566000000E+00 0.  1.
         23    2    1    0    0    0 -0.18003216629E+02 -0.20672966381E+02 -0.13393348118E+02  0.94489852150E+02  0.89428535924E+02 0.  0.
         13    1    3    3    0    0 -0.20922982073E+02  0.22230349411E+02  0.22945104904E+02  0.38189640177E+02  0.10566000000E+00 0. -1.
         22    1    1    0    0    0  0.18003216629E+02  0.20672966381E+02  0.13393348118E+02  0.30510147850E+02  0.00000000000E+00 0. -1.
</event>
<event>
 5    1  0.1668518E-003  0.9118800E+02  0.7818608E-02  0.1130116E+00
         25   -1    0    0    0    0  0.00000000000E+00  0.00000000000E+00  0.99999998245E-14  0.12500000000E+03  0.12500000000E+03 0.  0.
        -13    1    3    3    0    0 -0.16987816057E+02  0.16090943351E+02 -0.46790416498E+02  0.52314993954E+02  0.10566000000E+00 0.  1.
         23    2    1    0    0    0 -0.19225527033E+02 -0.13526093928E+02 -0.31425197194E+02  0.85755648492E+02  0.76249013915E+02 0.  0.
         13    1    3    3    0    0 -0.22377109756E+01 -0.29617037279E+02  0.15365219304E+02  0.33440654538E+02  0.10566000000E+00 0. -1.
         22    1    1    0    0    0  0.19225527033E+02  0.13526093928E+02  0.31425197194E+02  0.39244351508E+02  0.00000000000E+00 0.  1.
</event>
<event>
 5    1  0.1668518E-003  0.9118800E+02  0.7818608E-02  0.1130116E+00
         25   -1    0    0    0    0  0.00000000000E+00  0.00000000000E+00  0.99999998245E-14  0.12500000000E+03  0.12500000000E+03 0.  0.
        -13    1    3    3    0    0 -0.13835178491E+02  0.45426031995E+02 -0.15577588504E+02  0.49976084023E+02  0.10566000000E+00 0.  1.
         23    2    1    0    0    0 -0.24281196759E+02  0.12378846869E+02  0.12912067849E+02  0.94841520894E+02  0.89918742337E+02 0.  0.
         13    1    3    3    0    0 -0.10446018268E+02 -0.33047185126E+02  0.28489656353E+02  0.44865436870E+02  0.10566000000E+00 0. -1.
         22    1    1    0    0    0  0.24281196759E+02 -0.12378846869E+02 -0.12912067849E+02  0.30158479106E+02  0.00000000000E+00 0.  1.
</event>
<event>
 5    1  0.1668518E-003  0.9118800E+02  0.7818608E-02  0.1130116E+00
         25   -1    0    0    0    0  0.00000000000E+00  0.00000000000E+00  0.99999998245E-14  0.12500000000E+03  0.12500000000E+03 0.  0.
        -13    1    3    3    0    0 -0.89887923655E+01 -0.46419520342E+02  0.36214287627E+02  0.59557166229E+02  0.10566000000E+00 0. -1.
         23    2    1    0    0    0  0.81851241933E+01 -0.25405115283E+02  0.12812418460E+02  0.95393004080E+02  0.90682142785E+02 0.  0.
         13    1    3    3    0    0  0.17173916559E+02  0.21014405059E+02 -0.23401869167E+02  0.35835837851E+02  0.10566000000E+00 0.  1.
         22    1    1    0    0    0 -0.81851241933E+01  0.25405115283E+02 -0.12812418460E+02  0.29606995920E+02  0.00000000000E+00 0. -1.
</event>
<event>
 5    1  0.1668518E-003  0.9118800E+02  0.7818608E-02  0.1130116E+00
         25   -1    0    0    0    0  0.00000000000E+00  0.00000000000E+00  0.99999998245E-14  0.12500000000E+03  0.12500000000E+03 0.  0.
        -13    1    3    3    0    0 -0.77462155768E+01  0.54554751616E+02  0.14208860500E+01  0.55120367024E+02  0.10566000000E+00 0.  1.
         23    2    1    0    0    0  0.17708104328E+02  0.23315265451E+02 -0.25452402139E+01  0.95611961452E+02  0.90983462030E+02 0.  0.
         13    1    3    3    0    0  0.25454319905E+02 -0.31239486165E+02 -0.39661262639E+01  0.40491594427E+02  0.10566000000E+00 0. -1.
         22    1    1    0    0    0 -0.17708104328E+02 -0.23315265451E+02  0.25452402139E+01  0.29388038548E+02  0.00000000000E+00 0.  1.
</event>
<event>
 5    1  0.1668518E-003  0.9118800E+02  0.7818608E-02  0.1130116E+00
         25   -1    0    0    0    0  0.00000000000E+00  0.00000000000E+00  0.99999998245E-14  0.12500000000E+03  0.12500000000E+03 0.  0.
        -13    1    3    3    0    0 -0.10539507146E+02 -0.53383836652E+01 -0.32748953598E+02  0.34815006489E+02  0.10566000000E+00 0. -1.
         23    2    1    0    0    0 -0.11897246554E+02  0.94296767602E+01  0.25719115575E+02  0.95134699309E+02  0.90325383073E+02 0.  0.
         13    1    3    3    0    0 -0.13577394082E+01  0.14768060425E+02  0.58468069173E+02  0.60319692820E+02  0.10566000000E+00 0.  1.
         22    1    1    0    0    0  0.11897246554E+02 -0.94296767602E+01 -0.25719115575E+02  0.29865300691E+02  0.00000000000E+00 0.  1.
</event>
<event>
 5    1  0.1668518E-003  0.9118800E+02  0.7818608E-02  0.1130116E+00
         25   -1    0    0    0    0  0.00000000000E+00  0.00000000000E+00  0.99999998245E-14  0.12500000000E+03  0.12500000000E+03 0.  0.
        -13    1    3    3    0    0  0.25384182889E+02  0.46291930601E+02  0.25480721768E+02  0.58622332993E+02  0.10566000000E+00 0.  1.
         23    2    1    0    0    0  0.66321275021E+01  0.30512904656E+02  0.28216268332E+00  0.93773375438E+02  0.88421399330E+02 0.  0.
         13    1    3    3    0    0 -0.18752055386E+02 -0.15779025945E+02 -0.25198559085E+02  0.35151042445E+02  0.10566000000E+00 0. -1.
         22    1    1    0    0    0 -0.66321275021E+01 -0.30512904656E+02 -0.28216268332E+00  0.31226624562E+02  0.00000000000E+00 0.  1.
</event>
<event>
 5    1  0.1668518E-003  0.9118800E+02  0.7818608E-02  0.1130116E+00
         25   -1    0    0    0    0  0.00000000000E+00  0.00000000000E+00  0.99999998245E-14  0.12500000000E+03  0.12500000000E+03 0.  0.
        -13    1    3    3    0    0 -0.14835132048E+02 -0.38667438187E+02  0.17254261795E+02  0.44866163564E+02  0.10566000000E+00 0. -1.
         23    2    1    0    0    0 -0.86182162777E+01 -0.85172308503E+01 -0.25042732775E+02  0.97179947196E+02  0.93112763889E+02 0.  0.
         13    1    3    3    0    0  0.62169157706E+01  0.30150207336E+02 -0.42296994571E+02  0.52313783632E+02  0.10566000000E+00 0.  1.
         22    1    1    0    0    0  0.86182162777E+01  0.85172308503E+01  0.25042732775E+02  0.27820052804E+02  0.00000000000E+00 0. -1.
</event>
<event>
 5    1  0.1668518E-003  0.9118800E+02  0.7818608E-02  0.1130116E+00
         25   -1    0    0    0    0  0.00000000000E+00  0.00000000000E+00  0.99999998245E-14  0.12500000000E+03  0.12500000000E+03 0.  0.
        -13    1    3    3    0    0 -0.67813061034E+00  0.22696069780E+02 -0.34068945845E+02  0.40942345800E+02  0.10566000000E+00 0. -1.
         23    2    1    0    0    0 -0.94249998687E+01  0.18064681637E+02  0.20319575478E+02  0.96224168252E+02  0.91820706069E+02 0.  0.
         13    1    3    3    0    0 -0.87468692583E+01 -0.46313881430E+01  0.54388521323E+02  0.55281822452E+02  0.10566000000E+00 0.  1.
         22    1    1    0    0    0  0.94249998687E+01 -0.18064681637E+02 -0.20319575478E+02  0.28775831748E+02  0.00000000000E+00 0. -1.
</event>
<event>
 5    1  0.1668518E-003  0.9118800E+02  0.7818608E-02  0.1130116E+00
         25   -1    0    0    0    0  0.00000000000E+00  0.00000000000E+00  0.99999998245E-14  0.12500000000E+03  0.12500000000E+03 0.  0.
        -13    1    3    3    0    0  0.84327139693E+01 -0.22109651581E+02  0.23801410315E+02  0.33562861245E+02  0.10566000000E+00 0.  1.
         23    2    1    0    0    0 -0.13686894555E+02  0.12543984359E+02 -0.22728213405E+02  0.95652865374E+02  0.91039641605E+02 0.  0.
         13    1    3    3    0    0 -0.22119608525E+02  0.34653635940E+02 -0.46529623720E+02  0.62090004129E+02  0.10566000000E+00 0. -1.
         22    1    1    0    0    0  0.13686894555E+02 -0.12543984359E+02  0.22728213405E+02  0.29347134626E+02  0.00000000000E+00 0. -1.
</event>
<event>
 5    1  0.1668518E-003  0.9118800E+02  0.7818608E-02  0.1130116E+00
         25   -1    0    0    0    0  0.00000000000E+00  0.00000000000E+00  0.99999998245E-14  0.12500000000E+03  0.12500000000E+03 0.  0.
        -13    1    3    3    0    0  0.86337301457E+01  0.59000382860E+02 -0.71489529251E+01  0.60055850388E+02  0.10566000000E+00 0. -1.
         23    2    1    0    0    0 -0.69624975803E+01  0.28164974901E+02  0.23474640925E+01  0.95892393239E+02  0.91367928233E+02 0.  0.
         13    1    3    3    0    0 -0.15596227726E+02 -0.30835407959E+02  0.94964170176E+01  0.35836542851E+02  0.10566000000E+00 0.  1.
         22    1    1    0    0    0  0.69624975803E+01 -0.28164974901E+02 -0.23474640925E+01  0.29107606761E+02  0.00000000000E+00 0. -1.
</event>
<event>
 5    1  0.1668518E-003  0.9118800E+02  0.7818608E-02  0.1130116E+00
         25   -1    0    0    0    0  0.00000000000E+00  0.00000000000E+00  0.99999998245E-14  0.12500000000E+03  0.12500000000E+03 0.  0.
        -13    1    3    3    0    0 -0.16978933644E+02  0.18123219479E+02 -0.54075969498E+02  0.59505940150E+02  0.10566000000E+00 0. -1.
         23    2    1    0    0    0 -0.74280778686E+01 -0.49890070581E+01 -0.27866218706E+02  0.95732395431E+02  0.91148773210E+02 0.  0.
         13    1    3    3    0    0  0.95508557751E+01 -0.23112226537E+02  0.26209750792E+02  0.36226455280E+02  0.10566000000E+00 0.  1.
         22    1    1    0    0    0  0.74280778686E+01  0.49890070581E+01  0.27866218706E+02  0.29267604569E+02  0.00000000000E+00 0. -1.
</event>
<event>
 5    1  0.1668518E-003  0.9118800E+02  0.7818608E-02  0.1130116E+00
         25   -1    0    0    0    0  0.00000000000E+00  0.00000000000E+00  0.99999998245E-14  0.12500000000E+03  0.12500000000E+03 0.  0.
        -13    1    3    3    0    0 -0.20042898388E+02 -0.36186717902E+02 -0.43227386762E+02  0.59831550695E+02  0.10566000000E+00 0. -1.
         23    2    1    0    0    0  0.23609805798E+01 -0.14894400174E+02 -0.25255260480E+02  0.95584943179E+02  0.90946334697E+02 0.  0.
         13    1    3    3    0    0  0.22403878968E+02  0.21292317727E+02  0.17972126282E+02  0.35753392484E+02  0.10566000000E+00 0.  1.
         22    1    1    0    0    0 -0.23609805798E+01  0.14894400174E+02  0.25255260480E+02  0.29415056821E+02  0.00000000000E+00 0. -1.
</event>
<event>
 5    1  0.1668518E-003  0.9118800E+02  0.7818608E-02  0.1130116E+00
         25   -1    0    0    0    0  0.00000000000E+00  0.00000000000E+00  0.99999998245E-14  0.12500000000E+03  0.12500000000E+03 0.  0.
        -13    1    3    3    0    0 -0.38835580510E+02  0.19186788853E+02  0.16107108630E+02  0.46214557149E+02  0.10566000000E+00 0.  1.
         23    2    1    0    0    0  0.60201442960E+01  0.29715418341E+02  0.11401564014E+01  0.94659463071E+02  0.89665298571E+02 0.  0.
         13    1    3    3    0    0  0.44855724806E+02  0.10528629487E+02 -0.14966952229E+02  0.48444905922E+02  0.10566000000E+00 0. -1.
         22    1    1    0    0    0 -0.60201442960E+01 -0.29715418341E+02 -0.11401564014E+01  0.30340536929E+02  0.00000000000E+00 0. -1.
</event>
<event>
 5    1  0.1668518E-003  0.9118800E+02  0.7818608E-02  0.1130116E+00
         25   -1    0    0    0    0  0.00000000000E+00  0.00000000000E+00  0.99999998245E-14  0.12500000000E+03  0.12500000000E+03 0.  0.
        -13    1    3    3    0    0 -0.65765899212E+01 -0.20967043633E+02  0.33855322805E+02  0.40361646398E+02  0.10566000000E+00 0.  1.
         23    2    1    0    0    0  0.10682985199E+02  0.13337076745E+02 -0.14833376666E+02  0.10237185708E+03  0.99839692854E+02 0.  0.
         13    1    3    3    0    0  0.17259575120E+02  0.34304120378E+02 -0.48688699470E+02  0.62010210679E+02  0.10566000000E+00 0. -1.
         22    1    1    0    0    0 -0.10682985199E+02 -0.13337076745E+02  0.14833376666E+02  0.22628142924E+02  0.00000000000E+00 0. -1.
</event>
<event>
 5    1  0.1668518E-003  0.9118800E+02  0.7818608E-02  0.1130116E+00
         25   -1    0    0    0    0  0.00000000000E+00  0.00000000000E+00  0.99999998245E-14  0.12500000000E+03  0.12500000000E+03 0.  0.
        -13    1    3    3    0    0 -0.40515440209E+02  0.38474731365E+02  0.16488435612E+02  0.58255347582E+02  0.10566000000E+00 0.  1.
         23    2    1    0    0    0 -0.26892912201E+02  0.80706348944E+01 -0.28504131412E+01  0.96777868094E+02  0.92571415802E+02 0.  0.
         13    1    3    3    0    0  0.13622528009E+02 -0.30404096470E+02 -0.19338848753E+02  0.38522520513E+02  0.10566000000E+00 0. -1.
         22    1    1    0    0    0  0.26892912201E+02 -0.80706348944E+01  0.28504131412E+01  0.28222131906E+02  0.00000000000E+00 0.  1.
</event>
<event>
 5    1  0.1668518E-003  0.9118800E+02  0.7818608E-02  0.1130116E+00
         25   -1    0    0    0    0  0.00000000000E+00  0.00000000000E+00  0.99999998245E-14  0.12500000000E+03  0.12500000000E+03 0.  0.
        -13    1    3    3    0    0 -0.24048358133E+02  0.14833646678E+02  0.45979409456E+02  0.53967377745E+02  0.10566000000E+00 0. -1.
         23    2    1    0    0    0 -0.30862208085E+02  0.13330264812E+01  0.10773075435E+02  0.92284376793E+02  0.86290753840E+02 0.  0.
         13    1    3    3    0    0 -0.68138499519E+01 -0.13500620197E+02 -0.35206334021E+02  0.38316999048E+02  0.10566000000E+00 0.  1.
         22    1    1    0    0    0  0.30862208085E+02 -0.13330264812E+01 -0.10773075435E+02  0.32715623207E+02  0.00000000000E+00 0.  1.
</event>
<event>
 5    1  0.1668518E-003  0.9118800E+02  0.7818608E-02  0.1130116E+00
         25   -1    0    0    0    0  0.00000000000E+00  0.00000000000E+00  0.99999998245E-14  0.12500000000E+03  0.12500000000E+03 0.  0.
        -13    1    3    3    0    0  0.17686808964E+02 -0.42846404963E+01 -0.48130722654E+02  0.51456379418E+02  0.10566000000E+00 0. -1.
         23    2    1    0    0    0 -0.18394734958E+01 -0.25392082057E+02 -0.14508091255E+02  0.95697675761E+02  0.91101146756E+02 0.  0.
         13    1    3    3    0    0 -0.19526282460E+02 -0.21107441561E+02  0.33622631399E+02  0.44241296344E+02  0.10566000000E+00 0.  1.
         22    1    1    0    0    0  0.18394734958E+01  0.25392082057E+02  0.14508091255E+02  0.29302324239E+02  0.00000000000E+00 0. -1.
</event>
<event>
 5    1  0.1668518E-003  0.9118800E+02  0.7818608E-02  0.1130116E+00
         25   -1    0    0    0    0  0.00000000000E+00  0.00000000000E+00  0.99999998245E-14  0.12500000000E+03  0.12500000000E+03 0.  0.
        -13    1    3    3    0    0 -0.13463447697E+02  0.42362298495E+02  0.26191010571E+01  0.44527515224E+02  0.10566000000E+00 0. -1.
         23    2    1    0    0    0 -0.98975938996E+01  0.11035522926E+01 -0.27511520726E+02  0.95741429199E+02  0.91161161136E+02 0.  0.
         13    1    3    3    0    0  0.35658537972E+01 -0.41258746202E+02 -0.30130621783E+02  0.51213913974E+02  0.10566000000E+00 0.  1.
         22    1    1    0    0    0  0.98975938996E+01 -0.11035522926E+01  0.27511520726E+02  0.29258570801E+02  0.00000000000E+00 0. -1.
</event>
<event>
 5    1  0.1668518E-003  0.9118800E+02  0.7818608E-02  0.1130116E+00
         25   -1    0    0    0    0  0.00000000000E+00  0.00000000000E+00  0.99999998245E-14  0.12500000000E+03  0.12500000000E+03 0.  0.
        -13    1    3    3    0    0 -0.54623514727E+01 -0.25765972159E+01  0.33653445098E+02  0.34191251335E+02  0.10566000000E+00 0.  1.
         23    2    1    0    0    0 -0.21955441145E+00  0.13655245528E+02 -0.25672574864E+02  0.95920883185E+02  0.91406896875E+02 0.  0.
         13    1    3    3    0    0  0.52427970612E+01  0.16231842744E+02 -0.59326019962E+02  0.61729631851E+02  0.10566000000E+00 0. -1.
         22    1    1    0    0    0  0.21955441145E+00 -0.13655245528E+02  0.25672574864E+02  0.29079116815E+02  0.00000000000E+00 0. -1.
</event>
<event>
 5    1  0.1668518E-003  0.9118800E+02  0.7818608E-02  0.1130116E+00
         25   -1    0    0    0    0  0.00000000000E+00  0.00000000000E+00  0.99999998245E-14  0.12500000000E+03  0.12500000000E+03 0.  0.
        -13    1    3    3    0    0 -0.12654693053E+02  0.30807541284E+02  0.22680376393E+02  0.40294621150E+02  0.10566000000E+00 0. -1.
         23    2    1    0    0    0  0.94174226216E+01 -0.21565978953E+02  0.13512471565E+02  0.97863932031E+02  0.94026501625E+02 0.  0.
         13    1    3    3    0    0  0.22072115674E+02 -0.52373520237E+02 -0.91679048284E+01  0.57569310881E+02  0.10566000000E+00 0.  1.
         22    1    1    0    0    0 -0.94174226216E+01  0.21565978953E+02 -0.13512471565E+02  0.27136067969E+02  0.00000000000E+00 0.  1.
</event>
<event>
 5    1  0.1668518E-003  0.9118800E+02  0.7818608E-02  0.1130116E+00
         25   -1    0    0    0    0  0.00000000000E+00  0.00000000000E+00  0.99999998245E-14  0.12500000000E+03  0.12500000000E+03 0.  0.
        -13    1    3    3    0    0 -0.44391571480E+01 -0.35429545421E+01  0.18790214583E+02  0.19630129168E+02  0.10566000000E+00 0. -1.
         23    2    1    0    0    0  0.46445156973E+01 -0.14366163067E+02 -0.41126054963E+02  0.81190063180E+02  0.68355802936E+02 0.  0.
         13    1    3    3    0    0  0.90836728453E+01 -0.10823208525E+02 -0.59916269546E+02  0.61559934011E+02  0.10566000000E+00 0.  1.
         22    1    1    0    0    0 -0.46445156973E+01  0.14366163067E+02  0.41126054963E+02  0.43809936820E+02  0.00000000000E+00 0.  1.
</event>
<event>
 5    1  0.1668518E-003  0.9118800E+02  0.7818608E-02  0.1130116E+00
         25   -1    0    0    0    0  0.00000000000E+00  0.00000000000E+00  0.99999998245E-14  0.12500000000E+03  0.12500000000E+03 0.  0.
        -13    1    3    3    0    0  0.26173045832E+01 -0.38441748120E+02  0.87714272549E+01  0.39516672202E+02  0.10566000000E+00 0.  1.
         23    2    1    0    0    0  0.25687555026E+02  0.11511561098E+02 -0.54044397934E+01  0.96336879241E+02  0.91974017039E+02 0.  0.
         13    1    3    3    0    0  0.23070250443E+02  0.49953309218E+02 -0.14175867048E+02  0.56820207039E+02  0.10566000000E+00 0. -1.
         22    1    1    0    0    0 -0.25687555026E+02 -0.11511561098E+02  0.54044397934E+01  0.28663120759E+02  0.00000000000E+00 0. -1.
</event>
<event>
 5    1  0.1668518E-003  0.9118800E+02  0.7818608E-02  0.1130116E+00
         25   -1    0    0    0    0  0.00000000000E+00  0.00000000000E+00  0.99999998245E-14  0.12500000000E+03  0.12500000000E+03 0.  0.
        -13    1    3    3    0    0  0.13084023372E+02 -0.69477842167E+01  0.59443452561E+02  0.61261722058E+02  0.10566000000E+00 0.  1.
         23    2    1    0    0    0  0.13961533689E+02 -0.96981143587E-01  0.25239793309E+02  0.96155919245E+02  0.91727748317E+02 0.  0.
         13    1    3    3    0    0  0.87751031652E+00  0.68508030731E+01 -0.34203659252E+02  0.34894197187E+02  0.10566000000E+00 0. -1.
         22    1    1    0    0    0 -0.13961533689E+02  0.96981143587E-01 -0.25239793309E+02  0.28844080755E+02  0.00000000000E+00 0.  1.
</event>
<event>
 5    1  0.1668518E-003  0.9118800E+02  0.7818608E-02  0.1130116E+00
         25   -1    0    0    0    0  0.00000000000E+00  0.00000000000E+00  0.99999998245E-14  0.12500000000E+03  0.12500000000E+03 0.  0.
        -13    1    3    3    0    0  0.18491230735E+02 -0.29796922616E+01 -0.28361969053E+02  0.33988477939E+02  0.10566000000E+00 0. -1.
         23    2    1    0    0    0 -0.18260074142E+02 -0.10278962607E+02  0.20581929605E+02  0.95628190281E+02  0.91005755698E+02 0.  0.
         13    1    3    3    0    0 -0.36751304876E+02 -0.72992703455E+01  0.48943898657E+02  0.61639712341E+02  0.10566000000E+00 0.  1.
         22    1    1    0    0    0  0.18260074142E+02  0.10278962607E+02 -0.20581929605E+02  0.29371809719E+02  0.00000000000E+00 0.  1.
</event>
<event>
 5    1  0.1668518E-003  0.9118800E+02  0.7818608E-02  0.1130116E+00
         25   -1    0    0    0    0  0.00000000000E+00  0.00000000000E+00  0.99999998245E-14  0.12500000000E+03  0.12500000000E+03 0.  0.
        -13    1    3    3    0    0 -0.37413022762E+01 -0.39772278980E+02  0.77993136360E+01  0.40702235506E+02  0.10566000000E+00 0. -1.
         23    2    1    0    0    0 -0.37883795197E+02 -0.11500035850E+02  0.45162704944E+01  0.85152422129E+02  0.75253608100E+02 0.  0.
         13    1    3    3    0    0 -0.34142492920E+02  0.28272243130E+02 -0.32830431416E+01  0.44450186622E+02  0.10566000000E+00 0.  1.
         22    1    1    0    0    0  0.37883795197E+02  0.11500035850E+02 -0.45162704944E+01  0.39847577871E+02  0.00000000000E+00 0. -1.
</event>
<event>
 5    1  0.1668518E-003  0.9118800E+02  0.7818608E-02  0.1130116E+00
         25   -1    0    0    0    0  0.00000000000E+00  0.00000000000E+00  0.99999998245E-14  0.12500000000E+03  0.12500000000E+03 0.  0.
        -13    1    3    3    0    0 -0.15525016538E+02 -0.40525903625E+02  0.13953724867E+02  0.45586101005E+02  0.10566000000E+00 0. -1.
         23    2    1    0    0    0 -0.30081012143E+02  0.45962733789E+01  0.18769735247E+01  0.94512034339E+02  0.89459536019E+02 0.  0.
         13    1    3    3    0    0 -0.14555995605E+02  0.45122177004E+02 -0.12076751342E+02  0.48925933334E+02  0.10566000000E+00 0.  1.
         22    1    1    0    0    0  0.30081012143E+02 -0.45962733789E+01 -0.18769735247E+01  0.30487965661E+02  0.00000000000E+00 0. -1.
</event>
<event>
 5    1  0.1668518E-003  0.9118800E+02  0.7818608E-02  0.1130116E+00
         25   -1    0    0    0    0  0.00000000000E+00  0.00000000000E+00  0.99999998245E-14  0.12500000000E+03  0.12500000000E+03 0.  0.
        -13    1    3    3    0    0 -0.16542641334E+01  0.34945968654E+01 -0.57462105959E+02  0.57592131254E+02  0.10566000000E+00 0.  1.
         23    2    1    0    0    0  0.15209165494E+02  0.54488068277E+01 -0.16621444029E+02  0.10182068568E+03  0.99147220935E+02 0.  0.
         13    1    3    3    0    0  0.16863429628E+02  0.19542099623E+01  0.40840661930E+02  0.44228554423E+02  0.10566000000E+00 0. -1.
         22    1    1    0    0    0 -0.15209165494E+02 -0.54488068277E+01  0.16621444029E+02  0.23179314323E+02  0.00000000000E+00 0.  1.
</event>
<event>
 5    1  0.1668518E-003  0.9118800E+02  0.7818608E-02  0.1130116E+00
         25   -1    0    0    0    0  0.00000000000E+00  0.00000000000E+00  0.99999998245E-14  0.12500000000E+03  0.12500000000E+03 0.  0.
        -13    1    3    3    0    0  0.32761609223E+02  0.18081536648E+02 -0.35607200151E+02  0.51654127358E+02  0.10566000000E+00 0. -1.
         23    2    1    0    0    0 -0.97747626530E+01  0.90693425409E+01 -0.25393708224E+02  0.96318309388E+02  0.91948775668E+02 0.  0.
         13    1    3    3    0    0 -0.42536371876E+02 -0.90121941072E+01  0.10213491928E+02  0.44664182030E+02  0.10566000000E+00 0.  1.
         22    1    1    0    0    0  0.97747626530E+01 -0.90693425409E+01  0.25393708224E+02  0.28681690612E+02  0.00000000000E+00 0. -1.
</event>
<event>
 5    1  0.1668518E-003  0.9118800E+02  0.7818608E-02  0.1130116E+00
         25   -1    0    0    0    0  0.00000000000E+00  0.00000000000E+00  0.99999998245E-14  0.12500000000E+03  0.12500000000E+03 0.  0.
        -13    1    3    3    0    0  0.29827891705E+02  0.30530940250E+02  0.31822330444E+02  0.53240147587E+02  0.10566000000E+00 0.  1.
         23    2    1    0    0    0  0.24212467075E+02  0.12200182542E+02 -0.73986286669E+01  0.96896126209E+02  0.92730963288E+02 0.  0.
         13    1    3    3    0    0 -0.56154246309E+01 -0.18330757708E+02 -0.39220959110E+02  0.43655978623E+02  0.10566000000E+00 0. -1.
         22    1    1    0    0    0 -0.24212467075E+02 -0.12200182542E+02  0.73986286669E+01  0.28103873791E+02  0.00000000000E+00 0.  1.
</event>
<event>
 5    1  0.1668518E-003  0.9118800E+02  0.7818608E-02  0.1130116E+00
         25   -1    0    0    0    0  0.00000000000E+00  0.00000000000E+00  0.99999998245E-14  0.12500000000E+03  0.12500000000E+03 0.  0.
        -13    1    3    3    0    0  0.24348247801E+02  0.44404027549E+02  0.10993891993E+01  0.50653476230E+02  0.10566000000E+00 0. -1.
         23    2    1    0    0    0  0.42030847266E+01  0.11672083157E+02  0.25821806919E+02  0.96352676233E+02  0.91995483902E+02 0.  0.
         13    1    3    3    0    0 -0.20145163074E+02 -0.32731944392E+02  0.24722417720E+02  0.45699200003E+02  0.10566000000E+00 0.  1.
         22    1    1    0    0    0 -0.42030847266E+01 -0.11672083157E+02 -0.25821806919E+02  0.28647323767E+02  0.00000000000E+00 0. -1.
</event>
<event>
 5    1  0.1668518E-003  0.9118800E+02  0.7818608E-02  0.1130116E+00
         25   -1    0    0    0    0  0.00000000000E+00  0.00000000000E+00  0.99999998245E-14  0.12500000000E+03  0.12500000000E+03 0.  0.
        -13    1    3    3    0    0  0.40267488437E+01 -0.19134151510E+02 -0.32576726495E+02  0.37994535573E+02  0.10566000000E+00 0. -1.
         23    2    1    0    0    0  0.10559389238E+02 -0.11436627781E+02  0.24508726378E+02  0.95965971263E+02  0.91468534566E+02 0.  0.
         13    1    3    3    0    0  0.65326403941E+01  0.76975237292E+01  0.57085452873E+02  0.57971435689E+02  0.10566000000E+00 0.  1.
         22    1    1    0    0    0 -0.10559389238E+02  0.11436627781E+02 -0.24508726378E+02  0.29034028737E+02  0.00000000000E+00 0.  1.
</event>
<event>
 5    1  0.1668518E-003  0.9118800E+02  0.7818608E-02  0.1130116E+00
         25   -1    0    0    0    0  0.00000000000E+00  0.00000000000E+00  0.99999998245E-14  0.12500000000E+03  0.12500000000E+03 0.  0.
        -13    1    3    3    0    0  0.13003899782E+02  0.35869427103E+02  0.30352768140E+02  0.48754680884E+02  0.10566000000E+00 0. -1.
         23    2    1    0    0    0 -0.23482850874E+02  0.14840664042E+02  0.10644273757E+02  0.95251215854E+02  0.90486484977E+02 0.  0.
         13    1    3    3    0    0 -0.36486750656E+02 -0.21028763062E+02 -0.19708494383E+02  0.46496534970E+02  0.10566000000E+00 0.  1.
         22    1    1    0    0    0  0.23482850874E+02 -0.14840664042E+02 -0.10644273757E+02  0.29748784146E+02  0.00000000000E+00 0.  1.
</event>
<event>
 5    1  0.1668518E-003  0.9118800E+02  0.7818608E-02  0.1130116E+00
         25   -1    0    0    0    0  0.00000000000E+00  0.00000000000E+00  0.99999998245E-14  0.12500000000E+03  0.12500000000E+03 0.  0.
        -13    1    3    3    0    0  0.28748601833E+02  0.12372129279E+02  0.51352936035E+02  0.60138896678E+02  0.10566000000E+00 0. -1.
         23    2    1    0    0    0  0.19206116087E+02  0.10730393155E+02  0.13551435556E+02  0.99160928073E+02  0.95735218275E+02 0.  0.
         13    1    3    3    0    0 -0.95424857461E+01 -0.16417361237E+01 -0.37801500478E+02  0.39022031395E+02  0.10566000000E+00 0.  1.
         22    1    1    0    0    0 -0.19206116087E+02 -0.10730393155E+02 -0.13551435556E+02  0.25839071927E+02  0.00000000000E+00 0. -1.
</event>
<event>
 5    1  0.1668518E-003  0.9118800E+02  0.7818608E-02  0.1130116E+00
         25   -1    0    0    0    0  0.00000000000E+00  0.00000000000E+00  0.99999998245E-14  0.12500000000E+03  0.12500000000E+03 0.  0.
        -13    1    3    3    0    0 -0.19969517223E+02 -0.25114562726E+02  0.15824694379E+02  0.35776458674E+02  0.10566000000E+00 0.  1.
         23    2    1    0    0    0  0.60466238903E+01  0.28008072181E+02  0.55855557188E+01  0.95807326254E+02  0.91251474309E+02 0.  0.
         13    1    3    3    0    0  0.26016141114E+02  0.53122634906E+02 -0.10239138661E+02  0.60030867580E+02  0.10566000000E+00 0. -1.
         22    1    1    0    0    0 -0.60466238903E+01 -0.28008072181E+02 -0.55855557188E+01  0.29192673746E+02  0.00000000000E+00 0. -1.
</event>
<event>
 5    1  0.1668518E-003  0.9118800E+02  0.7818608E-02  0.1130116E+00
         25   -1    0    0    0    0  0.00000000000E+00  0.00000000000E+00  0.99999998245E-14  0.12500000000E+03  0.12500000000E+03 0.  0.
        -13    1    3    3    0    0 -0.49337758525E+02  0.64037935194E+01 -0.17437678861E+02  0.52719131212E+02  0.10566000000E+00 0.  1.
         23    2    1    0    0    0 -0.91853302258E+01  0.20021456979E+02 -0.20070549392E+02  0.95199731816E+02  0.90415335834E+02 0.  0.
         13    1    3    3    0    0  0.40152428299E+02  0.13617663460E+02 -0.26328705308E+01  0.42480600604E+02  0.10566000000E+00 0. -1.
         22    1    1    0    0    0  0.91853302258E+01 -0.20021456979E+02  0.20070549392E+02  0.29800268184E+02  0.00000000000E+00 0.  1.
</event>
<event>
 5    1  0.1668518E-003  0.9118800E+02  0.7818608E-02  0.1130116E+00
         25   -1    0    0    0    0  0.00000000000E+00  0.00000000000E+00  0.99999998245E-14  0.12500000000E+03  0.12500000000E+03 0.  0.
        -13    1    3    3    0    0  0.24043938562E+02 -0.13760460965E+02 -0.21966412283E+02  0.35355278250E+02  0.10566000000E+00 0.  1.
         23    2    1    0    0    0 -0.34158754889E+01  0.86676675519E+00  0.29389166938E+02  0.95400293527E+02  0.90692190302E+02 0.  0.
         13    1    3    3    0    0 -0.27459814051E+02  0.14627227720E+02  0.51355579221E+02  0.60045015277E+02  0.10566000000E+00 0. -1.
         22    1    1    0    0    0  0.34158754889E+01 -0.86676675519E+00 -0.29389166938E+02  0.29599706473E+02  0.00000000000E+00 0. -1.
</event>
<event>
 5    1  0.1668518E-003  0.9118800E+02  0.7818608E-02  0.1130116E+00
         25   -1    0    0    0    0  0.00000000000E+00  0.00000000000E+00  0.99999998245E-14  0.12500000000E+03  0.12500000000E+03 0.  0.
        -13    1    3    3    0    0 -0.39084065695E+02 -0.68609361654E+01 -0.41119726112E+02  0.57144375715E+02  0.10566000000E+00 0.  1.
         23    2    1    0    0    0 -0.26279221574E+02  0.10666672709E+02 -0.10331711422E+02  0.94815241361E+02  0.89882202577E+02 0.  0.
         13    1    3    3    0    0  0.12804844121E+02  0.17527608875E+02  0.30788014691E+02  0.37670865645E+02  0.10566000000E+00 0. -1.
         22    1    1    0    0    0  0.26279221574E+02 -0.10666672709E+02  0.10331711422E+02  0.30184758639E+02  0.00000000000E+00 0. -1.
</event>
<event>
 5    1  0.1668518E-003  0.9118800E+02  0.7818608E-02  0.1130116E+00
         25   -1    0    0    0    0  0.00000000000E+00  0.00000000000E+00  0.99999998245E-14  0.12500000000E+03  0.12500000000E+03 0.  0.
        -13    1    3    3    0    0  0.28934017011E+02  0.20815569454E+02 -0.10973498794E+02  0.37294692811E+02  0.10566000000E+00 0. -1.
         23    2    1    0    0    0  0.27995090219E+00 -0.20879252950E+02  0.19561863052E+02  0.96387274469E+02  0.92042482676E+02 0.  0.
         13    1    3    3    0    0 -0.28654066109E+02 -0.41694822404E+02  0.30535361846E+02  0.59092581657E+02  0.10566000000E+00 0.  1.
         22    1    1    0    0    0 -0.27995090219E+00  0.20879252950E+02 -0.19561863052E+02  0.28612725531E+02  0.00000000000E+00 0.  1.
</event>
<event>
 5    1  0.1668518E-003  0.9118800E+02  0.7818608E-02  0.1130116E+00
         25   -1    0    0    0    0  0.00000000000E+00  0.00000000000E+00  0.99999998245E-14  0.12500000000E+03  0.12500000000E+03 0.  0.
        -13    1    3    3    0    0  0.48995102635E+01 -0.31974261005E+01 -0.54348276562E+02  0.54662373382E+02  0.10566000000E+00 0.  1.
         23    2    1    0    0    0 -0.11780048139E+02  0.15291521601E+02 -0.28722690259E+02  0.90393741856E+02  0.83507098285E+02 0.  0.
         13    1    3    3    0    0 -0.16679558402E+02  0.18488947701E+02  0.25625586303E+02  0.35731368474E+02  0.10566000000E+00 0. -1.
         22    1    1    0    0    0  0.11780048139E+02 -0.15291521601E+02  0.28722690259E+02  0.34606258144E+02  0.00000000000E+00 0.  1.
</event>
<event>
 5    1  0.1668518E-003  0.9118800E+02  0.7818608E-02  0.1130116E+00
         25   -1    0    0    0    0  0.00000000000E+00  0.00000000000E+00  0.99999998245E-14  0.12500000000E+03  0.12500000000E+03 0.  0.
        -13    1    3    3    0    0  0.29763610207E+02  0.12173531498E+02 -0.17685398268E+02  0.36699480073E+02  0.10566000000E+00 0.  1.
         23    2    1    0    0    0  0.47051255052E+01 -0.32079029673E+02 -0.18713337348E+02  0.87564838113E+02  0.79159393178E+02 0.  0.
         13    1    3    3    0    0 -0.25058484702E+02 -0.44252561172E+02 -0.10279390796E+01  0.50865358040E+02  0.10566000000E+00 0. -1.
         22    1    1    0    0    0 -0.47051255052E+01  0.32079029673E+02  0.18713337348E+02  0.37435161887E+02  0.00000000000E+00 0. -1.
</event>
<event>
 5    1  0.1668518E-003  0.9118800E+02  0.7818608E-02  0.1130116E+00
         25   -1    0    0    0    0  0.00000000000E+00  0.00000000000E+00  0.99999998245E-14  0.12500000000E+03  0.12500000000E+03 0.  0.
        -13    1    3    3    0    0 -0.48287256123E+02 -0.13184705773E+02  0.11375315103E+01  0.50067960935E+02  0.10566000000E+00 0. -1.
         23    2    1    0    0    0 -0.14519519837E+02  0.41507057164E+01 -0.24745563350E+02  0.96010558478E+02  0.91529446734E+02 0.  0.
         13    1    3    3    0    0  0.33767736286E+02  0.17335411489E+02 -0.25883094861E+02  0.45942597543E+02  0.10566000000E+00 0.  1.
         22    1    1    0    0    0  0.14519519837E+02 -0.41507057164E+01  0.24745563350E+02  0.28989441522E+02  0.00000000000E+00 0. -1.
</event>
<event>
 5    1  0.1668518E-003  0.9118800E+02  0.7818608E-02  0.1130116E+00
         25   -1    0    0    0    0  0.00000000000E+00  0.00000000000E+00  0.99999998245E-14  0.12500000000E+03  0.12500000000E+03 0.  0.
        -13    1    3    3    0    0  0.53818295182E+01 -0.45895145223E+01  0.57508361656E+02  0.57941785931E+02  0.10566000000E+00 0. -1.
         23    2    1    0    0    0  0.28801624186E+01 -0.19044150184E+02  0.26556210176E+02  0.92194401534E+02  0.86160317917E+02 0.  0.
         13    1    3    3    0    0 -0.25016670996E+01 -0.14454635662E+02 -0.30952151480E+02  0.34252615603E+02  0.10566000000E+00 0.  1.
         22    1    1    0    0    0 -0.28801624186E+01  0.19044150184E+02 -0.26556210176E+02  0.32805598466E+02  0.00000000000E+00 0. -1.
</event>
<event>
 5    1  0.1668518E-003  0.9118800E+02  0.7818608E-02  0.1130116E+00
         25   -1    0    0    0    0  0.00000000000E+00  0.00000000000E+00  0.99999998245E-14  0.12500000000E+03  0.12500000000E+03 0.  0.
        -13    1    3    3    0    0  0.34191148012E+02  0.44909064615E+01 -0.91963504855E+01  0.35690150875E+02  0.10566000000E+00 0. -1.
         23    2    1    0    0    0 -0.27016560264E+02 -0.13022358112E+01 -0.62348260574E+01  0.97242777470E+02  0.93197072741E+02 0.  0.
         13    1    3    3    0    0 -0.61207708276E+02 -0.57931422726E+01  0.29615244281E+01  0.61552626595E+02  0.10566000000E+00 0.  1.
         22    1    1    0    0    0  0.27016560264E+02  0.13022358112E+01  0.62348260574E+01  0.27757222530E+02  0.00000000000E+00 0.  1.
</event>
<event>
 5    1  0.1668518E-003  0.9118800E+02  0.7818608E-02  0.1130116E+00
         25   -1    0    0    0    0  0.00000000000E+00  0.00000000000E+00  0.99999998245E-14  0.12500000000E+03  0.12500000000E+03 0.  0.
        -13    1    3    3    0    0 -0.27623408870E+02 -0.99997823137E+01  0.18594764012E+02  0.34768157509E+02  0.10566000000E+00 0. -1.
         23    2    1    0    0    0  0.49112964149E+01 -0.46600199468E+01 -0.30417643712E+02  0.93838009253E+02  0.88512724018E+02 0.  0.
         13    1    3    3    0    0  0.32534705285E+02  0.53397623669E+01 -0.49012407723E+02  0.59069851743E+02  0.10566000000E+00 0.  1.
         22    1    1    0    0    0 -0.49112964149E+01  0.46600199468E+01  0.30417643712E+02  0.31161990747E+02  0.00000000000E+00 0.  1.
</event>
<event>
 5    1  0.1668518E-003  0.9118800E+02  0.7818608E-02  0.1130116E+00
         25   -1    0    0    0    0  0.00000000000E+00  0.00000000000E+00  0.99999998245E-14  0.12500000000E+03  0.12500000000E+03 0.  0.
        -13    1    3    3    0    0  0.17698011879E+00 -0.80743979398E+01  0.44616115635E+02  0.45341329518E+02  0.10566000000E+00 0.  1.
         23    2    1    0    0    0 -0.18945834098E+02  0.21479544381E+02  0.30194977270E+02  0.83382069864E+02  0.72253148485E+02 0.  0.
         13    1    3    3    0    0 -0.19122814216E+02  0.29553942321E+02 -0.14421138366E+02  0.38040740346E+02  0.10566000000E+00 0. -1.
         22    1    1    0    0    0  0.18945834098E+02 -0.21479544381E+02 -0.30194977270E+02  0.41617930136E+02  0.00000000000E+00 0.  1.
</event>
<event>
 5    1  0.1668518E-003  0.9118800E+02  0.7818608E-02  0.1130116E+00
         25   -1    0    0    0    0  0.00000000000E+00  0.00000000000E+00  0.99999998245E-14  0.12500000000E+03  0.12500000000E+03 0.  0.
        -13    1    3    3    0    0  0.38308805928E+01 -0.29454828089E+02  0.33283222049E+02  0.44609938107E+02  0.10566000000E+00 0. -1.
         23    2    1    0    0    0 -0.24173605688E+02 -0.13064936981E+02 -0.72982506153E+01  0.96569026532E+02  0.92288984354E+02 0.  0.
         13    1    3    3    0    0 -0.28004486281E+02  0.16389891108E+02 -0.40581472664E+02  0.51959088426E+02  0.10566000000E+00 0.  1.
         22    1    1    0    0    0  0.24173605688E+02  0.13064936981E+02  0.72982506153E+01  0.28430973468E+02  0.00000000000E+00 0.  1.
</event>
<event>
 5    1  0.1668518E-003  0.9118800E+02  0.7818608E-02  0.1130116E+00
         25   -1    0    0    0    0  0.00000000000E+00  0.00000000000E+00  0.99999998245E-14  0.12500000000E+03  0.12500000000E+03 0.  0.
        -13    1    3    3    0    0  0.39302850032E+02  0.19358520548E+02  0.40449163823E+01  0.43998168723E+02  0.10566000000E+00 0.  1.
         23    2    1    0    0    0  0.89414165024E+01 -0.17748802256E+02  0.22143456626E+02  0.95245982088E+02  0.90479254649E+02 0.  0.
         13    1    3    3    0    0 -0.30361433530E+02 -0.37107322804E+02  0.18098540243E+02  0.51247813364E+02  0.10566000000E+00 0. -1.
         22    1    1    0    0    0 -0.89414165024E+01  0.17748802256E+02 -0.22143456626E+02  0.29754017912E+02  0.00000000000E+00 0. -1.
</event>
<event>
 5    1  0.1668518E-003  0.9118800E+02  0.7818608E-02  0.1130116E+00
         25   -1    0    0    0    0  0.00000000000E+00  0.00000000000E+00  0.99999998245E-14  0.12500000000E+03  0.12500000000E+03 0.  0.
        -13    1    3    3    0    0  0.37982191611E+02 -0.18334538338E+02  0.25984716992E+02  0.49538054633E+02  0.10566000000E+00 0.  1.
         23    2    1    0    0    0 -0.40077895877E+01 -0.27329733633E+02  0.13478609818E+02  0.94264846829E+02  0.89113476575E+02 0.  0.
         13    1    3    3    0    0 -0.41989981198E+02 -0.89951952945E+01 -0.12506107174E+02  0.44726792196E+02  0.10566000000E+00 0. -1.
         22    1    1    0    0    0  0.40077895877E+01  0.27329733633E+02 -0.13478609818E+02  0.30735153171E+02  0.00000000000E+00 0. -1.
</event>
