<event>
 5    1  0.1709463E-003  0.9118800E+02  0.7818608E-02  0.1130116E+00
         25   -1    0    0    0    0  0.00000000000E+00  0.00000000000E+00  0.99999998245E-14  0.12500000000E+03  0.12500000000E+03 0.  0.
        -13    1    3    3    0    0  0.73596783990E+01  0.79605636112E+01 -0.32835798795E+02  0.34579419973E+02  0.10566000000E+00 0.  1.
         23    2    1    0    0    0 -0.11536394026E+02 -0.17657167098E+02  0.19785800605E+02  0.96080424577E+02  0.91624811838E+02 0.  0.
         13    1    3    3    0    0 -0.18896072425E+02 -0.25617730709E+02  0.52621599400E+02  0.61501004604E+02  0.10566000000E+00 0. -1.
         22    1    1    0    0    0  0.11536394026E+02  0.17657167098E+02 -0.19785800605E+02  0.28919575423E+02  0.00000000000E+00 0. -1.
</event>
<event>
 5    1  0.1709463E-003  0.9118800E+02  0.7818608E-02  0.1130116E+00
         25   -1    0    0    0    0  0.00000000000E+00  0.00000000000E+00  0.99999998245E-14  0.12500000000E+03  0.12500000000E+03 0.  0.
        -13    1    3    3    0    0 -0.15718938825E+02  0.28457703354E+02 -0.29705820270E+02  0.44038311048E+02  0.10566000000E+00 0.  1.
         23    2    1    0    0    0  0.25819388545E+02  0.13470234350E+02 -0.28122731353E+01  0.95742574986E+02  0.91162732223E+02 0.  0.
         13    1    3    3    0    0  0.41538327370E+02 -0.14987469004E+02  0.26893547135E+02  0.51704263938E+02  0.10566000000E+00 0. -1.
         22    1    1    0    0    0 -0.25819388545E+02 -0.13470234350E+02  0.28122731353E+01  0.29257425014E+02  0.00000000000E+00 0. -1.
</event>
<event>
 5    1  0.1709463E-003  0.9118800E+02  0.7818608E-02  0.1130116E+00
         25   -1    0    0    0    0  0.00000000000E+00  0.00000000000E+00  0.99999998245E-14  0.12500000000E+03  0.12500000000E+03 0.  0.
        -13    1    3    3    0    0  0.33680781671E+02 -0.10791191951E+01  0.19815406884E+02  0.39092468152E+02  0.10566000000E+00 0.  1.
         23    2    1    0    0    0 -0.78919829749E+01  0.27429975606E+02 -0.61595051015E+01  0.95800231848E+02  0.91241755584E+02 0.  0.
         13    1    3    3    0    0 -0.41572764646E+02  0.28509094801E+02 -0.25974911986E+02  0.56707763696E+02  0.10566000000E+00 0. -1.
         22    1    1    0    0    0  0.78919829749E+01 -0.27429975606E+02  0.61595051015E+01  0.29199768152E+02  0.00000000000E+00 0. -1.
</event>
<event>
 5    1  0.1709463E-003  0.9118800E+02  0.7818608E-02  0.1130116E+00
         25   -1    0    0    0    0  0.00000000000E+00  0.00000000000E+00  0.99999998245E-14  0.12500000000E+03  0.12500000000E+03 0.  0.
        -13    1    3    3    0    0 -0.25214495045E+02  0.47843688952E+01 -0.33991137310E+02  0.42591895071E+02  0.10566000000E+00 0. -1.
         23    2    1    0    0    0  0.24398822848E+02  0.70776617255E+01 -0.11403847938E+02  0.97153212041E+02  0.93076866138E+02 0.  0.
         13    1    3    3    0    0  0.49613317892E+02  0.22932928303E+01  0.22587289371E+02  0.54561316970E+02  0.10566000000E+00 0.  1.
         22    1    1    0    0    0 -0.24398822848E+02 -0.70776617255E+01  0.11403847938E+02  0.27846787959E+02  0.00000000000E+00 0.  1.
</event>
<event>
 5    1  0.1709463E-003  0.9118800E+02  0.7818608E-02  0.1130116E+00
         25   -1    0    0    0    0  0.00000000000E+00  0.00000000000E+00  0.99999998245E-14  0.12500000000E+03  0.12500000000E+03 0.  0.
        -13    1    3    3    0    0 -0.13516219878E+02 -0.50985616636E+02 -0.32479168550E+02  0.61944562774E+02  0.10566000000E+00 0.  1.
         23    2    1    0    0    0 -0.16269266805E+01 -0.26261615381E+02 -0.12583116228E+02  0.95834024157E+02  0.91288038862E+02 0.  0.
         13    1    3    3    0    0  0.11889293198E+02  0.24724001255E+02  0.19896052321E+02  0.33889461383E+02  0.10566000000E+00 0. -1.
         22    1    1    0    0    0  0.16269266805E+01  0.26261615381E+02  0.12583116228E+02  0.29165975843E+02  0.00000000000E+00 0.  1.
</event>
<event>
 5    1  0.1709463E-003  0.9118800E+02  0.7818608E-02  0.1130116E+00
         25   -1    0    0    0    0  0.00000000000E+00  0.00000000000E+00  0.99999998245E-14  0.12500000000E+03  0.12500000000E+03 0.  0.
        -13    1    3    3    0    0  0.20164132372E+02 -0.49595675488E+02  0.31184803511E+02  0.61958263335E+02  0.10566000000E+00 0. -1.
         23    2    1    0    0    0  0.12180386242E+02 -0.19537440637E+02  0.18162232138E+02  0.95675265187E+02  0.91070391987E+02 0.  0.
         13    1    3    3    0    0 -0.79837461292E+01  0.30058234852E+02 -0.13022571373E+02  0.33717001852E+02  0.10566000000E+00 0.  1.
         22    1    1    0    0    0 -0.12180386242E+02  0.19537440637E+02 -0.18162232138E+02  0.29324734813E+02  0.00000000000E+00 0. -1.
</event>
<event>
 5    1  0.1709463E-003  0.9118800E+02  0.7818608E-02  0.1130116E+00
         25   -1    0    0    0    0  0.00000000000E+00  0.00000000000E+00  0.99999998245E-14  0.12500000000E+03  0.12500000000E+03 0.  0.
        -13    1    3    3    0    0 -0.40551221618E+01 -0.54033079856E+02 -0.28426209828E+02  0.61188874019E+02  0.10566000000E+00 0.  1.
         23    2    1    0    0    0 -0.45096844092E+00 -0.11697603729E+02 -0.15452074232E+02  0.10561433768E+03  0.10381996157E+03 0.  0.
         13    1    3    3    0    0  0.36041537209E+01  0.42335476127E+02  0.12974135596E+02  0.44425463661E+02  0.10566000000E+00 0. -1.
         22    1    1    0    0    0  0.45096844092E+00  0.11697603729E+02  0.15452074232E+02  0.19385662320E+02  0.00000000000E+00 0.  1.
</event>
<event>
 5    1  0.1709463E-003  0.9118800E+02  0.7818608E-02  0.1130116E+00
         25   -1    0    0    0    0  0.00000000000E+00  0.00000000000E+00  0.99999998245E-14  0.12500000000E+03  0.12500000000E+03 0.  0.
        -13    1    3    3    0    0  0.38549378352E+02 -0.47473138096E+01  0.15915396338E+02  0.41975023101E+02  0.10566000000E+00 0.  1.
         23    2    1    0    0    0 -0.55628716669E+01 -0.27825866598E+02  0.17275797469E+02  0.91778356884E+02  0.85554597895E+02 0.  0.
         13    1    3    3    0    0 -0.44112250019E+02 -0.23078552789E+02  0.13604011319E+01  0.49803333782E+02  0.10566000000E+00 0. -1.
         22    1    1    0    0    0  0.55628716669E+01  0.27825866598E+02 -0.17275797469E+02  0.33221643116E+02  0.00000000000E+00 0.  1.
</event>
<event>
 5    1  0.1709463E-003  0.9118800E+02  0.7818608E-02  0.1130116E+00
         25   -1    0    0    0    0  0.00000000000E+00  0.00000000000E+00  0.99999998245E-14  0.12500000000E+03  0.12500000000E+03 0.  0.
        -13    1    3    3    0    0 -0.11799199411E+02  0.84482125438E+01 -0.54354590755E+02  0.56258564700E+02  0.10566000000E+00 0.  1.
         23    2    1    0    0    0  0.47474100206E+01  0.20223216559E+02 -0.20018631034E+02  0.96151048920E+02  0.91721111147E+02 0.  0.
         13    1    3    3    0    0  0.16546609431E+02  0.11775004016E+02  0.34335959721E+02  0.39892484220E+02  0.10566000000E+00 0. -1.
         22    1    1    0    0    0 -0.47474100206E+01 -0.20223216559E+02  0.20018631034E+02  0.28848951080E+02  0.00000000000E+00 0.  1.
</event>
<event>
 5    1  0.1709463E-003  0.9118800E+02  0.7818608E-02  0.1130116E+00
         25   -1    0    0    0    0  0.00000000000E+00  0.00000000000E+00  0.99999998245E-14  0.12500000000E+03  0.12500000000E+03 0.  0.
        -13    1    3    3    0    0  0.14680608088E+02 -0.19229549394E+02  0.26848214113E+02  0.36140470235E+02  0.10566000000E+00 0.  1.
         23    2    1    0    0    0 -0.13333887152E+02 -0.14814072099E+01 -0.24383606591E+02  0.97169308591E+02  0.93098480910E+02 0.  0.
         13    1    3    3    0    0 -0.28014495239E+02  0.17748142184E+02 -0.51231820704E+02  0.61028838357E+02  0.10566000000E+00 0. -1.
         22    1    1    0    0    0  0.13333887152E+02  0.14814072099E+01  0.24383606591E+02  0.27830691409E+02  0.00000000000E+00 0. -1.
</event>
<event>
 5    1  0.1709463E-003  0.9118800E+02  0.7818608E-02  0.1130116E+00
         25   -1    0    0    0    0  0.00000000000E+00  0.00000000000E+00  0.99999998245E-14  0.12500000000E+03  0.12500000000E+03 0.  0.
        -13    1    3    3    0    0 -0.18573380234E+02 -0.16719697037E+01  0.15007870257E+02  0.23937695580E+02  0.10566000000E+00 0. -1.
         23    2    1    0    0    0  0.30674384448E+02  0.28432288707E+02  0.18742280555E+01  0.83133239519E+02  0.71821374811E+02 0.  0.
         13    1    3    3    0    0  0.49247764682E+02  0.30104258411E+02 -0.13133642201E+02  0.59195543938E+02  0.10566000000E+00 0.  1.
         22    1    1    0    0    0 -0.30674384448E+02 -0.28432288707E+02 -0.18742280555E+01  0.41866760481E+02  0.00000000000E+00 0.  1.
</event>
<event>
 5    1  0.1709463E-003  0.9118800E+02  0.7818608E-02  0.1130116E+00
         25   -1    0    0    0    0  0.00000000000E+00  0.00000000000E+00  0.99999998245E-14  0.12500000000E+03  0.12500000000E+03 0.  0.
        -13    1    3    3    0    0  0.78468764462E+01 -0.45915043952E+02  0.23307397922E+02  0.52086569219E+02  0.10566000000E+00 0. -1.
         23    2    1    0    0    0  0.15261614003E+02 -0.15947855420E+01  0.23393432921E+02  0.97022993249E+02  0.92901820824E+02 0.  0.
         13    1    3    3    0    0  0.74147375572E+01  0.44320258410E+02  0.86034998372E-01  0.44936424030E+02  0.10566000000E+00 0.  1.
         22    1    1    0    0    0 -0.15261614003E+02  0.15947855420E+01 -0.23393432921E+02  0.27977006751E+02  0.00000000000E+00 0. -1.
</event>
<event>
 5    1  0.1709463E-003  0.9118800E+02  0.7818608E-02  0.1130116E+00
         25   -1    0    0    0    0  0.00000000000E+00  0.00000000000E+00  0.99999998245E-14  0.12500000000E+03  0.12500000000E+03 0.  0.
        -13    1    3    3    0    0 -0.47003708267E+02 -0.66518349335E+01 -0.33856987376E+02  0.58308680803E+02  0.10566000000E+00 0.  1.
         23    2    1    0    0    0 -0.97664287056E+01 -0.61670437370E+01 -0.26254013587E+02  0.96317448030E+02  0.91947604686E+02 0.  0.
         13    1    3    3    0    0  0.37237279561E+02  0.48479119647E+00  0.76029737891E+01  0.38008767227E+02  0.10566000000E+00 0. -1.
         22    1    1    0    0    0  0.97664287056E+01  0.61670437370E+01  0.26254013587E+02  0.28682551970E+02  0.00000000000E+00 0.  1.
</event>
<event>
 5    1  0.1709463E-003  0.9118800E+02  0.7818608E-02  0.1130116E+00
         25   -1    0    0    0    0  0.00000000000E+00  0.00000000000E+00  0.99999998245E-14  0.12500000000E+03  0.12500000000E+03 0.  0.
        -13    1    3    3    0    0  0.31326660560E+02  0.12764085751E+02 -0.12518781648E+02  0.36069552324E+02  0.10566000000E+00 0. -1.
         23    2    1    0    0    0  0.25081704701E+00 -0.19158026709E+02  0.24433258359E+02  0.93950410460E+02  0.88671317883E+02 0.  0.
         13    1    3    3    0    0 -0.31075843512E+02 -0.31922112460E+02  0.36952040007E+02  0.57880858136E+02  0.10566000000E+00 0.  1.
         22    1    1    0    0    0 -0.25081704701E+00  0.19158026709E+02 -0.24433258359E+02  0.31049589540E+02  0.00000000000E+00 0.  1.
</event>
<event>
 5    1  0.1709463E-003  0.9118800E+02  0.7818608E-02  0.1130116E+00
         25   -1    0    0    0    0  0.00000000000E+00  0.00000000000E+00  0.99999998245E-14  0.12500000000E+03  0.12500000000E+03 0.  0.
        -13    1    3    3    0    0  0.42756626005E+01  0.34133055989E+02 -0.23228075616E+01  0.34478303334E+02  0.10566000000E+00 0.  1.
         23    2    1    0    0    0 -0.96107862979E+01 -0.22197982999E+02  0.16780769348E+02  0.95560029171E+02  0.90912085515E+02 0.  0.
         13    1    3    3    0    0 -0.13886448898E+02 -0.56331038988E+02  0.19103576909E+02  0.61081725837E+02  0.10566000000E+00 0. -1.
         22    1    1    0    0    0  0.96107862979E+01  0.22197982999E+02 -0.16780769348E+02  0.29439970829E+02  0.00000000000E+00 0. -1.
</event>
<event>
 5    1  0.1709463E-003  0.9118800E+02  0.7818608E-02  0.1130116E+00
         25   -1    0    0    0    0  0.00000000000E+00  0.00000000000E+00  0.99999998245E-14  0.12500000000E+03  0.12500000000E+03 0.  0.
        -13    1    3    3    0    0 -0.45066701480E+02 -0.70606109578E+01 -0.33115593243E+02  0.56369437546E+02  0.10566000000E+00 0.  1.
         23    2    1    0    0    0 -0.59262699047E+01 -0.59704207573E+01 -0.27885869215E+02  0.95872894053E+02  0.91341247600E+02 0.  0.
         13    1    3    3    0    0  0.39140431575E+02  0.10901902005E+01  0.52297240282E+01  0.39503456507E+02  0.10566000000E+00 0. -1.
         22    1    1    0    0    0  0.59262699047E+01  0.59704207573E+01  0.27885869215E+02  0.29127105947E+02  0.00000000000E+00 0.  1.
</event>
<event>
 5    1  0.1709463E-003  0.9118800E+02  0.7818608E-02  0.1130116E+00
         25   -1    0    0    0    0  0.00000000000E+00  0.00000000000E+00  0.99999998245E-14  0.12500000000E+03  0.12500000000E+03 0.  0.
        -13    1    3    3    0    0 -0.88137832659E+01 -0.46455239033E+01 -0.49196441973E+02  0.50195266058E+02  0.10566000000E+00 0. -1.
         23    2    1    0    0    0 -0.26982831999E+02  0.64302532160E+01 -0.87217923735E+01  0.95922671352E+02  0.91409342181E+02 0.  0.
         13    1    3    3    0    0 -0.18169048733E+02  0.11075777119E+02  0.40474649599E+02  0.45727405294E+02  0.10566000000E+00 0.  1.
         22    1    1    0    0    0  0.26982831999E+02 -0.64302532160E+01  0.87217923735E+01  0.29077328648E+02  0.00000000000E+00 0. -1.
</event>
<event>
 5    1  0.1709463E-003  0.9118800E+02  0.7818608E-02  0.1130116E+00
         25   -1    0    0    0    0  0.00000000000E+00  0.00000000000E+00  0.99999998245E-14  0.12500000000E+03  0.12500000000E+03 0.  0.
        -13    1    3    3    0    0 -0.38508065632E+02  0.43957863079E+02  0.19959859085E+02  0.61754125238E+02  0.10566000000E+00 0. -1.
         23    2    1    0    0    0 -0.27005169997E+02  0.22056883545E+02  0.80276005922E+01  0.89219730444E+02  0.81730854706E+02 0.  0.
         13    1    3    3    0    0  0.11502895636E+02 -0.21900979534E+02 -0.11932258492E+02  0.27465605206E+02  0.10566000000E+00 0.  1.
         22    1    1    0    0    0  0.27005169997E+02 -0.22056883545E+02 -0.80276005922E+01  0.35780269556E+02  0.00000000000E+00 0. -1.
</event>
<event>
 5    1  0.1709463E-003  0.9118800E+02  0.7818608E-02  0.1130116E+00
         25   -1    0    0    0    0  0.00000000000E+00  0.00000000000E+00  0.99999998245E-14  0.12500000000E+03  0.12500000000E+03 0.  0.
        -13    1    3    3    0    0  0.96157087220E+01  0.48336067216E+02  0.36340557825E+02  0.61233034836E+02  0.10566000000E+00 0.  1.
         23    2    1    0    0    0  0.29847597285E+01  0.26846877574E+02  0.92366869337E+01  0.96452145236E+02  0.92130539503E+02 0.  0.
         13    1    3    3    0    0 -0.66309489936E+01 -0.21489189642E+02 -0.27103870892E+02  0.35219110400E+02  0.10566000000E+00 0. -1.
         22    1    1    0    0    0 -0.29847597285E+01 -0.26846877574E+02 -0.92366869337E+01  0.28547854764E+02  0.00000000000E+00 0.  1.
</event>
<event>
 5    1  0.1709463E-003  0.9118800E+02  0.7818608E-02  0.1130116E+00
         25   -1    0    0    0    0  0.00000000000E+00  0.00000000000E+00  0.99999998245E-14  0.12500000000E+03  0.12500000000E+03 0.  0.
        -13    1    3    3    0    0  0.39857433782E+02 -0.85379661111E+01 -0.19510088054E+02  0.45190337384E+02  0.10566000000E+00 0.  1.
         23    2    1    0    0    0  0.89367659456E-01 -0.28763665759E+02  0.45471495088E+01  0.95878993439E+02  0.91349594195E+02 0.  0.
         13    1    3    3    0    0 -0.39768066123E+02 -0.20225699648E+02  0.24057237563E+02  0.50688656054E+02  0.10566000000E+00 0. -1.
         22    1    1    0    0    0 -0.89367659456E-01  0.28763665759E+02 -0.45471495088E+01  0.29121006561E+02  0.00000000000E+00 0.  1.
</event>
<event>
 5    1  0.1709463E-003  0.9118800E+02  0.7818608E-02  0.1130116E+00
         25   -1    0    0    0    0  0.00000000000E+00  0.00000000000E+00  0.99999998245E-14  0.12500000000E+03  0.12500000000E+03 0.  0.
        -13    1    3    3    0    0 -0.28142176149E+02 -0.32111371252E+02 -0.13985279062E+01  0.42721063732E+02  0.10566000000E+00 0. -1.
         23    2    1    0    0    0 -0.61184522556E+01 -0.69810232859E+01  0.33024667897E+02  0.90695498345E+02  0.83957576109E+02 0.  0.
         13    1    3    3    0    0  0.22023723893E+02  0.25130347966E+02  0.34423195803E+02  0.47974434612E+02  0.10566000000E+00 0.  1.
         22    1    1    0    0    0  0.61184522556E+01  0.69810232859E+01 -0.33024667897E+02  0.34304501655E+02  0.00000000000E+00 0.  1.
</event>
<event>
 5    1  0.1709463E-003  0.9118800E+02  0.7818608E-02  0.1130116E+00
         25   -1    0    0    0    0  0.00000000000E+00  0.00000000000E+00  0.99999998245E-14  0.12500000000E+03  0.12500000000E+03 0.  0.
        -13    1    3    3    0    0 -0.31792566933E+02 -0.37767017441E+01  0.14095939599E+02  0.34981959143E+02  0.10566000000E+00 0. -1.
         23    2    1    0    0    0  0.12120360547E+02  0.96031033937E+01 -0.25215818128E+02  0.95420273523E+02  0.90719724321E+02 0.  0.
         13    1    3    3    0    0  0.43912927481E+02  0.13379805138E+02 -0.39311757727E+02  0.60438314380E+02  0.10566000000E+00 0.  1.
         22    1    1    0    0    0 -0.12120360547E+02 -0.96031033937E+01  0.25215818128E+02  0.29579726477E+02  0.00000000000E+00 0.  1.
</event>
<event>
 5    1  0.1709463E-003  0.9118800E+02  0.7818608E-02  0.1130116E+00
         25   -1    0    0    0    0  0.00000000000E+00  0.00000000000E+00  0.99999998245E-14  0.12500000000E+03  0.12500000000E+03 0.  0.
        -13    1    3    3    0    0 -0.15709601858E+00  0.70266163432E+00 -0.19022273259E+02  0.19036188077E+02  0.10566000000E+00 0. -1.
         23    2    1    0    0    0  0.71007581987E+01 -0.10361759816E+02  0.41837239899E+02  0.81317721261E+02  0.68588849788E+02 0.  0.
         13    1    3    3    0    0  0.72578542172E+01 -0.11064421450E+02  0.60859513158E+02  0.62281533184E+02  0.10566000000E+00 0.  1.
         22    1    1    0    0    0 -0.71007581987E+01  0.10361759816E+02 -0.41837239899E+02  0.43682278739E+02  0.00000000000E+00 0.  1.
</event>
<event>
 5    1  0.1709463E-003  0.9118800E+02  0.7818608E-02  0.1130116E+00
         25   -1    0    0    0    0  0.00000000000E+00  0.00000000000E+00  0.99999998245E-14  0.12500000000E+03  0.12500000000E+03 0.  0.
        -13    1    3    3    0    0  0.19657923339E+02 -0.15071808007E+02 -0.50014532760E+02  0.55812704628E+02  0.10566000000E+00 0.  1.
         23    2    1    0    0    0  0.19204727271E+02  0.10573834831E+02 -0.19665958396E+02  0.95548727494E+02  0.90896544893E+02 0.  0.
         13    1    3    3    0    0 -0.45319606787E+00  0.25645642838E+02  0.30348574365E+02  0.39736022867E+02  0.10566000000E+00 0. -1.
         22    1    1    0    0    0 -0.19204727271E+02 -0.10573834831E+02  0.19665958396E+02  0.29451272506E+02  0.00000000000E+00 0.  1.
</event>
<event>
 5    1  0.1709463E-003  0.9118800E+02  0.7818608E-02  0.1130116E+00
         25   -1    0    0    0    0  0.00000000000E+00  0.00000000000E+00  0.99999998245E-14  0.12500000000E+03  0.12500000000E+03 0.  0.
        -13    1    3    3    0    0  0.43783461890E+02  0.12968762209E+02  0.12828518651E+02  0.47431660135E+02  0.10566000000E+00 0. -1.
         23    2    1    0    0    0  0.36855369237E+02  0.79184360747E+01 -0.20668921825E+02  0.82009021867E+02  0.69837350083E+02 0.  0.
         13    1    3    3    0    0 -0.69280926532E+01 -0.50503261342E+01 -0.33497440476E+02  0.34577361732E+02  0.10566000000E+00 0.  1.
         22    1    1    0    0    0 -0.36855369237E+02 -0.79184360747E+01  0.20668921825E+02  0.42990978133E+02  0.00000000000E+00 0.  1.
</event>
<event>
 5    1  0.1709463E-003  0.9118800E+02  0.7818608E-02  0.1130116E+00
         25   -1    0    0    0    0  0.00000000000E+00  0.00000000000E+00  0.99999998245E-14  0.12500000000E+03  0.12500000000E+03 0.  0.
        -13    1    3    3    0    0 -0.29429743599E+02 -0.42068351565E+02  0.16124656704E+02  0.53813304392E+02  0.10566000000E+00 0. -1.
         23    2    1    0    0    0  0.62502754912E+01 -0.26254250118E+02 -0.39884890146E+01  0.97718877633E+02  0.93833466355E+02 0.  0.
         13    1    3    3    0    0  0.35680019090E+02  0.15814101447E+02 -0.20113145719E+02  0.43905573241E+02  0.10566000000E+00 0.  1.
         22    1    1    0    0    0 -0.62502754912E+01  0.26254250118E+02  0.39884890146E+01  0.27281122367E+02  0.00000000000E+00 0. -1.
</event>
<event>
 5    1  0.1709463E-003  0.9118800E+02  0.7818608E-02  0.1130116E+00
         25   -1    0    0    0    0  0.00000000000E+00  0.00000000000E+00  0.99999998245E-14  0.12500000000E+03  0.12500000000E+03 0.  0.
        -13    1    3    3    0    0  0.29233016483E+01  0.15830743503E+02 -0.31865144013E+02  0.35700934153E+02  0.10566000000E+00 0. -1.
         23    2    1    0    0    0 -0.23536565820E+02 -0.47323350705E+01  0.17447296816E+02  0.95322178449E+02  0.90584461207E+02 0.  0.
         13    1    3    3    0    0 -0.26459867468E+02 -0.20563078573E+02  0.49312440829E+02  0.59621244296E+02  0.10566000000E+00 0.  1.
         22    1    1    0    0    0  0.23536565820E+02  0.47323350705E+01 -0.17447296816E+02  0.29677821551E+02  0.00000000000E+00 0.  1.
</event>
<event>
 5    1  0.1709463E-003  0.9118800E+02  0.7818608E-02  0.1130116E+00
         25   -1    0    0    0    0  0.00000000000E+00  0.00000000000E+00  0.99999998245E-14  0.12500000000E+03  0.12500000000E+03 0.  0.
        -13    1    3    3    0    0 -0.21364506164E+02 -0.49192959563E+02  0.22637501145E+02  0.58213890235E+02  0.10566000000E+00 0. -1.
         23    2    1    0    0    0 -0.12031521011E+02 -0.12974888358E+02  0.23448653479E+02  0.95624081704E+02  0.91000112231E+02 0.  0.
         13    1    3    3    0    0  0.93329851524E+01  0.36218071205E+02  0.81115233360E+00  0.37410191469E+02  0.10566000000E+00 0.  1.
         22    1    1    0    0    0  0.12031521011E+02  0.12974888358E+02 -0.23448653479E+02  0.29375918296E+02  0.00000000000E+00 0. -1.
</event>
<event>
 5    1  0.1709463E-003  0.9118800E+02  0.7818608E-02  0.1130116E+00
         25   -1    0    0    0    0  0.00000000000E+00  0.00000000000E+00  0.99999998245E-14  0.12500000000E+03  0.12500000000E+03 0.  0.
        -13    1    3    3    0    0  0.92319088719E+01 -0.18031210277E+02 -0.54518599572E+02  0.58160480988E+02  0.10566000000E+00 0.  1.
         23    2    1    0    0    0  0.30033833963E+01 -0.24061651564E+02 -0.20559646896E+02  0.93208767430E+02  0.87619586038E+02 0.  0.
         13    1    3    3    0    0 -0.62285254756E+01 -0.60304412865E+01  0.33958952675E+02  0.35048286442E+02  0.10566000000E+00 0. -1.
         22    1    1    0    0    0 -0.30033833963E+01  0.24061651564E+02  0.20559646896E+02  0.31791232570E+02  0.00000000000E+00 0.  1.
</event>
<event>
 5    1  0.1709463E-003  0.9118800E+02  0.7818608E-02  0.1130116E+00
         25   -1    0    0    0    0  0.00000000000E+00  0.00000000000E+00  0.99999998245E-14  0.12500000000E+03  0.12500000000E+03 0.  0.
        -13    1    3    3    0    0 -0.19156386331E+01 -0.44145831724E+02  0.18917737040E+02  0.48066787585E+02  0.10566000000E+00 0.  1.
         23    2    1    0    0    0 -0.17064120460E+02 -0.17154290722E+02 -0.16960772389E+02  0.95451367252E+02  0.90762557329E+02 0.  0.
         13    1    3    3    0    0 -0.15148481827E+02  0.26991541002E+02 -0.35878509429E+02  0.47384579667E+02  0.10566000000E+00 0. -1.
         22    1    1    0    0    0  0.17064120460E+02  0.17154290722E+02  0.16960772389E+02  0.29548632748E+02  0.00000000000E+00 0.  1.
</event>
<event>
 5    1  0.1709463E-003  0.9118800E+02  0.7818608E-02  0.1130116E+00
         25   -1    0    0    0    0  0.00000000000E+00  0.00000000000E+00  0.99999998245E-14  0.12500000000E+03  0.12500000000E+03 0.  0.
        -13    1    3    3    0    0  0.17963927779E+02 -0.27746586556E+02  0.26663203093E+02  0.42467791677E+02  0.10566000000E+00 0. -1.
         23    2    1    0    0    0  0.18499102289E+02  0.18808342610E+02  0.24374635163E+02  0.89082130122E+02  0.81520135736E+02 0.  0.
         13    1    3    3    0    0  0.53517450963E+00  0.46554929166E+02 -0.22885679296E+01  0.46614338445E+02  0.10566000000E+00 0.  1.
         22    1    1    0    0    0 -0.18499102289E+02 -0.18808342610E+02 -0.24374635163E+02  0.35917869878E+02  0.00000000000E+00 0.  1.
</event>
<event>
 5    1  0.1709463E-003  0.9118800E+02  0.7818608E-02  0.1130116E+00
         25   -1    0    0    0    0  0.00000000000E+00  0.00000000000E+00  0.99999998245E-14  0.12500000000E+03  0.12500000000E+03 0.  0.
        -13    1    3    3    0    0  0.14071588314E+02 -0.50144410623E+02  0.13356267680E+02  0.53766835175E+02  0.10566000000E+00 0.  1.
         23    2    1    0    0    0  0.45239408820E+01 -0.14600403555E+02  0.27776820947E+02  0.93295274690E+02  0.87742912378E+02 0.  0.
         13    1    3    3    0    0 -0.95476474319E+01  0.35544007068E+02  0.14420553267E+02  0.39528439515E+02  0.10566000000E+00 0. -1.
         22    1    1    0    0    0 -0.45239408820E+01  0.14600403555E+02 -0.27776820947E+02  0.31704725310E+02  0.00000000000E+00 0.  1.
</event>
<event>
 5    1  0.1709463E-003  0.9118800E+02  0.7818608E-02  0.1130116E+00
         25   -1    0    0    0    0  0.00000000000E+00  0.00000000000E+00  0.99999998245E-14  0.12500000000E+03  0.12500000000E+03 0.  0.
        -13    1    3    3    0    0 -0.32447580796E+02 -0.67802602360E+01 -0.21672512261E+02  0.39604625741E+02  0.10566000000E+00 0.  1.
         23    2    1    0    0    0  0.20457259323E+02 -0.19264441825E+02 -0.97647973462E+01  0.95251563990E+02  0.90486965898E+02 0.  0.
         13    1    3    3    0    0  0.52904840119E+02 -0.12484181589E+02  0.11907714914E+02  0.55646938249E+02  0.10566000000E+00 0. -1.
         22    1    1    0    0    0 -0.20457259323E+02  0.19264441825E+02  0.97647973462E+01  0.29748436010E+02  0.00000000000E+00 0. -1.
</event>
<event>
 5    1  0.1709463E-003  0.9118800E+02  0.7818608E-02  0.1130116E+00
         25   -1    0    0    0    0  0.00000000000E+00  0.00000000000E+00  0.99999998245E-14  0.12500000000E+03  0.12500000000E+03 0.  0.
        -13    1    3    3    0    0  0.92982571521E+01 -0.14677406737E+02 -0.42771725831E+02  0.46166173214E+02  0.10566000000E+00 0. -1.
         23    2    1    0    0    0 -0.99592772165E+01  0.22313981943E+02 -0.17712702751E+02  0.94819860312E+02  0.89888625966E+02 0.  0.
         13    1    3    3    0    0 -0.19257534369E+02  0.36991388680E+02  0.25059023080E+02  0.48653687098E+02  0.10566000000E+00 0.  1.
         22    1    1    0    0    0  0.99592772165E+01 -0.22313981943E+02  0.17712702751E+02  0.30180139688E+02  0.00000000000E+00 0. -1.
</event>
<event>
 5    1  0.1709463E-003  0.9118800E+02  0.7818608E-02  0.1130116E+00
         25   -1    0    0    0    0  0.00000000000E+00  0.00000000000E+00  0.99999998245E-14  0.12500000000E+03  0.12500000000E+03 0.  0.
        -13    1    3    3    0    0  0.62141633674E+01  0.24270574404E+02 -0.17786585557E+02  0.30725403139E+02  0.10566000000E+00 0.  1.
         23    2    1    0    0    0 -0.32078677538E+02 -0.16620315575E+02 -0.11429917356E+02  0.87106472147E+02  0.78432251254E+02 0.  0.
         13    1    3    3    0    0 -0.38292840905E+02 -0.40890889979E+02  0.63566682006E+01  0.56381069008E+02  0.10566000000E+00 0. -1.
         22    1    1    0    0    0  0.32078677538E+02  0.16620315575E+02  0.11429917356E+02  0.37893527853E+02  0.00000000000E+00 0. -1.
</event>
<event>
 5    1  0.1709463E-003  0.9118800E+02  0.7818608E-02  0.1130116E+00
         25   -1    0    0    0    0  0.00000000000E+00  0.00000000000E+00  0.99999998245E-14  0.12500000000E+03  0.12500000000E+03 0.  0.
        -13    1    3    3    0    0 -0.30734530608E+02  0.25600379348E+01 -0.14667872463E+02  0.34151468673E+02  0.10566000000E+00 0. -1.
         23    2    1    0    0    0  0.15315748970E+02 -0.25914847870E+02  0.94868345034E+01  0.93438131621E+02  0.87946193239E+02 0.  0.
         13    1    3    3    0    0  0.46050279578E+02 -0.28474885805E+02  0.24154706966E+02  0.59286662948E+02  0.10566000000E+00 0.  1.
         22    1    1    0    0    0 -0.15315748970E+02  0.25914847870E+02 -0.94868345034E+01  0.31561868379E+02  0.00000000000E+00 0.  1.
</event>
<event>
 5    1  0.1709463E-003  0.9118800E+02  0.7818608E-02  0.1130116E+00
         25   -1    0    0    0    0  0.00000000000E+00  0.00000000000E+00  0.99999998245E-14  0.12500000000E+03  0.12500000000E+03 0.  0.
        -13    1    3    3    0    0 -0.30060667443E+02 -0.25521002907E+01 -0.42869314709E+02  0.52420857019E+02  0.10566000000E+00 0.  1.
         23    2    1    0    0    0 -0.20231804904E+02 -0.19325509950E+02 -0.28950478621E+01  0.96872032306E+02  0.92698479364E+02 0.  0.
         13    1    3    3    0    0  0.98288625383E+01 -0.16773409659E+02  0.39974266847E+02  0.44451175286E+02  0.10566000000E+00 0. -1.
         22    1    1    0    0    0  0.20231804904E+02  0.19325509950E+02  0.28950478621E+01  0.28127967694E+02  0.00000000000E+00 0. -1.
</event>
<event>
 5    1  0.1709463E-003  0.9118800E+02  0.7818608E-02  0.1130116E+00
         25   -1    0    0    0    0  0.00000000000E+00  0.00000000000E+00  0.99999998245E-14  0.12500000000E+03  0.12500000000E+03 0.  0.
        -13    1    3    3    0    0  0.26319172828E+02 -0.27362825118E+01 -0.16251819152E+02  0.31053484348E+02  0.10566000000E+00 0.  1.
         23    2    1    0    0    0  0.34393668266E+02 -0.62711037173E+01  0.30485290314E+02  0.78614613463E+02  0.63471673728E+02 0.  0.
         13    1    3    3    0    0  0.80744954377E+01 -0.35348212055E+01  0.46737109466E+02  0.47561129116E+02  0.10566000000E+00 0. -1.
         22    1    1    0    0    0 -0.34393668266E+02  0.62711037173E+01 -0.30485290314E+02  0.46385386537E+02  0.00000000000E+00 0. -1.
</event>
<event>
 5    1  0.1709463E-003  0.9118800E+02  0.7818608E-02  0.1130116E+00
         25   -1    0    0    0    0  0.00000000000E+00  0.00000000000E+00  0.99999998245E-14  0.12500000000E+03  0.12500000000E+03 0.  0.
        -13    1    3    3    0    0 -0.45863859292E+02  0.67687283601E+01  0.22283276538E+02  0.51437970897E+02  0.10566000000E+00 0. -1.
         23    2    1    0    0    0 -0.55294040954E+01  0.24082131014E+02  0.15445757369E+02  0.95860769322E+02  0.91324653465E+02 0.  0.
         13    1    3    3    0    0  0.40334455196E+02  0.17313402654E+02 -0.68375191696E+01  0.44422798424E+02  0.10566000000E+00 0.  1.
         22    1    1    0    0    0  0.55294040954E+01 -0.24082131014E+02 -0.15445757369E+02  0.29139230678E+02  0.00000000000E+00 0. -1.
</event>
<event>
 5    1  0.1709463E-003  0.9118800E+02  0.7818608E-02  0.1130116E+00
         25   -1    0    0    0    0  0.00000000000E+00  0.00000000000E+00  0.99999998245E-14  0.12500000000E+03  0.12500000000E+03 0.  0.
        -13    1    3    3    0    0 -0.35890572672E+02 -0.36067758591E+02 -0.17379994048E+02  0.53768873651E+02  0.10566000000E+00 0. -1.
         23    2    1    0    0    0  0.56736564729E+01 -0.24196273478E+02 -0.12230478416E+02  0.97300999472E+02  0.93275129954E+02 0.  0.
         13    1    3    3    0    0  0.41564229145E+02  0.11871485113E+02  0.51495156325E+01  0.43532125821E+02  0.10566000000E+00 0.  1.
         22    1    1    0    0    0 -0.56736564729E+01  0.24196273478E+02  0.12230478416E+02  0.27699000528E+02  0.00000000000E+00 0. -1.
</event>
<event>
 5    1  0.1709463E-003  0.9118800E+02  0.7818608E-02  0.1130116E+00
         25   -1    0    0    0    0  0.00000000000E+00  0.00000000000E+00  0.99999998245E-14  0.12500000000E+03  0.12500000000E+03 0.  0.
        -13    1    3    3    0    0  0.15971091273E+01  0.10885056979E+01  0.33575211609E+02  0.33630961937E+02  0.10566000000E+00 0.  1.
         23    2    1    0    0    0 -0.11589074878E+02 -0.65655059431E+01 -0.26355054995E+02  0.95470329351E+02  0.90788668554E+02 0.  0.
         13    1    3    3    0    0 -0.13186184006E+02 -0.76540116410E+01 -0.59930266604E+02  0.61839367414E+02  0.10566000000E+00 0. -1.
         22    1    1    0    0    0  0.11589074878E+02  0.65655059431E+01  0.26355054995E+02  0.29529670649E+02  0.00000000000E+00 0. -1.
</event>
<event>
 5    1  0.1709463E-003  0.9118800E+02  0.7818608E-02  0.1130116E+00
         25   -1    0    0    0    0  0.00000000000E+00  0.00000000000E+00  0.99999998245E-14  0.12500000000E+03  0.12500000000E+03 0.  0.
        -13    1    3    3    0    0  0.59486554954E+01 -0.24789703117E+02  0.19699956717E+02  0.32218245476E+02  0.10566000000E+00 0.  1.
         23    2    1    0    0    0 -0.53474899208E+01  0.25606454765E+02 -0.15382505663E+02  0.94653539671E+02  0.89657040536E+02 0.  0.
         13    1    3    3    0    0 -0.11296145416E+02  0.50396157882E+02 -0.35082462380E+02  0.62435294195E+02  0.10566000000E+00 0. -1.
         22    1    1    0    0    0  0.53474899208E+01 -0.25606454765E+02  0.15382505663E+02  0.30346460329E+02  0.00000000000E+00 0. -1.
</event>
<event>
 5    1  0.1709463E-003  0.9118800E+02  0.7818608E-02  0.1130116E+00
         25   -1    0    0    0    0  0.00000000000E+00  0.00000000000E+00  0.99999998245E-14  0.12500000000E+03  0.12500000000E+03 0.  0.
        -13    1    3    3    0    0  0.52392835343E+02 -0.24658305020E+02 -0.19851348317E+02  0.61213792529E+02  0.10566000000E+00 0. -1.
         23    2    1    0    0    0  0.25808286743E+02 -0.12371749142E+02 -0.39016978728E+00  0.96376931089E+02  0.92028434585E+02 0.  0.
         13    1    3    3    0    0 -0.26584548600E+02  0.12286555878E+02  0.19461178530E+02  0.35163138560E+02  0.10566000000E+00 0.  1.
         22    1    1    0    0    0 -0.25808286743E+02  0.12371749142E+02  0.39016978728E+00  0.28623068911E+02  0.00000000000E+00 0. -1.
</event>
<event>
 5    1  0.1709463E-003  0.9118800E+02  0.7818608E-02  0.1130116E+00
         25   -1    0    0    0    0  0.00000000000E+00  0.00000000000E+00  0.99999998245E-14  0.12500000000E+03  0.12500000000E+03 0.  0.
        -13    1    3    3    0    0  0.30557863868E+02 -0.39253150263E+02 -0.45963945614E+01  0.49957290326E+02  0.10566000000E+00 0.  1.
         23    2    1    0    0    0  0.27243369315E+02  0.47986591280E+01 -0.12170490741E+02  0.94778333171E+02  0.89830859356E+02 0.  0.
         13    1    3    3    0    0 -0.33144945529E+01  0.44051809391E+02 -0.75740961792E+01  0.44821042845E+02  0.10566000000E+00 0. -1.
         22    1    1    0    0    0 -0.27243369315E+02 -0.47986591280E+01  0.12170490741E+02  0.30221666829E+02  0.00000000000E+00 0.  1.
</event>
<event>
 5    1  0.1709463E-003  0.9118800E+02  0.7818608E-02  0.1130116E+00
         25   -1    0    0    0    0  0.00000000000E+00  0.00000000000E+00  0.99999998245E-14  0.12500000000E+03  0.12500000000E+03 0.  0.
        -13    1    3    3    0    0  0.86641182045E+01  0.37965413305E+02 -0.46963229237E+02  0.61008160242E+02  0.10566000000E+00 0. -1.
         23    2    1    0    0    0 -0.38296933788E+01  0.24462651917E+02 -0.23120216905E+02  0.91123277609E+02  0.84592076475E+02 0.  0.
         13    1    3    3    0    0 -0.12493811583E+02 -0.13502761388E+02  0.23843012332E+02  0.30115117368E+02  0.10566000000E+00 0.  1.
         22    1    1    0    0    0  0.38296933788E+01 -0.24462651917E+02  0.23120216905E+02  0.33876722391E+02  0.00000000000E+00 0. -1.
</event>
<event>
 5    1  0.1709463E-003  0.9118800E+02  0.7818608E-02  0.1130116E+00
         25   -1    0    0    0    0  0.00000000000E+00  0.00000000000E+00  0.99999998245E-14  0.12500000000E+03  0.12500000000E+03 0.  0.
        -13    1    3    3    0    0  0.15678105908E+02  0.43510556722E+01 -0.42392168213E+02  0.45407507971E+02  0.10566000000E+00 0.  1.
         23    2    1    0    0    0 -0.62943433077E+01 -0.22935483360E+02  0.10225316846E+01  0.10119452320E+03  0.98354617583E+02 0.  0.
         13    1    3    3    0    0 -0.21972449216E+02 -0.27286539032E+02  0.43414699898E+02  0.55787015229E+02  0.10566000000E+00 0. -1.
         22    1    1    0    0    0  0.62943433077E+01  0.22935483360E+02 -0.10225316846E+01  0.23805476800E+02  0.00000000000E+00 0. -1.
</event>
<event>
 5    1  0.1709463E-003  0.9118800E+02  0.7818608E-02  0.1130116E+00
         25   -1    0    0    0    0  0.00000000000E+00  0.00000000000E+00  0.99999998245E-14  0.12500000000E+03  0.12500000000E+03 0.  0.
        -13    1    3    3    0    0 -0.76285994619E+01  0.34939616821E+02 -0.27357171139E+02  0.45026640227E+02  0.10566000000E+00 0. -1.
         23    2    1    0    0    0 -0.28358317624E+02  0.30286254330E+01  0.62591579150E+01  0.95801647165E+02  0.91243694528E+02 0.  0.
         13    1    3    3    0    0 -0.20729718162E+02 -0.31910991388E+02  0.33616329054E+02  0.50775006938E+02  0.10566000000E+00 0.  1.
         22    1    1    0    0    0  0.28358317624E+02 -0.30286254330E+01 -0.62591579150E+01  0.29198352835E+02  0.00000000000E+00 0.  1.
</event>
<event>
 5    1  0.1709463E-003  0.9118800E+02  0.7818608E-02  0.1130116E+00
         25   -1    0    0    0    0  0.00000000000E+00  0.00000000000E+00  0.99999998245E-14  0.12500000000E+03  0.12500000000E+03 0.  0.
        -13    1    3    3    0    0 -0.14632111043E+02  0.34192550478E+01  0.53564422622E+02  0.55632261446E+02  0.10566000000E+00 0. -1.
         23    2    1    0    0    0 -0.26967995973E+02  0.60927261898E+01  0.21868736685E+02  0.89748960817E+02  0.82536296284E+02 0.  0.
         13    1    3    3    0    0 -0.12335884930E+02  0.26734711420E+01 -0.31695685937E+02  0.34116699372E+02  0.10566000000E+00 0.  1.
         22    1    1    0    0    0  0.26967995973E+02 -0.60927261898E+01 -0.21868736685E+02  0.35251039183E+02  0.00000000000E+00 0. -1.
</event>
<event>
 5    1  0.1709463E-003  0.9118800E+02  0.7818608E-02  0.1130116E+00
         25   -1    0    0    0    0  0.00000000000E+00  0.00000000000E+00  0.99999998245E-14  0.12500000000E+03  0.12500000000E+03 0.  0.
        -13    1    3    3    0    0 -0.10717580771E+02 -0.59460978490E+02  0.12860408939E+02  0.61772775417E+02  0.10566000000E+00 0. -1.
         23    2    1    0    0    0 -0.49478481463E+00 -0.25256906072E+02  0.10785160947E+02  0.97532276888E+02  0.93584556535E+02 0.  0.
         13    1    3    3    0    0  0.10222795957E+02  0.34204072418E+02 -0.20752479919E+01  0.35759501471E+02  0.10566000000E+00 0.  1.
         22    1    1    0    0    0  0.49478481463E+00  0.25256906072E+02 -0.10785160947E+02  0.27467723112E+02  0.00000000000E+00 0. -1.
</event>
<event>
 5    1  0.1709463E-003  0.9118800E+02  0.7818608E-02  0.1130116E+00
         25   -1    0    0    0    0  0.00000000000E+00  0.00000000000E+00  0.99999998245E-14  0.12500000000E+03  0.12500000000E+03 0.  0.
        -13    1    3    3    0    0  0.42394635326E+02  0.43024749580E+02  0.11818198095E+02  0.61547665684E+02  0.10566000000E+00 0.  1.
         23    2    1    0    0    0  0.23621055115E+02  0.15512217866E+02  0.10407768630E+02  0.94885139952E+02  0.89979358677E+02 0.  0.
         13    1    3    3    0    0 -0.18773580210E+02 -0.27512531715E+02 -0.14104294644E+01  0.33337474268E+02  0.10566000000E+00 0. -1.
         22    1    1    0    0    0 -0.23621055115E+02 -0.15512217866E+02 -0.10407768630E+02  0.30114860048E+02  0.00000000000E+00 0.  1.
</event>
<event>
 5    1  0.1709463E-003  0.9118800E+02  0.7818608E-02  0.1130116E+00
         25   -1    0    0    0    0  0.00000000000E+00  0.00000000000E+00  0.99999998245E-14  0.12500000000E+03  0.12500000000E+03 0.  0.
        -13    1    3    3    0    0  0.21913341317E+02  0.26595239280E+02  0.12204053055E+02  0.36557507506E+02  0.10566000000E+00 0.  1.
         23    2    1    0    0    0 -0.11618415622E+02 -0.10916764786E+01 -0.27302047132E+02  0.95308568294E+02  0.90565678232E+02 0.  0.
         13    1    3    3    0    0 -0.33531756940E+02 -0.27686915759E+02 -0.39506100187E+02  0.58751060788E+02  0.10566000000E+00 0. -1.
         22    1    1    0    0    0  0.11618415622E+02  0.10916764786E+01  0.27302047132E+02  0.29691431706E+02  0.00000000000E+00 0. -1.
</event>
<event>
 5    1  0.1709463E-003  0.9118800E+02  0.7818608E-02  0.1130116E+00
         25   -1    0    0    0    0  0.00000000000E+00  0.00000000000E+00  0.99999998245E-14  0.12500000000E+03  0.12500000000E+03 0.  0.
        -13    1    3    3    0    0 -0.64313246442E+01  0.41160993335E+02 -0.23173708766E+01  0.41724940753E+02  0.10566000000E+00 0. -1.
         23    2    1    0    0    0 -0.30877205100E+02 -0.45544813779E+01  0.18534727474E+01  0.93733716936E+02  0.88365316918E+02 0.  0.
         13    1    3    3    0    0 -0.24445880456E+02 -0.45715474713E+02  0.41708436240E+01  0.52008776183E+02  0.10566000000E+00 0.  1.
         22    1    1    0    0    0  0.30877205100E+02  0.45544813779E+01 -0.18534727474E+01  0.31266283064E+02  0.00000000000E+00 0.  1.
</event>
<event>
 5    1  0.1709463E-003  0.9118800E+02  0.7818608E-02  0.1130116E+00
         25   -1    0    0    0    0  0.00000000000E+00  0.00000000000E+00  0.99999998245E-14  0.12500000000E+03  0.12500000000E+03 0.  0.
        -13    1    3    3    0    0 -0.23735059674E+02 -0.32694095923E+02 -0.19024069316E+02  0.44656279999E+02  0.10566000000E+00 0. -1.
         23    2    1    0    0    0  0.23172580825E+02 -0.15127005320E+02 -0.34394659720E+01  0.97114076701E+02  0.93024293468E+02 0.  0.
         13    1    3    3    0    0  0.46907640499E+02  0.17567090603E+02  0.15584603344E+02  0.52457796703E+02  0.10566000000E+00 0.  1.
         22    1    1    0    0    0 -0.23172580825E+02  0.15127005320E+02  0.34394659720E+01  0.27885923299E+02  0.00000000000E+00 0.  1.
</event>
<event>
 5    1  0.1709463E-003  0.9118800E+02  0.7818608E-02  0.1130116E+00
         25   -1    0    0    0    0  0.00000000000E+00  0.00000000000E+00  0.99999998245E-14  0.12500000000E+03  0.12500000000E+03 0.  0.
        -13    1    3    3    0    0 -0.13378562252E+02 -0.33322275966E+02 -0.18072591427E+02  0.40199374727E+02  0.10566000000E+00 0.  1.
         23    2    1    0    0    0 -0.13063677498E+02  0.22179963902E+02 -0.13611401586E+02  0.95881608533E+02  0.91353172541E+02 0.  0.
         13    1    3    3    0    0  0.31488475382E+00  0.55502239868E+02  0.44611898408E+01  0.55682233806E+02  0.10566000000E+00 0. -1.
         22    1    1    0    0    0  0.13063677498E+02 -0.22179963902E+02  0.13611401586E+02  0.29118391467E+02  0.00000000000E+00 0.  1.
</event>
<event>
 5    1  0.1709463E-003  0.9118800E+02  0.7818608E-02  0.1130116E+00
         25   -1    0    0    0    0  0.00000000000E+00  0.00000000000E+00  0.99999998245E-14  0.12500000000E+03  0.12500000000E+03 0.  0.
        -13    1    3    3    0    0  0.49611644641E+01  0.12572693070E+02 -0.45116232461E+02  0.47097466592E+02  0.10566000000E+00 0. -1.
         23    2    1    0    0    0  0.17034255882E+02  0.24203094134E+02  0.18690544864E+00  0.95402862085E+02  0.90695730446E+02 0.  0.
         13    1    3    3    0    0  0.12073091418E+02  0.11630401064E+02  0.45303137909E+02  0.48305395493E+02  0.10566000000E+00 0.  1.
         22    1    1    0    0    0 -0.17034255882E+02 -0.24203094134E+02 -0.18690544864E+00  0.29597137915E+02  0.00000000000E+00 0.  1.
</event>
<event>
 5    1  0.1709463E-003  0.9118800E+02  0.7818608E-02  0.1130116E+00
         25   -1    0    0    0    0  0.00000000000E+00  0.00000000000E+00  0.99999998245E-14  0.12500000000E+03  0.12500000000E+03 0.  0.
        -13    1    3    3    0    0  0.35152373302E+02 -0.19359067426E+02  0.29615523283E+02  0.49875376928E+02  0.10566000000E+00 0. -1.
         23    2    1    0    0    0  0.13790549039E+01 -0.29563609489E+02  0.85855428933E+00  0.95391793133E+02  0.90680473549E+02 0.  0.
         13    1    3    3    0    0 -0.33773318398E+02 -0.10204542063E+02 -0.28756968994E+02  0.45516416204E+02  0.10566000000E+00 0.  1.
         22    1    1    0    0    0 -0.13790549039E+01  0.29563609489E+02 -0.85855428933E+00  0.29608206867E+02  0.00000000000E+00 0. -1.
</event>
<event>
 5    1  0.1709463E-003  0.9118800E+02  0.7818608E-02  0.1130116E+00
         25   -1    0    0    0    0  0.00000000000E+00  0.00000000000E+00  0.99999998245E-14  0.12500000000E+03  0.12500000000E+03 0.  0.
        -13    1    3    3    0    0  0.22613506635E+02  0.41739652337E+02 -0.14365591944E+01  0.47493621950E+02  0.10566000000E+00 0.  1.
         23    2    1    0    0    0  0.38850003035E+02  0.12486250859E+02 -0.11802904413E+02  0.82520148907E+02  0.70746287724E+02 0.  0.
         13    1    3    3    0    0  0.16236496400E+02 -0.29253401479E+02 -0.10366345218E+02  0.35026526957E+02  0.10566000000E+00 0. -1.
         22    1    1    0    0    0 -0.38850003035E+02 -0.12486250859E+02  0.11802904413E+02  0.42479851093E+02  0.00000000000E+00 0.  1.
</event>
<event>
 5    1  0.1709463E-003  0.9118800E+02  0.7818608E-02  0.1130116E+00
         25   -1    0    0    0    0  0.00000000000E+00  0.00000000000E+00  0.99999998245E-14  0.12500000000E+03  0.12500000000E+03 0.  0.
        -13    1    3    3    0    0 -0.33267860391E+02 -0.22668637611E+02  0.11966980214E+02  0.41998064784E+02  0.10566000000E+00 0. -1.
         23    2    1    0    0    0 -0.13666597279E+02  0.24736252660E+02 -0.55414518780E+01  0.96201288818E+02  0.91789553896E+02 0.  0.
         13    1    3    3    0    0  0.19601263112E+02  0.47404890272E+02 -0.17508432092E+02  0.54203224033E+02  0.10566000000E+00 0.  1.
         22    1    1    0    0    0  0.13666597279E+02 -0.24736252660E+02  0.55414518780E+01  0.28798711182E+02  0.00000000000E+00 0.  1.
</event>
<event>
 5    1  0.1709463E-003  0.9118800E+02  0.7818608E-02  0.1130116E+00
         25   -1    0    0    0    0  0.00000000000E+00  0.00000000000E+00  0.99999998245E-14  0.12500000000E+03  0.12500000000E+03 0.  0.
        -13    1    3    3    0    0 -0.52498286129E+02 -0.26080235545E+02  0.21325819031E+02  0.62378285116E+02  0.10566000000E+00 0. -1.
         23    2    1    0    0    0 -0.25381760362E+02 -0.99078717063E+01  0.11271277858E+02  0.95513708518E+02  0.90848374390E+02 0.  0.
         13    1    3    3    0    0  0.27116525767E+02  0.16172363839E+02 -0.10054541173E+02  0.33135423402E+02  0.10566000000E+00 0.  1.
         22    1    1    0    0    0  0.25381760362E+02  0.99078717063E+01 -0.11271277858E+02  0.29486291482E+02  0.00000000000E+00 0. -1.
</event>
<event>
 5    1  0.1709463E-003  0.9118800E+02  0.7818608E-02  0.1130116E+00
         25   -1    0    0    0    0  0.00000000000E+00  0.00000000000E+00  0.99999998245E-14  0.12500000000E+03  0.12500000000E+03 0.  0.
        -13    1    3    3    0    0  0.43753194618E+02  0.15797341358E+02 -0.20546581650E+02  0.50853428742E+02  0.10566000000E+00 0.  1.
         23    2    1    0    0    0  0.25394455100E+02 -0.19123458100E+02 -0.90310275503E+01  0.91952391037E+02  0.85808494680E+02 0.  0.
         13    1    3    3    0    0 -0.18358739518E+02 -0.34920799458E+02  0.11515554100E+02  0.41098962295E+02  0.10566000000E+00 0. -1.
         22    1    1    0    0    0 -0.25394455100E+02  0.19123458100E+02  0.90310275503E+01  0.33047608963E+02  0.00000000000E+00 0. -1.
</event>
<event>
 5    1  0.1709463E-003  0.9118800E+02  0.7818608E-02  0.1130116E+00
         25   -1    0    0    0    0  0.00000000000E+00  0.00000000000E+00  0.99999998245E-14  0.12500000000E+03  0.12500000000E+03 0.  0.
        -13    1    3    3    0    0  0.21848543711E+01 -0.17353912111E+02  0.49090511498E+02  0.52113542744E+02  0.10566000000E+00 0. -1.
         23    2    1    0    0    0  0.22975205259E+02 -0.15911027521E+02  0.12152170777E+02  0.94525484284E+02  0.89478327382E+02 0.  0.
         13    1    3    3    0    0  0.20790350888E+02  0.14428845894E+01 -0.36938340721E+02  0.42411941541E+02  0.10566000000E+00 0.  1.
         22    1    1    0    0    0 -0.22975205259E+02  0.15911027521E+02 -0.12152170777E+02  0.30474515716E+02  0.00000000000E+00 0. -1.
</event>
<event>
 5    1  0.1709463E-003  0.9118800E+02  0.7818608E-02  0.1130116E+00
         25   -1    0    0    0    0  0.00000000000E+00  0.00000000000E+00  0.99999998245E-14  0.12500000000E+03  0.12500000000E+03 0.  0.
        -13    1    3    3    0    0 -0.24887820346E+02  0.77621540569E+01  0.31110580247E+02  0.40589826367E+02  0.10566000000E+00 0.  1.
         23    2    1    0    0    0 -0.60713372488E+01 -0.22992534849E+02 -0.13268096134E+02  0.97768397591E+02  0.93899411061E+02 0.  0.
         13    1    3    3    0    0  0.18816483097E+02 -0.30754688906E+02 -0.44378676380E+02  0.57178571224E+02  0.10566000000E+00 0. -1.
         22    1    1    0    0    0  0.60713372488E+01  0.22992534849E+02  0.13268096134E+02  0.27231602409E+02  0.00000000000E+00 0. -1.
</event>
<event>
 5    1  0.1709463E-003  0.9118800E+02  0.7818608E-02  0.1130116E+00
         25   -1    0    0    0    0  0.00000000000E+00  0.00000000000E+00  0.99999998245E-14  0.12500000000E+03  0.12500000000E+03 0.  0.
        -13    1    3    3    0    0  0.42206737964E+02  0.12128159798E+02 -0.23504784910E+02  0.49809507800E+02  0.10566000000E+00 0. -1.
         23    2    1    0    0    0  0.18694776650E+02 -0.21294515421E+02 -0.59580816434E+00  0.96657345778E+02  0.92408530150E+02 0.  0.
         13    1    3    3    0    0 -0.23511961314E+02 -0.33422675219E+02  0.22908976745E+02  0.46847837977E+02  0.10566000000E+00 0.  1.
         22    1    1    0    0    0 -0.18694776650E+02  0.21294515421E+02  0.59580816434E+00  0.28342654222E+02  0.00000000000E+00 0. -1.
</event>
<event>
 5    1  0.1709463E-003  0.9118800E+02  0.7818608E-02  0.1130116E+00
         25   -1    0    0    0    0  0.00000000000E+00  0.00000000000E+00  0.99999998245E-14  0.12500000000E+03  0.12500000000E+03 0.  0.
        -13    1    3    3    0    0 -0.66658704404E+01  0.38422998247E+02 -0.43537676185E+02  0.58449132027E+02  0.10566000000E+00 0.  1.
         23    2    1    0    0    0 -0.51079868265E+01  0.61355157033E+01 -0.30781178419E+02  0.93200361209E+02  0.87607592721E+02 0.  0.
         13    1    3    3    0    0  0.15578836139E+01 -0.32287482544E+02  0.12756497767E+02  0.34751229183E+02  0.10566000000E+00 0. -1.
         22    1    1    0    0    0  0.51079868265E+01 -0.61355157033E+01  0.30781178419E+02  0.31799638791E+02  0.00000000000E+00 0.  1.
</event>
<event>
 5    1  0.1709463E-003  0.9118800E+02  0.7818608E-02  0.1130116E+00
         25   -1    0    0    0    0  0.00000000000E+00  0.00000000000E+00  0.99999998245E-14  0.12500000000E+03  0.12500000000E+03 0.  0.
        -13    1    3    3    0    0 -0.46202746689E+02  0.29923129530E+02  0.20469648037E+02  0.58729082551E+02  0.10566000000E+00 0.  1.
         23    2    1    0    0    0 -0.12037484322E+02  0.25148882118E+02  0.44453473761E+01  0.96766537338E+02  0.92556114517E+02 0.  0.
         13    1    3    3    0    0  0.34165262368E+02 -0.47742474121E+01 -0.16024300660E+02  0.38037454787E+02  0.10566000000E+00 0. -1.
         22    1    1    0    0    0  0.12037484322E+02 -0.25148882118E+02 -0.44453473761E+01  0.28233462662E+02  0.00000000000E+00 0.  1.
</event>
<event>
 5    1  0.1709463E-003  0.9118800E+02  0.7818608E-02  0.1130116E+00
         25   -1    0    0    0    0  0.00000000000E+00  0.00000000000E+00  0.99999998245E-14  0.12500000000E+03  0.12500000000E+03 0.  0.
        -13    1    3    3    0    0  0.21910793633E+02  0.21005713928E+02  0.31871761235E+01  0.30520356337E+02  0.10566000000E+00 0.  1.
         23    2    1    0    0    0 -0.12951082923E+02 -0.27205253654E+02 -0.13009651074E+02  0.92180685621E+02  0.86140416793E+02 0.  0.
         13    1    3    3    0    0 -0.34861876556E+02 -0.48210967582E+02 -0.16196827197E+02  0.61660329284E+02  0.10566000000E+00 0. -1.
         22    1    1    0    0    0  0.12951082923E+02  0.27205253654E+02  0.13009651074E+02  0.32819314379E+02  0.00000000000E+00 0. -1.
</event>
<event>
 5    1  0.1709463E-003  0.9118800E+02  0.7818608E-02  0.1130116E+00
         25   -1    0    0    0    0  0.00000000000E+00  0.00000000000E+00  0.99999998245E-14  0.12500000000E+03  0.12500000000E+03 0.  0.
        -13    1    3    3    0    0  0.20972663678E+02  0.26584222583E+02 -0.17465445569E+02  0.38100216076E+02  0.10566000000E+00 0.  1.
         23    2    1    0    0    0 -0.27955201667E+02 -0.23385820296E+01 -0.88335711474E+01  0.95589215492E+02  0.90952206532E+02 0.  0.
         13    1    3    3    0    0 -0.48927865345E+02 -0.28922804612E+02  0.86318744212E+01  0.57488999417E+02  0.10566000000E+00 0. -1.
         22    1    1    0    0    0  0.27955201667E+02  0.23385820296E+01  0.88335711474E+01  0.29410784508E+02  0.00000000000E+00 0. -1.
</event>
<event>
 5    1  0.1709463E-003  0.9118800E+02  0.7818608E-02  0.1130116E+00
         25   -1    0    0    0    0  0.00000000000E+00  0.00000000000E+00  0.99999998245E-14  0.12500000000E+03  0.12500000000E+03 0.  0.
        -13    1    3    3    0    0 -0.20194932123E+02 -0.41736892822E+02 -0.30804793685E+02  0.55666417021E+02  0.10566000000E+00 0.  1.
         23    2    1    0    0    0 -0.88481539274E+01 -0.31866794771E+01 -0.27440613330E+02  0.95992552441E+02  0.91504852932E+02 0.  0.
         13    1    3    3    0    0  0.11346778196E+02  0.38550213345E+02  0.33641803555E+01  0.40326135420E+02  0.10566000000E+00 0. -1.
         22    1    1    0    0    0  0.88481539274E+01  0.31866794771E+01  0.27440613330E+02  0.29007447559E+02  0.00000000000E+00 0.  1.
</event>
<event>
 5    1  0.1709463E-003  0.9118800E+02  0.7818608E-02  0.1130116E+00
         25   -1    0    0    0    0  0.00000000000E+00  0.00000000000E+00  0.99999998245E-14  0.12500000000E+03  0.12500000000E+03 0.  0.
        -13    1    3    3    0    0 -0.45987742527E+02  0.12944274168E+02 -0.13310226694E+02  0.49594354469E+02  0.10566000000E+00 0.  1.
         23    2    1    0    0    0 -0.44446000565E+01  0.14059597417E+02 -0.27738364616E+02  0.93585932757E+02  0.88156016182E+02 0.  0.
         13    1    3    3    0    0  0.41543142471E+02  0.11153232488E+01 -0.14428137923E+02  0.43991578288E+02  0.10566000000E+00 0. -1.
         22    1    1    0    0    0  0.44446000565E+01 -0.14059597417E+02  0.27738364616E+02  0.31414067243E+02  0.00000000000E+00 0.  1.
</event>
<event>
 5    1  0.1709463E-003  0.9118800E+02  0.7818608E-02  0.1130116E+00
         25   -1    0    0    0    0  0.00000000000E+00  0.00000000000E+00  0.99999998245E-14  0.12500000000E+03  0.12500000000E+03 0.  0.
        -13    1    3    3    0    0  0.42848786165E+02  0.14841644134E+02 -0.41380777689E+02  0.61389517042E+02  0.10566000000E+00 0.  1.
         23    2    1    0    0    0  0.28265352804E+02  0.84787822962E+01 -0.15769168696E+02  0.91541270201E+02  0.85207497031E+02 0.  0.
         13    1    3    3    0    0 -0.14583433361E+02 -0.63628618373E+01  0.25611608993E+02  0.30151753160E+02  0.10566000000E+00 0. -1.
         22    1    1    0    0    0 -0.28265352804E+02 -0.84787822962E+01  0.15769168696E+02  0.33458729799E+02  0.00000000000E+00 0.  1.
</event>
<event>
 5    1  0.1709463E-003  0.9118800E+02  0.7818608E-02  0.1130116E+00
         25   -1    0    0    0    0  0.00000000000E+00  0.00000000000E+00  0.99999998245E-14  0.12500000000E+03  0.12500000000E+03 0.  0.
        -13    1    3    3    0    0  0.55708593269E+02  0.22718023800E+02  0.14347882563E+02  0.61850051475E+02  0.10566000000E+00 0. -1.
         23    2    1    0    0    0  0.22549097538E+02  0.94980044232E+01  0.12320377701E+02  0.97605372890E+02  0.93682139292E+02 0.  0.
         13    1    3    3    0    0 -0.33159495731E+02 -0.13220019377E+02 -0.20275048615E+01  0.35755321415E+02  0.10566000000E+00 0.  1.
         22    1    1    0    0    0 -0.22549097538E+02 -0.94980044232E+01 -0.12320377701E+02  0.27394627110E+02  0.00000000000E+00 0. -1.
</event>
<event>
 5    1  0.1709463E-003  0.9118800E+02  0.7818608E-02  0.1130116E+00
         25   -1    0    0    0    0  0.00000000000E+00  0.00000000000E+00  0.99999998245E-14  0.12500000000E+03  0.12500000000E+03 0.  0.
        -13    1    3    3    0    0  0.46437229704E+02 -0.60441562896E+01  0.24359848757E+02  0.52785997417E+02  0.10566000000E+00 0.  1.
         23    2    1    0    0    0  0.31925591400E+02  0.17542736752E+01 -0.10502924894E+02  0.91345397139E+02  0.84919663711E+02 0.  0.
         13    1    3    3    0    0 -0.14511638304E+02  0.77984299648E+01 -0.34862773651E+02  0.38559399721E+02  0.10566000000E+00 0. -1.
         22    1    1    0    0    0 -0.31925591400E+02 -0.17542736752E+01  0.10502924894E+02  0.33654602861E+02  0.00000000000E+00 0.  1.
</event>
<event>
 5    1  0.1709463E-003  0.9118800E+02  0.7818608E-02  0.1130116E+00
         25   -1    0    0    0    0  0.00000000000E+00  0.00000000000E+00  0.99999998245E-14  0.12500000000E+03  0.12500000000E+03 0.  0.
        -13    1    3    3    0    0 -0.14275535143E+02  0.27753871492E+02 -0.50974735799E+02  0.59770420278E+02  0.10566000000E+00 0. -1.
         23    2    1    0    0    0 -0.58188421206E+01  0.22631619439E+02 -0.14643284477E+02  0.97423290582E+02  0.93438871170E+02 0.  0.
         13    1    3    3    0    0  0.84566930219E+01 -0.51222520529E+01  0.36331451322E+02  0.37652870304E+02  0.10566000000E+00 0.  1.
         22    1    1    0    0    0  0.58188421206E+01 -0.22631619439E+02  0.14643284477E+02  0.27576709418E+02  0.00000000000E+00 0. -1.
</event>
<event>
 5    1  0.1709463E-003  0.9118800E+02  0.7818608E-02  0.1130116E+00
         25   -1    0    0    0    0  0.00000000000E+00  0.00000000000E+00  0.99999998245E-14  0.12500000000E+03  0.12500000000E+03 0.  0.
        -13    1    3    3    0    0  0.56472521858E+02  0.20829963924E+02  0.98972884342E+01  0.61000004955E+02  0.10566000000E+00 0. -1.
         23    2    1    0    0    0  0.26207923165E+02  0.24581565488E+01  0.11117605469E+02  0.96425554745E+02  0.92094455242E+02 0.  0.
         13    1    3    3    0    0 -0.30264598693E+02 -0.18371807375E+02  0.12203170351E+01  0.35425549790E+02  0.10566000000E+00 0.  1.
         22    1    1    0    0    0 -0.26207923165E+02 -0.24581565488E+01 -0.11117605469E+02  0.28574445255E+02  0.00000000000E+00 0. -1.
</event>
<event>
 5    1  0.1709463E-003  0.9118800E+02  0.7818608E-02  0.1130116E+00
         25   -1    0    0    0    0  0.00000000000E+00  0.00000000000E+00  0.99999998245E-14  0.12500000000E+03  0.12500000000E+03 0.  0.
        -13    1    3    3    0    0  0.55451401066E+02 -0.19435806174E+02  0.13210114135E+02  0.60225631763E+02  0.10566000000E+00 0.  1.
         23    2    1    0    0    0  0.26337034617E+02 -0.14594151685E+02 -0.43626429070E+01  0.94575317439E+02  0.89547916557E+02 0.  0.
         13    1    3    3    0    0 -0.29114366449E+02  0.48416544892E+01 -0.17572757042E+02  0.34349685675E+02  0.10566000000E+00 0. -1.
         22    1    1    0    0    0 -0.26337034617E+02  0.14594151685E+02  0.43626429070E+01  0.30424682561E+02  0.00000000000E+00 0.  1.
</event>
<event>
 5    1  0.1709463E-003  0.9118800E+02  0.7818608E-02  0.1130116E+00
         25   -1    0    0    0    0  0.00000000000E+00  0.00000000000E+00  0.99999998245E-14  0.12500000000E+03  0.12500000000E+03 0.  0.
        -13    1    3    3    0    0  0.24185843268E+02  0.32997617791E+02  0.34507284992E+02  0.53521600088E+02  0.10566000000E+00 0.  1.
         23    2    1    0    0    0  0.15911663760E+02 -0.33291090936E+01  0.29772515889E+02  0.91078521357E+02  0.84525915194E+02 0.  0.
         13    1    3    3    0    0 -0.82741795083E+01 -0.36326726885E+02 -0.47347691029E+01  0.37556921269E+02  0.10566000000E+00 0. -1.
         22    1    1    0    0    0 -0.15911663760E+02  0.33291090936E+01 -0.29772515889E+02  0.33921478643E+02  0.00000000000E+00 0.  1.
</event>
<event>
 5    1  0.1709463E-003  0.9118800E+02  0.7818608E-02  0.1130116E+00
         25   -1    0    0    0    0  0.00000000000E+00  0.00000000000E+00  0.99999998245E-14  0.12500000000E+03  0.12500000000E+03 0.  0.
        -13    1    3    3    0    0 -0.36289038705E+02 -0.16567869456E+02 -0.22364313640E+02  0.45733601619E+02  0.10566000000E+00 0. -1.
         23    2    1    0    0    0  0.12184711342E+02 -0.21958812897E+02 -0.16716352544E+02  0.94832250718E+02  0.89905854534E+02 0.  0.
         13    1    3    3    0    0  0.48473750047E+02 -0.53909434419E+01  0.56479610966E+01  0.49098649099E+02  0.10566000000E+00 0.  1.
         22    1    1    0    0    0 -0.12184711342E+02  0.21958812897E+02  0.16716352544E+02  0.30167749282E+02  0.00000000000E+00 0.  1.
</event>
<event>
 5    1  0.1709463E-003  0.9118800E+02  0.7818608E-02  0.1130116E+00
         25   -1    0    0    0    0  0.00000000000E+00  0.00000000000E+00  0.99999998245E-14  0.12500000000E+03  0.12500000000E+03 0.  0.
        -13    1    3    3    0    0  0.14492907389E+02  0.31632072704E+02 -0.38465566275E+02  0.51867555765E+02  0.10566000000E+00 0. -1.
         23    2    1    0    0    0  0.17137913701E+02 -0.93249581203E+01 -0.20591468219E+02  0.96633267840E+02  0.92375954448E+02 0.  0.
         13    1    3    3    0    0  0.26450063122E+01 -0.40957030824E+02  0.17874098056E+02  0.44765712076E+02  0.10566000000E+00 0.  1.
         22    1    1    0    0    0 -0.17137913701E+02  0.93249581203E+01  0.20591468219E+02  0.28366732160E+02  0.00000000000E+00 0. -1.
</event>
<event>
 5    1  0.1709463E-003  0.9118800E+02  0.7818608E-02  0.1130116E+00
         25   -1    0    0    0    0  0.00000000000E+00  0.00000000000E+00  0.99999998245E-14  0.12500000000E+03  0.12500000000E+03 0.  0.
        -13    1    3    3    0    0 -0.51250416384E+02  0.31619542280E+02  0.10685002922E+02  0.61160290099E+02  0.10566000000E+00 0. -1.
         23    2    1    0    0    0 -0.18752248775E+02  0.12181584328E+02 -0.48966914704E+01  0.10210861694E+03  0.99509568565E+02 0.  0.
         13    1    3    3    0    0  0.32498167609E+02 -0.19437957952E+02 -0.15581694392E+02  0.40948326845E+02  0.10566000000E+00 0.  1.
         22    1    1    0    0    0  0.18752248775E+02 -0.12181584328E+02  0.48966914704E+01  0.22891383056E+02  0.00000000000E+00 0. -1.
</event>
<event>
 5    1  0.1709463E-003  0.9118800E+02  0.7818608E-02  0.1130116E+00
         25   -1    0    0    0    0  0.00000000000E+00  0.00000000000E+00  0.99999998245E-14  0.12500000000E+03  0.12500000000E+03 0.  0.
        -13    1    3    3    0    0  0.15333864761E+02 -0.38446805019E+01  0.57465461478E+02  0.59600330566E+02  0.10566000000E+00 0. -1.
         23    2    1    0    0    0  0.12435421415E+01 -0.11803559385E+02  0.39385227054E+02  0.83865263811E+02  0.73084307158E+02 0.  0.
         13    1    3    3    0    0 -0.14090322619E+02 -0.79588788827E+01 -0.18080234423E+02  0.24264933246E+02  0.10566000000E+00 0.  1.
         22    1    1    0    0    0 -0.12435421415E+01  0.11803559385E+02 -0.39385227054E+02  0.41134736189E+02  0.00000000000E+00 0. -1.
</event>
<event>
 5    1  0.1709463E-003  0.9118800E+02  0.7818608E-02  0.1130116E+00
         25   -1    0    0    0    0  0.00000000000E+00  0.00000000000E+00  0.99999998245E-14  0.12500000000E+03  0.12500000000E+03 0.  0.
        -13    1    3    3    0    0 -0.28875037662E+01 -0.30270246064E+02  0.97364325903E+01  0.31928588419E+02  0.10566000000E+00 0.  1.
         23    2    1    0    0    0 -0.11557634513E+02  0.29537416821E+02 -0.79320012783E+00  0.93271982816E+02  0.87709724113E+02 0.  0.
         13    1    3    3    0    0 -0.86701307472E+01  0.59807662885E+02 -0.10529632718E+02  0.61343394397E+02  0.10566000000E+00 0. -1.
         22    1    1    0    0    0  0.11557634513E+02 -0.29537416821E+02  0.79320012783E+00  0.31728017184E+02  0.00000000000E+00 0. -1.
</event>
<event>
 5    1  0.1709463E-003  0.9118800E+02  0.7818608E-02  0.1130116E+00
         25   -1    0    0    0    0  0.00000000000E+00  0.00000000000E+00  0.99999998245E-14  0.12500000000E+03  0.12500000000E+03 0.  0.
        -13    1    3    3    0    0  0.45507770504E+02  0.12993910215E+02  0.89327263905E+01  0.48162263690E+02  0.10566000000E+00 0.  1.
         23    2    1    0    0    0  0.40403143051E+01  0.29756962470E+02 -0.39576476563E+01  0.94710332948E+02  0.89736186887E+02 0.  0.
         13    1    3    3    0    0 -0.41467456199E+02  0.16763052255E+02 -0.12890374047E+02  0.46548069258E+02  0.10566000000E+00 0. -1.
         22    1    1    0    0    0 -0.40403143051E+01 -0.29756962470E+02  0.39576476563E+01  0.30289667052E+02  0.00000000000E+00 0.  1.
</event>
<event>
 5    1  0.1709463E-003  0.9118800E+02  0.7818608E-02  0.1130116E+00
         25   -1    0    0    0    0  0.00000000000E+00  0.00000000000E+00  0.99999998245E-14  0.12500000000E+03  0.12500000000E+03 0.  0.
        -13    1    3    3    0    0  0.21440432542E+02 -0.28758602656E+02  0.21060548165E+01  0.35933215905E+02  0.10566000000E+00 0. -1.
         23    2    1    0    0    0 -0.16321782289E+02  0.16456390081E+02  0.16466550144E+02  0.96568316525E+02  0.92288022686E+02 0.  0.
         13    1    3    3    0    0 -0.37762214831E+02  0.45214992737E+02  0.14360495327E+02  0.60635100620E+02  0.10566000000E+00 0.  1.
         22    1    1    0    0    0  0.16321782289E+02 -0.16456390081E+02 -0.16466550144E+02  0.28431683475E+02  0.00000000000E+00 0.  1.
</event>
<event>
 5    1  0.1709463E-003  0.9118800E+02  0.7818608E-02  0.1130116E+00
         25   -1    0    0    0    0  0.00000000000E+00  0.00000000000E+00  0.99999998245E-14  0.12500000000E+03  0.12500000000E+03 0.  0.
        -13    1    3    3    0    0  0.12202696911E+01 -0.60994758144E+01 -0.60772046654E+02  0.61089651185E+02  0.10566000000E+00 0. -1.
         23    2    1    0    0    0 -0.86561932173E+01 -0.12530387218E+01 -0.28751006499E+02  0.94948042297E+02  0.90066700696E+02 0.  0.
         13    1    3    3    0    0 -0.98764629084E+01  0.48464370926E+01  0.32021040155E+02  0.33858391112E+02  0.10566000000E+00 0.  1.
         22    1    1    0    0    0  0.86561932173E+01  0.12530387218E+01  0.28751006499E+02  0.30051957703E+02  0.00000000000E+00 0. -1.
</event>
<event>
 5    1  0.1709463E-003  0.9118800E+02  0.7818608E-02  0.1130116E+00
         25   -1    0    0    0    0  0.00000000000E+00  0.00000000000E+00  0.99999998245E-14  0.12500000000E+03  0.12500000000E+03 0.  0.
        -13    1    3    3    0    0  0.40199080445E+01  0.41315131577E+02 -0.42389568044E+02  0.59329473290E+02  0.10566000000E+00 0. -1.
         23    2    1    0    0    0  0.98058481891E+01  0.59430592465E+01 -0.21012563128E+02  0.10106253102E+03  0.98186723926E+02 0.  0.
         13    1    3    3    0    0  0.57859401445E+01 -0.35372072331E+02  0.21377004916E+02  0.41733057731E+02  0.10566000000E+00 0.  1.
         22    1    1    0    0    0 -0.98058481891E+01 -0.59430592465E+01  0.21012563128E+02  0.23937468979E+02  0.00000000000E+00 0. -1.
</event>
<event>
 5    1  0.1709463E-003  0.9118800E+02  0.7818608E-02  0.1130116E+00
         25   -1    0    0    0    0  0.00000000000E+00  0.00000000000E+00  0.99999998245E-14  0.12500000000E+03  0.12500000000E+03 0.  0.
        -13    1    3    3    0    0  0.37713977705E+02 -0.18148029540E+01  0.14393191160E+02  0.40408077656E+02  0.10566000000E+00 0.  1.
         23    2    1    0    0    0 -0.16011597889E+02 -0.14448714849E+02  0.19616955735E+02  0.95845899430E+02  0.91304298133E+02 0.  0.
         13    1    3    3    0    0 -0.53725575593E+02 -0.12633911895E+02  0.52237645749E+01  0.55437821773E+02  0.10566000000E+00 0. -1.
         22    1    1    0    0    0  0.16011597889E+02  0.14448714849E+02 -0.19616955735E+02  0.29154100570E+02  0.00000000000E+00 0. -1.
</event>
<event>
 5    1  0.1709463E-003  0.9118800E+02  0.7818608E-02  0.1130116E+00
         25   -1    0    0    0    0  0.00000000000E+00  0.00000000000E+00  0.99999998245E-14  0.12500000000E+03  0.12500000000E+03 0.  0.
        -13    1    3    3    0    0 -0.60043184674E+01  0.50058178007E+02 -0.14797253161E+02  0.52543723610E+02  0.10566000000E+00 0.  1.
         23    2    1    0    0    0 -0.14741462014E+02  0.21116865788E+02  0.15169758736E+02  0.95110966842E+02  0.90292534080E+02 0.  0.
         13    1    3    3    0    0 -0.87371435470E+01 -0.28941312220E+02  0.29967011896E+02  0.42567243232E+02  0.10566000000E+00 0. -1.
         22    1    1    0    0    0  0.14741462014E+02 -0.21116865788E+02 -0.15169758736E+02  0.29889033158E+02  0.00000000000E+00 0.  1.
</event>
<event>
 5    1  0.1709463E-003  0.9118800E+02  0.7818608E-02  0.1130116E+00
         25   -1    0    0    0    0  0.00000000000E+00  0.00000000000E+00  0.99999998245E-14  0.12500000000E+03  0.12500000000E+03 0.  0.
        -13    1    3    3    0    0  0.20665933563E+02 -0.56376828810E+02 -0.66468829614E+01  0.60412083674E+02  0.10566000000E+00 0. -1.
         23    2    1    0    0    0  0.12866298203E+02 -0.36997289688E+02  0.67821111164E+01  0.85246533423E+02  0.75409769631E+02 0.  0.
         13    1    3    3    0    0 -0.77996353602E+01  0.19379539122E+02  0.13428994078E+02  0.24834449749E+02  0.10566000000E+00 0.  1.
         22    1    1    0    0    0 -0.12866298203E+02  0.36997289688E+02 -0.67821111164E+01  0.39753466577E+02  0.00000000000E+00 0. -1.
</event>
<event>
 5    1  0.1709463E-003  0.9118800E+02  0.7818608E-02  0.1130116E+00
         25   -1    0    0    0    0  0.00000000000E+00  0.00000000000E+00  0.99999998245E-14  0.12500000000E+03  0.12500000000E+03 0.  0.
        -13    1    3    3    0    0  0.26122288565E+02 -0.30545694102E+02  0.15089962657E+02  0.42931707689E+02  0.10566000000E+00 0.  1.
         23    2    1    0    0    0 -0.23747308370E+02 -0.12921887664E+02  0.10406837886E+02  0.96030842084E+02  0.91557143473E+02 0.  0.
         13    1    3    3    0    0 -0.49869596935E+02  0.17623806438E+02 -0.46831247704E+01  0.53099134395E+02  0.10566000000E+00 0. -1.
         22    1    1    0    0    0  0.23747308370E+02  0.12921887664E+02 -0.10406837886E+02  0.28969157916E+02  0.00000000000E+00 0. -1.
</event>
<event>
 5    1  0.1709463E-003  0.9118800E+02  0.7818608E-02  0.1130116E+00
         25   -1    0    0    0    0  0.00000000000E+00  0.00000000000E+00  0.99999998245E-14  0.12500000000E+03  0.12500000000E+03 0.  0.
        -13    1    3    3    0    0 -0.26208139726E+02 -0.20002566168E+02  0.52449664704E+02  0.61951172167E+02  0.10566000000E+00 0.  1.
         23    2    1    0    0    0 -0.10034190670E+02 -0.55611127889E+01  0.28603522033E+02  0.94181621871E+02  0.88996659868E+02 0.  0.
         13    1    3    3    0    0  0.16173949057E+02  0.14441453379E+02 -0.23846142671E+02  0.32230449704E+02  0.10566000000E+00 0. -1.
         22    1    1    0    0    0  0.10034190670E+02  0.55611127889E+01 -0.28603522033E+02  0.30818378129E+02  0.00000000000E+00 0.  1.
</event>
<event>
 5    1  0.1709463E-003  0.9118800E+02  0.7818608E-02  0.1130116E+00
         25   -1    0    0    0    0  0.00000000000E+00  0.00000000000E+00  0.99999998245E-14  0.12500000000E+03  0.12500000000E+03 0.  0.
        -13    1    3    3    0    0 -0.62555884083E+01 -0.22537118827E+02  0.38479308115E+02  0.45030239045E+02  0.10566000000E+00 0. -1.
         23    2    1    0    0    0  0.16582920493E+02 -0.24055934823E+02 -0.61089420097E+01  0.95150369772E+02  0.90347066599E+02 0.  0.
         13    1    3    3    0    0  0.22838508901E+02 -0.15188159959E+01 -0.44588250125E+02  0.50120130727E+02  0.10566000000E+00 0.  1.
         22    1    1    0    0    0 -0.16582920493E+02  0.24055934823E+02  0.61089420097E+01  0.29849630228E+02  0.00000000000E+00 0.  1.
</event>
<event>
 5    1  0.1709463E-003  0.9118800E+02  0.7818608E-02  0.1130116E+00
         25   -1    0    0    0    0  0.00000000000E+00  0.00000000000E+00  0.99999998245E-14  0.12500000000E+03  0.12500000000E+03 0.  0.
        -13    1    3    3    0    0 -0.15868911801E+01 -0.43700316067E+02  0.41550427813E+02  0.60321514101E+02  0.10566000000E+00 0. -1.
         23    2    1    0    0    0  0.10892655368E+02 -0.20332610846E+02  0.19946732467E+02  0.94505129269E+02  0.89449887185E+02 0.  0.
         13    1    3    3    0    0  0.12479546548E+02  0.23367705221E+02 -0.21603695346E+02  0.34183615168E+02  0.10566000000E+00 0.  1.
         22    1    1    0    0    0 -0.10892655368E+02  0.20332610846E+02 -0.19946732467E+02  0.30494870731E+02  0.00000000000E+00 0. -1.
</event>
<event>
 5    1  0.1709463E-003  0.9118800E+02  0.7818608E-02  0.1130116E+00
         25   -1    0    0    0    0  0.00000000000E+00  0.00000000000E+00  0.99999998245E-14  0.12500000000E+03  0.12500000000E+03 0.  0.
        -13    1    3    3    0    0  0.32676471206E+02 -0.28672867936E+02  0.58563760294E+01  0.43865629260E+02  0.10566000000E+00 0. -1.
         23    2    1    0    0    0  0.28409717836E+01 -0.12445198109E+01 -0.28094534553E+02  0.96734777163E+02  0.92513211440E+02 0.  0.
         13    1    3    3    0    0 -0.29835499422E+02  0.27428348125E+02 -0.33950910583E+02  0.52869147904E+02  0.10566000000E+00 0.  1.
         22    1    1    0    0    0 -0.28409717836E+01  0.12445198109E+01  0.28094534553E+02  0.28265222837E+02  0.00000000000E+00 0.  1.
</event>
<event>
 5    1  0.1709463E-003  0.9118800E+02  0.7818608E-02  0.1130116E+00
         25   -1    0    0    0    0  0.00000000000E+00  0.00000000000E+00  0.99999998245E-14  0.12500000000E+03  0.12500000000E+03 0.  0.
        -13    1    3    3    0    0  0.13326070345E+02  0.32382467101E+02  0.72346534423E+01  0.35756953182E+02  0.10566000000E+00 0. -1.
         23    2    1    0    0    0 -0.25061364622E+02 -0.71416853480E+01 -0.14723583950E+02  0.95069086372E+02  0.90234536586E+02 0.  0.
         13    1    3    3    0    0 -0.38387434967E+02 -0.39524152449E+02 -0.21958237392E+02  0.59312133190E+02  0.10566000000E+00 0.  1.
         22    1    1    0    0    0  0.25061364622E+02  0.71416853480E+01  0.14723583950E+02  0.29930913628E+02  0.00000000000E+00 0.  1.
</event>
<event>
 4    1  0.1709463E-003  0.9118800E+02  0.7818608E-02  0.1130116E+00
         25   -1    0    0    0    0  0.00000000000E+00  0.00000000000E+00  0.99999998245E-14  0.12500000000E+03  0.12500000000E+03 0.  0.
        -13    1    1    0    0    0 -0.79293518521E+01  0.36516869691E+02 -0.24381417094E+02  0.44618617822E+02  0.10566000000E+00 0.  1.
         13    1    1    0    0    0  0.25542685634E+02  0.85232575828E+01  0.17439300159E+01  0.26983831551E+02  0.10566000000E+00 0. -1.
         22    1    1    0    0    0 -0.17613333782E+02 -0.45040127273E+02  0.22637487079E+02  0.53397550627E+02  0.00000000000E+00 0.  1.
</event>
<event>
 5    1  0.1709463E-003  0.9118800E+02  0.7818608E-02  0.1130116E+00
         25   -1    0    0    0    0  0.00000000000E+00  0.00000000000E+00  0.99999998245E-14  0.12500000000E+03  0.12500000000E+03 0.  0.
        -13    1    3    3    0    0 -0.22283594794E+02 -0.20644897666E+02  0.27945894362E+02  0.41276562021E+02  0.10566000000E+00 0.  1.
         23    2    1    0    0    0 -0.17394199010E+02  0.22754883080E+02 -0.49240664277E+01  0.95938181520E+02  0.91430549490E+02 0.  0.
         13    1    3    3    0    0  0.48893957839E+01  0.43399780746E+02 -0.32869960790E+02  0.54661619499E+02  0.10566000000E+00 0. -1.
         22    1    1    0    0    0  0.17394199010E+02 -0.22754883080E+02  0.49240664277E+01  0.29061818480E+02  0.00000000000E+00 0. -1.
</event>
<event>
 5    1  0.1709463E-003  0.9118800E+02  0.7818608E-02  0.1130116E+00
         25   -1    0    0    0    0  0.00000000000E+00  0.00000000000E+00  0.99999998245E-14  0.12500000000E+03  0.12500000000E+03 0.  0.
        -13    1    3    3    0    0 -0.60673684459E+01  0.29793554012E+02  0.53873305483E+02  0.61861240113E+02  0.10566000000E+00 0.  1.
         23    2    1    0    0    0  0.15590807343E+01  0.10650463682E+02  0.28417170425E+02  0.94612524219E+02  0.89599838476E+02 0.  0.
         13    1    3    3    0    0  0.76264491802E+01 -0.19143090330E+02 -0.25456135059E+02  0.32751284107E+02  0.10566000000E+00 0. -1.
         22    1    1    0    0    0 -0.15590807343E+01 -0.10650463682E+02 -0.28417170425E+02  0.30387475781E+02  0.00000000000E+00 0.  1.
</event>
<event>
 5    1  0.1709463E-003  0.9118800E+02  0.7818608E-02  0.1130116E+00
         25   -1    0    0    0    0  0.00000000000E+00  0.00000000000E+00  0.99999998245E-14  0.12500000000E+03  0.12500000000E+03 0.  0.
        -13    1    3    3    0    0 -0.30419606979E+02  0.16103230241E+02 -0.71694978667E+01  0.35157920539E+02  0.10566000000E+00 0.  1.
         23    2    1    0    0    0  0.92790305100E+01 -0.26199889820E+02 -0.14530662778E+02  0.93636409732E+02  0.88227560506E+02 0.  0.
         13    1    3    3    0    0  0.39698637489E+02 -0.42303120061E+02 -0.73611649110E+01  0.58478489192E+02  0.10566000000E+00 0. -1.
         22    1    1    0    0    0 -0.92790305100E+01  0.26199889820E+02  0.14530662778E+02  0.31363590268E+02  0.00000000000E+00 0. -1.
</event>
<event>
 5    1  0.1709463E-003  0.9118800E+02  0.7818608E-02  0.1130116E+00
         25   -1    0    0    0    0  0.00000000000E+00  0.00000000000E+00  0.99999998245E-14  0.12500000000E+03  0.12500000000E+03 0.  0.
        -13    1    3    3    0    0  0.41638885673E+02 -0.18814676854E+02 -0.15769783808E+02  0.48337212483E+02  0.10566000000E+00 0.  1.
         23    2    1    0    0    0  0.15315635799E+02 -0.82005795199E+01  0.22869130307E+02  0.96280401719E+02  0.91897227542E+02 0.  0.
         13    1    3    3    0    0 -0.26323249874E+02  0.10614097334E+02  0.38638914115E+02  0.47943189237E+02  0.10566000000E+00 0. -1.
         22    1    1    0    0    0 -0.15315635799E+02  0.82005795199E+01 -0.22869130307E+02  0.28719598281E+02  0.00000000000E+00 0. -1.
</event>
<event>
 5    1  0.1709463E-003  0.9118800E+02  0.7818608E-02  0.1130116E+00
         25   -1    0    0    0    0  0.00000000000E+00  0.00000000000E+00  0.99999998245E-14  0.12500000000E+03  0.12500000000E+03 0.  0.
        -13    1    3    3    0    0  0.43274177017E+02  0.20657122800E+02  0.31279267200E+02  0.57251854463E+02  0.10566000000E+00 0. -1.
         23    2    1    0    0    0  0.28544708159E+02  0.48556985306E+01 -0.92518836712E+00  0.96030461764E+02  0.91556624233E+02 0.  0.
         13    1    3    3    0    0 -0.14729468857E+02 -0.15801424269E+02 -0.32204455567E+02  0.38778607301E+02  0.10566000000E+00 0.  1.
         22    1    1    0    0    0 -0.28544708159E+02 -0.48556985306E+01  0.92518836712E+00  0.28969538236E+02  0.00000000000E+00 0. -1.
</event>
<event>
 5    1  0.1709463E-003  0.9118800E+02  0.7818608E-02  0.1130116E+00
         25   -1    0    0    0    0  0.00000000000E+00  0.00000000000E+00  0.99999998245E-14  0.12500000000E+03  0.12500000000E+03 0.  0.
        -13    1    3    3    0    0  0.28881869099E+02  0.93311828059E-01 -0.18882412333E+02  0.34506922919E+02  0.10566000000E+00 0. -1.
         23    2    1    0    0    0 -0.14401724083E+02 -0.14044869950E+02  0.21634886109E+02  0.95457888948E+02  0.90771538694E+02 0.  0.
         13    1    3    3    0    0 -0.43283593182E+02 -0.14138181779E+02  0.40517298442E+02  0.60950966029E+02  0.10566000000E+00 0.  1.
         22    1    1    0    0    0  0.14401724083E+02  0.14044869950E+02 -0.21634886109E+02  0.29542111052E+02  0.00000000000E+00 0.  1.
</event>
<event>
 5    1  0.1709463E-003  0.9118800E+02  0.7818608E-02  0.1130116E+00
         25   -1    0    0    0    0  0.00000000000E+00  0.00000000000E+00  0.99999998245E-14  0.12500000000E+03  0.12500000000E+03 0.  0.
        -13    1    3    3    0    0  0.40241896837E+02  0.22271625193E+02 -0.39664724881E+01  0.46164700994E+02  0.10566000000E+00 0.  1.
         23    2    1    0    0    0 -0.69959202196E+01  0.17155863735E+02 -0.21325293893E+02  0.96750491688E+02  0.92534441815E+02 0.  0.
         13    1    3    3    0    0 -0.47237817057E+02 -0.51157614583E+01 -0.17358821405E+02  0.50585790695E+02  0.10566000000E+00 0. -1.
         22    1    1    0    0    0  0.69959202196E+01 -0.17155863735E+02  0.21325293893E+02  0.28249508312E+02  0.00000000000E+00 0. -1.
</event>
<event>
 5    1  0.1709463E-003  0.9118800E+02  0.7818608E-02  0.1130116E+00
         25   -1    0    0    0    0  0.00000000000E+00  0.00000000000E+00  0.99999998245E-14  0.12500000000E+03  0.12500000000E+03 0.  0.
        -13    1    3    3    0    0 -0.14561438371E+02  0.12385190428E+02  0.47192238790E+02  0.50917059964E+02  0.10566000000E+00 0.  1.
         23    2    1    0    0    0 -0.13980519638E+02  0.22423229267E+02  0.61399526985E+00  0.98568330921E+02  0.94958321016E+02 0.  0.
         13    1    3    3    0    0  0.58091873326E+00  0.10038038839E+02 -0.46578243520E+02  0.47651270956E+02  0.10566000000E+00 0. -1.
         22    1    1    0    0    0  0.13980519638E+02 -0.22423229267E+02 -0.61399526985E+00  0.26431669079E+02  0.00000000000E+00 0. -1.
</event>
<event>
 5    1  0.1709463E-003  0.9118800E+02  0.7818608E-02  0.1130116E+00
         25   -1    0    0    0    0  0.00000000000E+00  0.00000000000E+00  0.99999998245E-14  0.12500000000E+03  0.12500000000E+03 0.  0.
        -13    1    3    3    0    0 -0.21422133414E+02 -0.41515113809E+02  0.94448237207E+01  0.47661602299E+02  0.10566000000E+00 0. -1.
         23    2    1    0    0    0  0.20526680988E+02 -0.15309477453E+02  0.10959010744E+02  0.97146370995E+02  0.93067678325E+02 0.  0.
         13    1    3    3    0    0  0.41948814402E+02  0.26205636356E+02  0.15141870237E+01  0.49484768696E+02  0.10566000000E+00 0.  1.
         22    1    1    0    0    0 -0.20526680988E+02  0.15309477453E+02 -0.10959010744E+02  0.27853629005E+02  0.00000000000E+00 0.  1.
</event>
<event>
 5    1  0.1709463E-003  0.9118800E+02  0.7818608E-02  0.1130116E+00
         25   -1    0    0    0    0  0.00000000000E+00  0.00000000000E+00  0.99999998245E-14  0.12500000000E+03  0.12500000000E+03 0.  0.
        -13    1    3    3    0    0 -0.50448222460E+02 -0.23636509158E+02  0.20572275000E+02  0.59388023854E+02  0.10566000000E+00 0.  1.
         23    2    1    0    0    0 -0.20563776610E+02 -0.22656481084E+02  0.18237876310E+02  0.89379708369E+02  0.81975161435E+02 0.  0.
         13    1    3    3    0    0  0.29884445850E+02  0.98002807464E+00 -0.23343986898E+01  0.29991684515E+02  0.10566000000E+00 0. -1.
         22    1    1    0    0    0  0.20563776610E+02  0.22656481084E+02 -0.18237876310E+02  0.35620291631E+02  0.00000000000E+00 0.  1.
</event>
<event>
 5    1  0.1709463E-003  0.9118800E+02  0.7818608E-02  0.1130116E+00
         25   -1    0    0    0    0  0.00000000000E+00  0.00000000000E+00  0.99999998245E-14  0.12500000000E+03  0.12500000000E+03 0.  0.
        -13    1    3    3    0    0 -0.41518275866E+02 -0.14231601339E+02  0.21302558351E+02  0.48786431145E+02  0.10566000000E+00 0. -1.
         23    2    1    0    0    0 -0.90144104041E+01 -0.26790044174E+02 -0.93829891782E+01  0.95217344852E+02  0.90439682734E+02 0.  0.
         13    1    3    3    0    0  0.32503865462E+02 -0.12558442835E+02 -0.30685547529E+02  0.46430913707E+02  0.10566000000E+00 0.  1.
         22    1    1    0    0    0  0.90144104041E+01  0.26790044174E+02  0.93829891782E+01  0.29782655148E+02  0.00000000000E+00 0.  1.
</event>
<event>
 5    1  0.1709463E-003  0.9118800E+02  0.7818608E-02  0.1130116E+00
         25   -1    0    0    0    0  0.00000000000E+00  0.00000000000E+00  0.99999998245E-14  0.12500000000E+03  0.12500000000E+03 0.  0.
        -13    1    3    3    0    0 -0.12669624400E+02  0.51470564527E+02 -0.10787604425E+01  0.53018046770E+02  0.10566000000E+00 0. -1.
         23    2    1    0    0    0  0.47174255632E+01  0.47955758625E+02  0.12336562798E+02  0.75258672405E+02  0.56477146716E+02 0.  0.
         13    1    3    3    0    0  0.17387049963E+02 -0.35148059014E+01  0.13415323241E+02  0.22240625635E+02  0.10566000000E+00 0.  1.
         22    1    1    0    0    0 -0.47174255632E+01 -0.47955758625E+02 -0.12336562798E+02  0.49741327595E+02  0.00000000000E+00 0. -1.
</event>
<event>
 5    1  0.1709463E-003  0.9118800E+02  0.7818608E-02  0.1130116E+00
         25   -1    0    0    0    0  0.00000000000E+00  0.00000000000E+00  0.99999998245E-14  0.12500000000E+03  0.12500000000E+03 0.  0.
        -13    1    3    3    0    0 -0.27509844755E+01  0.44107054993E+02  0.15366882220E+02  0.46788379422E+02  0.10566000000E+00 0.  1.
         23    2    1    0    0    0  0.20974905349E+02  0.15366203048E+02 -0.15105710460E+02  0.94929261083E+02  0.90040631221E+02 0.  0.
         13    1    3    3    0    0  0.23725889824E+02 -0.28740851944E+02 -0.30472592680E+02  0.48140881661E+02  0.10566000000E+00 0. -1.
         22    1    1    0    0    0 -0.20974905349E+02 -0.15366203048E+02  0.15105710460E+02  0.30070738917E+02  0.00000000000E+00 0. -1.
</event>
<event>
 5    1  0.1709463E-003  0.9118800E+02  0.7818608E-02  0.1130116E+00
         25   -1    0    0    0    0  0.00000000000E+00  0.00000000000E+00  0.99999998245E-14  0.12500000000E+03  0.12500000000E+03 0.  0.
        -13    1    3    3    0    0  0.45347547822E+02 -0.40053341892E+02 -0.15119939760E+02  0.62364204738E+02  0.10566000000E+00 0.  1.
         23    2    1    0    0    0  0.19570566205E+02 -0.20990853458E+02 -0.62515207356E+01  0.95628168222E+02  0.91005725399E+02 0.  0.
         13    1    3    3    0    0 -0.25776981617E+02  0.19062488434E+02  0.88684190248E+01  0.33263963483E+02  0.10566000000E+00 0. -1.
         22    1    1    0    0    0 -0.19570566205E+02  0.20990853458E+02  0.62515207356E+01  0.29371831778E+02  0.00000000000E+00 0.  1.
</event>
<event>
 5    1  0.1709463E-003  0.9118800E+02  0.7818608E-02  0.1130116E+00
         25   -1    0    0    0    0  0.00000000000E+00  0.00000000000E+00  0.99999998245E-14  0.12500000000E+03  0.12500000000E+03 0.  0.
        -13    1    3    3    0    0  0.31206494350E+02  0.43962422358E+01  0.30245317316E+02  0.43680231444E+02  0.10566000000E+00 0. -1.
         23    2    1    0    0    0  0.31223085769E+01 -0.30285407572E+02  0.81243283951E+01  0.93488741147E+02  0.88018096359E+02 0.  0.
         13    1    3    3    0    0 -0.28084185773E+02 -0.34681649808E+02 -0.22120988921E+02  0.49808509703E+02  0.10566000000E+00 0.  1.
         22    1    1    0    0    0 -0.31223085769E+01  0.30285407572E+02 -0.81243283951E+01  0.31511258853E+02  0.00000000000E+00 0.  1.
</event>
<event>
 4    1  0.1709463E-003  0.9118800E+02  0.7818608E-02  0.1130116E+00
         25   -1    0    0    0    0  0.00000000000E+00  0.00000000000E+00  0.99999998245E-14  0.12500000000E+03  0.12500000000E+03 0.  0.
        -13    1    1    0    0    0 -0.10524660768E+01  0.46517115679E+02 -0.30763961036E+02  0.55779765136E+02  0.10566000000E+00 0.  1.
         13    1    1    0    0    0 -0.10411644677E+02 -0.54769801639E+01 -0.57588147080E+01  0.13098655178E+02  0.10566000000E+00 0. -1.
         22    1    1    0    0    0  0.11464110753E+02 -0.41040135515E+02  0.36522775744E+02  0.56121579687E+02  0.00000000000E+00 0.  1.
</event>
<event>
 5    1  0.1709463E-003  0.9118800E+02  0.7818608E-02  0.1130116E+00
         25   -1    0    0    0    0  0.00000000000E+00  0.00000000000E+00  0.99999998245E-14  0.12500000000E+03  0.12500000000E+03 0.  0.
        -13    1    3    3    0    0  0.39760436080E+02 -0.23055490183E+02 -0.20073300915E+02  0.50153728461E+02  0.10566000000E+00 0.  1.
         23    2    1    0    0    0 -0.13056417815E+01 -0.28915377387E+02 -0.42955750809E+00  0.96051972959E+02  0.91585988229E+02 0.  0.
         13    1    3    3    0    0 -0.41066077862E+02 -0.58598872038E+01  0.19643743407E+02  0.45898244498E+02  0.10566000000E+00 0. -1.
         22    1    1    0    0    0  0.13056417815E+01  0.28915377387E+02  0.42955750809E+00  0.28948027041E+02  0.00000000000E+00 0.  1.
</event>
<event>
 5    1  0.1709463E-003  0.9118800E+02  0.7818608E-02  0.1130116E+00
         25   -1    0    0    0    0  0.00000000000E+00  0.00000000000E+00  0.99999998245E-14  0.12500000000E+03  0.12500000000E+03 0.  0.
        -13    1    3    3    0    0  0.69987632645E+01 -0.27465251267E+02 -0.46701689953E+02  0.54629494990E+02  0.10566000000E+00 0.  1.
         23    2    1    0    0    0 -0.12855996063E+02 -0.24545894060E+02 -0.11813260679E+02  0.94878069819E+02  0.89969536259E+02 0.  0.
         13    1    3    3    0    0 -0.19854759328E+02  0.29193572067E+01  0.34888429274E+02  0.40248574829E+02  0.10566000000E+00 0. -1.
         22    1    1    0    0    0  0.12855996063E+02  0.24545894060E+02  0.11813260679E+02  0.30121930181E+02  0.00000000000E+00 0.  1.
</event>
<event>
 5    1  0.1709463E-003  0.9118800E+02  0.7818608E-02  0.1130116E+00
         25   -1    0    0    0    0  0.00000000000E+00  0.00000000000E+00  0.99999998245E-14  0.12500000000E+03  0.12500000000E+03 0.  0.
        -13    1    3    3    0    0 -0.18941527939E+02  0.24791756359E+02  0.37550437112E+01  0.31424897476E+02  0.10566000000E+00 0. -1.
         23    2    1    0    0    0  0.17024771346E+02 -0.25655629624E+02 -0.43318908223E+01  0.93906279591E+02  0.88609084736E+02 0.  0.
         13    1    3    3    0    0  0.35966299285E+02 -0.50447385983E+02 -0.80869345334E+01  0.62481382115E+02  0.10566000000E+00 0.  1.
         22    1    1    0    0    0 -0.17024771346E+02  0.25655629624E+02  0.43318908223E+01  0.31093720409E+02  0.00000000000E+00 0.  1.
</event>
<event>
 5    1  0.1709463E-003  0.9118800E+02  0.7818608E-02  0.1130116E+00
         25   -1    0    0    0    0  0.00000000000E+00  0.00000000000E+00  0.99999998245E-14  0.12500000000E+03  0.12500000000E+03 0.  0.
        -13    1    3    3    0    0  0.12467233242E+02 -0.51716938035E+02  0.24797382890E+02  0.58694079315E+02  0.10566000000E+00 0. -1.
         23    2    1    0    0    0  0.18529256789E+02 -0.15422962470E+02  0.14345490470E+02  0.96946582644E+02  0.92798952909E+02 0.  0.
         13    1    3    3    0    0  0.60620235475E+01  0.36293975565E+02 -0.10451892420E+02  0.38252503330E+02  0.10566000000E+00 0.  1.
         22    1    1    0    0    0 -0.18529256789E+02  0.15422962470E+02 -0.14345490470E+02  0.28053417356E+02  0.00000000000E+00 0. -1.
</event>
<event>
 5    1  0.1709463E-003  0.9118800E+02  0.7818608E-02  0.1130116E+00
         25   -1    0    0    0    0  0.00000000000E+00  0.00000000000E+00  0.99999998245E-14  0.12500000000E+03  0.12500000000E+03 0.  0.
        -13    1    3    3    0    0 -0.33830894235E+02  0.17354898104E+02 -0.26352816545E+02  0.46262338861E+02  0.10566000000E+00 0. -1.
         23    2    1    0    0    0  0.13680676005E+02  0.19268785805E+02 -0.19616924124E+02  0.94287287413E+02  0.89144948558E+02 0.  0.
         13    1    3    3    0    0  0.47511570239E+02  0.19138877012E+01  0.67358924215E+01  0.48024948553E+02  0.10566000000E+00 0.  1.
         22    1    1    0    0    0 -0.13680676005E+02 -0.19268785805E+02  0.19616924124E+02  0.30712712587E+02  0.00000000000E+00 0. -1.
</event>
<event>
 5    1  0.1709463E-003  0.9118800E+02  0.7818608E-02  0.1130116E+00
         25   -1    0    0    0    0  0.00000000000E+00  0.00000000000E+00  0.99999998245E-14  0.12500000000E+03  0.12500000000E+03 0.  0.
        -13    1    3    3    0    0 -0.12381990701E+02 -0.16517709804E+02 -0.44928249737E+02  0.49443980618E+02  0.10566000000E+00 0.  1.
         23    2    1    0    0    0 -0.10362792846E+02 -0.27344887128E+02  0.56310219773E-01  0.95757334279E+02  0.91182967542E+02 0.  0.
         13    1    3    3    0    0  0.20191978554E+01 -0.10827177324E+02  0.44984559957E+02  0.46313353661E+02  0.10566000000E+00 0. -1.
         22    1    1    0    0    0  0.10362792846E+02  0.27344887128E+02 -0.56310219773E-01  0.29242665721E+02  0.00000000000E+00 0.  1.
</event>
<event>
 5    1  0.1709463E-003  0.9118800E+02  0.7818608E-02  0.1130116E+00
         25   -1    0    0    0    0  0.00000000000E+00  0.00000000000E+00  0.99999998245E-14  0.12500000000E+03  0.12500000000E+03 0.  0.
        -13    1    3    3    0    0 -0.30182343149E+00 -0.26971176438E+02 -0.24228125849E+02  0.36256705615E+02  0.10566000000E+00 0. -1.
         23    2    1    0    0    0 -0.22729031179E+02  0.76665629091E+01  0.17780034164E+02  0.95141757251E+02  0.90335149929E+02 0.  0.
         13    1    3    3    0    0 -0.22427207748E+02  0.34637739347E+02  0.42008160013E+02  0.58885051636E+02  0.10566000000E+00 0.  1.
         22    1    1    0    0    0  0.22729031179E+02 -0.76665629091E+01 -0.17780034164E+02  0.29858242749E+02  0.00000000000E+00 0.  1.
</event>
<event>
 5    1  0.1709463E-003  0.9118800E+02  0.7818608E-02  0.1130116E+00
         25   -1    0    0    0    0  0.00000000000E+00  0.00000000000E+00  0.99999998245E-14  0.12500000000E+03  0.12500000000E+03 0.  0.
        -13    1    3    3    0    0  0.42002055730E+02  0.98059182403E+01 -0.14736568254E+02  0.45579670095E+02  0.10566000000E+00 0.  1.
         23    2    1    0    0    0 -0.15259677734E+02  0.32764589194E+01  0.79102354798E+01  0.10750243523E+03  0.10606888708E+03 0.  0.
         13    1    3    3    0    0 -0.57261733464E+02 -0.65294593209E+01  0.22646803734E+02  0.61922765133E+02  0.10566000000E+00 0. -1.
         22    1    1    0    0    0  0.15259677734E+02 -0.32764589194E+01 -0.79102354798E+01  0.17497564772E+02  0.00000000000E+00 0. -1.
</event>
<event>
 5    1  0.1709463E-003  0.9118800E+02  0.7818608E-02  0.1130116E+00
         25   -1    0    0    0    0  0.00000000000E+00  0.00000000000E+00  0.99999998245E-14  0.12500000000E+03  0.12500000000E+03 0.  0.
        -13    1    3    3    0    0 -0.23785398993E+02 -0.51746046643E+01  0.18493527157E+02  0.30570303391E+02  0.10566000000E+00 0. -1.
         23    2    1    0    0    0  0.31399775965E+02 -0.12641312436E+02 -0.45671652949E+01  0.90844360501E+02  0.84178917344E+02 0.  0.
         13    1    3    3    0    0  0.55185174958E+02 -0.74667077718E+01 -0.23060692452E+02  0.60274057110E+02  0.10566000000E+00 0.  1.
         22    1    1    0    0    0 -0.31399775965E+02  0.12641312436E+02  0.45671652949E+01  0.34155639499E+02  0.00000000000E+00 0.  1.
</event>
<event>
 5    1  0.1709463E-003  0.9118800E+02  0.7818608E-02  0.1130116E+00
         25   -1    0    0    0    0  0.00000000000E+00  0.00000000000E+00  0.99999998245E-14  0.12500000000E+03  0.12500000000E+03 0.  0.
        -13    1    3    3    0    0 -0.28477485754E+02  0.53674686882E+01  0.42736867233E+02  0.51635529433E+02  0.10566000000E+00 0.  1.
         23    2    1    0    0    0 -0.98526938733E+01  0.20821375891E+02 -0.13470484519E+01  0.10192577607E+03  0.99279625387E+02 0.  0.
         13    1    3    3    0    0  0.18624791881E+02  0.15453907203E+02 -0.44083915684E+02  0.50290246634E+02  0.10566000000E+00 0. -1.
         22    1    1    0    0    0  0.98526938733E+01 -0.20821375891E+02  0.13470484519E+01  0.23074223932E+02  0.00000000000E+00 0.  1.
</event>
<event>
 5    1  0.1709463E-003  0.9118800E+02  0.7818608E-02  0.1130116E+00
         25   -1    0    0    0    0  0.00000000000E+00  0.00000000000E+00  0.99999998245E-14  0.12500000000E+03  0.12500000000E+03 0.  0.
        -13    1    3    3    0    0  0.35869747917E+02  0.98125290438E+01  0.98940774718E+01  0.38481534206E+02  0.10566000000E+00 0. -1.
         23    2    1    0    0    0 -0.66499938044E+01  0.44315888567E+01 -0.28117886971E+02  0.95768562042E+02  0.91198358047E+02 0.  0.
         13    1    3    3    0    0 -0.42519741721E+02 -0.53809401870E+01 -0.38011964443E+02  0.57287027835E+02  0.10566000000E+00 0.  1.
         22    1    1    0    0    0  0.66499938044E+01 -0.44315888567E+01  0.28117886971E+02  0.29231437958E+02  0.00000000000E+00 0.  1.
</event>
<event>
 5    1  0.1709463E-003  0.9118800E+02  0.7818608E-02  0.1130116E+00
         25   -1    0    0    0    0  0.00000000000E+00  0.00000000000E+00  0.99999998245E-14  0.12500000000E+03  0.12500000000E+03 0.  0.
        -13    1    3    3    0    0  0.34087841943E+02 -0.15791333923E+02  0.21010443125E+01  0.37626755729E+02  0.10566000000E+00 0. -1.
         23    2    1    0    0    0 -0.12076714785E+02  0.56364028184E+01 -0.26013702638E+02  0.95771096468E+02  0.91201831763E+02 0.  0.
         13    1    3    3    0    0 -0.46164556729E+02  0.21427736742E+02 -0.28114746951E+02  0.58144340739E+02  0.10566000000E+00 0.  1.
         22    1    1    0    0    0  0.12076714785E+02 -0.56364028184E+01  0.26013702638E+02  0.29228903532E+02  0.00000000000E+00 0.  1.
</event>
<event>
 5    1  0.1709463E-003  0.9118800E+02  0.7818608E-02  0.1130116E+00
         25   -1    0    0    0    0  0.00000000000E+00  0.00000000000E+00  0.99999998245E-14  0.12500000000E+03  0.12500000000E+03 0.  0.
        -13    1    3    3    0    0  0.40327440732E+02 -0.30419098829E+02  0.32167395515E+02  0.59886363621E+02  0.10566000000E+00 0. -1.
         23    2    1    0    0    0  0.10794908658E+02 -0.10945885287E+02  0.24489553970E+02  0.96084939715E+02  0.91630971449E+02 0.  0.
         13    1    3    3    0    0 -0.29532532074E+02  0.19473213543E+02 -0.76778415445E+01  0.36198576093E+02  0.10566000000E+00 0.  1.
         22    1    1    0    0    0 -0.10794908658E+02  0.10945885287E+02 -0.24489553970E+02  0.28915060285E+02  0.00000000000E+00 0. -1.
</event>
<event>
 5    1  0.1709463E-003  0.9118800E+02  0.7818608E-02  0.1130116E+00
         25   -1    0    0    0    0  0.00000000000E+00  0.00000000000E+00  0.99999998245E-14  0.12500000000E+03  0.12500000000E+03 0.  0.
        -13    1    3    3    0    0 -0.24900571666E+02  0.13447790140E+02 -0.50130697242E+02  0.57567173797E+02  0.10566000000E+00 0.  1.
         23    2    1    0    0    0 -0.23706380523E+02 -0.47726905935E+01 -0.16855430396E+02  0.95523287381E+02  0.90861553174E+02 0.  0.
         13    1    3    3    0    0  0.11941911432E+01 -0.18220480734E+02  0.33275266846E+02  0.37956113584E+02  0.10566000000E+00 0. -1.
         22    1    1    0    0    0  0.23706380523E+02  0.47726905935E+01  0.16855430396E+02  0.29476712619E+02  0.00000000000E+00 0.  1.
</event>
<event>
 5    1  0.1709463E-003  0.9118800E+02  0.7818608E-02  0.1130116E+00
         25   -1    0    0    0    0  0.00000000000E+00  0.00000000000E+00  0.99999998245E-14  0.12500000000E+03  0.12500000000E+03 0.  0.
        -13    1    3    3    0    0 -0.49965110002E+02 -0.17365855986E+02  0.10763318309E+02  0.53980972173E+02  0.10566000000E+00 0.  1.
         23    2    1    0    0    0 -0.85700161804E+01 -0.23213321474E+02  0.15100555810E+02  0.96011549594E+02  0.91530800272E+02 0.  0.
         13    1    3    3    0    0  0.41395093822E+02 -0.58474654886E+01  0.43372375005E+01  0.42030577421E+02  0.10566000000E+00 0. -1.
         22    1    1    0    0    0  0.85700161804E+01  0.23213321474E+02 -0.15100555810E+02  0.28988450406E+02  0.00000000000E+00 0.  1.
</event>
<event>
 5    1  0.1709463E-003  0.9118800E+02  0.7818608E-02  0.1130116E+00
         25   -1    0    0    0    0  0.00000000000E+00  0.00000000000E+00  0.99999998245E-14  0.12500000000E+03  0.12500000000E+03 0.  0.
        -13    1    3    3    0    0  0.10708156166E+02 -0.25362601938E+02 -0.24953275869E+02  0.37156470852E+02  0.10566000000E+00 0.  1.
         23    2    1    0    0    0  0.15732481192E+02  0.26572206202E+02 -0.23157126631E+01  0.94032991232E+02  0.88787655718E+02 0.  0.
         13    1    3    3    0    0  0.50243250254E+01  0.51934808140E+02  0.22637563206E+02  0.56876520380E+02  0.10566000000E+00 0. -1.
         22    1    1    0    0    0 -0.15732481192E+02 -0.26572206202E+02  0.23157126631E+01  0.30967008768E+02  0.00000000000E+00 0. -1.
</event>
<event>
 5    1  0.1709463E-003  0.9118800E+02  0.7818608E-02  0.1130116E+00
         25   -1    0    0    0    0  0.00000000000E+00  0.00000000000E+00  0.99999998245E-14  0.12500000000E+03  0.12500000000E+03 0.  0.
        -13    1    3    3    0    0  0.33627758650E+02  0.22811084547E+01 -0.18571968620E+02  0.38483227386E+02  0.10566000000E+00 0. -1.
         23    2    1    0    0    0 -0.10171677693E+02 -0.21780467726E+02  0.13075982502E+02  0.97635184637E+02  0.93721908640E+02 0.  0.
         13    1    3    3    0    0 -0.43799436342E+02 -0.24061576181E+02  0.31647951123E+02  0.59151957250E+02  0.10566000000E+00 0.  1.
         22    1    1    0    0    0  0.10171677693E+02  0.21780467726E+02 -0.13075982502E+02  0.27364815363E+02  0.00000000000E+00 0.  1.
</event>
<event>
 5    1  0.1709463E-003  0.9118800E+02  0.7818608E-02  0.1130116E+00
         25   -1    0    0    0    0  0.00000000000E+00  0.00000000000E+00  0.99999998245E-14  0.12500000000E+03  0.12500000000E+03 0.  0.
        -13    1    3    3    0    0 -0.37719102203E+02 -0.28850079404E+02 -0.12713137546E+02  0.49159869639E+02  0.10566000000E+00 0.  1.
         23    2    1    0    0    0  0.32438433316E+01 -0.18127487726E+02  0.16232872857E+02  0.10045138513E+03  0.97405576239E+02 0.  0.
         13    1    3    3    0    0  0.40962945534E+02  0.10722591678E+02  0.28946010403E+02  0.51291515491E+02  0.10566000000E+00 0. -1.
         22    1    1    0    0    0 -0.32438433316E+01  0.18127487726E+02 -0.16232872857E+02  0.24548614870E+02  0.00000000000E+00 0. -1.
</event>
<event>
 5    1  0.1709463E-003  0.9118800E+02  0.7818608E-02  0.1130116E+00
         25   -1    0    0    0    0  0.00000000000E+00  0.00000000000E+00  0.99999998245E-14  0.12500000000E+03  0.12500000000E+03 0.  0.
        -13    1    3    3    0    0  0.48014459800E+02 -0.31578603984E+02  0.54084408575E+01  0.57722257197E+02  0.10566000000E+00 0. -1.
         23    2    1    0    0    0  0.28980765682E+02  0.12001119655E+01  0.45755856079E+01  0.95635718434E+02  0.91016095327E+02 0.  0.
         13    1    3    3    0    0 -0.19033694118E+02  0.32778715949E+02 -0.83285524958E+00  0.37913461237E+02  0.10566000000E+00 0.  1.
         22    1    1    0    0    0 -0.28980765682E+02 -0.12001119655E+01 -0.45755856079E+01  0.29364281566E+02  0.00000000000E+00 0. -1.
</event>
<event>
 5    1  0.1709463E-003  0.9118800E+02  0.7818608E-02  0.1130116E+00
         25   -1    0    0    0    0  0.00000000000E+00  0.00000000000E+00  0.99999998245E-14  0.12500000000E+03  0.12500000000E+03 0.  0.
        -13    1    3    3    0    0 -0.38003044871E+02  0.15274399313E+02  0.37081829518E+02  0.55250447404E+02  0.10566000000E+00 0.  1.
         23    2    1    0    0    0 -0.21609276104E+02  0.21901082182E+02  0.24500042871E+01  0.94135445322E+02  0.88931779080E+02 0.  0.
         13    1    3    3    0    0  0.16393768766E+02  0.66266828685E+01 -0.34631825231E+02  0.38884997918E+02  0.10566000000E+00 0. -1.
         22    1    1    0    0    0  0.21609276104E+02 -0.21901082182E+02 -0.24500042871E+01  0.30864554678E+02  0.00000000000E+00 0.  1.
</event>
<event>
 5    1  0.1709463E-003  0.9118800E+02  0.7818608E-02  0.1130116E+00
         25   -1    0    0    0    0  0.00000000000E+00  0.00000000000E+00  0.99999998245E-14  0.12500000000E+03  0.12500000000E+03 0.  0.
        -13    1    3    3    0    0 -0.78242697737E+01 -0.25833650024E+02  0.50078684887E+02  0.56890091537E+02  0.10566000000E+00 0.  1.
         23    2    1    0    0    0  0.52548815418E+01 -0.26313927625E+02  0.15162139756E+02  0.94179113429E+02  0.88993136574E+02 0.  0.
         13    1    3    3    0    0  0.13079151316E+02 -0.48027760119E+00 -0.34916545131E+02  0.37289021892E+02  0.10566000000E+00 0. -1.
         22    1    1    0    0    0 -0.52548815418E+01  0.26313927625E+02 -0.15162139756E+02  0.30820886571E+02  0.00000000000E+00 0.  1.
</event>
<event>
 5    1  0.1709463E-003  0.9118800E+02  0.7818608E-02  0.1130116E+00
         25   -1    0    0    0    0  0.00000000000E+00  0.00000000000E+00  0.99999998245E-14  0.12500000000E+03  0.12500000000E+03 0.  0.
        -13    1    3    3    0    0  0.23437650787E+02  0.14374309598E+02  0.19943100986E+02  0.33965904843E+02  0.10566000000E+00 0.  1.
         23    2    1    0    0    0 -0.55977704964E+00 -0.14243698903E+02 -0.27308237632E+02  0.94195192723E+02  0.89015718729E+02 0.  0.
         13    1    3    3    0    0 -0.23997427837E+02 -0.28618008501E+02 -0.47251338618E+02  0.60229287880E+02  0.10566000000E+00 0. -1.
         22    1    1    0    0    0  0.55977704964E+00  0.14243698903E+02  0.27308237632E+02  0.30804807277E+02  0.00000000000E+00 0. -1.
</event>
<event>
 5    1  0.1709463E-003  0.9118800E+02  0.7818608E-02  0.1130116E+00
         25   -1    0    0    0    0  0.00000000000E+00  0.00000000000E+00  0.99999998245E-14  0.12500000000E+03  0.12500000000E+03 0.  0.
        -13    1    3    3    0    0 -0.20169077302E+02  0.23350107378E+02  0.25158279945E+02  0.39811674263E+02  0.10566000000E+00 0. -1.
         23    2    1    0    0    0 -0.15965329114E+01  0.14164093997E+02 -0.26189714983E+02  0.95182695512E+02  0.90391779924E+02 0.  0.
         13    1    3    3    0    0  0.18572544391E+02 -0.91860133818E+01 -0.51347994927E+02  0.55371021249E+02  0.10566000000E+00 0.  1.
         22    1    1    0    0    0  0.15965329114E+01 -0.14164093997E+02  0.26189714983E+02  0.29817304488E+02  0.00000000000E+00 0.  1.
</event>
<event>
 5    1  0.1709463E-003  0.9118800E+02  0.7818608E-02  0.1130116E+00
         25   -1    0    0    0    0  0.00000000000E+00  0.00000000000E+00  0.99999998245E-14  0.12500000000E+03  0.12500000000E+03 0.  0.
        -13    1    3    3    0    0  0.19301584231E+02 -0.32902740179E+02 -0.17564164780E+01  0.38186877693E+02  0.10566000000E+00 0.  1.
         23    2    1    0    0    0  0.17161947835E+02  0.23153969552E+02  0.79150370235E+01  0.95112099930E+02  0.90294102700E+02 0.  0.
         13    1    3    3    0    0 -0.21396363953E+01  0.56056709731E+02  0.96714535015E+01  0.56925222236E+02  0.10566000000E+00 0. -1.
         22    1    1    0    0    0 -0.17161947835E+02 -0.23153969552E+02 -0.79150370235E+01  0.29887900070E+02  0.00000000000E+00 0. -1.
</event>
<event>
 5    1  0.1709463E-003  0.9118800E+02  0.7818608E-02  0.1130116E+00
         25   -1    0    0    0    0  0.00000000000E+00  0.00000000000E+00  0.99999998245E-14  0.12500000000E+03  0.12500000000E+03 0.  0.
        -13    1    3    3    0    0  0.72192633125E+01  0.14509672651E+02  0.32471222757E+02  0.36291043449E+02  0.10566000000E+00 0.  1.
         23    2    1    0    0    0 -0.26225461231E+02 -0.90743678892E+01 -0.10217964718E+02  0.95427618082E+02  0.90729843604E+02 0.  0.
         13    1    3    3    0    0 -0.33444724543E+02 -0.23584040540E+02 -0.42689187475E+02  0.59136574633E+02  0.10566000000E+00 0. -1.
         22    1    1    0    0    0  0.26225461231E+02  0.90743678892E+01  0.10217964718E+02  0.29572381918E+02  0.00000000000E+00 0. -1.
</event>
<event>
 5    1  0.1709463E-003  0.9118800E+02  0.7818608E-02  0.1130116E+00
         25   -1    0    0    0    0  0.00000000000E+00  0.00000000000E+00  0.99999998245E-14  0.12500000000E+03  0.12500000000E+03 0.  0.
        -13    1    3    3    0    0  0.38607943007E+02  0.45483981174E+02 -0.28453166490E+01  0.59728324918E+02  0.10566000000E+00 0. -1.
         23    2    1    0    0    0  0.14975856818E+02  0.18988147870E+02 -0.14141217637E+02  0.96985716443E+02  0.92851651093E+02 0.  0.
         13    1    3    3    0    0 -0.23632086189E+02 -0.26495833304E+02 -0.11295900987E+02  0.37257391525E+02  0.10566000000E+00 0.  1.
         22    1    1    0    0    0 -0.14975856818E+02 -0.18988147870E+02  0.14141217637E+02  0.28014283557E+02  0.00000000000E+00 0. -1.
</event>
<event>
 5    1  0.1709463E-003  0.9118800E+02  0.7818608E-02  0.1130116E+00
         25   -1    0    0    0    0  0.00000000000E+00  0.00000000000E+00  0.99999998245E-14  0.12500000000E+03  0.12500000000E+03 0.  0.
        -13    1    3    3    0    0 -0.32240187110E+02  0.41016973801E+02  0.25117651120E+02  0.57902757849E+02  0.10566000000E+00 0.  1.
         23    2    1    0    0    0 -0.15243565227E+02  0.70750445123E+01  0.23773487734E+02  0.95886407733E+02  0.91359739126E+02 0.  0.
         13    1    3    3    0    0  0.16996621882E+02 -0.33941929289E+02 -0.13441633863E+01  0.37983649884E+02  0.10566000000E+00 0. -1.
         22    1    1    0    0    0  0.15243565227E+02 -0.70750445123E+01 -0.23773487734E+02  0.29113592267E+02  0.00000000000E+00 0.  1.
</event>
<event>
 5    1  0.1709463E-003  0.9118800E+02  0.7818608E-02  0.1130116E+00
         25   -1    0    0    0    0  0.00000000000E+00  0.00000000000E+00  0.99999998245E-14  0.12500000000E+03  0.12500000000E+03 0.  0.
        -13    1    3    3    0    0 -0.22704730420E+02 -0.19580290341E+02  0.30470674685E+02  0.42747698570E+02  0.10566000000E+00 0.  1.
         23    2    1    0    0    0 -0.25580412380E+02  0.22028005566E+02  0.72910807353E+01  0.90463781547E+02  0.83611873480E+02 0.  0.
         13    1    3    3    0    0 -0.28756819597E+01  0.41608295906E+02 -0.23179593950E+02  0.47716082977E+02  0.10566000000E+00 0. -1.
         22    1    1    0    0    0  0.25580412380E+02 -0.22028005566E+02 -0.72910807353E+01  0.34536218453E+02  0.00000000000E+00 0. -1.
</event>
<event>
 5    1  0.1709463E-003  0.9118800E+02  0.7818608E-02  0.1130116E+00
         25   -1    0    0    0    0  0.00000000000E+00  0.00000000000E+00  0.99999998245E-14  0.12500000000E+03  0.12500000000E+03 0.  0.
        -13    1    3    3    0    0  0.41450372998E+02 -0.30561345309E+01 -0.42715761714E+02  0.59599671499E+02  0.10566000000E+00 0. -1.
         23    2    1    0    0    0  0.10577361071E+02  0.74664592978E+01 -0.25310578355E+02  0.96570192432E+02  0.92290563483E+02 0.  0.
         13    1    3    3    0    0 -0.30873011927E+02  0.10522593829E+02  0.17405183359E+02  0.36970520934E+02  0.10566000000E+00 0.  1.
         22    1    1    0    0    0 -0.10577361071E+02 -0.74664592978E+01  0.25310578355E+02  0.28429807568E+02  0.00000000000E+00 0. -1.
</event>
<event>
 5    1  0.1709463E-003  0.9118800E+02  0.7818608E-02  0.1130116E+00
         25   -1    0    0    0    0  0.00000000000E+00  0.00000000000E+00  0.99999998245E-14  0.12500000000E+03  0.12500000000E+03 0.  0.
        -13    1    3    3    0    0 -0.49865112120E+02 -0.26936244562E+02 -0.20607904112E+02  0.60305783751E+02  0.10566000000E+00 0.  1.
         23    2    1    0    0    0 -0.29178107593E+02 -0.91388810020E+01 -0.13020414317E+00  0.94423897210E+02  0.89336298908E+02 0.  0.
         13    1    3    3    0    0  0.20687004527E+02  0.17797363560E+02  0.20477699969E+02  0.34118113459E+02  0.10566000000E+00 0. -1.
         22    1    1    0    0    0  0.29178107593E+02  0.91388810020E+01  0.13020414317E+00  0.30576102790E+02  0.00000000000E+00 0.  1.
</event>
<event>
 5    1  0.1709463E-003  0.9118800E+02  0.7818608E-02  0.1130116E+00
         25   -1    0    0    0    0  0.00000000000E+00  0.00000000000E+00  0.99999998245E-14  0.12500000000E+03  0.12500000000E+03 0.  0.
        -13    1    3    3    0    0  0.22869739664E+02 -0.35109737857E+02 -0.13420401341E+02  0.43998147925E+02  0.10566000000E+00 0. -1.
         23    2    1    0    0    0  0.24919030372E+02  0.15020425147E+02 -0.11779342990E+00  0.95903864147E+02  0.91383620177E+02 0.  0.
         13    1    3    3    0    0  0.20492907084E+01  0.50130163004E+02  0.13302607911E+02  0.51905716222E+02  0.10566000000E+00 0.  1.
         22    1    1    0    0    0 -0.24919030372E+02 -0.15020425147E+02  0.11779342990E+00  0.29096135853E+02  0.00000000000E+00 0.  1.
</event>
<event>
 5    1  0.1709463E-003  0.9118800E+02  0.7818608E-02  0.1130116E+00
         25   -1    0    0    0    0  0.00000000000E+00  0.00000000000E+00  0.99999998245E-14  0.12500000000E+03  0.12500000000E+03 0.  0.
        -13    1    3    3    0    0  0.29214127311E+01  0.49337157754E+01 -0.49285997009E+02  0.49618513369E+02  0.10566000000E+00 0. -1.
         23    2    1    0    0    0 -0.22279194034E+02  0.96349071908E+01 -0.58876971381E+01  0.10002283241E+03  0.96854055681E+02 0.  0.
         13    1    3    3    0    0 -0.25200606765E+02  0.47011914154E+01  0.43398299871E+02  0.50404319039E+02  0.10566000000E+00 0.  1.
         22    1    1    0    0    0  0.22279194034E+02 -0.96349071908E+01  0.58876971381E+01  0.24977167593E+02  0.00000000000E+00 0.  1.
</event>
<event>
 5    1  0.1709463E-003  0.9118800E+02  0.7818608E-02  0.1130116E+00
         25   -1    0    0    0    0  0.00000000000E+00  0.00000000000E+00  0.99999998245E-14  0.12500000000E+03  0.12500000000E+03 0.  0.
        -13    1    3    3    0    0 -0.46964108972E+02  0.86145306994E+01  0.21737120291E+02  0.52462855749E+02  0.10566000000E+00 0. -1.
         23    2    1    0    0    0 -0.85980310366E+01 -0.14457249006E+02  0.22091784895E+02  0.97233380718E+02  0.93184468553E+02 0.  0.
         13    1    3    3    0    0  0.38366077936E+02 -0.23071779705E+02  0.35466460339E+00  0.44770524969E+02  0.10566000000E+00 0.  1.
         22    1    1    0    0    0  0.85980310366E+01  0.14457249006E+02 -0.22091784895E+02  0.27766619282E+02  0.00000000000E+00 0. -1.
</event>
<event>
 5    1  0.1709463E-003  0.9118800E+02  0.7818608E-02  0.1130116E+00
         25   -1    0    0    0    0  0.00000000000E+00  0.00000000000E+00  0.99999998245E-14  0.12500000000E+03  0.12500000000E+03 0.  0.
        -13    1    3    3    0    0  0.38664109817E+02  0.22661098676E+02  0.42340327135E+01  0.45015297158E+02  0.10566000000E+00 0. -1.
         23    2    1    0    0    0  0.12001325714E+02 -0.21901112091E+02 -0.87395205622E+01  0.98541168783E+02  0.94922558940E+02 0.  0.
         13    1    3    3    0    0 -0.26662784103E+02 -0.44562210767E+02 -0.12973553276E+02  0.53525871625E+02  0.10566000000E+00 0.  1.
         22    1    1    0    0    0 -0.12001325714E+02  0.21901112091E+02  0.87395205622E+01  0.26458831217E+02  0.00000000000E+00 0.  1.
</event>
<event>
 5    1  0.1709463E-003  0.9118800E+02  0.7818608E-02  0.1130116E+00
         25   -1    0    0    0    0  0.00000000000E+00  0.00000000000E+00  0.99999998245E-14  0.12500000000E+03  0.12500000000E+03 0.  0.
        -13    1    3    3    0    0  0.35066485137E+02 -0.14441710636E+02  0.24990139676E+02  0.45417393486E+02  0.10566000000E+00 0. -1.
         23    2    1    0    0    0 -0.12807813769E+02 -0.21861343903E+02  0.16925052628E+02  0.94530082749E+02  0.89484751144E+02 0.  0.
         13    1    3    3    0    0 -0.47874298906E+02 -0.74196332666E+01 -0.80650870478E+01  0.49112689263E+02  0.10566000000E+00 0.  1.
         22    1    1    0    0    0  0.12807813769E+02  0.21861343903E+02 -0.16925052628E+02  0.30469917251E+02  0.00000000000E+00 0.  1.
</event>
<event>
 5    1  0.1709463E-003  0.9118800E+02  0.7818608E-02  0.1130116E+00
         25   -1    0    0    0    0  0.00000000000E+00  0.00000000000E+00  0.99999998245E-14  0.12500000000E+03  0.12500000000E+03 0.  0.
        -13    1    3    3    0    0 -0.31216324012E+02  0.17324938663E+02 -0.23829188278E+02  0.42923813467E+02  0.10566000000E+00 0.  1.
         23    2    1    0    0    0 -0.11324020805E+02 -0.20393463156E+02 -0.31040273965E+02  0.86171847913E+02  0.76928291143E+02 0.  0.
         13    1    3    3    0    0  0.19892303207E+02 -0.37718401819E+02 -0.72110856866E+01  0.43248034446E+02  0.10566000000E+00 0. -1.
         22    1    1    0    0    0  0.11324020805E+02  0.20393463156E+02  0.31040273965E+02  0.38828152087E+02  0.00000000000E+00 0. -1.
</event>
<event>
 5    1  0.1709463E-003  0.9118800E+02  0.7818608E-02  0.1130116E+00
         25   -1    0    0    0    0  0.00000000000E+00  0.00000000000E+00  0.99999998245E-14  0.12500000000E+03  0.12500000000E+03 0.  0.
        -13    1    3    3    0    0  0.23621688367E+01  0.15341217462E+02 -0.41653010474E+02  0.44451290650E+02  0.10566000000E+00 0.  1.
         23    2    1    0    0    0 -0.23397955823E+02 -0.15983311500E+02 -0.15621450789E+02  0.92643233969E+02  0.86809034624E+02 0.  0.
         13    1    3    3    0    0 -0.25760124660E+02 -0.31324528962E+02  0.26031559685E+02  0.48191943319E+02  0.10566000000E+00 0. -1.
         22    1    1    0    0    0  0.23397955823E+02  0.15983311500E+02  0.15621450789E+02  0.32356766031E+02  0.00000000000E+00 0.  1.
</event>
<event>
 5    1  0.1709463E-003  0.9118800E+02  0.7818608E-02  0.1130116E+00
         25   -1    0    0    0    0  0.00000000000E+00  0.00000000000E+00  0.99999998245E-14  0.12500000000E+03  0.12500000000E+03 0.  0.
        -13    1    3    3    0    0  0.17434396278E+02 -0.28301449950E+02  0.34368324355E+02  0.47813419935E+02  0.10566000000E+00 0.  1.
         23    2    1    0    0    0  0.18589321718E+02 -0.52373088283E+01 -0.13821443800E+02  0.10125079803E+03  0.98426111914E+02 0.  0.
         13    1    3    3    0    0  0.11549254401E+01  0.23064141121E+02 -0.48189768155E+02  0.53437378091E+02  0.10566000000E+00 0. -1.
         22    1    1    0    0    0 -0.18589321718E+02  0.52373088283E+01  0.13821443800E+02  0.23749201974E+02  0.00000000000E+00 0.  1.
</event>
<event>
 5    1  0.1709463E-003  0.9118800E+02  0.7818608E-02  0.1130116E+00
         25   -1    0    0    0    0  0.00000000000E+00  0.00000000000E+00  0.99999998245E-14  0.12500000000E+03  0.12500000000E+03 0.  0.
        -13    1    3    3    0    0 -0.20253805115E+02  0.48209870893E+02  0.65535683676E+01  0.52700746632E+02  0.10566000000E+00 0. -1.
         23    2    1    0    0    0  0.85770882252E+01  0.31104701449E+02 -0.11462833377E+02  0.90758717260E+02  0.84051646712E+02 0.  0.
         13    1    3    3    0    0  0.28830893340E+02 -0.17105169444E+02 -0.18016401744E+02  0.38057970628E+02  0.10566000000E+00 0.  1.
         22    1    1    0    0    0 -0.85770882252E+01 -0.31104701449E+02  0.11462833377E+02  0.34241282740E+02  0.00000000000E+00 0. -1.
</event>
<event>
 5    1  0.1709463E-003  0.9118800E+02  0.7818608E-02  0.1130116E+00
         25   -1    0    0    0    0  0.00000000000E+00  0.00000000000E+00  0.99999998245E-14  0.12500000000E+03  0.12500000000E+03 0.  0.
        -13    1    3    3    0    0  0.18935592053E+02  0.33955908195E+02 -0.17163858257E+02  0.42499053425E+02  0.10566000000E+00 0.  1.
         23    2    1    0    0    0 -0.18580319132E+02  0.13204298773E+02  0.16376390596E+02  0.96932796112E+02  0.92780380620E+02 0.  0.
         13    1    3    3    0    0 -0.37515911186E+02 -0.20751609422E+02  0.33540248853E+02  0.54433742686E+02  0.10566000000E+00 0. -1.
         22    1    1    0    0    0  0.18580319132E+02 -0.13204298773E+02 -0.16376390596E+02  0.28067203888E+02  0.00000000000E+00 0. -1.
</event>
<event>
 5    1  0.1709463E-003  0.9118800E+02  0.7818608E-02  0.1130116E+00
         25   -1    0    0    0    0  0.00000000000E+00  0.00000000000E+00  0.99999998245E-14  0.12500000000E+03  0.12500000000E+03 0.  0.
        -13    1    3    3    0    0  0.63149054597E+01 -0.44063863463E+02  0.19387987498E+01  0.44556393468E+02  0.10566000000E+00 0.  1.
         23    2    1    0    0    0  0.45297246926E+01 -0.20108877779E+01  0.29642317014E+02  0.94946230962E+02  0.90064186780E+02 0.  0.
         13    1    3    3    0    0 -0.17851807671E+01  0.42052975685E+02  0.27703518264E+02  0.50389837493E+02  0.10566000000E+00 0. -1.
         22    1    1    0    0    0 -0.45297246926E+01  0.20108877779E+01 -0.29642317014E+02  0.30053769038E+02  0.00000000000E+00 0.  1.
</event>
<event>
 5    1  0.1709463E-003  0.9118800E+02  0.7818608E-02  0.1130116E+00
         25   -1    0    0    0    0  0.00000000000E+00  0.00000000000E+00  0.99999998245E-14  0.12500000000E+03  0.12500000000E+03 0.  0.
        -13    1    3    3    0    0  0.34955062747E+02  0.45941119921E+02  0.11342396986E+02  0.58831148592E+02  0.10566000000E+00 0.  1.
         23    2    1    0    0    0  0.28591959489E+01  0.27554631796E+02  0.89072299633E+01  0.95900661854E+02  0.91379239785E+02 0.  0.
         13    1    3    3    0    0 -0.32095866798E+02 -0.18386488125E+02 -0.24351670223E+01  0.37069513263E+02  0.10566000000E+00 0. -1.
         22    1    1    0    0    0 -0.28591959489E+01 -0.27554631796E+02 -0.89072299633E+01  0.29099338146E+02  0.00000000000E+00 0.  1.
</event>
<event>
 5    1  0.1709463E-003  0.9118800E+02  0.7818608E-02  0.1130116E+00
         25   -1    0    0    0    0  0.00000000000E+00  0.00000000000E+00  0.99999998245E-14  0.12500000000E+03  0.12500000000E+03 0.  0.
        -13    1    3    3    0    0  0.40839755136E+02  0.11800221460E+02  0.31911342698E+02  0.53155204664E+02  0.10566000000E+00 0.  1.
         23    2    1    0    0    0  0.81498573891E+01  0.26853222817E+02  0.10468409433E+02  0.95048316455E+02  0.90205759870E+02 0.  0.
         13    1    3    3    0    0 -0.32689897746E+02  0.15053001357E+02 -0.21442933265E+02  0.41893111791E+02  0.10566000000E+00 0. -1.
         22    1    1    0    0    0 -0.81498573891E+01 -0.26853222817E+02 -0.10468409433E+02  0.29951683545E+02  0.00000000000E+00 0.  1.
</event>
<event>
 5    1  0.1709463E-003  0.9118800E+02  0.7818608E-02  0.1130116E+00
         25   -1    0    0    0    0  0.00000000000E+00  0.00000000000E+00  0.99999998245E-14  0.12500000000E+03  0.12500000000E+03 0.  0.
        -13    1    3    3    0    0  0.47137744130E+01  0.43102469313E+02 -0.20992990028E+02  0.48174259978E+02  0.10566000000E+00 0. -1.
         23    2    1    0    0    0 -0.26607922766E+02  0.10258465741E+02 -0.80720630532E+01  0.95362593311E+02  0.90640213635E+02 0.  0.
         13    1    3    3    0    0 -0.31321697179E+02 -0.32844003572E+02  0.12920926975E+02  0.47188333333E+02  0.10566000000E+00 0.  1.
         22    1    1    0    0    0  0.26607922766E+02 -0.10258465741E+02  0.80720630532E+01  0.29637406689E+02  0.00000000000E+00 0. -1.
</event>
<event>
 5    1  0.1709463E-003  0.9118800E+02  0.7818608E-02  0.1130116E+00
         25   -1    0    0    0    0  0.00000000000E+00  0.00000000000E+00  0.99999998245E-14  0.12500000000E+03  0.12500000000E+03 0.  0.
        -13    1    3    3    0    0  0.20703277968E+01  0.14814474374E+02  0.32010168199E+02  0.35332944122E+02  0.10566000000E+00 0.  1.
         23    2    1    0    0    0 -0.16474350676E+02  0.41237788355E+01 -0.24174130826E+02  0.95456838638E+02  0.90770092318E+02 0.  0.
         13    1    3    3    0    0 -0.18544678472E+02 -0.10690695539E+02 -0.56184299025E+02  0.60123894516E+02  0.10566000000E+00 0. -1.
         22    1    1    0    0    0  0.16474350676E+02 -0.41237788355E+01  0.24174130826E+02  0.29543161362E+02  0.00000000000E+00 0. -1.
</event>
<event>
 5    1  0.1709463E-003  0.9118800E+02  0.7818608E-02  0.1130116E+00
         25   -1    0    0    0    0  0.00000000000E+00  0.00000000000E+00  0.99999998245E-14  0.12500000000E+03  0.12500000000E+03 0.  0.
        -13    1    3    3    0    0  0.11694372165E+02  0.30946583344E+01  0.48841721825E+02  0.50317593398E+02  0.10566000000E+00 0. -1.
         23    2    1    0    0    0  0.54302695209E+01  0.26173568761E+02  0.89827253214E+01  0.96800126189E+02  0.92601466226E+02 0.  0.
         13    1    3    3    0    0 -0.62641026440E+01  0.23078910426E+02 -0.39858996503E+02  0.46482532791E+02  0.10566000000E+00 0.  1.
         22    1    1    0    0    0 -0.54302695209E+01 -0.26173568761E+02 -0.89827253214E+01  0.28199873811E+02  0.00000000000E+00 0. -1.
</event>
<event>
 5    1  0.1709463E-003  0.9118800E+02  0.7818608E-02  0.1130116E+00
         25   -1    0    0    0    0  0.00000000000E+00  0.00000000000E+00  0.99999998245E-14  0.12500000000E+03  0.12500000000E+03 0.  0.
        -13    1    3    3    0    0 -0.30060488679E+02  0.94211946541E+00  0.16183638142E+02  0.34153211800E+02  0.10566000000E+00 0.  1.
         23    2    1    0    0    0  0.21901800795E+02  0.14501634577E+02 -0.13449971772E+02  0.95489188013E+02  0.90814629896E+02 0.  0.
         13    1    3    3    0    0  0.51962289474E+02  0.13559515112E+02 -0.29633609914E+02  0.61335976213E+02  0.10566000000E+00 0. -1.
         22    1    1    0    0    0 -0.21901800795E+02 -0.14501634577E+02  0.13449971772E+02  0.29510811987E+02  0.00000000000E+00 0. -1.
</event>
<event>
 5    1  0.1709463E-003  0.9118800E+02  0.7818608E-02  0.1130116E+00
         25   -1    0    0    0    0  0.00000000000E+00  0.00000000000E+00  0.99999998245E-14  0.12500000000E+03  0.12500000000E+03 0.  0.
        -13    1    3    3    0    0 -0.41956973042E+02 -0.22252935908E+02  0.15200453649E+02  0.49866278170E+02  0.10566000000E+00 0.  1.
         23    2    1    0    0    0 -0.14749978938E+02  0.16211190160E+02  0.17376241022E+02  0.97030403701E+02  0.92911791099E+02 0.  0.
         13    1    3    3    0    0  0.27206994104E+02  0.38464126068E+02  0.21757873725E+01  0.47164125531E+02  0.10566000000E+00 0. -1.
         22    1    1    0    0    0  0.14749978938E+02 -0.16211190160E+02 -0.17376241022E+02  0.27969596299E+02  0.00000000000E+00 0.  1.
</event>
<event>
 5    1  0.1709463E-003  0.9118800E+02  0.7818608E-02  0.1130116E+00
         25   -1    0    0    0    0  0.00000000000E+00  0.00000000000E+00  0.99999998245E-14  0.12500000000E+03  0.12500000000E+03 0.  0.
        -13    1    3    3    0    0 -0.45342749657E+01  0.43727867725E+02  0.36234719196E+01  0.44111526589E+02  0.10566000000E+00 0. -1.
         23    2    1    0    0    0 -0.10570206561E+02 -0.11896845892E+01 -0.25079849644E+02  0.97757689629E+02  0.93885155415E+02 0.  0.
         13    1    3    3    0    0 -0.60359315956E+01 -0.44917552314E+02 -0.28703321563E+02  0.53646163040E+02  0.10566000000E+00 0.  1.
         22    1    1    0    0    0  0.10570206561E+02  0.11896845892E+01  0.25079849644E+02  0.27242310371E+02  0.00000000000E+00 0.  1.
</event>
<event>
 5    1  0.1709463E-003  0.9118800E+02  0.7818608E-02  0.1130116E+00
         25   -1    0    0    0    0  0.00000000000E+00  0.00000000000E+00  0.99999998245E-14  0.12500000000E+03  0.12500000000E+03 0.  0.
        -13    1    3    3    0    0  0.46814911657E+02  0.19143055372E+02  0.17866139604E+01  0.50609244965E+02  0.10566000000E+00 0.  1.
         23    2    1    0    0    0  0.20903217861E+02 -0.16103653501E+02 -0.11335275661E+02  0.96281353665E+02  0.91898522383E+02 0.  0.
         13    1    3    3    0    0 -0.25911693797E+02 -0.35246708874E+02 -0.13121889621E+02  0.45672108700E+02  0.10566000000E+00 0. -1.
         22    1    1    0    0    0 -0.20903217861E+02  0.16103653501E+02  0.11335275661E+02  0.28718646335E+02  0.00000000000E+00 0. -1.
</event>
<event>
 5    1  0.1709463E-003  0.9118800E+02  0.7818608E-02  0.1130116E+00
         25   -1    0    0    0    0  0.00000000000E+00  0.00000000000E+00  0.99999998245E-14  0.12500000000E+03  0.12500000000E+03 0.  0.
        -13    1    3    3    0    0 -0.17922462315E+02  0.43268260708E+02 -0.18064491134E+02  0.50196554106E+02  0.10566000000E+00 0. -1.
         23    2    1    0    0    0 -0.16983914317E+02 -0.23467213439E+01 -0.23246557367E+02  0.96114659843E+02  0.91671505718E+02 0.  0.
         13    1    3    3    0    0  0.93854799767E+00 -0.45614982052E+02 -0.51820662328E+01  0.45918105737E+02  0.10566000000E+00 0.  1.
         22    1    1    0    0    0  0.16983914317E+02  0.23467213439E+01  0.23246557367E+02  0.28885340157E+02  0.00000000000E+00 0. -1.
</event>
<event>
 5    1  0.1709463E-003  0.9118800E+02  0.7818608E-02  0.1130116E+00
         25   -1    0    0    0    0  0.00000000000E+00  0.00000000000E+00  0.99999998245E-14  0.12500000000E+03  0.12500000000E+03 0.  0.
        -13    1    3    3    0    0  0.36996155969E+02  0.48163588394E+01  0.49460984458E+02  0.61954120255E+02  0.10566000000E+00 0.  1.
         23    2    1    0    0    0  0.12277417052E+02 -0.59211427589E+00  0.24968093433E+02  0.97170316953E+02  0.93099834792E+02 0.  0.
         13    1    3    3    0    0 -0.24718738917E+02 -0.54084731153E+01 -0.24492891025E+02  0.35216196698E+02  0.10566000000E+00 0. -1.
         22    1    1    0    0    0 -0.12277417052E+02  0.59211427589E+00 -0.24968093433E+02  0.27829683047E+02  0.00000000000E+00 0.  1.
</event>
<event>
 5    1  0.1709463E-003  0.9118800E+02  0.7818608E-02  0.1130116E+00
         25   -1    0    0    0    0  0.00000000000E+00  0.00000000000E+00  0.99999998245E-14  0.12500000000E+03  0.12500000000E+03 0.  0.
        -13    1    3    3    0    0  0.34037842482E+02  0.22347738762E+02  0.34374142942E+02  0.53287794246E+02  0.10566000000E+00 0.  1.
         23    2    1    0    0    0 -0.66559407228E+01  0.12837435445E+02  0.25003839276E+02  0.96115864662E+02  0.91673148552E+02 0.  0.
         13    1    3    3    0    0 -0.40693783205E+02 -0.95103033167E+01 -0.93703036657E+01  0.42828070416E+02  0.10566000000E+00 0. -1.
         22    1    1    0    0    0  0.66559407228E+01 -0.12837435445E+02 -0.25003839276E+02  0.28884135338E+02  0.00000000000E+00 0.  1.
</event>
<event>
 5    1  0.1709463E-003  0.9118800E+02  0.7818608E-02  0.1130116E+00
         25   -1    0    0    0    0  0.00000000000E+00  0.00000000000E+00  0.99999998245E-14  0.12500000000E+03  0.12500000000E+03 0.  0.
        -13    1    3    3    0    0  0.49421869661E+02 -0.16187745178E+02 -0.55454994185E+01  0.52300363504E+02  0.10566000000E+00 0.  1.
         23    2    1    0    0    0  0.95599227762E+01 -0.13969075693E+02 -0.23469482812E+02  0.96063106202E+02  0.91601182037E+02 0.  0.
         13    1    3    3    0    0 -0.39861946885E+02  0.22186694852E+01 -0.17923983394E+02  0.43762742699E+02  0.10566000000E+00 0. -1.
         22    1    1    0    0    0 -0.95599227762E+01  0.13969075693E+02  0.23469482812E+02  0.28936893798E+02  0.00000000000E+00 0.  1.
</event>
<event>
 5    1  0.1709463E-003  0.9118800E+02  0.7818608E-02  0.1130116E+00
         25   -1    0    0    0    0  0.00000000000E+00  0.00000000000E+00  0.99999998245E-14  0.12500000000E+03  0.12500000000E+03 0.  0.
        -13    1    3    3    0    0 -0.12084392596E+02  0.12412113494E+02  0.14050201485E+01  0.17380401361E+02  0.10566000000E+00 0. -1.
         23    2    1    0    0    0 -0.26877742100E+02 -0.42750828451E+02  0.77112805935E+00  0.74496128939E+02  0.54763420590E+02 0.  0.
         13    1    3    3    0    0 -0.14793349504E+02 -0.55162941945E+02 -0.63389208912E+00  0.57115727578E+02  0.10566000000E+00 0.  1.
         22    1    1    0    0    0  0.26877742100E+02  0.42750828451E+02 -0.77112805935E+00  0.50503871061E+02  0.00000000000E+00 0.  1.
</event>
<event>
 5    1  0.1709463E-003  0.9118800E+02  0.7818608E-02  0.1130116E+00
         25   -1    0    0    0    0  0.00000000000E+00  0.00000000000E+00  0.99999998245E-14  0.12500000000E+03  0.12500000000E+03 0.  0.
        -13    1    3    3    0    0 -0.46958102028E+02 -0.26979826074E+01  0.36492167182E+02  0.59531772071E+02  0.10566000000E+00 0. -1.
         23    2    1    0    0    0 -0.24384765385E+02 -0.12305643430E+02  0.93215918476E+01  0.96139339618E+02  0.91705152007E+02 0.  0.
         13    1    3    3    0    0  0.22573336643E+02 -0.96076608229E+01 -0.27170575335E+02  0.36607567547E+02  0.10566000000E+00 0.  1.
         22    1    1    0    0    0  0.24384765385E+02  0.12305643430E+02 -0.93215918476E+01  0.28860660382E+02  0.00000000000E+00 0. -1.
</event>
<event>
 5    1  0.1709463E-003  0.9118800E+02  0.7818608E-02  0.1130116E+00
         25   -1    0    0    0    0  0.00000000000E+00  0.00000000000E+00  0.99999998245E-14  0.12500000000E+03  0.12500000000E+03 0.  0.
        -13    1    3    3    0    0  0.15838414288E+02  0.42172959341E+02  0.19915896239E+02  0.49255131243E+02  0.10566000000E+00 0. -1.
         23    2    1    0    0    0 -0.20247672060E+02  0.11474547477E+02  0.15924552585E+02  0.96800268819E+02  0.92601658758E+02 0.  0.
         13    1    3    3    0    0 -0.36086086348E+02 -0.30698411864E+02 -0.39913436535E+01  0.47545137575E+02  0.10566000000E+00 0.  1.
         22    1    1    0    0    0  0.20247672060E+02 -0.11474547477E+02 -0.15924552585E+02  0.28199731181E+02  0.00000000000E+00 0. -1.
</event>
<event>
 5    1  0.1709463E-003  0.9118800E+02  0.7818608E-02  0.1130116E+00
         25   -1    0    0    0    0  0.00000000000E+00  0.00000000000E+00  0.99999998245E-14  0.12500000000E+03  0.12500000000E+03 0.  0.
        -13    1    3    3    0    0  0.24267166906E+02  0.28047574777E+02  0.22074078790E+02  0.43160606564E+02  0.10566000000E+00 0.  1.
         23    2    1    0    0    0 -0.16626745841E+02 -0.27584714570E+01  0.25454983296E+02  0.94471095390E+02  0.89402314554E+02 0.  0.
         13    1    3    3    0    0 -0.40893912747E+02 -0.30806046234E+02  0.33809045063E+01  0.51310488827E+02  0.10566000000E+00 0. -1.
         22    1    1    0    0    0  0.16626745841E+02  0.27584714570E+01 -0.25454983296E+02  0.30528904610E+02  0.00000000000E+00 0. -1.
</event>
<event>
 5    1  0.1709463E-003  0.9118800E+02  0.7818608E-02  0.1130116E+00
         25   -1    0    0    0    0  0.00000000000E+00  0.00000000000E+00  0.99999998245E-14  0.12500000000E+03  0.12500000000E+03 0.  0.
        -13    1    3    3    0    0 -0.68750598585E+01 -0.46502833904E+02  0.37471308430E+02  0.60115639635E+02  0.10566000000E+00 0. -1.
         23    2    1    0    0    0  0.27150220354E+01 -0.14513131092E+02  0.25387859811E+02  0.95630870892E+02  0.91009437549E+02 0.  0.
         13    1    3    3    0    0  0.95900818940E+01  0.31989702812E+02 -0.12083448619E+02  0.35515231258E+02  0.10566000000E+00 0.  1.
         22    1    1    0    0    0 -0.27150220354E+01  0.14513131092E+02 -0.25387859811E+02  0.29369129108E+02  0.00000000000E+00 0. -1.
</event>
<event>
 5    1  0.1709463E-003  0.9118800E+02  0.7818608E-02  0.1130116E+00
         25   -1    0    0    0    0  0.00000000000E+00  0.00000000000E+00  0.99999998245E-14  0.12500000000E+03  0.12500000000E+03 0.  0.
        -13    1    3    3    0    0 -0.84595895925E+01 -0.13963507559E+02  0.42599491231E+02  0.45620960277E+02  0.10566000000E+00 0. -1.
         23    2    1    0    0    0  0.14950808191E+02 -0.25499841587E+02  0.16378961906E+00  0.95439969324E+02  0.90746858519E+02 0.  0.
         13    1    3    3    0    0  0.23410397783E+02 -0.11536334028E+02 -0.42435701612E+02  0.49819009048E+02  0.10566000000E+00 0.  1.
         22    1    1    0    0    0 -0.14950808191E+02  0.25499841587E+02 -0.16378961906E+00  0.29560030676E+02  0.00000000000E+00 0.  1.
</event>
<event>
 5    1  0.1709463E-003  0.9118800E+02  0.7818608E-02  0.1130116E+00
         25   -1    0    0    0    0  0.00000000000E+00  0.00000000000E+00  0.99999998245E-14  0.12500000000E+03  0.12500000000E+03 0.  0.
        -13    1    3    3    0    0  0.12848178594E+02 -0.53809135718E+01 -0.36541692752E+02  0.39106730844E+02  0.10566000000E+00 0.  1.
         23    2    1    0    0    0  0.23108596017E+02  0.66086555553E+01  0.17411857567E+02  0.95320809949E+02  0.90582572757E+02 0.  0.
         13    1    3    3    0    0  0.10260417423E+02  0.11989569127E+02  0.53953550319E+02  0.56214079105E+02  0.10566000000E+00 0. -1.
         22    1    1    0    0    0 -0.23108596017E+02 -0.66086555553E+01 -0.17411857567E+02  0.29679190051E+02  0.00000000000E+00 0. -1.
</event>
<event>
 5    1  0.1709463E-003  0.9118800E+02  0.7818608E-02  0.1130116E+00
         25   -1    0    0    0    0  0.00000000000E+00  0.00000000000E+00  0.99999998245E-14  0.12500000000E+03  0.12500000000E+03 0.  0.
        -13    1    3    3    0    0 -0.32125751468E+02  0.17789841920E+02  0.11152177396E+02  0.38378699921E+02  0.10566000000E+00 0.  1.
         23    2    1    0    0    0  0.18260527095E+02  0.20429560468E+02 -0.13408196523E+02  0.94494368967E+02  0.89434849146E+02 0.  0.
         13    1    3    3    0    0  0.50386278563E+02  0.26397185486E+01 -0.24560373919E+02  0.56115669046E+02  0.10566000000E+00 0. -1.
         22    1    1    0    0    0 -0.18260527095E+02 -0.20429560468E+02  0.13408196523E+02  0.30505631033E+02  0.00000000000E+00 0. -1.
</event>
<event>
 5    1  0.1709463E-003  0.9118800E+02  0.7818608E-02  0.1130116E+00
         25   -1    0    0    0    0  0.00000000000E+00  0.00000000000E+00  0.99999998245E-14  0.12500000000E+03  0.12500000000E+03 0.  0.
        -13    1    3    3    0    0 -0.17371381493E+02 -0.21404369918E+02  0.17165597791E+02  0.32474310742E+02  0.10566000000E+00 0. -1.
         23    2    1    0    0    0  0.71109536078E+01  0.15042560686E+02 -0.26055745754E+02  0.94084855167E+02  0.88860642535E+02 0.  0.
         13    1    3    3    0    0  0.24482335101E+02  0.36446930605E+02 -0.43221343546E+02  0.61610544426E+02  0.10566000000E+00 0.  1.
         22    1    1    0    0    0 -0.71109536078E+01 -0.15042560686E+02  0.26055745754E+02  0.30915144833E+02  0.00000000000E+00 0.  1.
</event>
<event>
 5    1  0.1709463E-003  0.9118800E+02  0.7818608E-02  0.1130116E+00
         25   -1    0    0    0    0  0.00000000000E+00  0.00000000000E+00  0.99999998245E-14  0.12500000000E+03  0.12500000000E+03 0.  0.
        -13    1    3    3    0    0 -0.75869708646E+01 -0.30725976812E+02 -0.16362156587E+02  0.35628347003E+02  0.10566000000E+00 0. -1.
         23    2    1    0    0    0 -0.85797146215E+01  0.12601625372E+02  0.25117069186E+02  0.95618379393E+02  0.90992279058E+02 0.  0.
         13    1    3    3    0    0 -0.99274375689E+00  0.43327602185E+02  0.41479225774E+02  0.59990032389E+02  0.10566000000E+00 0.  1.
         22    1    1    0    0    0  0.85797146215E+01 -0.12601625372E+02 -0.25117069186E+02  0.29381620607E+02  0.00000000000E+00 0.  1.
</event>
<event>
 5    1  0.1709463E-003  0.9118800E+02  0.7818608E-02  0.1130116E+00
         25   -1    0    0    0    0  0.00000000000E+00  0.00000000000E+00  0.99999998245E-14  0.12500000000E+03  0.12500000000E+03 0.  0.
        -13    1    3    3    0    0 -0.70708369430E+01 -0.15467044995E+02 -0.30021307909E+02  0.34503859328E+02  0.10566000000E+00 0.  1.
         23    2    1    0    0    0 -0.76641387572E+01  0.58137847750E+01  0.27514623166E+02  0.95852210989E+02  0.91312938553E+02 0.  0.
         13    1    3    3    0    0 -0.59330181423E+00  0.21280829770E+02  0.57535931075E+02  0.61348351660E+02  0.10566000000E+00 0. -1.
         22    1    1    0    0    0  0.76641387572E+01 -0.58137847750E+01 -0.27514623166E+02  0.29147789011E+02  0.00000000000E+00 0. -1.
</event>
<event>
 5    1  0.1709463E-003  0.9118800E+02  0.7818608E-02  0.1130116E+00
         25   -1    0    0    0    0  0.00000000000E+00  0.00000000000E+00  0.99999998245E-14  0.12500000000E+03  0.12500000000E+03 0.  0.
        -13    1    3    3    0    0  0.10926094467E+02  0.26800101701E+02  0.47889227961E+02  0.55955467206E+02  0.10566000000E+00 0. -1.
         23    2    1    0    0    0 -0.94896497251E+01  0.24081202212E+02  0.14105372513E+02  0.95522563110E+02  0.90860556775E+02 0.  0.
         13    1    3    3    0    0 -0.20415744192E+02 -0.27188994886E+01 -0.33783855448E+02  0.39567095904E+02  0.10566000000E+00 0.  1.
         22    1    1    0    0    0  0.94896497251E+01 -0.24081202212E+02 -0.14105372513E+02  0.29477436890E+02  0.00000000000E+00 0. -1.
</event>
<event>
 5    1  0.1709463E-003  0.9118800E+02  0.7818608E-02  0.1130116E+00
         25   -1    0    0    0    0  0.00000000000E+00  0.00000000000E+00  0.99999998245E-14  0.12500000000E+03  0.12500000000E+03 0.  0.
        -13    1    3    3    0    0 -0.15223457342E+02 -0.25055400027E+02  0.33459744939E+02  0.44486991574E+02  0.10566000000E+00 0.  1.
         23    2    1    0    0    0  0.21863128079E+02 -0.25523885779E+02  0.26447975507E+02  0.82233651979E+02  0.70238258767E+02 0.  0.
         13    1    3    3    0    0  0.37086585421E+02 -0.46848575249E+00 -0.70117694316E+01  0.37746660404E+02  0.10566000000E+00 0. -1.
         22    1    1    0    0    0 -0.21863128079E+02  0.25523885779E+02 -0.26447975507E+02  0.42766348021E+02  0.00000000000E+00 0.  1.
</event>
<event>
 5    1  0.1709463E-003  0.9118800E+02  0.7818608E-02  0.1130116E+00
         25   -1    0    0    0    0  0.00000000000E+00  0.00000000000E+00  0.99999998245E-14  0.12500000000E+03  0.12500000000E+03 0.  0.
        -13    1    3    3    0    0  0.29651129622E+02  0.23011671537E+02 -0.30985172159E+02  0.48670510297E+02  0.10566000000E+00 0. -1.
         23    2    1    0    0    0  0.74485192955E+00  0.31155206147E+02  0.26037262659E+01  0.93727311197E+02  0.88356255010E+02 0.  0.
         13    1    3    3    0    0 -0.28906277692E+02  0.81435346107E+01  0.33588898425E+02  0.45056800901E+02  0.10566000000E+00 0.  1.
         22    1    1    0    0    0 -0.74485192955E+00 -0.31155206147E+02 -0.26037262659E+01  0.31272688803E+02  0.00000000000E+00 0. -1.
</event>
<event>
 5    1  0.1709463E-003  0.9118800E+02  0.7818608E-02  0.1130116E+00
         25   -1    0    0    0    0  0.00000000000E+00  0.00000000000E+00  0.99999998245E-14  0.12500000000E+03  0.12500000000E+03 0.  0.
        -13    1    3    3    0    0  0.33286011807E+02 -0.19485033062E+02  0.42623331602E+02  0.57483777332E+02  0.10566000000E+00 0. -1.
         23    2    1    0    0    0  0.28278777285E+01 -0.21496735657E+02  0.20277746695E+02  0.95313411321E+02  0.90572362397E+02 0.  0.
         13    1    3    3    0    0 -0.30458134079E+02 -0.20117025951E+01 -0.22345584906E+02  0.37829633989E+02  0.10566000000E+00 0.  1.
         22    1    1    0    0    0 -0.28278777285E+01  0.21496735657E+02 -0.20277746695E+02  0.29686588679E+02  0.00000000000E+00 0. -1.
</event>
<event>
 5    1  0.1709463E-003  0.9118800E+02  0.7818608E-02  0.1130116E+00
         25   -1    0    0    0    0  0.00000000000E+00  0.00000000000E+00  0.99999998245E-14  0.12500000000E+03  0.12500000000E+03 0.  0.
        -13    1    3    3    0    0  0.12320004078E+02  0.46695046472E+02 -0.38443876961E+02  0.61726434412E+02  0.10566000000E+00 0. -1.
         23    2    1    0    0    0  0.10739475590E+02  0.18535148880E+02 -0.21605713122E+02  0.94574765088E+02  0.89547145527E+02 0.  0.
         13    1    3    3    0    0 -0.15805284879E+01 -0.28159897591E+02  0.16838163839E+02  0.32848330675E+02  0.10566000000E+00 0.  1.
         22    1    1    0    0    0 -0.10739475590E+02 -0.18535148880E+02  0.21605713122E+02  0.30425234912E+02  0.00000000000E+00 0. -1.
</event>
<event>
 5    1  0.1709463E-003  0.9118800E+02  0.7818608E-02  0.1130116E+00
         25   -1    0    0    0    0  0.00000000000E+00  0.00000000000E+00  0.99999998245E-14  0.12500000000E+03  0.12500000000E+03 0.  0.
        -13    1    3    3    0    0  0.57903415191E+02 -0.27907081165E+01 -0.97677358449E+01  0.58787867542E+02  0.10566000000E+00 0. -1.
         23    2    1    0    0    0  0.32971026215E+02 -0.13044271349E+02  0.44470825692E+01  0.89264609585E+02  0.81799464523E+02 0.  0.
         13    1    3    3    0    0 -0.24932388975E+02 -0.10253563233E+02  0.14214818414E+02  0.30476742043E+02  0.10566000000E+00 0.  1.
         22    1    1    0    0    0 -0.32971026215E+02  0.13044271349E+02 -0.44470825692E+01  0.35735390415E+02  0.00000000000E+00 0. -1.
</event>
<event>
 5    1  0.1709463E-003  0.9118800E+02  0.7818608E-02  0.1130116E+00
         25   -1    0    0    0    0  0.00000000000E+00  0.00000000000E+00  0.99999998245E-14  0.12500000000E+03  0.12500000000E+03 0.  0.
        -13    1    3    3    0    0 -0.39918545713E+02 -0.78454031167E+00  0.38923554481E+02  0.55759842654E+02  0.10566000000E+00 0. -1.
         23    2    1    0    0    0 -0.10049826498E+02  0.18322490892E+02  0.20533501573E+02  0.95702604690E+02  0.91107909494E+02 0.  0.
         13    1    3    3    0    0  0.29868719216E+02  0.19107031204E+02 -0.18390052908E+02  0.39942762035E+02  0.10566000000E+00 0.  1.
         22    1    1    0    0    0  0.10049826498E+02 -0.18322490892E+02 -0.20533501573E+02  0.29297395310E+02  0.00000000000E+00 0. -1.
</event>
<event>
 5    1  0.1709463E-003  0.9118800E+02  0.7818608E-02  0.1130116E+00
         25   -1    0    0    0    0  0.00000000000E+00  0.00000000000E+00  0.99999998245E-14  0.12500000000E+03  0.12500000000E+03 0.  0.
        -13    1    3    3    0    0  0.32459422561E+02 -0.50435793116E+02 -0.14763155979E+02  0.61768481272E+02  0.10566000000E+00 0. -1.
         23    2    1    0    0    0  0.19273106353E+02 -0.20086608319E+02 -0.10984259354E+02  0.95073783804E+02  0.90241043605E+02 0.  0.
         13    1    3    3    0    0 -0.13186316207E+02  0.30349184797E+02  0.37788966249E+01  0.33305302531E+02  0.10566000000E+00 0.  1.
         22    1    1    0    0    0 -0.19273106353E+02  0.20086608319E+02  0.10984259354E+02  0.29926216196E+02  0.00000000000E+00 0. -1.
</event>
<event>
 5    1  0.1709463E-003  0.9118800E+02  0.7818608E-02  0.1130116E+00
         25   -1    0    0    0    0  0.00000000000E+00  0.00000000000E+00  0.99999998245E-14  0.12500000000E+03  0.12500000000E+03 0.  0.
        -13    1    3    3    0    0 -0.36458406958E+02 -0.50017432735E+01  0.22996042664E+02  0.43394262477E+02  0.10566000000E+00 0.  1.
         23    2    1    0    0    0  0.82440258595E+01  0.16307419143E+02  0.26242692365E+02  0.93022276753E+02  0.87353129242E+02 0.  0.
         13    1    3    3    0    0  0.44702432817E+02  0.21309162417E+02  0.32466497009E+01  0.49628014276E+02  0.10566000000E+00 0. -1.
         22    1    1    0    0    0 -0.82440258595E+01 -0.16307419143E+02 -0.26242692365E+02  0.31977723247E+02  0.00000000000E+00 0. -1.
</event>
<event>
 5    1  0.1709463E-003  0.9118800E+02  0.7818608E-02  0.1130116E+00
         25   -1    0    0    0    0  0.00000000000E+00  0.00000000000E+00  0.99999998245E-14  0.12500000000E+03  0.12500000000E+03 0.  0.
        -13    1    3    3    0    0 -0.31187925124E+02 -0.13928656486E+01 -0.26695680292E+02  0.41076724049E+02  0.10566000000E+00 0.  1.
         23    2    1    0    0    0 -0.13964477565E+02 -0.10543784536E+02  0.23944716022E+02  0.95343171926E+02  0.90613426056E+02 0.  0.
         13    1    3    3    0    0  0.17223447559E+02 -0.91509188876E+01  0.50640396315E+02  0.54266447877E+02  0.10566000000E+00 0. -1.
         22    1    1    0    0    0  0.13964477565E+02  0.10543784536E+02 -0.23944716022E+02  0.29656828074E+02  0.00000000000E+00 0. -1.
</event>
<event>
 5    1  0.1709463E-003  0.9118800E+02  0.7818608E-02  0.1130116E+00
         25   -1    0    0    0    0  0.00000000000E+00  0.00000000000E+00  0.99999998245E-14  0.12500000000E+03  0.12500000000E+03 0.  0.
        -13    1    3    3    0    0  0.41225886381E+02  0.69543651888E+01  0.24438383801E+02  0.48427086118E+02  0.10566000000E+00 0.  1.
         23    2    1    0    0    0  0.17446061551E+02  0.16910256033E+02 -0.15657287096E+02  0.96095459492E+02  0.91645321065E+02 0.  0.
         13    1    3    3    0    0 -0.23779824830E+02  0.99558908445E+01 -0.40095670897E+02  0.47668373374E+02  0.10566000000E+00 0. -1.
         22    1    1    0    0    0 -0.17446061551E+02 -0.16910256033E+02  0.15657287096E+02  0.28904540508E+02  0.00000000000E+00 0. -1.
</event>
<event>
 5    1  0.1709463E-003  0.9118800E+02  0.7818608E-02  0.1130116E+00
         25   -1    0    0    0    0  0.00000000000E+00  0.00000000000E+00  0.99999998245E-14  0.12500000000E+03  0.12500000000E+03 0.  0.
        -13    1    3    3    0    0 -0.18415788747E+02 -0.26215028059E+02  0.31539255688E+02  0.44956698997E+02  0.10566000000E+00 0.  1.
         23    2    1    0    0    0 -0.27059480197E+02  0.48062603622E+01 -0.84003601885E+01  0.96261843161E+02  0.91871980441E+02 0.  0.
         13    1    3    3    0    0 -0.86436914499E+01  0.31021288422E+02 -0.39939615877E+02  0.51305144163E+02  0.10566000000E+00 0. -1.
         22    1    1    0    0    0  0.27059480197E+02 -0.48062603622E+01  0.84003601885E+01  0.28738156839E+02  0.00000000000E+00 0. -1.
</event>
<event>
 5    1  0.1709463E-003  0.9118800E+02  0.7818608E-02  0.1130116E+00
         25   -1    0    0    0    0  0.00000000000E+00  0.00000000000E+00  0.99999998245E-14  0.12500000000E+03  0.12500000000E+03 0.  0.
        -13    1    3    3    0    0  0.98623641954E+01 -0.41015330064E+02  0.24736728483E+02  0.48902356057E+02  0.10566000000E+00 0. -1.
         23    2    1    0    0    0 -0.11289924015E+02 -0.44641608239E+01  0.31104392257E+02  0.91610266042E+02  0.85308654370E+02 0.  0.
         13    1    3    3    0    0 -0.21152288210E+02  0.36551169240E+02  0.63676637737E+01  0.42707909985E+02  0.10566000000E+00 0.  1.
         22    1    1    0    0    0  0.11289924015E+02  0.44641608239E+01 -0.31104392257E+02  0.33389733958E+02  0.00000000000E+00 0.  1.
</event>
<event>
 5    1  0.1709463E-003  0.9118800E+02  0.7818608E-02  0.1130116E+00
         25   -1    0    0    0    0  0.00000000000E+00  0.00000000000E+00  0.99999998245E-14  0.12500000000E+03  0.12500000000E+03 0.  0.
        -13    1    3    3    0    0 -0.18845651327E+02  0.49306829476E+02  0.22823457105E+02  0.57508637309E+02  0.10566000000E+00 0.  1.
         23    2    1    0    0    0 -0.15221807347E+02  0.23180884380E+02 -0.60498661710E+01  0.96615890005E+02  0.92352436358E+02 0.  0.
         13    1    3    3    0    0  0.36238439798E+01 -0.26125945096E+02 -0.28873323276E+02  0.39107252696E+02  0.10566000000E+00 0. -1.
         22    1    1    0    0    0  0.15221807347E+02 -0.23180884380E+02  0.60498661710E+01  0.28384109995E+02  0.00000000000E+00 0.  1.
</event>
<event>
 5    1  0.1709463E-003  0.9118800E+02  0.7818608E-02  0.1130116E+00
         25   -1    0    0    0    0  0.00000000000E+00  0.00000000000E+00  0.99999998245E-14  0.12500000000E+03  0.12500000000E+03 0.  0.
        -13    1    3    3    0    0 -0.16131257921E+02 -0.26534110852E+02  0.15029182345E+02  0.34498753699E+02  0.10566000000E+00 0. -1.
         23    2    1    0    0    0  0.67485942658E+00  0.29526271869E+02 -0.18457033098E+01  0.95408400070E+02  0.90703362768E+02 0.  0.
         13    1    3    3    0    0  0.16806117348E+02  0.56060382721E+02 -0.16874885655E+02  0.60909646371E+02  0.10566000000E+00 0.  1.
         22    1    1    0    0    0 -0.67485942658E+00 -0.29526271869E+02  0.18457033098E+01  0.29591599930E+02  0.00000000000E+00 0.  1.
</event>
<event>
 5    1  0.1709463E-003  0.9118800E+02  0.7818608E-02  0.1130116E+00
         25   -1    0    0    0    0  0.00000000000E+00  0.00000000000E+00  0.99999998245E-14  0.12500000000E+03  0.12500000000E+03 0.  0.
        -13    1    3    3    0    0 -0.42100269167E+02  0.25448105839E+02 -0.32260553466E+02  0.58828506939E+02  0.10566000000E+00 0. -1.
         23    2    1    0    0    0 -0.23670163331E+02  0.19963206886E+02 -0.29346133921E+01  0.93896652640E+02  0.88595503046E+02 0.  0.
         13    1    3    3    0    0  0.18430105836E+02 -0.54848989539E+01  0.29325940074E+02  0.35068145701E+02  0.10566000000E+00 0.  1.
         22    1    1    0    0    0  0.23670163331E+02 -0.19963206886E+02  0.29346133921E+01  0.31103347360E+02  0.00000000000E+00 0. -1.
</event>
<event>
 5    1  0.1709463E-003  0.9118800E+02  0.7818608E-02  0.1130116E+00
         25   -1    0    0    0    0  0.00000000000E+00  0.00000000000E+00  0.99999998245E-14  0.12500000000E+03  0.12500000000E+03 0.  0.
        -13    1    3    3    0    0  0.28932874674E+02 -0.43423757885E+02  0.25636247334E+02  0.58137443418E+02  0.10566000000E+00 0.  1.
         23    2    1    0    0    0 -0.29464978905E+01 -0.23685549438E+02  0.13662053547E+02  0.97498385336E+02  0.93539276959E+02 0.  0.
         13    1    3    3    0    0 -0.31879372565E+02  0.19738208446E+02 -0.11974193788E+02  0.39360941918E+02  0.10566000000E+00 0. -1.
         22    1    1    0    0    0  0.29464978905E+01  0.23685549438E+02 -0.13662053547E+02  0.27501614664E+02  0.00000000000E+00 0.  1.
</event>
<event>
 5    1  0.1709463E-003  0.9118800E+02  0.7818608E-02  0.1130116E+00
         25   -1    0    0    0    0  0.00000000000E+00  0.00000000000E+00  0.99999998245E-14  0.12500000000E+03  0.12500000000E+03 0.  0.
        -13    1    3    3    0    0 -0.13700143466E+02  0.19182254473E+02 -0.34932342984E+02  0.42141814959E+02  0.10566000000E+00 0.  1.
         23    2    1    0    0    0 -0.52660226712E+01 -0.25012991597E+02  0.53489447994E+00  0.99433090615E+02  0.96089919626E+02 0.  0.
         13    1    3    3    0    0  0.84341207946E+01 -0.44195246070E+02  0.35467237464E+02  0.57291275655E+02  0.10566000000E+00 0. -1.
         22    1    1    0    0    0  0.52660226712E+01  0.25012991597E+02 -0.53489447994E+00  0.25566909385E+02  0.00000000000E+00 0. -1.
</event>
<event>
 5    1  0.1709463E-003  0.9118800E+02  0.7818608E-02  0.1130116E+00
         25   -1    0    0    0    0  0.00000000000E+00  0.00000000000E+00  0.99999998245E-14  0.12500000000E+03  0.12500000000E+03 0.  0.
        -13    1    3    3    0    0  0.20882566554E+02 -0.42532317248E+02 -0.13046156747E+02  0.49145630185E+02  0.10566000000E+00 0. -1.
         23    2    1    0    0    0  0.28210703487E+02  0.10080846229E+01  0.40289184285E+01  0.96485228222E+02  0.92175414594E+02 0.  0.
         13    1    3    3    0    0  0.73281369328E+01  0.43540401871E+02  0.17075075176E+02  0.47339598037E+02  0.10566000000E+00 0.  1.
         22    1    1    0    0    0 -0.28210703487E+02 -0.10080846229E+01 -0.40289184285E+01  0.28514771778E+02  0.00000000000E+00 0. -1.
</event>
<event>
 5    1  0.1709463E-003  0.9118800E+02  0.7818608E-02  0.1130116E+00
         25   -1    0    0    0    0  0.00000000000E+00  0.00000000000E+00  0.99999998245E-14  0.12500000000E+03  0.12500000000E+03 0.  0.
        -13    1    3    3    0    0  0.14274738179E+02 -0.43227275229E+02  0.39640283022E+02  0.60363305708E+02  0.10566000000E+00 0.  1.
         23    2    1    0    0    0  0.13185297973E+02 -0.13057638433E+02  0.24863125241E+02  0.93975348498E+02  0.88706466080E+02 0.  0.
         13    1    3    3    0    0 -0.10894402066E+01  0.30169636796E+02 -0.14777157781E+02  0.33612042790E+02  0.10566000000E+00 0. -1.
         22    1    1    0    0    0 -0.13185297973E+02  0.13057638433E+02 -0.24863125241E+02  0.31024651502E+02  0.00000000000E+00 0.  1.
</event>
<event>
 5    1  0.1709463E-003  0.9118800E+02  0.7818608E-02  0.1130116E+00
         25   -1    0    0    0    0  0.00000000000E+00  0.00000000000E+00  0.99999998245E-14  0.12500000000E+03  0.12500000000E+03 0.  0.
        -13    1    3    3    0    0  0.23896841146E+02 -0.10683788102E+01 -0.21819492646E+02  0.32377490227E+02  0.10566000000E+00 0.  1.
         23    2    1    0    0    0 -0.10456685850E+02  0.11738276464E+02  0.27195742051E+02  0.93587617107E+02  0.88158404459E+02 0.  0.
         13    1    3    3    0    0 -0.34353526995E+02  0.12806655274E+02  0.49015234696E+02  0.61210126881E+02  0.10566000000E+00 0. -1.
         22    1    1    0    0    0  0.10456685850E+02 -0.11738276464E+02 -0.27195742051E+02  0.31412382893E+02  0.00000000000E+00 0. -1.
</event>
<event>
 5    1  0.1709463E-003  0.9118800E+02  0.7818608E-02  0.1130116E+00
         25   -1    0    0    0    0  0.00000000000E+00  0.00000000000E+00  0.99999998245E-14  0.12500000000E+03  0.12500000000E+03 0.  0.
        -13    1    3    3    0    0 -0.33116594646E+02  0.30075028136E+02  0.12874086202E+02  0.46550718769E+02  0.10566000000E+00 0.  1.
         23    2    1    0    0    0  0.12319109179E+02  0.27427170775E+02 -0.30730300935E+01  0.94776604069E+02  0.89828453271E+02 0.  0.
         13    1    3    3    0    0  0.45435703826E+02 -0.26478573611E+01 -0.15947116296E+02  0.48225885299E+02  0.10566000000E+00 0. -1.
         22    1    1    0    0    0 -0.12319109179E+02 -0.27427170775E+02  0.30730300935E+01  0.30223395931E+02  0.00000000000E+00 0.  1.
</event>
<event>
 5    1  0.1709463E-003  0.9118800E+02  0.7818608E-02  0.1130116E+00
         25   -1    0    0    0    0  0.00000000000E+00  0.00000000000E+00  0.99999998245E-14  0.12500000000E+03  0.12500000000E+03 0.  0.
        -13    1    3    3    0    0  0.14139795826E+02  0.12468260517E+02 -0.49740094965E+02  0.53192852504E+02  0.10566000000E+00 0.  1.
         23    2    1    0    0    0 -0.17304281318E+02 -0.35388188768E-01 -0.22388214823E+02  0.96703859499E+02  0.92471427343E+02 0.  0.
         13    1    3    3    0    0 -0.31444077145E+02 -0.12503648706E+02  0.27351880141E+02  0.43511006995E+02  0.10566000000E+00 0. -1.
         22    1    1    0    0    0  0.17304281318E+02  0.35388188768E-01  0.22388214823E+02  0.28296140501E+02  0.00000000000E+00 0.  1.
</event>
<event>
 5    1  0.1709463E-003  0.9118800E+02  0.7818608E-02  0.1130116E+00
         25   -1    0    0    0    0  0.00000000000E+00  0.00000000000E+00  0.99999998245E-14  0.12500000000E+03  0.12500000000E+03 0.  0.
        -13    1    3    3    0    0  0.28897534137E+01  0.43307635664E+02  0.18000002022E+02  0.46988437072E+02  0.10566000000E+00 0. -1.
         23    2    1    0    0    0 -0.49158187082E+01 -0.13006655397E+02  0.15896922352E+02  0.10388009237E+03  0.10171048663E+03 0.  0.
         13    1    3    3    0    0 -0.78055721220E+01 -0.56314291062E+02 -0.21030796700E+01  0.56891655294E+02  0.10566000000E+00 0.  1.
         22    1    1    0    0    0  0.49158187082E+01  0.13006655397E+02 -0.15896922352E+02  0.21119907634E+02  0.00000000000E+00 0.  1.
</event>
<event>
 5    1  0.1709463E-003  0.9118800E+02  0.7818608E-02  0.1130116E+00
         25   -1    0    0    0    0  0.00000000000E+00  0.00000000000E+00  0.99999998245E-14  0.12500000000E+03  0.12500000000E+03 0.  0.
        -13    1    3    3    0    0  0.39677422831E+02 -0.91056975272E+01  0.36712173659E+02  0.54817939297E+02  0.10566000000E+00 0.  1.
         23    2    1    0    0    0  0.29657038575E+02  0.15308509185E+02  0.21899843895E+02  0.85081413438E+02  0.75135566541E+02 0.  0.
         13    1    3    3    0    0 -0.10020384256E+02  0.24414206712E+02 -0.14812329764E+02  0.30263474141E+02  0.10566000000E+00 0. -1.
         22    1    1    0    0    0 -0.29657038575E+02 -0.15308509185E+02 -0.21899843895E+02  0.39918586562E+02  0.00000000000E+00 0.  1.
</event>
<event>
 5    1  0.1709463E-003  0.9118800E+02  0.7818608E-02  0.1130116E+00
         25   -1    0    0    0    0  0.00000000000E+00  0.00000000000E+00  0.99999998245E-14  0.12500000000E+03  0.12500000000E+03 0.  0.
        -13    1    3    3    0    0 -0.59704726911E+02 -0.49493055656E+01  0.15792403076E+02  0.61956123184E+02  0.10566000000E+00 0.  1.
         23    2    1    0    0    0 -0.20234086280E+02 -0.46923240812E+01  0.10323933313E+02  0.10180474721E+03  0.99127124456E+02 0.  0.
         13    1    3    3    0    0  0.39470640630E+02  0.25698148435E+00 -0.54684697631E+01  0.39848624027E+02  0.10566000000E+00 0. -1.
         22    1    1    0    0    0  0.20234086280E+02  0.46923240812E+01 -0.10323933313E+02  0.23195252789E+02  0.00000000000E+00 0.  1.
</event>
<event>
 5    1  0.1709463E-003  0.9118800E+02  0.7818608E-02  0.1130116E+00
         25   -1    0    0    0    0  0.00000000000E+00  0.00000000000E+00  0.99999998245E-14  0.12500000000E+03  0.12500000000E+03 0.  0.
        -13    1    3    3    0    0  0.22396639496E+02 -0.22372076175E+02  0.18474518727E+02  0.36652943392E+02  0.10566000000E+00 0.  1.
         23    2    1    0    0    0 -0.27266174293E+02  0.27447484701E+01  0.17823343937E+02  0.92309795139E+02  0.86327566772E+02 0.  0.
         13    1    3    3    0    0 -0.49662813789E+02  0.25116824645E+02 -0.65117479035E+00  0.55656851747E+02  0.10566000000E+00 0. -1.
         22    1    1    0    0    0  0.27266174293E+02 -0.27447484701E+01 -0.17823343937E+02  0.32690204861E+02  0.00000000000E+00 0. -1.
</event>
<event>
 5    1  0.1709463E-003  0.9118800E+02  0.7818608E-02  0.1130116E+00
         25   -1    0    0    0    0  0.00000000000E+00  0.00000000000E+00  0.99999998245E-14  0.12500000000E+03  0.12500000000E+03 0.  0.
        -13    1    3    3    0    0  0.35370236777E+02  0.13643476618E+02  0.23019871566E+02  0.44352268881E+02  0.10566000000E+00 0. -1.
         23    2    1    0    0    0  0.15917610652E+02  0.48975335060E+01 -0.23886984692E+02  0.95880518532E+02  0.91351681063E+02 0.  0.
         13    1    3    3    0    0 -0.19452626125E+02 -0.87459431120E+01 -0.46906856258E+02  0.51528249651E+02  0.10566000000E+00 0.  1.
         22    1    1    0    0    0 -0.15917610652E+02 -0.48975335060E+01  0.23886984692E+02  0.29119481468E+02  0.00000000000E+00 0.  1.
</event>
<event>
 5    1  0.1709463E-003  0.9118800E+02  0.7818608E-02  0.1130116E+00
         25   -1    0    0    0    0  0.00000000000E+00  0.00000000000E+00  0.99999998245E-14  0.12500000000E+03  0.12500000000E+03 0.  0.
        -13    1    3    3    0    0 -0.13416384435E+02  0.94907194764E+00  0.41882527439E+02  0.43989287078E+02  0.10566000000E+00 0.  1.
         23    2    1    0    0    0 -0.31520557945E+02  0.13134001828E+01 -0.38896252623E+01  0.93213213785E+02  0.87625929075E+02 0.  0.
         13    1    3    3    0    0 -0.18104173509E+02  0.36432823512E+00 -0.45772152702E+02  0.49223926707E+02  0.10566000000E+00 0. -1.
         22    1    1    0    0    0  0.31520557945E+02 -0.13134001828E+01  0.38896252623E+01  0.31786786215E+02  0.00000000000E+00 0.  1.
</event>
<event>
 5    1  0.1709463E-003  0.9118800E+02  0.7818608E-02  0.1130116E+00
         25   -1    0    0    0    0  0.00000000000E+00  0.00000000000E+00  0.99999998245E-14  0.12500000000E+03  0.12500000000E+03 0.  0.
        -13    1    3    3    0    0 -0.12082872566E+02  0.37196052544E+02 -0.27307927719E+02  0.47699855499E+02  0.10566000000E+00 0. -1.
         23    2    1    0    0    0  0.17718450965E+02 -0.82597184349E+00 -0.22646770921E+02  0.96233666079E+02  0.91833635014E+02 0.  0.
         13    1    3    3    0    0  0.29801323531E+02 -0.38022024387E+02  0.46611567977E+01  0.48533810580E+02  0.10566000000E+00 0.  1.
         22    1    1    0    0    0 -0.17718450965E+02  0.82597184349E+00  0.22646770921E+02  0.28766333921E+02  0.00000000000E+00 0.  1.
</event>
<event>
 5    1  0.1709463E-003  0.9118800E+02  0.7818608E-02  0.1130116E+00
         25   -1    0    0    0    0  0.00000000000E+00  0.00000000000E+00  0.99999998245E-14  0.12500000000E+03  0.12500000000E+03 0.  0.
        -13    1    3    3    0    0  0.26522170673E+02 -0.66084935039E+01 -0.23214431130E+02  0.35861102887E+02  0.10566000000E+00 0.  1.
         23    2    1    0    0    0 -0.21589066302E+02  0.20972974799E+02 -0.12824801443E+02  0.92282588920E+02  0.86288163904E+02 0.  0.
         13    1    3    3    0    0 -0.48111236975E+02  0.27581468303E+02  0.10389629686E+02  0.56421486032E+02  0.10566000000E+00 0. -1.
         22    1    1    0    0    0  0.21589066302E+02 -0.20972974799E+02  0.12824801443E+02  0.32717411080E+02  0.00000000000E+00 0. -1.
</event>
<event>
 5    1  0.1709463E-003  0.9118800E+02  0.7818608E-02  0.1130116E+00
         25   -1    0    0    0    0  0.00000000000E+00  0.00000000000E+00  0.99999998245E-14  0.12500000000E+03  0.12500000000E+03 0.  0.
        -13    1    3    3    0    0 -0.36480644841E+02 -0.14238204583E+02  0.20911610043E+02  0.44394487455E+02  0.10566000000E+00 0.  1.
         23    2    1    0    0    0 -0.15250038757E+02  0.10028783386E+02 -0.20937183664E+02  0.97224006083E+02  0.93171892332E+02 0.  0.
         13    1    3    3    0    0  0.21230606084E+02  0.24266987969E+02 -0.41848793706E+02  0.52829518628E+02  0.10566000000E+00 0. -1.
         22    1    1    0    0    0  0.15250038757E+02 -0.10028783386E+02  0.20937183664E+02  0.27775993917E+02  0.00000000000E+00 0. -1.
</event>
<event>
 5    1  0.1709463E-003  0.9118800E+02  0.7818608E-02  0.1130116E+00
         25   -1    0    0    0    0  0.00000000000E+00  0.00000000000E+00  0.99999998245E-14  0.12500000000E+03  0.12500000000E+03 0.  0.
        -13    1    3    3    0    0  0.35374789362E+02 -0.80954042836E+01 -0.39521585244E+02  0.53655178288E+02  0.10566000000E+00 0. -1.
         23    2    1    0    0    0  0.27645405301E+01 -0.23201706275E+02 -0.17532694537E+02  0.95787721141E+02  0.91224614471E+02 0.  0.
         13    1    3    3    0    0 -0.32610248832E+02 -0.15106301991E+02  0.21988890707E+02  0.42132542853E+02  0.10566000000E+00 0.  1.
         22    1    1    0    0    0 -0.27645405301E+01  0.23201706275E+02  0.17532694537E+02  0.29212278859E+02  0.00000000000E+00 0. -1.
</event>
<event>
 5    1  0.1709463E-003  0.9118800E+02  0.7818608E-02  0.1130116E+00
         25   -1    0    0    0    0  0.00000000000E+00  0.00000000000E+00  0.99999998245E-14  0.12500000000E+03  0.12500000000E+03 0.  0.
        -13    1    3    3    0    0  0.24684287975E+01  0.17682522525E+02  0.40767498470E+02  0.44505784333E+02  0.10566000000E+00 0. -1.
         23    2    1    0    0    0  0.27915690798E+02  0.33479486437E+01 -0.25704867780E+01  0.96767005913E+02  0.92556747341E+02 0.  0.
         13    1    3    3    0    0  0.25447262000E+02 -0.14334573882E+02 -0.43337985248E+02  0.52261221580E+02  0.10566000000E+00 0.  1.
         22    1    1    0    0    0 -0.27915690798E+02 -0.33479486437E+01  0.25704867780E+01  0.28232994087E+02  0.00000000000E+00 0.  1.
</event>
<event>
 5    1  0.1709463E-003  0.9118800E+02  0.7818608E-02  0.1130116E+00
         25   -1    0    0    0    0  0.00000000000E+00  0.00000000000E+00  0.99999998245E-14  0.12500000000E+03  0.12500000000E+03 0.  0.
        -13    1    3    3    0    0  0.39309450831E+02  0.24751674510E+02 -0.41142570167E+01  0.46634928868E+02  0.10566000000E+00 0.  1.
         23    2    1    0    0    0 -0.75638906800E+01  0.23942804997E+02 -0.16288494828E+02  0.95070325476E+02  0.90236253075E+02 0.  0.
         13    1    3    3    0    0 -0.46873341511E+02 -0.80886951272E+00 -0.12174237811E+02  0.48435396608E+02  0.10566000000E+00 0. -1.
         22    1    1    0    0    0  0.75638906800E+01 -0.23942804997E+02  0.16288494828E+02  0.29929674524E+02  0.00000000000E+00 0. -1.
</event>
<event>
 5    1  0.1709463E-003  0.9118800E+02  0.7818608E-02  0.1130116E+00
         25   -1    0    0    0    0  0.00000000000E+00  0.00000000000E+00  0.99999998245E-14  0.12500000000E+03  0.12500000000E+03 0.  0.
        -13    1    3    3    0    0 -0.24598235899E+02 -0.23672452238E+02 -0.97683287583E+01  0.35509007520E+02  0.10566000000E+00 0.  1.
         23    2    1    0    0    0  0.27959905110E+02  0.59988992744E+01 -0.35743102257E+01  0.96181277269E+02  0.91762297907E+02 0.  0.
         13    1    3    3    0    0  0.52558141009E+02  0.29671351513E+02  0.61940185326E+01  0.60672269749E+02  0.10566000000E+00 0. -1.
         22    1    1    0    0    0 -0.27959905110E+02 -0.59988992744E+01  0.35743102257E+01  0.28818722731E+02  0.00000000000E+00 0. -1.
</event>
<event>
 5    1  0.1709463E-003  0.9118800E+02  0.7818608E-02  0.1130116E+00
         25   -1    0    0    0    0  0.00000000000E+00  0.00000000000E+00  0.99999998245E-14  0.12500000000E+03  0.12500000000E+03 0.  0.
        -13    1    3    3    0    0 -0.42764155044E+02 -0.25592029145E+02  0.26611690019E+02  0.56497062951E+02  0.10566000000E+00 0.  1.
         23    2    1    0    0    0 -0.18079030184E+02  0.53544082479E+01  0.21486540904E+02  0.96413421679E+02  0.92077985533E+02 0.  0.
         13    1    3    3    0    0  0.24685124860E+02  0.30946437393E+02 -0.51251491151E+01  0.39916358729E+02  0.10566000000E+00 0. -1.
         22    1    1    0    0    0  0.18079030184E+02 -0.53544082479E+01 -0.21486540904E+02  0.28586578321E+02  0.00000000000E+00 0.  1.
</event>
<event>
 5    1  0.1709463E-003  0.9118800E+02  0.7818608E-02  0.1130116E+00
         25   -1    0    0    0    0  0.00000000000E+00  0.00000000000E+00  0.99999998245E-14  0.12500000000E+03  0.12500000000E+03 0.  0.
        -13    1    3    3    0    0 -0.34313058130E+02  0.21677946870E+01 -0.17375774509E+02  0.38522902226E+02  0.10566000000E+00 0. -1.
         23    2    1    0    0    0  0.22643274356E+02  0.12564657679E+02  0.44314277914E+00  0.99100485107E+02  0.95656266270E+02 0.  0.
         13    1    3    3    0    0  0.56956332487E+02  0.10396862992E+02  0.17818917288E+02  0.60577582881E+02  0.10566000000E+00 0.  1.
         22    1    1    0    0    0 -0.22643274356E+02 -0.12564657679E+02 -0.44314277914E+00  0.25899514893E+02  0.00000000000E+00 0.  1.
</event>
<event>
 5    1  0.1709463E-003  0.9118800E+02  0.7818608E-02  0.1130116E+00
         25   -1    0    0    0    0  0.00000000000E+00  0.00000000000E+00  0.99999998245E-14  0.12500000000E+03  0.12500000000E+03 0.  0.
        -13    1    3    3    0    0 -0.82800140476E+00 -0.41004105366E+02 -0.16340691236E+02  0.44148064479E+02  0.10566000000E+00 0.  1.
         23    2    1    0    0    0 -0.15794145829E+01 -0.13040165477E+02  0.26563351926E+02  0.95366368234E+02  0.90645419402E+02 0.  0.
         13    1    3    3    0    0 -0.75141317815E+00  0.27963939889E+02  0.42904043162E+02  0.51218303755E+02  0.10566000000E+00 0. -1.
         22    1    1    0    0    0  0.15794145829E+01  0.13040165477E+02 -0.26563351926E+02  0.29633631766E+02  0.00000000000E+00 0. -1.
</event>
<event>
 5    1  0.1709463E-003  0.9118800E+02  0.7818608E-02  0.1130116E+00
         25   -1    0    0    0    0  0.00000000000E+00  0.00000000000E+00  0.99999998245E-14  0.12500000000E+03  0.12500000000E+03 0.  0.
        -13    1    3    3    0    0 -0.38719532457E+02 -0.32726301309E+02 -0.32591140852E+02  0.60269450115E+02  0.10566000000E+00 0. -1.
         23    2    1    0    0    0 -0.25292224870E+02 -0.59948206520E+01 -0.14293399067E+02  0.95336288660E+02  0.90603930186E+02 0.  0.
         13    1    3    3    0    0  0.13427307586E+02  0.26731480657E+02  0.18297741784E+02  0.35066838546E+02  0.10566000000E+00 0.  1.
         22    1    1    0    0    0  0.25292224870E+02  0.59948206520E+01  0.14293399067E+02  0.29663711340E+02  0.00000000000E+00 0. -1.
</event>
<event>
 5    1  0.1709463E-003  0.9118800E+02  0.7818608E-02  0.1130116E+00
         25   -1    0    0    0    0  0.00000000000E+00  0.00000000000E+00  0.99999998245E-14  0.12500000000E+03  0.12500000000E+03 0.  0.
        -13    1    3    3    0    0  0.51300655268E+01  0.38547949435E+02 -0.29348327314E+02  0.48719579823E+02  0.10566000000E+00 0.  1.
         23    2    1    0    0    0 -0.21225862963E+02 -0.14941219539E+01 -0.15681987504E+02  0.98567172096E+02  0.94956795565E+02 0.  0.
         13    1    3    3    0    0 -0.26355928489E+02 -0.40042071389E+02  0.13666339810E+02  0.49847592274E+02  0.10566000000E+00 0. -1.
         22    1    1    0    0    0  0.21225862963E+02  0.14941219539E+01  0.15681987504E+02  0.26432827904E+02  0.00000000000E+00 0. -1.
</event>
<event>
 5    1  0.1709463E-003  0.9118800E+02  0.7818608E-02  0.1130116E+00
         25   -1    0    0    0    0  0.00000000000E+00  0.00000000000E+00  0.99999998245E-14  0.12500000000E+03  0.12500000000E+03 0.  0.
        -13    1    3    3    0    0 -0.51278783424E+02 -0.24835887562E+02 -0.11271725792E+02  0.58080959934E+02  0.10566000000E+00 0. -1.
         23    2    1    0    0    0 -0.17052385567E+02 -0.21634272758E+02  0.63799292551E+01  0.96724054240E+02  0.92498721938E+02 0.  0.
         13    1    3    3    0    0  0.34226397857E+02  0.32016148035E+01  0.17651655047E+02  0.38643094307E+02  0.10566000000E+00 0.  1.
         22    1    1    0    0    0  0.17052385567E+02  0.21634272758E+02 -0.63799292551E+01  0.28275945760E+02  0.00000000000E+00 0. -1.
</event>
<event>
 5    1  0.1709463E-003  0.9118800E+02  0.7818608E-02  0.1130116E+00
         25   -1    0    0    0    0  0.00000000000E+00  0.00000000000E+00  0.99999998245E-14  0.12500000000E+03  0.12500000000E+03 0.  0.
        -13    1    3    3    0    0  0.15619409484E+02  0.28555015786E+02  0.33197676745E+02  0.46491416245E+02  0.10566000000E+00 0.  1.
         23    2    1    0    0    0  0.27017968553E+02 -0.48034013172E+00 -0.67234418922E+01  0.97153886766E+02  0.93077772274E+02 0.  0.
         13    1    3    3    0    0  0.11398559069E+02 -0.29035355918E+02 -0.39921118637E+02  0.50662470522E+02  0.10566000000E+00 0. -1.
         22    1    1    0    0    0 -0.27017968553E+02  0.48034013172E+00  0.67234418922E+01  0.27846113234E+02  0.00000000000E+00 0. -1.
</event>
<event>
 5    1  0.1709463E-003  0.9118800E+02  0.7818608E-02  0.1130116E+00
         25   -1    0    0    0    0  0.00000000000E+00  0.00000000000E+00  0.99999998245E-14  0.12500000000E+03  0.12500000000E+03 0.  0.
        -13    1    3    3    0    0 -0.33402630760E+01  0.99194833585E+01  0.33719881831E+02  0.35307153698E+02  0.10566000000E+00 0.  1.
         23    2    1    0    0    0 -0.20014504773E+02 -0.60114798975E+01 -0.21419457410E+02  0.95074902714E+02  0.90242593483E+02 0.  0.
         13    1    3    3    0    0 -0.16674241697E+02 -0.15930963256E+02 -0.55139339241E+02  0.59767749016E+02  0.10566000000E+00 0. -1.
         22    1    1    0    0    0  0.20014504773E+02  0.60114798975E+01  0.21419457410E+02  0.29925097286E+02  0.00000000000E+00 0. -1.
</event>
<event>
 5    1  0.1709463E-003  0.9118800E+02  0.7818608E-02  0.1130116E+00
         25   -1    0    0    0    0  0.00000000000E+00  0.00000000000E+00  0.99999998245E-14  0.12500000000E+03  0.12500000000E+03 0.  0.
        -13    1    3    3    0    0 -0.36074624465E+02 -0.47052913862E+02 -0.17977712415E+02  0.61956150146E+02  0.10566000000E+00 0. -1.
         23    2    1    0    0    0 -0.11867456188E+02 -0.24816446165E+02 -0.94410825168E+01  0.95916902577E+02  0.91401453184E+02 0.  0.
         13    1    3    3    0    0  0.24207168277E+02  0.22236467697E+02  0.85366298978E+01  0.33960752431E+02  0.10566000000E+00 0.  1.
         22    1    1    0    0    0  0.11867456188E+02  0.24816446165E+02  0.94410825168E+01  0.29083097423E+02  0.00000000000E+00 0. -1.
</event>
<event>
 5    1  0.1709463E-003  0.9118800E+02  0.7818608E-02  0.1130116E+00
         25   -1    0    0    0    0  0.00000000000E+00  0.00000000000E+00  0.99999998245E-14  0.12500000000E+03  0.12500000000E+03 0.  0.
        -13    1    3    3    0    0 -0.37997018355E+02  0.20094052301E+01  0.20455607448E+02  0.43200163812E+02  0.10566000000E+00 0.  1.
         23    2    1    0    0    0 -0.12674101769E+02 -0.32129866915E+02 -0.20241379077E+00  0.90460136437E+02  0.83606423852E+02 0.  0.
         13    1    3    3    0    0  0.25322916586E+02 -0.34139272145E+02 -0.20658021238E+02  0.47259972625E+02  0.10566000000E+00 0. -1.
         22    1    1    0    0    0  0.12674101769E+02  0.32129866915E+02  0.20241379077E+00  0.34539863563E+02  0.00000000000E+00 0. -1.
</event>
<event>
 5    1  0.1709463E-003  0.9118800E+02  0.7818608E-02  0.1130116E+00
         25   -1    0    0    0    0  0.00000000000E+00  0.00000000000E+00  0.99999998245E-14  0.12500000000E+03  0.12500000000E+03 0.  0.
        -13    1    3    3    0    0  0.50668346780E+02  0.11725462125E+02  0.61950649633E+01  0.52375164166E+02  0.10566000000E+00 0. -1.
         23    2    1    0    0    0  0.12044774750E+02  0.91797497793E+01  0.25279269718E+02  0.95531612153E+02  0.90873005003E+02 0.  0.
         13    1    3    3    0    0 -0.38623572030E+02 -0.25457123455E+01  0.19084204755E+02  0.43156447987E+02  0.10566000000E+00 0.  1.
         22    1    1    0    0    0 -0.12044774750E+02 -0.91797497793E+01 -0.25279269718E+02  0.29468387847E+02  0.00000000000E+00 0. -1.
</event>
<event>
 5    1  0.1709463E-003  0.9118800E+02  0.7818608E-02  0.1130116E+00
         25   -1    0    0    0    0  0.00000000000E+00  0.00000000000E+00  0.99999998245E-14  0.12500000000E+03  0.12500000000E+03 0.  0.
        -13    1    3    3    0    0  0.54680175942E+02 -0.64867812021E+01 -0.10372267583E+02  0.56032089648E+02  0.10566000000E+00 0. -1.
         23    2    1    0    0    0  0.17004310124E+02 -0.20749398668E+02  0.17904439881E+01  0.98113389996E+02  0.94357551361E+02 0.  0.
         13    1    3    3    0    0 -0.37675865819E+02 -0.14262617466E+02  0.12162711571E+02  0.42081300348E+02  0.10566000000E+00 0.  1.
         22    1    1    0    0    0 -0.17004310124E+02  0.20749398668E+02 -0.17904439881E+01  0.26886610004E+02  0.00000000000E+00 0. -1.
</event>
<event>
 5    1  0.1709463E-003  0.9118800E+02  0.7818608E-02  0.1130116E+00
         25   -1    0    0    0    0  0.00000000000E+00  0.00000000000E+00  0.99999998245E-14  0.12500000000E+03  0.12500000000E+03 0.  0.
        -13    1    3    3    0    0 -0.23338340516E+02 -0.10025861664E+02 -0.21949441486E+02  0.33570600021E+02  0.10566000000E+00 0. -1.
         23    2    1    0    0    0  0.30713268500E+02  0.94189714273E+00 -0.19147094240E+02  0.88794983083E+02  0.81078639423E+02 0.  0.
         13    1    3    3    0    0  0.54051609016E+02  0.10967758806E+02  0.28023472465E+01  0.55224383062E+02  0.10566000000E+00 0.  1.
         22    1    1    0    0    0 -0.30713268500E+02 -0.94189714273E+00  0.19147094240E+02  0.36205016917E+02  0.00000000000E+00 0.  1.
</event>
<event>
 5    1  0.1709463E-003  0.9118800E+02  0.7818608E-02  0.1130116E+00
         25   -1    0    0    0    0  0.00000000000E+00  0.00000000000E+00  0.99999998245E-14  0.12500000000E+03  0.12500000000E+03 0.  0.
        -13    1    3    3    0    0  0.25168328850E+02 -0.19908451566E+02  0.10735772757E+02  0.33838723403E+02  0.10566000000E+00 0. -1.
         23    2    1    0    0    0 -0.17466713719E+02  0.21676780424E+02 -0.75787905792E+01  0.96148536184E+02  0.91717686658E+02 0.  0.
         13    1    3    3    0    0 -0.42635042569E+02  0.41585231990E+02 -0.18314563336E+02  0.62309812780E+02  0.10566000000E+00 0.  1.
         22    1    1    0    0    0  0.17466713719E+02 -0.21676780424E+02  0.75787905792E+01  0.28851463816E+02  0.00000000000E+00 0.  1.
</event>
<event>
 5    1  0.1709463E-003  0.9118800E+02  0.7818608E-02  0.1130116E+00
         25   -1    0    0    0    0  0.00000000000E+00  0.00000000000E+00  0.99999998245E-14  0.12500000000E+03  0.12500000000E+03 0.  0.
        -13    1    3    3    0    0  0.15811640877E+02  0.33158984701E+02  0.26160886344E+02  0.45099106332E+02  0.10566000000E+00 0. -1.
         23    2    1    0    0    0  0.18221806863E+02 -0.60006284681E+01  0.34790361910E+02  0.85270778145E+02  0.75449947225E+02 0.  0.
         13    1    3    3    0    0  0.24101659851E+01 -0.39159613169E+02  0.86294755663E+01  0.40171671813E+02  0.10566000000E+00 0.  1.
         22    1    1    0    0    0 -0.18221806863E+02  0.60006284681E+01 -0.34790361910E+02  0.39729221855E+02  0.00000000000E+00 0.  1.
</event>
<event>
 5    1  0.1709463E-003  0.9118800E+02  0.7818608E-02  0.1130116E+00
         25   -1    0    0    0    0  0.00000000000E+00  0.00000000000E+00  0.99999998245E-14  0.12500000000E+03  0.12500000000E+03 0.  0.
        -13    1    3    3    0    0  0.57907805456E+02 -0.62269116051E+01 -0.15854573399E+02  0.60361138347E+02  0.10566000000E+00 0. -1.
         23    2    1    0    0    0  0.23847259759E+02 -0.12358357661E+01 -0.18362629241E+02  0.94876832160E+02  0.89967816690E+02 0.  0.
         13    1    3    3    0    0 -0.34060545697E+02  0.49910758389E+01 -0.25080558422E+01  0.34515693813E+02  0.10566000000E+00 0.  1.
         22    1    1    0    0    0 -0.23847259759E+02  0.12358357661E+01  0.18362629241E+02  0.30123167840E+02  0.00000000000E+00 0. -1.
</event>
<event>
 5    1  0.1709463E-003  0.9118800E+02  0.7818608E-02  0.1130116E+00
         25   -1    0    0    0    0  0.00000000000E+00  0.00000000000E+00  0.99999998245E-14  0.12500000000E+03  0.12500000000E+03 0.  0.
        -13    1    3    3    0    0 -0.22539022710E+02 -0.45509686311E+02  0.15965376526E+02  0.53235735221E+02  0.10566000000E+00 0.  1.
         23    2    1    0    0    0 -0.16798487375E+01 -0.94844789363E+01  0.27026234592E+02  0.96308632157E+02  0.91935618991E+02 0.  0.
         13    1    3    3    0    0  0.20859173973E+02  0.36025207375E+02  0.11060858066E+02  0.43072896936E+02  0.10566000000E+00 0. -1.
         22    1    1    0    0    0  0.16798487375E+01  0.94844789363E+01 -0.27026234592E+02  0.28691367843E+02  0.00000000000E+00 0.  1.
</event>
<event>
 5    1  0.1709463E-003  0.9118800E+02  0.7818608E-02  0.1130116E+00
         25   -1    0    0    0    0  0.00000000000E+00  0.00000000000E+00  0.99999998245E-14  0.12500000000E+03  0.12500000000E+03 0.  0.
        -13    1    3    3    0    0 -0.97734842452E+01  0.36096215738E+02  0.16650275955E+01  0.37433157305E+02  0.10566000000E+00 0. -1.
         23    2    1    0    0    0  0.27245919796E+02 -0.51927436768E+01 -0.12360621329E+02  0.94634070209E+02  0.89629892068E+02 0.  0.
         13    1    3    3    0    0  0.37019404042E+02 -0.41288959415E+02 -0.14025648925E+02  0.57200912903E+02  0.10566000000E+00 0.  1.
         22    1    1    0    0    0 -0.27245919796E+02  0.51927436768E+01  0.12360621329E+02  0.30365929791E+02  0.00000000000E+00 0.  1.
</event>
<event>
 5    1  0.1709463E-003  0.9118800E+02  0.7818608E-02  0.1130116E+00
         25   -1    0    0    0    0  0.00000000000E+00  0.00000000000E+00  0.99999998245E-14  0.12500000000E+03  0.12500000000E+03 0.  0.
        -13    1    3    3    0    0  0.30308227159E+02  0.16129840408E+01 -0.24400281716E+02  0.38943231284E+02  0.10566000000E+00 0.  1.
         23    2    1    0    0    0 -0.12048089136E+02 -0.26441409216E+02  0.13713873335E+01  0.95910736063E+02  0.91393019513E+02 0.  0.
         13    1    3    3    0    0 -0.42356316295E+02 -0.28054393257E+02  0.25771669049E+02  0.56967504779E+02  0.10566000000E+00 0. -1.
         22    1    1    0    0    0  0.12048089136E+02  0.26441409216E+02 -0.13713873335E+01  0.29089263937E+02  0.00000000000E+00 0. -1.
</event>
<event>
 5    1  0.1709463E-003  0.9118800E+02  0.7818608E-02  0.1130116E+00
         25   -1    0    0    0    0  0.00000000000E+00  0.00000000000E+00  0.99999998245E-14  0.12500000000E+03  0.12500000000E+03 0.  0.
        -13    1    3    3    0    0 -0.29057310753E+02  0.29297320613E+02 -0.23693565030E+02  0.47582102635E+02  0.10566000000E+00 0.  1.
         23    2    1    0    0    0  0.15560320525E+02  0.88851604899E+01 -0.21931946854E+02  0.96678984048E+02  0.92437795365E+02 0.  0.
         13    1    3    3    0    0  0.44617631278E+02 -0.20412160124E+02  0.17616181766E+01  0.49096881412E+02  0.10566000000E+00 0. -1.
         22    1    1    0    0    0 -0.15560320525E+02 -0.88851604899E+01  0.21931946854E+02  0.28321015952E+02  0.00000000000E+00 0. -1.
</event>
<event>
 5    1  0.1709463E-003  0.9118800E+02  0.7818608E-02  0.1130116E+00
         25   -1    0    0    0    0  0.00000000000E+00  0.00000000000E+00  0.99999998245E-14  0.12500000000E+03  0.12500000000E+03 0.  0.
        -13    1    3    3    0    0 -0.26901682272E+02 -0.51197533183E+00  0.32456953543E+02  0.42159549632E+02  0.10566000000E+00 0. -1.
         23    2    1    0    0    0 -0.10548972332E+02  0.14914424891E+02 -0.19200938920E+02  0.98497227645E+02  0.94864676836E+02 0.  0.
         13    1    3    3    0    0  0.16352709940E+02  0.15426400223E+02 -0.51657892463E+02  0.56337678014E+02  0.10566000000E+00 0.  1.
         22    1    1    0    0    0  0.10548972332E+02 -0.14914424891E+02  0.19200938920E+02  0.26502772355E+02  0.00000000000E+00 0.  1.
</event>
<event>
 5    1  0.1709463E-003  0.9118800E+02  0.7818608E-02  0.1130116E+00
         25   -1    0    0    0    0  0.00000000000E+00  0.00000000000E+00  0.99999998245E-14  0.12500000000E+03  0.12500000000E+03 0.  0.
        -13    1    3    3    0    0 -0.19989970431E+02 -0.24731438615E+02 -0.11322887491E+02  0.33755916800E+02  0.10566000000E+00 0. -1.
         23    2    1    0    0    0  0.25880794303E+02  0.27447740583E+01  0.16652567740E+02  0.94102470799E+02  0.88885418938E+02 0.  0.
         13    1    3    3    0    0  0.45870764735E+02  0.27476212673E+02  0.27975455230E+02  0.60346553999E+02  0.10566000000E+00 0.  1.
         22    1    1    0    0    0 -0.25880794303E+02 -0.27447740583E+01 -0.16652567740E+02  0.30897529201E+02  0.00000000000E+00 0.  1.
</event>
<event>
 5    1  0.1709463E-003  0.9118800E+02  0.7818608E-02  0.1130116E+00
         25   -1    0    0    0    0  0.00000000000E+00  0.00000000000E+00  0.99999998245E-14  0.12500000000E+03  0.12500000000E+03 0.  0.
        -13    1    3    3    0    0 -0.13844119103E+02 -0.21223454242E+01  0.28957307028E+02  0.32166765119E+02  0.10566000000E+00 0.  1.
         23    2    1    0    0    0  0.19124713313E+02  0.30375771340E+02 -0.38393420354E+01  0.88900378242E+02  0.81240966023E+02 0.  0.
         13    1    3    3    0    0  0.32968832416E+02  0.32498116765E+02 -0.32796649064E+02  0.56733613123E+02  0.10566000000E+00 0. -1.
         22    1    1    0    0    0 -0.19124713313E+02 -0.30375771340E+02  0.38393420354E+01  0.36099621758E+02  0.00000000000E+00 0. -1.
</event>
<event>
 5    1  0.1709463E-003  0.9118800E+02  0.7818608E-02  0.1130116E+00
         25   -1    0    0    0    0  0.00000000000E+00  0.00000000000E+00  0.99999998245E-14  0.12500000000E+03  0.12500000000E+03 0.  0.
        -13    1    3    3    0    0  0.39220977200E+02 -0.34226285973E+02  0.25879196061E+02  0.58133188944E+02  0.10566000000E+00 0.  1.
         23    2    1    0    0    0  0.16018718213E+02 -0.53929899730E+01  0.24584856490E+02  0.95165475658E+02  0.90367963984E+02 0.  0.
         13    1    3    3    0    0 -0.23202258986E+02  0.28833296000E+02 -0.12943395707E+01  0.37032286714E+02  0.10566000000E+00 0. -1.
         22    1    1    0    0    0 -0.16018718213E+02  0.53929899730E+01 -0.24584856490E+02  0.29834524342E+02  0.00000000000E+00 0.  1.
</event>
<event>
 5    1  0.1709463E-003  0.9118800E+02  0.7818608E-02  0.1130116E+00
         25   -1    0    0    0    0  0.00000000000E+00  0.00000000000E+00  0.99999998245E-14  0.12500000000E+03  0.12500000000E+03 0.  0.
        -13    1    3    3    0    0  0.13431654251E+02  0.11719936298E+02 -0.31019302856E+02  0.35776732054E+02  0.10566000000E+00 0.  1.
         23    2    1    0    0    0 -0.24262496227E+02 -0.13999755878E+02  0.80549970722E+01  0.95853047061E+02  0.91314083060E+02 0.  0.
         13    1    3    3    0    0 -0.37694150478E+02 -0.25719692176E+02  0.39074299928E+02  0.60076315007E+02  0.10566000000E+00 0. -1.
         22    1    1    0    0    0  0.24262496227E+02  0.13999755878E+02 -0.80549970722E+01  0.29146952939E+02  0.00000000000E+00 0. -1.
</event>
<event>
 5    1  0.1709463E-003  0.9118800E+02  0.7818608E-02  0.1130116E+00
         25   -1    0    0    0    0  0.00000000000E+00  0.00000000000E+00  0.99999998245E-14  0.12500000000E+03  0.12500000000E+03 0.  0.
        -13    1    3    3    0    0 -0.14144058432E+01 -0.56505948376E+02 -0.76544672369E+01  0.57039677230E+02  0.10566000000E+00 0.  1.
         23    2    1    0    0    0  0.11541202745E+02 -0.25640223090E+02  0.10336060780E+02  0.95042454150E+02  0.90197635986E+02 0.  0.
         13    1    3    3    0    0  0.12955608588E+02  0.30865725286E+02  0.17990528017E+02  0.38002776920E+02  0.10566000000E+00 0. -1.
         22    1    1    0    0    0 -0.11541202745E+02  0.25640223090E+02 -0.10336060780E+02  0.29957545850E+02  0.00000000000E+00 0.  1.
</event>
<event>
 5    1  0.1709463E-003  0.9118800E+02  0.7818608E-02  0.1130116E+00
         25   -1    0    0    0    0  0.00000000000E+00  0.00000000000E+00  0.99999998245E-14  0.12500000000E+03  0.12500000000E+03 0.  0.
        -13    1    3    3    0    0 -0.18708045952E+02 -0.32712479403E+02 -0.31514495163E+02  0.49125063475E+02  0.10566000000E+00 0. -1.
         23    2    1    0    0    0  0.20720480900E+02 -0.15900517244E+02 -0.13173896073E+02  0.95747370801E+02  0.91169307885E+02 0.  0.
         13    1    3    3    0    0  0.39428526852E+02  0.16811962159E+02  0.18340599090E+02  0.46622307326E+02  0.10566000000E+00 0.  1.
         22    1    1    0    0    0 -0.20720480900E+02  0.15900517244E+02  0.13173896073E+02  0.29252629199E+02  0.00000000000E+00 0. -1.
</event>
<event>
 5    1  0.1709463E-003  0.9118800E+02  0.7818608E-02  0.1130116E+00
         25   -1    0    0    0    0  0.00000000000E+00  0.00000000000E+00  0.99999998245E-14  0.12500000000E+03  0.12500000000E+03 0.  0.
        -13    1    3    3    0    0 -0.29713474342E+02 -0.20361379986E+02  0.45175249397E+02  0.57777942803E+02  0.10566000000E+00 0.  1.
         23    2    1    0    0    0 -0.26745230668E+02 -0.19191315782E+02  0.13814910740E+02  0.89300340006E+02  0.81854046947E+02 0.  0.
         13    1    3    3    0    0  0.29682436745E+01  0.11700642042E+01 -0.31360338657E+02  0.31522397204E+02  0.10566000000E+00 0. -1.
         22    1    1    0    0    0  0.26745230668E+02  0.19191315782E+02 -0.13814910740E+02  0.35699659994E+02  0.00000000000E+00 0.  1.
</event>
<event>
 5    1  0.1709463E-003  0.9118800E+02  0.7818608E-02  0.1130116E+00
         25   -1    0    0    0    0  0.00000000000E+00  0.00000000000E+00  0.99999998245E-14  0.12500000000E+03  0.12500000000E+03 0.  0.
        -13    1    3    3    0    0 -0.45662742914E+01 -0.33017352444E+02 -0.44222940187E+02  0.55377576926E+02  0.10566000000E+00 0.  1.
         23    2    1    0    0    0 -0.17032120286E+02 -0.46178222342E+00 -0.23634810083E+02  0.95863929367E+02  0.91328978653E+02 0.  0.
         13    1    3    3    0    0 -0.12465845994E+02  0.32555570221E+02  0.20588130104E+02  0.40486352441E+02  0.10566000000E+00 0. -1.
         22    1    1    0    0    0  0.17032120286E+02  0.46178222342E+00  0.23634810083E+02  0.29136070633E+02  0.00000000000E+00 0.  1.
</event>
<event>
 5    1  0.1709463E-003  0.9118800E+02  0.7818608E-02  0.1130116E+00
         25   -1    0    0    0    0  0.00000000000E+00  0.00000000000E+00  0.99999998245E-14  0.12500000000E+03  0.12500000000E+03 0.  0.
        -13    1    3    3    0    0 -0.55443081487E+02  0.62048890550E+01  0.76822762030E+01  0.56315756806E+02  0.10566000000E+00 0.  1.
         23    2    1    0    0    0 -0.20867857803E+02  0.20823290539E+02 -0.30606383070E+01  0.95361436860E+02  0.90638618784E+02 0.  0.
         13    1    3    3    0    0  0.34575223684E+02  0.14618401484E+02 -0.10742914510E+02  0.39045680055E+02  0.10566000000E+00 0. -1.
         22    1    1    0    0    0  0.20867857803E+02 -0.20823290539E+02  0.30606383070E+01  0.29638563140E+02  0.00000000000E+00 0.  1.
</event>
<event>
 5    1  0.1709463E-003  0.9118800E+02  0.7818608E-02  0.1130116E+00
         25   -1    0    0    0    0  0.00000000000E+00  0.00000000000E+00  0.99999998245E-14  0.12500000000E+03  0.12500000000E+03 0.  0.
        -13    1    3    3    0    0 -0.18145861783E+02  0.38382095206E+02  0.51962228604E+00  0.42458670535E+02  0.10566000000E+00 0.  1.
         23    2    1    0    0    0 -0.11895763946E+02 -0.30918817306E+01 -0.28836155439E+02  0.93653663803E+02  0.88252002531E+02 0.  0.
         13    1    3    3    0    0  0.62500978373E+01 -0.41473976936E+02 -0.29355777725E+02  0.51194993268E+02  0.10566000000E+00 0. -1.
         22    1    1    0    0    0  0.11895763946E+02  0.30918817306E+01  0.28836155439E+02  0.31346336197E+02  0.00000000000E+00 0.  1.
</event>
<event>
 5    1  0.1709463E-003  0.9118800E+02  0.7818608E-02  0.1130116E+00
         25   -1    0    0    0    0  0.00000000000E+00  0.00000000000E+00  0.99999998245E-14  0.12500000000E+03  0.12500000000E+03 0.  0.
        -13    1    3    3    0    0  0.29658827280E+02  0.29521569044E+02 -0.18805996162E+02  0.45878597735E+02  0.10566000000E+00 0.  1.
         23    2    1    0    0    0  0.28514668749E+02 -0.15006919668E+02 -0.60283391535E+01  0.92218376417E+02  0.86195093272E+02 0.  0.
         13    1    3    3    0    0 -0.11441585306E+01 -0.44528488711E+02  0.12777657009E+02  0.46339778682E+02  0.10566000000E+00 0. -1.
         22    1    1    0    0    0 -0.28514668749E+02  0.15006919668E+02  0.60283391535E+01  0.32781623583E+02  0.00000000000E+00 0. -1.
</event>
<event>
 5    1  0.1709463E-003  0.9118800E+02  0.7818608E-02  0.1130116E+00
         25   -1    0    0    0    0  0.00000000000E+00  0.00000000000E+00  0.99999998245E-14  0.12500000000E+03  0.12500000000E+03 0.  0.
        -13    1    3    3    0    0  0.11101379946E+01  0.34793973482E+02 -0.48958025708E+02  0.60072892741E+02  0.10566000000E+00 0.  1.
         23    2    1    0    0    0 -0.11355201662E+02  0.11437069807E+02 -0.16962619787E+02  0.10160175988E+03  0.98870824668E+02 0.  0.
         13    1    3    3    0    0 -0.12465339656E+02 -0.23356903674E+02  0.31995405921E+02  0.41528867141E+02  0.10566000000E+00 0. -1.
         22    1    1    0    0    0  0.11355201662E+02 -0.11437069807E+02  0.16962619787E+02  0.23398240118E+02  0.00000000000E+00 0.  1.
</event>
<event>
 5    1  0.1709463E-003  0.9118800E+02  0.7818608E-02  0.1130116E+00
         25   -1    0    0    0    0  0.00000000000E+00  0.00000000000E+00  0.99999998245E-14  0.12500000000E+03  0.12500000000E+03 0.  0.
        -13    1    3    3    0    0  0.33831254842E+02 -0.36492484906E+02 -0.32456745413E+02  0.59411335162E+02  0.10566000000E+00 0.  1.
         23    2    1    0    0    0  0.23208745900E+02 -0.54250893978E+01 -0.17145971447E+02  0.95639110740E+02  0.91020754145E+02 0.  0.
         13    1    3    3    0    0 -0.10622508942E+02  0.31067395509E+02  0.15310773966E+02  0.36227775579E+02  0.10566000000E+00 0. -1.
         22    1    1    0    0    0 -0.23208745900E+02  0.54250893978E+01  0.17145971447E+02  0.29360889260E+02  0.00000000000E+00 0.  1.
</event>
<event>
 5    1  0.1709463E-003  0.9118800E+02  0.7818608E-02  0.1130116E+00
         25   -1    0    0    0    0  0.00000000000E+00  0.00000000000E+00  0.99999998245E-14  0.12500000000E+03  0.12500000000E+03 0.  0.
        -13    1    3    3    0    0  0.34811916271E+02 -0.17878699363E+02 -0.23681178024E+01  0.39206333052E+02  0.10566000000E+00 0. -1.
         23    2    1    0    0    0  0.60033651303E+01  0.23261649629E+02  0.19571165012E+02  0.94013305496E+02  0.88759936762E+02 0.  0.
         13    1    3    3    0    0 -0.28808551141E+02  0.41140348992E+02  0.21939282815E+02  0.54806972444E+02  0.10566000000E+00 0.  1.
         22    1    1    0    0    0 -0.60033651303E+01 -0.23261649629E+02 -0.19571165012E+02  0.30986694504E+02  0.00000000000E+00 0.  1.
</event>
<event>
 5    1  0.1709463E-003  0.9118800E+02  0.7818608E-02  0.1130116E+00
         25   -1    0    0    0    0  0.00000000000E+00  0.00000000000E+00  0.99999998245E-14  0.12500000000E+03  0.12500000000E+03 0.  0.
        -13    1    3    3    0    0 -0.36078648911E+02  0.73655832290E+01 -0.12837436805E+02  0.38996559736E+02  0.10566000000E+00 0. -1.
         23    2    1    0    0    0  0.25718819559E+01  0.53455827616E+01  0.28654728445E+02  0.95737681327E+02  0.91156021917E+02 0.  0.
         13    1    3    3    0    0  0.38650530866E+02 -0.20200004675E+01  0.41492165250E+02  0.56741121590E+02  0.10566000000E+00 0.  1.
         22    1    1    0    0    0 -0.25718819559E+01 -0.53455827616E+01 -0.28654728445E+02  0.29262318673E+02  0.00000000000E+00 0.  1.
</event>
<event>
 5    1  0.1709463E-003  0.9118800E+02  0.7818608E-02  0.1130116E+00
         25   -1    0    0    0    0  0.00000000000E+00  0.00000000000E+00  0.99999998245E-14  0.12500000000E+03  0.12500000000E+03 0.  0.
        -13    1    3    3    0    0 -0.15377792803E+02 -0.14913464897E+02  0.40519686016E+02  0.45833874652E+02  0.10566000000E+00 0.  1.
         23    2    1    0    0    0  0.17755814502E+02 -0.21279309656E+02  0.17477191426E+01  0.97230727589E+02  0.93180909511E+02 0.  0.
         13    1    3    3    0    0  0.33133607305E+02 -0.63658447588E+01 -0.38771966874E+02  0.51396852937E+02  0.10566000000E+00 0. -1.
         22    1    1    0    0    0 -0.17755814502E+02  0.21279309656E+02 -0.17477191426E+01  0.27769272411E+02  0.00000000000E+00 0. -1.
</event>
<event>
 5    1  0.1709463E-003  0.9118800E+02  0.7818608E-02  0.1130116E+00
         25   -1    0    0    0    0  0.00000000000E+00  0.00000000000E+00  0.99999998245E-14  0.12500000000E+03  0.12500000000E+03 0.  0.
        -13    1    3    3    0    0  0.21151537844E+02 -0.17506674976E+02 -0.36035270026E+02  0.45303676140E+02  0.10566000000E+00 0. -1.
         23    2    1    0    0    0 -0.51812673275E+01  0.21622149197E+02 -0.19926307303E+02  0.95143332574E+02  0.90337329734E+02 0.  0.
         13    1    3    3    0    0 -0.26332805172E+02  0.39128824174E+02  0.16108962723E+02  0.49839656434E+02  0.10566000000E+00 0.  1.
         22    1    1    0    0    0  0.51812673275E+01 -0.21622149197E+02  0.19926307303E+02  0.29856667426E+02  0.00000000000E+00 0.  1.
</event>
<event>
 5    1  0.1709463E-003  0.9118800E+02  0.7818608E-02  0.1130116E+00
         25   -1    0    0    0    0  0.00000000000E+00  0.00000000000E+00  0.99999998245E-14  0.12500000000E+03  0.12500000000E+03 0.  0.
        -13    1    3    3    0    0 -0.12188206717E+02  0.95035933184E+01  0.57729053853E+02  0.59762241355E+02  0.10566000000E+00 0. -1.
         23    2    1    0    0    0 -0.17795780113E+02  0.43471897655E+00  0.24118694443E+02  0.95023506008E+02  0.90171372962E+02 0.  0.
         13    1    3    3    0    0 -0.56075733957E+01 -0.90688743418E+01 -0.33610359410E+02  0.35261264653E+02  0.10566000000E+00 0.  1.
         22    1    1    0    0    0  0.17795780113E+02 -0.43471897655E+00 -0.24118694443E+02  0.29976493992E+02  0.00000000000E+00 0. -1.
</event>
<event>
 5    1  0.1709463E-003  0.9118800E+02  0.7818608E-02  0.1130116E+00
         25   -1    0    0    0    0  0.00000000000E+00  0.00000000000E+00  0.99999998245E-14  0.12500000000E+03  0.12500000000E+03 0.  0.
        -13    1    3    3    0    0 -0.32710037688E+02 -0.20922008327E+02  0.46906398479E+02  0.60892514978E+02  0.10566000000E+00 0. -1.
         23    2    1    0    0    0 -0.18226348336E+02 -0.16104291411E+02  0.14576554611E+02  0.96644684452E+02  0.92391401727E+02 0.  0.
         13    1    3    3    0    0  0.14483689352E+02  0.48177169157E+01 -0.32329843869E+02  0.35752169475E+02  0.10566000000E+00 0.  1.
         22    1    1    0    0    0  0.18226348336E+02  0.16104291411E+02 -0.14576554611E+02  0.28355315548E+02  0.00000000000E+00 0. -1.
</event>
<event>
 5    1  0.1709463E-003  0.9118800E+02  0.7818608E-02  0.1130116E+00
         25   -1    0    0    0    0  0.00000000000E+00  0.00000000000E+00  0.99999998245E-14  0.12500000000E+03  0.12500000000E+03 0.  0.
        -13    1    3    3    0    0 -0.31273219017E+02 -0.51919927652E+00 -0.24374639464E+02  0.39653726289E+02  0.10566000000E+00 0.  1.
         23    2    1    0    0    0 -0.15218467327E+02 -0.13137492768E+02  0.24902780266E+02  0.92994626561E+02  0.87313553588E+02 0.  0.
         13    1    3    3    0    0  0.16054751690E+02 -0.12618293492E+02  0.49277419730E+02  0.53340900272E+02  0.10566000000E+00 0. -1.
         22    1    1    0    0    0  0.15218467327E+02  0.13137492768E+02 -0.24902780266E+02  0.32005373439E+02  0.00000000000E+00 0. -1.
</event>
<event>
 5    1  0.1709463E-003  0.9118800E+02  0.7818608E-02  0.1130116E+00
         25   -1    0    0    0    0  0.00000000000E+00  0.00000000000E+00  0.99999998245E-14  0.12500000000E+03  0.12500000000E+03 0.  0.
        -13    1    3    3    0    0  0.32188667205E+02  0.12292877943E+02 -0.15174567928E+02  0.37649751930E+02  0.10566000000E+00 0.  1.
         23    2    1    0    0    0 -0.25481589669E+02  0.10005003742E+02 -0.10936561760E+02  0.95520856609E+02  0.90858209052E+02 0.  0.
         13    1    3    3    0    0 -0.57670256875E+02 -0.22878742010E+01  0.42380061675E+01  0.57871104678E+02  0.10566000000E+00 0. -1.
         22    1    1    0    0    0  0.25481589669E+02 -0.10005003742E+02  0.10936561760E+02  0.29479143391E+02  0.00000000000E+00 0. -1.
</event>
<event>
 5    1  0.1709463E-003  0.9118800E+02  0.7818608E-02  0.1130116E+00
         25   -1    0    0    0    0  0.00000000000E+00  0.00000000000E+00  0.99999998245E-14  0.12500000000E+03  0.12500000000E+03 0.  0.
        -13    1    3    3    0    0 -0.30260016670E+02  0.51452521830E+02  0.60819436068E+01  0.60000265113E+02  0.10566000000E+00 0.  1.
         23    2    1    0    0    0 -0.23525368433E+02  0.15654616472E+02  0.16658925434E+01  0.96693018975E+02  0.92456772298E+02 0.  0.
         13    1    3    3    0    0  0.67346482372E+01 -0.35797905359E+02 -0.44160510634E+01  0.36692753862E+02  0.10566000000E+00 0. -1.
         22    1    1    0    0    0  0.23525368433E+02 -0.15654616472E+02 -0.16658925434E+01  0.28306981025E+02  0.00000000000E+00 0.  1.
</event>
<event>
 5    1  0.1709463E-003  0.9118800E+02  0.7818608E-02  0.1130116E+00
         25   -1    0    0    0    0  0.00000000000E+00  0.00000000000E+00  0.99999998245E-14  0.12500000000E+03  0.12500000000E+03 0.  0.
        -13    1    3    3    0    0  0.12391273335E+02 -0.55726864279E+01  0.45452732038E+02  0.47440072752E+02  0.10566000000E+00 0.  1.
         23    2    1    0    0    0 -0.24128724144E+02 -0.89439174855E+01  0.14299699222E+02  0.95560733932E+02  0.90913054524E+02 0.  0.
         13    1    3    3    0    0 -0.36519997479E+02 -0.33712310576E+01 -0.31153032816E+02  0.48120661180E+02  0.10566000000E+00 0. -1.
         22    1    1    0    0    0  0.24128724144E+02  0.89439174855E+01 -0.14299699222E+02  0.29439266068E+02  0.00000000000E+00 0. -1.
</event>
<event>
 5    1  0.1709463E-003  0.9118800E+02  0.7818608E-02  0.1130116E+00
         25   -1    0    0    0    0  0.00000000000E+00  0.00000000000E+00  0.99999998245E-14  0.12500000000E+03  0.12500000000E+03 0.  0.
        -13    1    3    3    0    0  0.52654304264E+02  0.48037367126E+01 -0.24407534834E+02  0.58234788268E+02  0.10566000000E+00 0.  1.
         23    2    1    0    0    0  0.27467676282E+02  0.85222728312E+01  0.35203605519E+01  0.96025954494E+02  0.91550470363E+02 0.  0.
         13    1    3    3    0    0 -0.25186627982E+02  0.37185361186E+01  0.27927895386E+02  0.37791166226E+02  0.10566000000E+00 0. -1.
         22    1    1    0    0    0 -0.27467676282E+02 -0.85222728312E+01 -0.35203605519E+01  0.28974045506E+02  0.00000000000E+00 0.  1.
</event>
<event>
 5    1  0.1709463E-003  0.9118800E+02  0.7818608E-02  0.1130116E+00
         25   -1    0    0    0    0  0.00000000000E+00  0.00000000000E+00  0.99999998245E-14  0.12500000000E+03  0.12500000000E+03 0.  0.
        -13    1    3    3    0    0 -0.35615888471E+02  0.93160293772E+01  0.12985340321E+02  0.39037291687E+02  0.10566000000E+00 0. -1.
         23    2    1    0    0    0  0.10354922405E+02  0.19835950439E+02 -0.18688604052E+02  0.95846041963E+02  0.91304493267E+02 0.  0.
         13    1    3    3    0    0  0.45970810876E+02  0.10519921062E+02 -0.31673944373E+02  0.56808750276E+02  0.10566000000E+00 0.  1.
         22    1    1    0    0    0 -0.10354922405E+02 -0.19835950439E+02  0.18688604052E+02  0.29153958037E+02  0.00000000000E+00 0.  1.
</event>
<event>
 5    1  0.1709463E-003  0.9118800E+02  0.7818608E-02  0.1130116E+00
         25   -1    0    0    0    0  0.00000000000E+00  0.00000000000E+00  0.99999998245E-14  0.12500000000E+03  0.12500000000E+03 0.  0.
        -13    1    3    3    0    0 -0.46926037132E+00  0.25623099679E+02  0.27352002878E+02  0.37482084627E+02  0.10566000000E+00 0. -1.
         23    2    1    0    0    0 -0.25323027279E+02 -0.10263754630E+02 -0.10956921144E+02  0.95561003913E+02  0.90913425731E+02 0.  0.
         13    1    3    3    0    0 -0.24853766908E+02 -0.35886854309E+02 -0.38308924022E+02  0.58078919286E+02  0.10566000000E+00 0.  1.
         22    1    1    0    0    0  0.25323027279E+02  0.10263754630E+02  0.10956921144E+02  0.29438996087E+02  0.00000000000E+00 0.  1.
</event>
<event>
 5    1  0.1709463E-003  0.9118800E+02  0.7818608E-02  0.1130116E+00
         25   -1    0    0    0    0  0.00000000000E+00  0.00000000000E+00  0.99999998245E-14  0.12500000000E+03  0.12500000000E+03 0.  0.
        -13    1    3    3    0    0  0.13061879255E+02  0.54810735187E+02  0.49558975282E+01  0.56563251902E+02  0.10566000000E+00 0. -1.
         23    2    1    0    0    0  0.31304662074E+01  0.20461034807E+02  0.20784270296E+02  0.95666748291E+02  0.91058701247E+02 0.  0.
         13    1    3    3    0    0 -0.99314130472E+01 -0.34349700380E+02  0.15828372768E+02  0.39103496389E+02  0.10566000000E+00 0.  1.
         22    1    1    0    0    0 -0.31304662074E+01 -0.20461034807E+02 -0.20784270296E+02  0.29333251709E+02  0.00000000000E+00 0. -1.
</event>
<event>
 5    1  0.1709463E-003  0.9118800E+02  0.7818608E-02  0.1130116E+00
         25   -1    0    0    0    0  0.00000000000E+00  0.00000000000E+00  0.99999998245E-14  0.12500000000E+03  0.12500000000E+03 0.  0.
        -13    1    3    3    0    0  0.36446235238E+01  0.44288740501E+02 -0.17115280576E+02  0.47620581779E+02  0.10566000000E+00 0. -1.
         23    2    1    0    0    0 -0.27793749466E+02  0.22537874748E+02 -0.74116565689E+00  0.89208972715E+02  0.81714400070E+02 0.  0.
         13    1    3    3    0    0 -0.31438372990E+02 -0.21750865752E+02  0.16374114919E+02  0.41588390936E+02  0.10566000000E+00 0.  1.
         22    1    1    0    0    0  0.27793749466E+02 -0.22537874748E+02  0.74116565689E+00  0.35791027285E+02  0.00000000000E+00 0.  1.
</event>
<event>
 5    1  0.1709463E-003  0.9118800E+02  0.7818608E-02  0.1130116E+00
         25   -1    0    0    0    0  0.00000000000E+00  0.00000000000E+00  0.99999998245E-14  0.12500000000E+03  0.12500000000E+03 0.  0.
        -13    1    3    3    0    0  0.12032591990E+02 -0.47926715596E+02 -0.30276302094E+02  0.57951867703E+02  0.10566000000E+00 0.  1.
         23    2    1    0    0    0  0.15321127680E+02 -0.11429758212E+02 -0.22614658672E+02  0.95389206140E+02  0.90676907397E+02 0.  0.
         13    1    3    3    0    0  0.32885356901E+01  0.36496957384E+02  0.76616434218E+01  0.37437338437E+02  0.10566000000E+00 0. -1.
         22    1    1    0    0    0 -0.15321127680E+02  0.11429758212E+02  0.22614658672E+02  0.29610793860E+02  0.00000000000E+00 0.  1.
</event>
<event>
 5    1  0.1709463E-003  0.9118800E+02  0.7818608E-02  0.1130116E+00
         25   -1    0    0    0    0  0.00000000000E+00  0.00000000000E+00  0.99999998245E-14  0.12500000000E+03  0.12500000000E+03 0.  0.
        -13    1    3    3    0    0 -0.15019797577E+02  0.31161797654E+02  0.11678930021E+02  0.36511101363E+02  0.10566000000E+00 0.  1.
         23    2    1    0    0    0  0.15747608572E+01 -0.22885650570E+02  0.21104293562E+02  0.93829114858E+02  0.88500162229E+02 0.  0.
         13    1    3    3    0    0  0.16594558434E+02 -0.54047448224E+02  0.94253635414E+01  0.57318013495E+02  0.10566000000E+00 0. -1.
         22    1    1    0    0    0 -0.15747608572E+01  0.22885650570E+02 -0.21104293562E+02  0.31170885142E+02  0.00000000000E+00 0. -1.
</event>
<event>
 5    1  0.1709463E-003  0.9118800E+02  0.7818608E-02  0.1130116E+00
         25   -1    0    0    0    0  0.00000000000E+00  0.00000000000E+00  0.99999998245E-14  0.12500000000E+03  0.12500000000E+03 0.  0.
        -13    1    3    3    0    0  0.33655860068E+02  0.29572312340E+02 -0.15576748366E+02  0.47432950865E+02  0.10566000000E+00 0. -1.
         23    2    1    0    0    0  0.23615997475E+01  0.17983435138E+02  0.21204179054E+02  0.97096625615E+02  0.93000840876E+02 0.  0.
         13    1    3    3    0    0 -0.31294260321E+02 -0.11588877202E+02  0.36780927419E+02  0.49663674750E+02  0.10566000000E+00 0.  1.
         22    1    1    0    0    0 -0.23615997475E+01 -0.17983435138E+02 -0.21204179054E+02  0.27903374385E+02  0.00000000000E+00 0. -1.
</event>
<event>
 5    1  0.1709463E-003  0.9118800E+02  0.7818608E-02  0.1130116E+00
         25   -1    0    0    0    0  0.00000000000E+00  0.00000000000E+00  0.99999998245E-14  0.12500000000E+03  0.12500000000E+03 0.  0.
        -13    1    3    3    0    0  0.12631520651E+02  0.35935079596E+02 -0.17015041815E+02  0.41718198326E+02  0.10566000000E+00 0.  1.
         23    2    1    0    0    0  0.82082404130E+01  0.80509819694E+01  0.27930544462E+02  0.94795549413E+02  0.89854812632E+02 0.  0.
         13    1    3    3    0    0 -0.44232802381E+01 -0.27884097627E+02  0.44945586277E+02  0.53077351087E+02  0.10566000000E+00 0. -1.
         22    1    1    0    0    0 -0.82082404130E+01 -0.80509819694E+01 -0.27930544462E+02  0.30204450587E+02  0.00000000000E+00 0. -1.
</event>
<event>
 5    1  0.1709463E-003  0.9118800E+02  0.7818608E-02  0.1130116E+00
         25   -1    0    0    0    0  0.00000000000E+00  0.00000000000E+00  0.99999998245E-14  0.12500000000E+03  0.12500000000E+03 0.  0.
        -13    1    3    3    0    0  0.24873986641E+02 -0.31346449618E+02 -0.15767715193E+02  0.43011011631E+02  0.10566000000E+00 0.  1.
         23    2    1    0    0    0  0.22672450034E+02  0.10187138078E+02  0.16080295027E+02  0.95396053288E+02  0.90686345841E+02 0.  0.
         13    1    3    3    0    0 -0.22015366070E+01  0.41533587696E+02  0.31848010220E+02  0.52385041657E+02  0.10566000000E+00 0. -1.
         22    1    1    0    0    0 -0.22672450034E+02 -0.10187138078E+02 -0.16080295027E+02  0.29603946712E+02  0.00000000000E+00 0. -1.
</event>
<event>
 5    1  0.1709463E-003  0.9118800E+02  0.7818608E-02  0.1130116E+00
         25   -1    0    0    0    0  0.00000000000E+00  0.00000000000E+00  0.99999998245E-14  0.12500000000E+03  0.12500000000E+03 0.  0.
        -13    1    3    3    0    0 -0.64532414258E+01  0.14557051224E+02  0.37065435809E+02  0.40341167075E+02  0.10566000000E+00 0.  1.
         23    2    1    0    0    0  0.68657940408E+01 -0.27494656776E+02  0.21839366088E+01  0.96577036429E+02  0.92299832650E+02 0.  0.
         13    1    3    3    0    0  0.13319035467E+02 -0.42051708001E+02 -0.34881499200E+02  0.56235869354E+02  0.10566000000E+00 0. -1.
         22    1    1    0    0    0 -0.68657940408E+01  0.27494656776E+02 -0.21839366088E+01  0.28422963571E+02  0.00000000000E+00 0. -1.
</event>
<event>
 5    1  0.1709463E-003  0.9118800E+02  0.7818608E-02  0.1130116E+00
         25   -1    0    0    0    0  0.00000000000E+00  0.00000000000E+00  0.99999998245E-14  0.12500000000E+03  0.12500000000E+03 0.  0.
        -13    1    3    3    0    0 -0.50896070735E+00  0.26539956135E+02  0.22054130783E+02  0.34511217905E+02  0.10566000000E+00 0. -1.
         23    2    1    0    0    0 -0.20218032712E+02 -0.13758879583E+02 -0.17986766823E+02  0.94642144429E+02  0.89641151862E+02 0.  0.
         13    1    3    3    0    0 -0.19709072005E+02 -0.40298835718E+02 -0.40040897606E+02  0.60130926524E+02  0.10566000000E+00 0.  1.
         22    1    1    0    0    0  0.20218032712E+02  0.13758879583E+02  0.17986766823E+02  0.30357855571E+02  0.00000000000E+00 0.  1.
</event>
<event>
 5    1  0.1709463E-003  0.9118800E+02  0.7818608E-02  0.1130116E+00
         25   -1    0    0    0    0  0.00000000000E+00  0.00000000000E+00  0.99999998245E-14  0.12500000000E+03  0.12500000000E+03 0.  0.
        -13    1    3    3    0    0  0.93284085499E+00  0.28813189159E+02 -0.28735953514E+02  0.40704253463E+02  0.10566000000E+00 0. -1.
         23    2    1    0    0    0  0.24356388793E+02  0.24272306327E+01  0.14531790271E+02  0.96534265299E+02  0.92241890293E+02 0.  0.
         13    1    3    3    0    0  0.23423547938E+02 -0.26385958527E+02  0.43267743785E+02  0.55830011836E+02  0.10566000000E+00 0.  1.
         22    1    1    0    0    0 -0.24356388793E+02 -0.24272306327E+01 -0.14531790271E+02  0.28465734701E+02  0.00000000000E+00 0. -1.
</event>
<event>
 5    1  0.1709463E-003  0.9118800E+02  0.7818608E-02  0.1130116E+00
         25   -1    0    0    0    0  0.00000000000E+00  0.00000000000E+00  0.99999998245E-14  0.12500000000E+03  0.12500000000E+03 0.  0.
        -13    1    3    3    0    0  0.27841586718E+02 -0.66051342541E+01  0.28363281059E+02  0.40289807966E+02  0.10566000000E+00 0.  1.
         23    2    1    0    0    0  0.14032902506E+00 -0.23677263368E+02 -0.16809568308E+02  0.95962195684E+02  0.91463374752E+02 0.  0.
         13    1    3    3    0    0 -0.27701257693E+02 -0.17072129114E+02 -0.45172849366E+02  0.55672387718E+02  0.10566000000E+00 0. -1.
         22    1    1    0    0    0 -0.14032902506E+00  0.23677263368E+02  0.16809568308E+02  0.29037804316E+02  0.00000000000E+00 0. -1.
</event>
<event>
 5    1  0.1709463E-003  0.9118800E+02  0.7818608E-02  0.1130116E+00
         25   -1    0    0    0    0  0.00000000000E+00  0.00000000000E+00  0.99999998245E-14  0.12500000000E+03  0.12500000000E+03 0.  0.
        -13    1    3    3    0    0 -0.13872652655E+02 -0.35773764531E+02  0.10407692771E+02  0.39756055555E+02  0.10566000000E+00 0.  1.
         23    2    1    0    0    0 -0.24879000868E+02  0.15358643581E+02 -0.71005068071E+01  0.94912297965E+02  0.90017078886E+02 0.  0.
         13    1    3    3    0    0 -0.11006348213E+02  0.51132408112E+02 -0.17508199578E+02  0.55156242410E+02  0.10566000000E+00 0. -1.
         22    1    1    0    0    0  0.24879000868E+02 -0.15358643581E+02  0.71005068071E+01  0.30087702035E+02  0.00000000000E+00 0. -1.
</event>
<event>
 5    1  0.1709463E-003  0.9118800E+02  0.7818608E-02  0.1130116E+00
         25   -1    0    0    0    0  0.00000000000E+00  0.00000000000E+00  0.99999998245E-14  0.12500000000E+03  0.12500000000E+03 0.  0.
        -13    1    3    3    0    0  0.72684464611E+01 -0.28327034979E+02  0.26662480950E+02  0.39574616601E+02  0.10566000000E+00 0. -1.
         23    2    1    0    0    0  0.14948820435E+02  0.23995485903E+02  0.96709188934E+01  0.95120621687E+02  0.90305899153E+02 0.  0.
         13    1    3    3    0    0  0.76803739742E+01  0.52322520882E+02 -0.16991562056E+02  0.55546005086E+02  0.10566000000E+00 0.  1.
         22    1    1    0    0    0 -0.14948820435E+02 -0.23995485903E+02 -0.96709188934E+01  0.29879378313E+02  0.00000000000E+00 0.  1.
</event>
<event>
 5    1  0.1709463E-003  0.9118800E+02  0.7818608E-02  0.1130116E+00
         25   -1    0    0    0    0  0.00000000000E+00  0.00000000000E+00  0.99999998245E-14  0.12500000000E+03  0.12500000000E+03 0.  0.
        -13    1    3    3    0    0  0.19658132322E+02  0.22248454100E+02  0.28601640845E+02  0.41225003327E+02  0.10566000000E+00 0.  1.
         23    2    1    0    0    0 -0.69058314017E+01 -0.22691649943E+02  0.19666206458E+02  0.94188295066E+02  0.89006032192E+02 0.  0.
         13    1    3    3    0    0 -0.26563963724E+02 -0.44940104043E+02 -0.89354343874E+01  0.52963291739E+02  0.10566000000E+00 0. -1.
         22    1    1    0    0    0  0.69058314017E+01  0.22691649943E+02 -0.19666206458E+02  0.30811704934E+02  0.00000000000E+00 0. -1.
</event>
<event>
 5    1  0.1709463E-003  0.9118800E+02  0.7818608E-02  0.1130116E+00
         25   -1    0    0    0    0  0.00000000000E+00  0.00000000000E+00  0.99999998245E-14  0.12500000000E+03  0.12500000000E+03 0.  0.
        -13    1    3    3    0    0 -0.54587302358E+02  0.28340592339E+02 -0.47274721367E+01  0.61687299420E+02  0.10566000000E+00 0.  1.
         23    2    1    0    0    0 -0.28746836511E+02  0.70238816533E+01 -0.34111502801E+01  0.95211554772E+02  0.90431679697E+02 0.  0.
         13    1    3    3    0    0  0.25840465847E+02 -0.21316710685E+02  0.13163218565E+01  0.33524255352E+02  0.10566000000E+00 0. -1.
         22    1    1    0    0    0  0.28746836511E+02 -0.70238816533E+01  0.34111502801E+01  0.29788445228E+02  0.00000000000E+00 0.  1.
</event>
<event>
 5    1  0.1709463E-003  0.9118800E+02  0.7818608E-02  0.1130116E+00
         25   -1    0    0    0    0  0.00000000000E+00  0.00000000000E+00  0.99999998245E-14  0.12500000000E+03  0.12500000000E+03 0.  0.
        -13    1    3    3    0    0 -0.17011019189E+02 -0.29186822690E+02  0.24663537909E+02  0.41827582513E+02  0.10566000000E+00 0. -1.
         23    2    1    0    0    0  0.33787256643E+01  0.19104208017E+02  0.23853438964E+02  0.94253079805E+02  0.89096969372E+02 0.  0.
         13    1    3    3    0    0  0.20389744854E+02  0.48291030707E+02 -0.81009894486E+00  0.52425497292E+02  0.10566000000E+00 0.  1.
         22    1    1    0    0    0 -0.33787256643E+01 -0.19104208017E+02 -0.23853438964E+02  0.30746920195E+02  0.00000000000E+00 0. -1.
</event>
<event>
 5    1  0.1709463E-003  0.9118800E+02  0.7818608E-02  0.1130116E+00
         25   -1    0    0    0    0  0.00000000000E+00  0.00000000000E+00  0.99999998245E-14  0.12500000000E+03  0.12500000000E+03 0.  0.
        -13    1    3    3    0    0  0.29346797255E+02  0.15701044056E+02 -0.23274065680E+02  0.40613428702E+02  0.10566000000E+00 0.  1.
         23    2    1    0    0    0 -0.87382753040E+01  0.19587890427E+02  0.18065861891E+02  0.96956849811E+02  0.92812781731E+02 0.  0.
         13    1    3    3    0    0 -0.38085072559E+02  0.38868463710E+01  0.41339927572E+02  0.56343421109E+02  0.10566000000E+00 0. -1.
         22    1    1    0    0    0  0.87382753040E+01 -0.19587890427E+02 -0.18065861891E+02  0.28043150189E+02  0.00000000000E+00 0. -1.
</event>
<event>
 5    1  0.1709463E-003  0.9118800E+02  0.7818608E-02  0.1130116E+00
         25   -1    0    0    0    0  0.00000000000E+00  0.00000000000E+00  0.99999998245E-14  0.12500000000E+03  0.12500000000E+03 0.  0.
        -13    1    3    3    0    0  0.43538639908E+02 -0.19595804014E+00  0.26942076094E+02  0.51200958906E+02  0.10566000000E+00 0. -1.
         23    2    1    0    0    0  0.15419503301E+02 -0.25185683305E+02  0.41682894151E+01  0.95176278531E+02  0.90382905644E+02 0.  0.
         13    1    3    3    0    0 -0.28119136607E+02 -0.24989725265E+02 -0.22773786679E+02  0.43975319625E+02  0.10566000000E+00 0.  1.
         22    1    1    0    0    0 -0.15419503301E+02  0.25185683305E+02 -0.41682894151E+01  0.29823721469E+02  0.00000000000E+00 0. -1.
</event>
<event>
 5    1  0.1709463E-003  0.9118800E+02  0.7818608E-02  0.1130116E+00
         25   -1    0    0    0    0  0.00000000000E+00  0.00000000000E+00  0.99999998245E-14  0.12500000000E+03  0.12500000000E+03 0.  0.
        -13    1    3    3    0    0  0.24694454183E+02 -0.16614587116E+01  0.25947653287E+02  0.35859007063E+02  0.10566000000E+00 0.  1.
         23    2    1    0    0    0 -0.26918937078E+02  0.14102434316E+02  0.31359134231E+01  0.94449357126E+02  0.89371915507E+02 0.  0.
         13    1    3    3    0    0 -0.51613391261E+02  0.15763893027E+02 -0.22811739864E+02  0.58590350062E+02  0.10566000000E+00 0. -1.
         22    1    1    0    0    0  0.26918937078E+02 -0.14102434316E+02 -0.31359134231E+01  0.30550642874E+02  0.00000000000E+00 0. -1.
</event>
<event>
 5    1  0.1709463E-003  0.9118800E+02  0.7818608E-02  0.1130116E+00
         25   -1    0    0    0    0  0.00000000000E+00  0.00000000000E+00  0.99999998245E-14  0.12500000000E+03  0.12500000000E+03 0.  0.
        -13    1    3    3    0    0 -0.22436311861E+02 -0.18638220537E+02 -0.19262756504E+02  0.34954775166E+02  0.10566000000E+00 0.  1.
         23    2    1    0    0    0  0.20643846742E+01  0.12891358282E+02  0.26360314281E+02  0.95583763473E+02  0.90944713251E+02 0.  0.
         13    1    3    3    0    0  0.24500696535E+02  0.31529578819E+02  0.45623070785E+02  0.60628988307E+02  0.10566000000E+00 0. -1.
         22    1    1    0    0    0 -0.20643846742E+01 -0.12891358282E+02 -0.26360314281E+02  0.29416236527E+02  0.00000000000E+00 0. -1.
</event>
<event>
 5    1  0.1709463E-003  0.9118800E+02  0.7818608E-02  0.1130116E+00
         25   -1    0    0    0    0  0.00000000000E+00  0.00000000000E+00  0.99999998245E-14  0.12500000000E+03  0.12500000000E+03 0.  0.
        -13    1    3    3    0    0  0.37425057792E+02 -0.10806068366E+02  0.27799018110E+02  0.47856061645E+02  0.10566000000E+00 0. -1.
         23    2    1    0    0    0  0.26652675271E+02 -0.10554385577E+02 -0.15455497534E+02  0.92432645823E+02  0.86505268371E+02 0.  0.
         13    1    3    3    0    0 -0.10772382520E+02  0.25168278909E+00 -0.43254515644E+02  0.44576584179E+02  0.10566000000E+00 0.  1.
         22    1    1    0    0    0 -0.26652675271E+02  0.10554385577E+02  0.15455497534E+02  0.32567354177E+02  0.00000000000E+00 0. -1.
</event>
<event>
 5    1  0.1709463E-003  0.9118800E+02  0.7818608E-02  0.1130116E+00
         25   -1    0    0    0    0  0.00000000000E+00  0.00000000000E+00  0.99999998245E-14  0.12500000000E+03  0.12500000000E+03 0.  0.
        -13    1    3    3    0    0  0.35905113879E+02 -0.24925594832E+02  0.16935954308E+02  0.46875368721E+02  0.10566000000E+00 0.  1.
         23    2    1    0    0    0  0.61286813873E+01  0.11911902432E+02  0.26598980199E+02  0.95218127951E+02  0.90440765078E+02 0.  0.
         13    1    3    3    0    0 -0.29776432491E+02  0.36837497264E+02  0.96630258914E+01  0.48342759230E+02  0.10566000000E+00 0. -1.
         22    1    1    0    0    0 -0.61286813873E+01 -0.11911902432E+02 -0.26598980199E+02  0.29781872049E+02  0.00000000000E+00 0. -1.
</event>
<event>
 5    1  0.1709463E-003  0.9118800E+02  0.7818608E-02  0.1130116E+00
         25   -1    0    0    0    0  0.00000000000E+00  0.00000000000E+00  0.99999998245E-14  0.12500000000E+03  0.12500000000E+03 0.  0.
        -13    1    3    3    0    0  0.38424009172E+02  0.71687881904E+01  0.12228940937E+00  0.39087365270E+02  0.10566000000E+00 0.  1.
         23    2    1    0    0    0  0.79955173978E+01 -0.31259505920E+02 -0.13594587418E+02  0.89987176408E+02  0.82896285212E+02 0.  0.
         13    1    3    3    0    0 -0.30428491775E+02 -0.38428294111E+02 -0.13716876827E+02  0.50899811138E+02  0.10566000000E+00 0. -1.
         22    1    1    0    0    0 -0.79955173978E+01  0.31259505920E+02  0.13594587418E+02  0.35012823592E+02  0.00000000000E+00 0. -1.
</event>
<event>
 5    1  0.1709463E-003  0.9118800E+02  0.7818608E-02  0.1130116E+00
         25   -1    0    0    0    0  0.00000000000E+00  0.00000000000E+00  0.99999998245E-14  0.12500000000E+03  0.12500000000E+03 0.  0.
        -13    1    3    3    0    0 -0.93184456558E+01  0.30574299835E+02  0.15617186092E+02  0.35574273082E+02  0.10566000000E+00 0.  1.
         23    2    1    0    0    0  0.92122663642E+01 -0.60515181671E+01 -0.27662137754E+02  0.95222817649E+02  0.90447246570E+02 0.  0.
         13    1    3    3    0    0  0.18530712020E+02 -0.36625818002E+02 -0.43279323846E+02  0.59648544566E+02  0.10566000000E+00 0. -1.
         22    1    1    0    0    0 -0.92122663642E+01  0.60515181671E+01  0.27662137754E+02  0.29777182351E+02  0.00000000000E+00 0. -1.
</event>
<event>
 5    1  0.1709463E-003  0.9118800E+02  0.7818608E-02  0.1130116E+00
         25   -1    0    0    0    0  0.00000000000E+00  0.00000000000E+00  0.99999998245E-14  0.12500000000E+03  0.12500000000E+03 0.  0.
        -13    1    3    3    0    0  0.16526275876E+01  0.55693205464E+02  0.24219283846E+01  0.55770433152E+02  0.10566000000E+00 0.  1.
         23    2    1    0    0    0 -0.71497528725E+01  0.20549638512E+02  0.19462857251E+02  0.95807373851E+02  0.91251539509E+02 0.  0.
         13    1    3    3    0    0 -0.88023804602E+01 -0.35143566952E+02  0.17040928867E+02  0.40036940699E+02  0.10566000000E+00 0. -1.
         22    1    1    0    0    0  0.71497528725E+01 -0.20549638512E+02 -0.19462857251E+02  0.29192626149E+02  0.00000000000E+00 0.  1.
</event>
<event>
 5    1  0.1709463E-003  0.9118800E+02  0.7818608E-02  0.1130116E+00
         25   -1    0    0    0    0  0.00000000000E+00  0.00000000000E+00  0.99999998245E-14  0.12500000000E+03  0.12500000000E+03 0.  0.
        -13    1    3    3    0    0 -0.24440776317E+02  0.19083030838E+02 -0.30623593407E+02  0.43581294727E+02  0.10566000000E+00 0.  1.
         23    2    1    0    0    0  0.17376646966E+02 -0.11280917601E+02 -0.19720359709E+02  0.96397560441E+02  0.92056450672E+02 0.  0.
         13    1    3    3    0    0  0.41817423282E+02 -0.30363948439E+02  0.10903233698E+02  0.52816265714E+02  0.10566000000E+00 0. -1.
         22    1    1    0    0    0 -0.17376646966E+02  0.11280917601E+02  0.19720359709E+02  0.28602439559E+02  0.00000000000E+00 0.  1.
</event>
<event>
 5    1  0.1709463E-003  0.9118800E+02  0.7818608E-02  0.1130116E+00
         25   -1    0    0    0    0  0.00000000000E+00  0.00000000000E+00  0.99999998245E-14  0.12500000000E+03  0.12500000000E+03 0.  0.
        -13    1    3    3    0    0 -0.14845138078E+02  0.44869752212E+01 -0.23183639832E+02  0.27892712150E+02  0.10566000000E+00 0. -1.
         23    2    1    0    0    0  0.99968151943E+01  0.15130916137E+01  0.33582786798E+02  0.89928226030E+02  0.82807345734E+02 0.  0.
         13    1    3    3    0    0  0.24841953272E+02 -0.29738836076E+01  0.56766426630E+02  0.62035513881E+02  0.10566000000E+00 0.  1.
         22    1    1    0    0    0 -0.99968151943E+01 -0.15130916137E+01 -0.33582786798E+02  0.35071773970E+02  0.00000000000E+00 0.  1.
</event>
<event>
 5    1  0.1709463E-003  0.9118800E+02  0.7818608E-02  0.1130116E+00
         25   -1    0    0    0    0  0.00000000000E+00  0.00000000000E+00  0.99999998245E-14  0.12500000000E+03  0.12500000000E+03 0.  0.
        -13    1    3    3    0    0 -0.25224455968E+02  0.87751184029E+01 -0.18635889737E+02  0.32566599948E+02  0.10566000000E+00 0. -1.
         23    2    1    0    0    0  0.12799871132E+02  0.25463603844E+01  0.28622786460E+02  0.93542337072E+02  0.88094178400E+02 0.  0.
         13    1    3    3    0    0  0.38024327100E+02 -0.62287580185E+01  0.47258676196E+02  0.60975737123E+02  0.10566000000E+00 0.  1.
         22    1    1    0    0    0 -0.12799871132E+02 -0.25463603844E+01 -0.28622786460E+02  0.31457662928E+02  0.00000000000E+00 0.  1.
</event>
<event>
 5    1  0.1709463E-003  0.9118800E+02  0.7818608E-02  0.1130116E+00
         25   -1    0    0    0    0  0.00000000000E+00  0.00000000000E+00  0.99999998245E-14  0.12500000000E+03  0.12500000000E+03 0.  0.
        -13    1    3    3    0    0  0.17147822954E+02 -0.37122935510E+01  0.34525601737E+02  0.38727991102E+02  0.10566000000E+00 0.  1.
         23    2    1    0    0    0 -0.30746680185E+02  0.13444478489E+01  0.11104015487E+02  0.92282037925E+02  0.86287365710E+02 0.  0.
         13    1    3    3    0    0 -0.47894503139E+02  0.50567413999E+01 -0.23421586251E+02  0.53554046822E+02  0.10566000000E+00 0. -1.
         22    1    1    0    0    0  0.30746680185E+02 -0.13444478489E+01 -0.11104015487E+02  0.32717962075E+02  0.00000000000E+00 0. -1.
</event>
<event>
 5    1  0.1709463E-003  0.9118800E+02  0.7818608E-02  0.1130116E+00
         25   -1    0    0    0    0  0.00000000000E+00  0.00000000000E+00  0.99999998245E-14  0.12500000000E+03  0.12500000000E+03 0.  0.
        -13    1    3    3    0    0  0.20156597147E+02  0.37771789626E+02 -0.17994815829E+02  0.46441587622E+02  0.10566000000E+00 0.  1.
         23    2    1    0    0    0 -0.25752731023E+01  0.85526614186E+00 -0.32674098092E+02  0.92213414361E+02  0.86187897006E+02 0.  0.
         13    1    3    3    0    0 -0.22731870250E+02 -0.36916523484E+02 -0.14679282263E+02  0.45771826739E+02  0.10566000000E+00 0. -1.
         22    1    1    0    0    0  0.25752731023E+01 -0.85526614186E+00  0.32674098092E+02  0.32786585639E+02  0.00000000000E+00 0.  1.
</event>
<event>
 5    1  0.1709463E-003  0.9118800E+02  0.7818608E-02  0.1130116E+00
         25   -1    0    0    0    0  0.00000000000E+00  0.00000000000E+00  0.99999998245E-14  0.12500000000E+03  0.12500000000E+03 0.  0.
        -13    1    3    3    0    0  0.32294062157E+02  0.17596840279E+02  0.82598704987E+01  0.37693392830E+02  0.10566000000E+00 0.  1.
         23    2    1    0    0    0 -0.25523085657E+02  0.99703777195E+01  0.94247021684E+01  0.96023089463E+02  0.91546558459E+02 0.  0.
         13    1    3    3    0    0 -0.57817147813E+02 -0.76264625593E+01  0.11648316697E+01  0.58329696633E+02  0.10566000000E+00 0. -1.
         22    1    1    0    0    0  0.25523085657E+02 -0.99703777195E+01 -0.94247021684E+01  0.28976910537E+02  0.00000000000E+00 0. -1.
</event>
<event>
 5    1  0.1709463E-003  0.9118800E+02  0.7818608E-02  0.1130116E+00
         25   -1    0    0    0    0  0.00000000000E+00  0.00000000000E+00  0.99999998245E-14  0.12500000000E+03  0.12500000000E+03 0.  0.
        -13    1    3    3    0    0 -0.58120880594E+01 -0.39195787171E+02 -0.54425569272E+01  0.39996533468E+02  0.10566000000E+00 0. -1.
         23    2    1    0    0    0 -0.23802625110E+02  0.79421656902E+01  0.16449904960E+02  0.94995961419E+02  0.90133181208E+02 0.  0.
         13    1    3    3    0    0 -0.17990537051E+02  0.47137952861E+02  0.21892461887E+02  0.54999427950E+02  0.10566000000E+00 0.  1.
         22    1    1    0    0    0  0.23802625110E+02 -0.79421656902E+01 -0.16449904960E+02  0.30004038581E+02  0.00000000000E+00 0. -1.
</event>
<event>
 5    1  0.1709463E-003  0.9118800E+02  0.7818608E-02  0.1130116E+00
         25   -1    0    0    0    0  0.00000000000E+00  0.00000000000E+00  0.99999998245E-14  0.12500000000E+03  0.12500000000E+03 0.  0.
        -13    1    3    3    0    0  0.28401885262E+02 -0.33720288931E+02  0.31251979592E+02  0.54040932306E+02  0.10566000000E+00 0.  1.
         23    2    1    0    0    0  0.16758627325E+02  0.45503385204E+01  0.25046932298E+02  0.94522040947E+02  0.89473516958E+02 0.  0.
         13    1    3    3    0    0 -0.11643257937E+02  0.38270627451E+02 -0.62050472937E+01  0.40481108641E+02  0.10566000000E+00 0. -1.
         22    1    1    0    0    0 -0.16758627325E+02 -0.45503385204E+01 -0.25046932298E+02  0.30477959053E+02  0.00000000000E+00 0.  1.
</event>
<event>
 5    1  0.1709463E-003  0.9118800E+02  0.7818608E-02  0.1130116E+00
         25   -1    0    0    0    0  0.00000000000E+00  0.00000000000E+00  0.99999998245E-14  0.12500000000E+03  0.12500000000E+03 0.  0.
        -13    1    3    3    0    0  0.31490095062E+02 -0.12446835231E+02  0.96761208546E+01  0.35216306920E+02  0.10566000000E+00 0.  1.
         23    2    1    0    0    0 -0.27969631393E+02 -0.27837087645E+01 -0.28608620968E+01  0.96746967479E+02  0.92529681020E+02 0.  0.
         13    1    3    3    0    0 -0.59459726455E+02  0.96631264668E+01 -0.12536982951E+02  0.61530660558E+02  0.10566000000E+00 0. -1.
         22    1    1    0    0    0  0.27969631393E+02  0.27837087645E+01  0.28608620968E+01  0.28253032521E+02  0.00000000000E+00 0. -1.
</event>
<event>
 5    1  0.1709463E-003  0.9118800E+02  0.7818608E-02  0.1130116E+00
         25   -1    0    0    0    0  0.00000000000E+00  0.00000000000E+00  0.99999998245E-14  0.12500000000E+03  0.12500000000E+03 0.  0.
        -13    1    3    3    0    0 -0.28588619810E+02 -0.42605242371E+01 -0.10571859694E+02  0.30777209602E+02  0.10566000000E+00 0. -1.
         23    2    1    0    0    0  0.22135314255E+01 -0.42728294111E+02  0.36232611904E+01  0.82061266196E+02  0.69930798287E+02 0.  0.
         13    1    3    3    0    0  0.30802151236E+02 -0.38467769874E+02  0.14195120885E+02  0.51284056595E+02  0.10566000000E+00 0.  1.
         22    1    1    0    0    0 -0.22135314255E+01  0.42728294111E+02 -0.36232611904E+01  0.42938733804E+02  0.00000000000E+00 0. -1.
</event>
<event>
 5    1  0.1709463E-003  0.9118800E+02  0.7818608E-02  0.1130116E+00
         25   -1    0    0    0    0  0.00000000000E+00  0.00000000000E+00  0.99999998245E-14  0.12500000000E+03  0.12500000000E+03 0.  0.
        -13    1    3    3    0    0 -0.10897855644E+02 -0.27160565994E+02  0.22761434613E+02  0.37074973667E+02  0.10566000000E+00 0.  1.
         23    2    1    0    0    0  0.11820649041E+02  0.25194095317E+02  0.85041998409E+01  0.95900316195E+02  0.91378766948E+02 0.  0.
         13    1    3    3    0    0  0.22718504685E+02  0.52354661311E+02 -0.14257234772E+02  0.58825342528E+02  0.10566000000E+00 0. -1.
         22    1    1    0    0    0 -0.11820649041E+02 -0.25194095317E+02 -0.85041998409E+01  0.29099683805E+02  0.00000000000E+00 0. -1.
</event>
<event>
 5    1  0.1709463E-003  0.9118800E+02  0.7818608E-02  0.1130116E+00
         25   -1    0    0    0    0  0.00000000000E+00  0.00000000000E+00  0.99999998245E-14  0.12500000000E+03  0.12500000000E+03 0.  0.
        -13    1    3    3    0    0  0.38771555383E+02 -0.80727135153E+01  0.14709136313E+02  0.42246562765E+02  0.10566000000E+00 0.  1.
         23    2    1    0    0    0 -0.95597438906E+01  0.10619364641E+02  0.26045957630E+02  0.95292231361E+02  0.90543126964E+02 0.  0.
         13    1    3    3    0    0 -0.48331299274E+02  0.18692078156E+02  0.11336821316E+02  0.53045668597E+02  0.10566000000E+00 0. -1.
         22    1    1    0    0    0  0.95597438906E+01 -0.10619364641E+02 -0.26045957630E+02  0.29707768639E+02  0.00000000000E+00 0. -1.
</event>
<event>
 5    1  0.1709463E-003  0.9118800E+02  0.7818608E-02  0.1130116E+00
         25   -1    0    0    0    0  0.00000000000E+00  0.00000000000E+00  0.99999998245E-14  0.12500000000E+03  0.12500000000E+03 0.  0.
        -13    1    3    3    0    0  0.41151835446E+02  0.30861115827E+02  0.82907834166E+01  0.52102114010E+02  0.10566000000E+00 0.  1.
         23    2    1    0    0    0  0.25882513126E+02 -0.61200802458E+01 -0.10627546852E+02  0.96359039471E+02  0.92004129624E+02 0.  0.
         13    1    3    3    0    0 -0.15269322320E+02 -0.36981196073E+02 -0.18918330268E+02  0.44256925461E+02  0.10566000000E+00 0. -1.
         22    1    1    0    0    0 -0.25882513126E+02  0.61200802458E+01  0.10627546852E+02  0.28640960529E+02  0.00000000000E+00 0.  1.
</event>
<event>
 5    1  0.1709463E-003  0.9118800E+02  0.7818608E-02  0.1130116E+00
         25   -1    0    0    0    0  0.00000000000E+00  0.00000000000E+00  0.99999998245E-14  0.12500000000E+03  0.12500000000E+03 0.  0.
        -13    1    3    3    0    0 -0.42915739704E+02 -0.21821825350E+02 -0.28546421969E+02  0.55971976446E+02  0.10566000000E+00 0. -1.
         23    2    1    0    0    0 -0.29719149505E+02  0.37991421378E+01 -0.23025172150E+01  0.94950658679E+02  0.90070331796E+02 0.  0.
         13    1    3    3    0    0  0.13196590199E+02  0.25620967488E+02  0.26243904754E+02  0.38978682234E+02  0.10566000000E+00 0.  1.
         22    1    1    0    0    0  0.29719149505E+02 -0.37991421378E+01  0.23025172150E+01  0.30049341321E+02  0.00000000000E+00 0. -1.
</event>
<event>
 5    1  0.1709463E-003  0.9118800E+02  0.7818608E-02  0.1130116E+00
         25   -1    0    0    0    0  0.00000000000E+00  0.00000000000E+00  0.99999998245E-14  0.12500000000E+03  0.12500000000E+03 0.  0.
        -13    1    3    3    0    0 -0.43257949967E+01 -0.51987251839E+02 -0.35327000628E+01  0.52286499117E+02  0.10566000000E+00 0.  1.
         23    2    1    0    0    0  0.22187210304E+02 -0.17228134215E+02 -0.67121281775E+01  0.96118629287E+02  0.91676918151E+02 0.  0.
         13    1    3    3    0    0  0.26513005301E+02  0.34759117624E+02 -0.31794281147E+01  0.43832130170E+02  0.10566000000E+00 0. -1.
         22    1    1    0    0    0 -0.22187210304E+02  0.17228134215E+02  0.67121281775E+01  0.28881370713E+02  0.00000000000E+00 0.  1.
</event>
<event>
 5    1  0.1709463E-003  0.9118800E+02  0.7818608E-02  0.1130116E+00
         25   -1    0    0    0    0  0.00000000000E+00  0.00000000000E+00  0.99999998245E-14  0.12500000000E+03  0.12500000000E+03 0.  0.
        -13    1    3    3    0    0  0.15668254013E+02  0.24221476833E+02  0.23308549826E+01  0.28941633900E+02  0.10566000000E+00 0.  1.
         23    2    1    0    0    0 -0.33566337844E+02 -0.60476874698E+01  0.14390600881E+02  0.87981586289E+02  0.79814764124E+02 0.  0.
         13    1    3    3    0    0 -0.49234591857E+02 -0.30269164303E+02  0.12059745899E+02  0.59039952389E+02  0.10566000000E+00 0. -1.
         22    1    1    0    0    0  0.33566337844E+02  0.60476874698E+01 -0.14390600881E+02  0.37018413711E+02  0.00000000000E+00 0. -1.
</event>
<event>
 5    1  0.1709463E-003  0.9118800E+02  0.7818608E-02  0.1130116E+00
         25   -1    0    0    0    0  0.00000000000E+00  0.00000000000E+00  0.99999998245E-14  0.12500000000E+03  0.12500000000E+03 0.  0.
        -13    1    3    3    0    0 -0.44291767752E+02 -0.55113192051E+01 -0.95843991122E+01  0.45650927705E+02  0.10566000000E+00 0.  1.
         23    2    1    0    0    0 -0.12642250596E+02  0.28894958814E+02  0.41515973729E+00  0.93457687108E+02  0.87973983523E+02 0.  0.
         13    1    3    3    0    0  0.31649517156E+02  0.34406278019E+02  0.99995588495E+01  0.47806759402E+02  0.10566000000E+00 0. -1.
         22    1    1    0    0    0  0.12642250596E+02 -0.28894958814E+02 -0.41515973729E+00  0.31542312892E+02  0.00000000000E+00 0. -1.
</event>
<event>
 5    1  0.1709463E-003  0.9118800E+02  0.7818608E-02  0.1130116E+00
         25   -1    0    0    0    0  0.00000000000E+00  0.00000000000E+00  0.99999998245E-14  0.12500000000E+03  0.12500000000E+03 0.  0.
        -13    1    3    3    0    0 -0.39473573196E+02  0.18802468307E+02  0.32651452843E+02  0.54569445041E+02  0.10566000000E+00 0. -1.
         23    2    1    0    0    0  0.31253062933E+00  0.16650239385E+02  0.24717225617E+02  0.95196151437E+02  0.90410385793E+02 0.  0.
         13    1    3    3    0    0  0.39786103825E+02 -0.21522289221E+01 -0.79342272259E+01  0.40626706396E+02  0.10566000000E+00 0.  1.
         22    1    1    0    0    0 -0.31253062933E+00 -0.16650239385E+02 -0.24717225617E+02  0.29803848563E+02  0.00000000000E+00 0. -1.
</event>
<event>
 5    1  0.1709463E-003  0.9118800E+02  0.7818608E-02  0.1130116E+00
         25   -1    0    0    0    0  0.00000000000E+00  0.00000000000E+00  0.99999998245E-14  0.12500000000E+03  0.12500000000E+03 0.  0.
        -13    1    3    3    0    0 -0.12431411954E+02  0.26028528539E+02 -0.16653691325E+02  0.33307370053E+02  0.10566000000E+00 0. -1.
         23    2    1    0    0    0  0.13239847317E+02 -0.27533964358E+02 -0.26432634440E+01  0.94334064633E+02  0.89210515963E+02 0.  0.
         13    1    3    3    0    0  0.25671259271E+02 -0.53562492897E+02  0.14010427881E+02  0.61026694580E+02  0.10566000000E+00 0.  1.
         22    1    1    0    0    0 -0.13239847317E+02  0.27533964358E+02  0.26432634440E+01  0.30665935367E+02  0.00000000000E+00 0.  1.
</event>
<event>
 5    1  0.1709463E-003  0.9118800E+02  0.7818608E-02  0.1130116E+00
         25   -1    0    0    0    0  0.00000000000E+00  0.00000000000E+00  0.99999998245E-14  0.12500000000E+03  0.12500000000E+03 0.  0.
        -13    1    3    3    0    0  0.25901639989E+02  0.25009250044E+02  0.70103389992E+01  0.36681242602E+02  0.10566000000E+00 0.  1.
         23    2    1    0    0    0 -0.28221052197E+02  0.75578480653E+01  0.11221004164E+02  0.93703677709E+02  0.88322813742E+02 0.  0.
         13    1    3    3    0    0 -0.54122692186E+02 -0.17451401979E+02  0.42106651646E+01  0.57022435108E+02  0.10566000000E+00 0. -1.
         22    1    1    0    0    0  0.28221052197E+02 -0.75578480653E+01 -0.11221004164E+02  0.31296322291E+02  0.00000000000E+00 0. -1.
</event>
<event>
 5    1  0.1709463E-003  0.9118800E+02  0.7818608E-02  0.1130116E+00
         25   -1    0    0    0    0  0.00000000000E+00  0.00000000000E+00  0.99999998245E-14  0.12500000000E+03  0.12500000000E+03 0.  0.
        -13    1    3    3    0    0  0.29451150079E+01  0.37568434187E+02  0.21625604418E+01  0.37745844557E+02  0.10566000000E+00 0.  1.
         23    2    1    0    0    0 -0.20975457589E+02 -0.15970774012E+02 -0.84021666673E+01  0.97329946723E+02  0.93313914722E+02 0.  0.
         13    1    3    3    0    0 -0.23920572597E+02 -0.53539208199E+02 -0.10564727109E+02  0.59584102166E+02  0.10566000000E+00 0. -1.
         22    1    1    0    0    0  0.20975457589E+02  0.15970774012E+02  0.84021666673E+01  0.27670053277E+02  0.00000000000E+00 0. -1.
</event>
<event>
 5    1  0.1709463E-003  0.9118800E+02  0.7818608E-02  0.1130116E+00
         25   -1    0    0    0    0  0.00000000000E+00  0.00000000000E+00  0.99999998245E-14  0.12500000000E+03  0.12500000000E+03 0.  0.
        -13    1    3    3    0    0  0.50539238575E+02  0.15390400671E+01 -0.14936317885E+02  0.52722746856E+02  0.10566000000E+00 0.  1.
         23    2    1    0    0    0  0.19285243280E+02 -0.22656086513E+02 -0.13641924397E+02  0.92268960211E+02  0.86268418628E+02 0.  0.
         13    1    3    3    0    0 -0.31253995295E+02 -0.24195126580E+02  0.12943934879E+01  0.39546213354E+02  0.10566000000E+00 0. -1.
         22    1    1    0    0    0 -0.19285243280E+02  0.22656086513E+02  0.13641924397E+02  0.32731039789E+02  0.00000000000E+00 0.  1.
</event>
<event>
 5    1  0.1709463E-003  0.9118800E+02  0.7818608E-02  0.1130116E+00
         25   -1    0    0    0    0  0.00000000000E+00  0.00000000000E+00  0.99999998245E-14  0.12500000000E+03  0.12500000000E+03 0.  0.
        -13    1    3    3    0    0  0.37939662866E+02  0.35996613324E+02  0.86774357466E+01  0.53013991024E+02  0.10566000000E+00 0. -1.
         23    2    1    0    0    0  0.49951850895E+01  0.24535892150E+02 -0.15587863312E+02  0.95505197741E+02  0.90836663497E+02 0.  0.
         13    1    3    3    0    0 -0.32944477776E+02 -0.11460721175E+02 -0.24265299059E+02  0.42491206717E+02  0.10566000000E+00 0.  1.
         22    1    1    0    0    0 -0.49951850895E+01 -0.24535892150E+02  0.15587863312E+02  0.29494802259E+02  0.00000000000E+00 0. -1.
</event>
<event>
 5    1  0.1709463E-003  0.9118800E+02  0.7818608E-02  0.1130116E+00
         25   -1    0    0    0    0  0.00000000000E+00  0.00000000000E+00  0.99999998245E-14  0.12500000000E+03  0.12500000000E+03 0.  0.
        -13    1    3    3    0    0 -0.26240301729E+02  0.49985696222E+02  0.70062128721E+01  0.56887796973E+02  0.10566000000E+00 0. -1.
         23    2    1    0    0    0 -0.29639796776E+02  0.16254256798E+02  0.22664878136E+01  0.91119985479E+02  0.84587211620E+02 0.  0.
         13    1    3    3    0    0 -0.33994950467E+01 -0.33731439424E+02 -0.47397250586E+01  0.34232188505E+02  0.10566000000E+00 0.  1.
         22    1    1    0    0    0  0.29639796776E+02 -0.16254256798E+02 -0.22664878136E+01  0.33880014521E+02  0.00000000000E+00 0. -1.
</event>
<event>
 5    1  0.1709463E-003  0.9118800E+02  0.7818608E-02  0.1130116E+00
         25   -1    0    0    0    0  0.00000000000E+00  0.00000000000E+00  0.99999998245E-14  0.12500000000E+03  0.12500000000E+03 0.  0.
        -13    1    3    3    0    0 -0.38320561815E+02  0.39655710482E+02 -0.27583073352E+02  0.61659370182E+02  0.10566000000E+00 0.  1.
         23    2    1    0    0    0 -0.18798445131E+02  0.23055410853E+02 -0.22293476403E+02  0.87825645949E+02  0.79570167068E+02 0.  0.
         13    1    3    3    0    0  0.19522116684E+02 -0.16600299630E+02  0.52895969482E+01  0.26166275767E+02  0.10566000000E+00 0. -1.
         22    1    1    0    0    0  0.18798445131E+02 -0.23055410853E+02  0.22293476403E+02  0.37174354051E+02  0.00000000000E+00 0.  1.
</event>
<event>
 5    1  0.1709463E-003  0.9118800E+02  0.7818608E-02  0.1130116E+00
         25   -1    0    0    0    0  0.00000000000E+00  0.00000000000E+00  0.99999998245E-14  0.12500000000E+03  0.12500000000E+03 0.  0.
        -13    1    3    3    0    0  0.46567956212E+02 -0.36455085414E+02 -0.26267107584E+01  0.59198467647E+02  0.10566000000E+00 0.  1.
         23    2    1    0    0    0  0.15152638105E+02 -0.21211547645E+02  0.11032808239E+02  0.96693551041E+02  0.92457491639E+02 0.  0.
         13    1    3    3    0    0 -0.31415318106E+02  0.15243537769E+02  0.13659518997E+02  0.37495083394E+02  0.10566000000E+00 0. -1.
         22    1    1    0    0    0 -0.15152638105E+02  0.21211547645E+02 -0.11032808239E+02  0.28306448959E+02  0.00000000000E+00 0.  1.
</event>
<event>
 5    1  0.1709463E-003  0.9118800E+02  0.7818608E-02  0.1130116E+00
         25   -1    0    0    0    0  0.00000000000E+00  0.00000000000E+00  0.99999998245E-14  0.12500000000E+03  0.12500000000E+03 0.  0.
        -13    1    3    3    0    0 -0.23155890843E+02  0.11213246046E+02  0.32764163901E+02  0.41658537754E+02  0.10566000000E+00 0.  1.
         23    2    1    0    0    0  0.25112380788E+02  0.12667955040E+02  0.90809394696E+01  0.95443744902E+02  0.90752059071E+02 0.  0.
         13    1    3    3    0    0  0.48268271631E+02  0.14547089934E+01 -0.23683224431E+02  0.53785207149E+02  0.10566000000E+00 0. -1.
         22    1    1    0    0    0 -0.25112380788E+02 -0.12667955040E+02 -0.90809394696E+01  0.29556255098E+02  0.00000000000E+00 0.  1.
</event>
<event>
 5    1  0.1709463E-003  0.9118800E+02  0.7818608E-02  0.1130116E+00
         25   -1    0    0    0    0  0.00000000000E+00  0.00000000000E+00  0.99999998245E-14  0.12500000000E+03  0.12500000000E+03 0.  0.
        -13    1    3    3    0    0  0.14168712854E+01 -0.51849024651E+02  0.19774339093E+02  0.55510039921E+02  0.10566000000E+00 0.  1.
         23    2    1    0    0    0  0.11961915849E+02 -0.22577538127E+02 -0.90212244878E+01  0.97903595258E+02  0.94079215636E+02 0.  0.
         13    1    3    3    0    0  0.10545044563E+02  0.29271486524E+02 -0.28795563581E+02  0.42393555337E+02  0.10566000000E+00 0. -1.
         22    1    1    0    0    0 -0.11961915849E+02  0.22577538127E+02  0.90212244878E+01  0.27096404742E+02  0.00000000000E+00 0.  1.
</event>
<event>
 5    1  0.1709463E-003  0.9118800E+02  0.7818608E-02  0.1130116E+00
         25   -1    0    0    0    0  0.00000000000E+00  0.00000000000E+00  0.99999998245E-14  0.12500000000E+03  0.12500000000E+03 0.  0.
        -13    1    3    3    0    0 -0.52098556462E+01  0.35657542018E+02  0.10317763536E+02  0.37484267461E+02  0.10566000000E+00 0. -1.
         23    2    1    0    0    0  0.22955531908E+02 -0.13641509681E+02 -0.79676744817E+01  0.97133692957E+02  0.93050648785E+02 0.  0.
         13    1    3    3    0    0  0.28165387554E+02 -0.49299051700E+02 -0.18285438017E+02  0.59649425497E+02  0.10566000000E+00 0.  1.
         22    1    1    0    0    0 -0.22955531908E+02  0.13641509681E+02  0.79676744817E+01  0.27866307043E+02  0.00000000000E+00 0.  1.
</event>
<event>
 5    1  0.1709463E-003  0.9118800E+02  0.7818608E-02  0.1130116E+00
         25   -1    0    0    0    0  0.00000000000E+00  0.00000000000E+00  0.99999998245E-14  0.12500000000E+03  0.12500000000E+03 0.  0.
        -13    1    3    3    0    0  0.44620776521E+02  0.72891192889E+01  0.13611419163E+02  0.47216806891E+02  0.10566000000E+00 0. -1.
         23    2    1    0    0    0  0.23969853837E+02  0.15374696854E+01 -0.24339975732E+02  0.90804208963E+02  0.84119273896E+02 0.  0.
         13    1    3    3    0    0 -0.20650922684E+02 -0.57516496035E+01 -0.37951394895E+02  0.43587402072E+02  0.10566000000E+00 0.  1.
         22    1    1    0    0    0 -0.23969853837E+02 -0.15374696854E+01  0.24339975732E+02  0.34195791037E+02  0.00000000000E+00 0. -1.
</event>
<event>
 5    1  0.1709463E-003  0.9118800E+02  0.7818608E-02  0.1130116E+00
         25   -1    0    0    0    0  0.00000000000E+00  0.00000000000E+00  0.99999998245E-14  0.12500000000E+03  0.12500000000E+03 0.  0.
        -13    1    3    3    0    0 -0.13349436949E+02 -0.29591490689E+01 -0.53535720874E+02  0.55254398952E+02  0.10566000000E+00 0. -1.
         23    2    1    0    0    0 -0.10039468439E+02  0.19122580416E+02 -0.19866130593E+02  0.95655031896E+02  0.91042616251E+02 0.  0.
         13    1    3    3    0    0  0.33099685092E+01  0.22081729485E+02  0.33669590280E+02  0.40400632944E+02  0.10566000000E+00 0.  1.
         22    1    1    0    0    0  0.10039468439E+02 -0.19122580416E+02  0.19866130593E+02  0.29344968104E+02  0.00000000000E+00 0. -1.
</event>
<event>
 5    1  0.1709463E-003  0.9118800E+02  0.7818608E-02  0.1130116E+00
         25   -1    0    0    0    0  0.00000000000E+00  0.00000000000E+00  0.99999998245E-14  0.12500000000E+03  0.12500000000E+03 0.  0.
        -13    1    3    3    0    0 -0.45048029006E+02  0.71181662510E+01  0.53628476007E+01  0.45921285985E+02  0.10566000000E+00 0.  1.
         23    2    1    0    0    0 -0.45709919397E+01  0.26438692256E+02  0.18205644646E+02  0.92575566119E+02  0.86711542079E+02 0.  0.
         13    1    3    3    0    0  0.40477037067E+02  0.19320526005E+02  0.12842797045E+02  0.46654280134E+02  0.10566000000E+00 0. -1.
         22    1    1    0    0    0  0.45709919397E+01 -0.26438692256E+02 -0.18205644646E+02  0.32424433881E+02  0.00000000000E+00 0. -1.
</event>
<event>
 5    1  0.1709463E-003  0.9118800E+02  0.7818608E-02  0.1130116E+00
         25   -1    0    0    0    0  0.00000000000E+00  0.00000000000E+00  0.99999998245E-14  0.12500000000E+03  0.12500000000E+03 0.  0.
        -13    1    3    3    0    0  0.88307917588E+01 -0.40110374641E+02 -0.41565235890E+02  0.58433766227E+02  0.10566000000E+00 0.  1.
         23    2    1    0    0    0  0.94674096950E+01 -0.26537513363E+02 -0.64372332633E+01  0.96098279741E+02  0.91649167674E+02 0.  0.
         13    1    3    3    0    0  0.63661793612E+00  0.13572861278E+02  0.35128002627E+02  0.37664513514E+02  0.10566000000E+00 0. -1.
         22    1    1    0    0    0 -0.94674096950E+01  0.26537513363E+02  0.64372332633E+01  0.28901720259E+02  0.00000000000E+00 0.  1.
</event>
<event>
 5    1  0.1709463E-003  0.9118800E+02  0.7818608E-02  0.1130116E+00
         25   -1    0    0    0    0  0.00000000000E+00  0.00000000000E+00  0.99999998245E-14  0.12500000000E+03  0.12500000000E+03 0.  0.
        -13    1    3    3    0    0 -0.18136204035E+02 -0.22420947148E+02 -0.22594932844E+02  0.36635541788E+02  0.10566000000E+00 0.  1.
         23    2    1    0    0    0 -0.49595290497E+01  0.29441664690E+02  0.10222599419E+01  0.95126038704E+02  0.90313396991E+02 0.  0.
         13    1    3    3    0    0  0.13176674986E+02  0.51862611838E+02  0.23617192786E+02  0.58490496916E+02  0.10566000000E+00 0. -1.
         22    1    1    0    0    0  0.49595290497E+01 -0.29441664690E+02 -0.10222599419E+01  0.29873961296E+02  0.00000000000E+00 0. -1.
</event>
<event>
 5    1  0.1709463E-003  0.9118800E+02  0.7818608E-02  0.1130116E+00
         25   -1    0    0    0    0  0.00000000000E+00  0.00000000000E+00  0.99999998245E-14  0.12500000000E+03  0.12500000000E+03 0.  0.
        -13    1    3    3    0    0 -0.29965954431E+02 -0.30083934857E+02 -0.17837239081E+02  0.46056268016E+02  0.10566000000E+00 0.  1.
         23    2    1    0    0    0 -0.83773720899E+00  0.96223638139E+01 -0.27158105640E+02  0.96175455061E+02  0.91754366464E+02 0.  0.
         13    1    3    3    0    0  0.29128217222E+02  0.39706298671E+02 -0.93208665584E+01  0.50119187046E+02  0.10566000000E+00 0. -1.
         22    1    1    0    0    0  0.83773720899E+00 -0.96223638139E+01  0.27158105640E+02  0.28824544939E+02  0.00000000000E+00 0. -1.
</event>
<event>
 5    1  0.1709463E-003  0.9118800E+02  0.7818608E-02  0.1130116E+00
         25   -1    0    0    0    0  0.00000000000E+00  0.00000000000E+00  0.99999998245E-14  0.12500000000E+03  0.12500000000E+03 0.  0.
        -13    1    3    3    0    0  0.33761784545E+02 -0.11062444934E+02  0.41386029681E+02  0.54544022591E+02  0.10566000000E+00 0.  1.
         23    2    1    0    0    0  0.29192827737E+02 -0.29097172452E+01  0.13770007132E+01  0.95630223414E+02  0.91008548244E+02 0.  0.
         13    1    3    3    0    0 -0.45689568076E+01  0.81527276887E+01 -0.40009028968E+02  0.41086200823E+02  0.10566000000E+00 0. -1.
         22    1    1    0    0    0 -0.29192827737E+02  0.29097172452E+01 -0.13770007132E+01  0.29369776586E+02  0.00000000000E+00 0.  1.
</event>
<event>
 5    1  0.1709463E-003  0.9118800E+02  0.7818608E-02  0.1130116E+00
         25   -1    0    0    0    0  0.00000000000E+00  0.00000000000E+00  0.99999998245E-14  0.12500000000E+03  0.12500000000E+03 0.  0.
        -13    1    3    3    0    0 -0.35759122527E+02  0.49532920048E+02 -0.89296309915E+01  0.61741189542E+02  0.10566000000E+00 0.  1.
         23    2    1    0    0    0 -0.26908476480E+02  0.30579034927E+02 -0.58413533314E+00  0.84263226715E+02  0.73761823994E+02 0.  0.
         13    1    3    3    0    0  0.88506460469E+01 -0.18953885121E+02  0.83454956584E+01  0.22522037174E+02  0.10566000000E+00 0. -1.
         22    1    1    0    0    0  0.26908476480E+02 -0.30579034927E+02  0.58413533314E+00  0.40736773285E+02  0.00000000000E+00 0.  1.
</event>
<event>
 5    1  0.1709463E-003  0.9118800E+02  0.7818608E-02  0.1130116E+00
         25   -1    0    0    0    0  0.00000000000E+00  0.00000000000E+00  0.99999998245E-14  0.12500000000E+03  0.12500000000E+03 0.  0.
        -13    1    3    3    0    0 -0.18496018110E+02 -0.19662379309E+02 -0.33496597796E+02  0.43020286772E+02  0.10566000000E+00 0. -1.
         23    2    1    0    0    0  0.24529128177E+02  0.45502067335E+01 -0.15818117615E+02  0.95460274962E+02  0.90774824376E+02 0.  0.
         13    1    3    3    0    0  0.43025146287E+02  0.24212586043E+02  0.17678480180E+02  0.52439988190E+02  0.10566000000E+00 0.  1.
         22    1    1    0    0    0 -0.24529128177E+02 -0.45502067335E+01  0.15818117615E+02  0.29539725038E+02  0.00000000000E+00 0.  1.
</event>
<event>
 5    1  0.1709463E-003  0.9118800E+02  0.7818608E-02  0.1130116E+00
         25   -1    0    0    0    0  0.00000000000E+00  0.00000000000E+00  0.99999998245E-14  0.12500000000E+03  0.12500000000E+03 0.  0.
        -13    1    3    3    0    0  0.39309734275E+02 -0.37399970189E+02 -0.30570271931E+02  0.62278131547E+02  0.10566000000E+00 0.  1.
         23    2    1    0    0    0  0.15617453032E+02 -0.19928924674E+02 -0.14754240355E+02  0.95695486929E+02  0.91098143408E+02 0.  0.
         13    1    3    3    0    0 -0.23692281244E+02  0.17471045515E+02  0.15816031577E+02  0.33417355383E+02  0.10566000000E+00 0. -1.
         22    1    1    0    0    0 -0.15617453032E+02  0.19928924674E+02  0.14754240355E+02  0.29304513071E+02  0.00000000000E+00 0.  1.
</event>
<event>
 5    1  0.1709463E-003  0.9118800E+02  0.7818608E-02  0.1130116E+00
         25   -1    0    0    0    0  0.00000000000E+00  0.00000000000E+00  0.99999998245E-14  0.12500000000E+03  0.12500000000E+03 0.  0.
        -13    1    3    3    0    0  0.46924664596E+02 -0.14929954642E+02  0.38450848041E+02  0.62476448140E+02  0.10566000000E+00 0. -1.
         23    2    1    0    0    0  0.19794637814E+02 -0.75432464931E+01  0.16750731902E+02  0.97994162241E+02  0.94199472186E+02 0.  0.
         13    1    3    3    0    0 -0.27130026782E+02  0.73867081494E+01 -0.21700116139E+02  0.35517714101E+02  0.10566000000E+00 0.  1.
         22    1    1    0    0    0 -0.19794637814E+02  0.75432464931E+01 -0.16750731902E+02  0.27005837759E+02  0.00000000000E+00 0. -1.
</event>
<event>
 5    1  0.1709463E-003  0.9118800E+02  0.7818608E-02  0.1130116E+00
         25   -1    0    0    0    0  0.00000000000E+00  0.00000000000E+00  0.99999998245E-14  0.12500000000E+03  0.12500000000E+03 0.  0.
        -13    1    3    3    0    0 -0.20324698387E+02  0.20015398113E+02  0.18402732331E+02  0.33946741337E+02  0.10566000000E+00 0.  1.
         23    2    1    0    0    0  0.18580228592E+02 -0.16378681232E+02 -0.14243409802E+02  0.96427971437E+02  0.92097735364E+02 0.  0.
         13    1    3    3    0    0  0.38904926979E+02 -0.36394079345E+02 -0.32646142133E+02  0.62481230100E+02  0.10566000000E+00 0. -1.
         22    1    1    0    0    0 -0.18580228592E+02  0.16378681232E+02  0.14243409802E+02  0.28572028563E+02  0.00000000000E+00 0. -1.
</event>
<event>
 5    1  0.1709463E-003  0.9118800E+02  0.7818608E-02  0.1130116E+00
         25   -1    0    0    0    0  0.00000000000E+00  0.00000000000E+00  0.99999998245E-14  0.12500000000E+03  0.12500000000E+03 0.  0.
        -13    1    3    3    0    0 -0.15249915576E+02  0.43905885125E+02  0.96162777353E+01  0.47463360977E+02  0.10566000000E+00 0. -1.
         23    2    1    0    0    0  0.24339797187E+01  0.49051933530E+01  0.29726720259E+02  0.94773139818E+02  0.89823632494E+02 0.  0.
         13    1    3    3    0    0  0.17683895295E+02 -0.39000691772E+02  0.20110442524E+02  0.47309778841E+02  0.10566000000E+00 0.  1.
         22    1    1    0    0    0 -0.24339797187E+01 -0.49051933530E+01 -0.29726720259E+02  0.30226860182E+02  0.00000000000E+00 0. -1.
</event>
<event>
 5    1  0.1709463E-003  0.9118800E+02  0.7818608E-02  0.1130116E+00
         25   -1    0    0    0    0  0.00000000000E+00  0.00000000000E+00  0.99999998245E-14  0.12500000000E+03  0.12500000000E+03 0.  0.
        -13    1    3    3    0    0 -0.34176207365E+02 -0.20097854325E+02  0.43193376376E+02  0.58631184749E+02  0.10566000000E+00 0. -1.
         23    2    1    0    0    0 -0.83216916579E+01 -0.22744792809E+02  0.18033796217E+02  0.94804073818E+02  0.89866670432E+02 0.  0.
         13    1    3    3    0    0  0.25854515707E+02 -0.26469384847E+01 -0.25159580159E+02  0.36172889069E+02  0.10566000000E+00 0.  1.
         22    1    1    0    0    0  0.83216916579E+01  0.22744792809E+02 -0.18033796217E+02  0.30195926182E+02  0.00000000000E+00 0. -1.
</event>
<event>
 5    1  0.1709463E-003  0.9118800E+02  0.7818608E-02  0.1130116E+00
         25   -1    0    0    0    0  0.00000000000E+00  0.00000000000E+00  0.99999998245E-14  0.12500000000E+03  0.12500000000E+03 0.  0.
        -13    1    3    3    0    0 -0.16974992478E+02  0.49247913861E+02 -0.28637609623E+02  0.59444354133E+02  0.10566000000E+00 0. -1.
         23    2    1    0    0    0 -0.16401682388E+02  0.12684549882E+02 -0.18038024999E+02  0.97517581316E+02  0.93564925741E+02 0.  0.
         13    1    3    3    0    0  0.57331009021E+00 -0.36563363979E+02  0.10599584624E+02  0.38073227183E+02  0.10566000000E+00 0.  1.
         22    1    1    0    0    0  0.16401682388E+02 -0.12684549882E+02  0.18038024999E+02  0.27482418684E+02  0.00000000000E+00 0. -1.
</event>
<event>
 5    1  0.1709463E-003  0.9118800E+02  0.7818608E-02  0.1130116E+00
         25   -1    0    0    0    0  0.00000000000E+00  0.00000000000E+00  0.99999998245E-14  0.12500000000E+03  0.12500000000E+03 0.  0.
        -13    1    3    3    0    0  0.90991919559E+01  0.21414091988E+02  0.44587516573E+02  0.50293304009E+02  0.10566000000E+00 0. -1.
         23    2    1    0    0    0  0.18660197127E+02 -0.13838476655E+02  0.14511424620E+02  0.97608617460E+02  0.93686468420E+02 0.  0.
         13    1    3    3    0    0  0.95610051711E+01 -0.35252568643E+02 -0.30076091953E+02  0.47315313451E+02  0.10566000000E+00 0.  1.
         22    1    1    0    0    0 -0.18660197127E+02  0.13838476655E+02 -0.14511424620E+02  0.27391382540E+02  0.00000000000E+00 0. -1.
</event>
<event>
 5    1  0.1709463E-003  0.9118800E+02  0.7818608E-02  0.1130116E+00
         25   -1    0    0    0    0  0.00000000000E+00  0.00000000000E+00  0.99999998245E-14  0.12500000000E+03  0.12500000000E+03 0.  0.
        -13    1    3    3    0    0 -0.28942426677E+02  0.19242958711E+02  0.51883288450E+01  0.35140936842E+02  0.10566000000E+00 0. -1.
         23    2    1    0    0    0  0.26644548629E+02 -0.58735587312E+01 -0.57616481074E+01  0.97114031258E+02  0.93024232404E+02 0.  0.
         13    1    3    3    0    0  0.55586975306E+02 -0.25116517442E+02 -0.10949976952E+02  0.61973094415E+02  0.10566000000E+00 0.  1.
         22    1    1    0    0    0 -0.26644548629E+02  0.58735587312E+01  0.57616481074E+01  0.27885968742E+02  0.00000000000E+00 0.  1.
</event>
<event>
 5    1  0.1709463E-003  0.9118800E+02  0.7818608E-02  0.1130116E+00
         25   -1    0    0    0    0  0.00000000000E+00  0.00000000000E+00  0.99999998245E-14  0.12500000000E+03  0.12500000000E+03 0.  0.
        -13    1    3    3    0    0  0.44558358595E+00  0.14794697521E+01  0.51987319137E+02  0.52010382527E+02  0.10566000000E+00 0. -1.
         23    2    1    0    0    0  0.28886260097E+00  0.25122139448E+02  0.15528049144E+02  0.95464840575E+02  0.90781111162E+02 0.  0.
         13    1    3    3    0    0 -0.15672098499E+00  0.23642669696E+02 -0.36459269993E+02  0.43454458048E+02  0.10566000000E+00 0.  1.
         22    1    1    0    0    0 -0.28886260097E+00 -0.25122139448E+02 -0.15528049144E+02  0.29535159425E+02  0.00000000000E+00 0. -1.
</event>
<event>
 5    1  0.1709463E-003  0.9118800E+02  0.7818608E-02  0.1130116E+00
         25   -1    0    0    0    0  0.00000000000E+00  0.00000000000E+00  0.99999998245E-14  0.12500000000E+03  0.12500000000E+03 0.  0.
        -13    1    3    3    0    0 -0.16414527994E+01 -0.18949089432E+02  0.31134437662E+02  0.36484609497E+02  0.10566000000E+00 0.  1.
         23    2    1    0    0    0 -0.48509361111E+01  0.21974386116E+02 -0.14782703816E+02  0.98075409781E+02  0.94307223718E+02 0.  0.
         13    1    3    3    0    0 -0.32094833117E+01  0.40923475549E+02 -0.45917141478E+02  0.61590800284E+02  0.10566000000E+00 0. -1.
         22    1    1    0    0    0  0.48509361111E+01 -0.21974386116E+02  0.14782703816E+02  0.26924590219E+02  0.00000000000E+00 0. -1.
</event>
<event>
 5    1  0.1709463E-003  0.9118800E+02  0.7818608E-02  0.1130116E+00
         25   -1    0    0    0    0  0.00000000000E+00  0.00000000000E+00  0.99999998245E-14  0.12500000000E+03  0.12500000000E+03 0.  0.
        -13    1    3    3    0    0  0.31800366094E+02  0.25806820903E+02 -0.13959351118E+02  0.43268116859E+02  0.10566000000E+00 0. -1.
         23    2    1    0    0    0 -0.72564484987E+01  0.21567417665E+02  0.19623365901E+02  0.94951937852E+02  0.90072107020E+02 0.  0.
         13    1    3    3    0    0 -0.39056814593E+02 -0.42394032377E+01  0.33582717020E+02  0.51683820993E+02  0.10566000000E+00 0.  1.
         22    1    1    0    0    0  0.72564484987E+01 -0.21567417665E+02 -0.19623365901E+02  0.30048062148E+02  0.00000000000E+00 0. -1.
</event>
<event>
 5    1  0.1709463E-003  0.9118800E+02  0.7818608E-02  0.1130116E+00
         25   -1    0    0    0    0  0.00000000000E+00  0.00000000000E+00  0.99999998245E-14  0.12500000000E+03  0.12500000000E+03 0.  0.
        -13    1    3    3    0    0 -0.34171214182E+02  0.11858482511E+02 -0.13376192600E+02  0.38564610444E+02  0.10566000000E+00 0.  1.
         23    2    1    0    0    0  0.23939349640E+02  0.76164797548E+01 -0.12737921592E+02  0.96833390841E+02  0.92646358322E+02 0.  0.
         13    1    3    3    0    0  0.58110563822E+02 -0.42420027559E+01  0.63827100809E+00  0.58268780398E+02  0.10566000000E+00 0. -1.
         22    1    1    0    0    0 -0.23939349640E+02 -0.76164797548E+01  0.12737921592E+02  0.28166609159E+02  0.00000000000E+00 0. -1.
</event>
<event>
 5    1  0.1709463E-003  0.9118800E+02  0.7818608E-02  0.1130116E+00
         25   -1    0    0    0    0  0.00000000000E+00  0.00000000000E+00  0.99999998245E-14  0.12500000000E+03  0.12500000000E+03 0.  0.
        -13    1    3    3    0    0  0.28971549347E+02  0.41497361325E+02 -0.59051562620E+01  0.50953544558E+02  0.10566000000E+00 0.  1.
         23    2    1    0    0    0  0.28937676344E+02 -0.24384534457E+01  0.30736005018E+01  0.95797565385E+02  0.91238102492E+02 0.  0.
         13    1    3    3    0    0 -0.33873003698E-01 -0.43935814770E+02  0.89787567637E+01  0.44844020827E+02  0.10566000000E+00 0. -1.
         22    1    1    0    0    0 -0.28937676344E+02  0.24384534457E+01 -0.30736005018E+01  0.29202434615E+02  0.00000000000E+00 0. -1.
</event>
<event>
 5    1  0.1709463E-003  0.9118800E+02  0.7818608E-02  0.1130116E+00
         25   -1    0    0    0    0  0.00000000000E+00  0.00000000000E+00  0.99999998245E-14  0.12500000000E+03  0.12500000000E+03 0.  0.
        -13    1    3    3    0    0  0.15381548910E+02 -0.50965781865E+02  0.76396316254E+01  0.53781763669E+02  0.10566000000E+00 0. -1.
         23    2    1    0    0    0 -0.14401135427E+02 -0.24420788983E+02 -0.61436334118E+01  0.95991176038E+02  0.91502972681E+02 0.  0.
         13    1    3    3    0    0 -0.29782684337E+02  0.26544992881E+02 -0.13783265037E+02  0.42209412369E+02  0.10566000000E+00 0.  1.
         22    1    1    0    0    0  0.14401135427E+02  0.24420788983E+02  0.61436334118E+01  0.29008823962E+02  0.00000000000E+00 0. -1.
</event>
<event>
 5    1  0.1709463E-003  0.9118800E+02  0.7818608E-02  0.1130116E+00
         25   -1    0    0    0    0  0.00000000000E+00  0.00000000000E+00  0.99999998245E-14  0.12500000000E+03  0.12500000000E+03 0.  0.
        -13    1    3    3    0    0  0.15088593311E+02 -0.43589859926E+02  0.39486013539E+01  0.46296265003E+02  0.10566000000E+00 0.  1.
         23    2    1    0    0    0  0.27407064766E+02  0.46551271392E+01  0.74721907008E+01  0.96213700452E+02  0.91806454638E+02 0.  0.
         13    1    3    3    0    0  0.12318471455E+02  0.48244987066E+02  0.35235893469E+01  0.49917435450E+02  0.10566000000E+00 0. -1.
         22    1    1    0    0    0 -0.27407064766E+02 -0.46551271392E+01 -0.74721907008E+01  0.28786299548E+02  0.00000000000E+00 0. -1.
</event>
<event>
 5    1  0.1709463E-003  0.9118800E+02  0.7818608E-02  0.1130116E+00
         25   -1    0    0    0    0  0.00000000000E+00  0.00000000000E+00  0.99999998245E-14  0.12500000000E+03  0.12500000000E+03 0.  0.
        -13    1    3    3    0    0 -0.58159753060E+02 -0.14376198606E+01 -0.43301065577E+01  0.58338534552E+02  0.10566000000E+00 0. -1.
         23    2    1    0    0    0 -0.26597529463E+02  0.10417015590E+02  0.96670234364E+01  0.94843837621E+02  0.89921962863E+02 0.  0.
         13    1    3    3    0    0  0.31562223597E+02  0.11854635451E+02  0.13997129994E+02  0.36505303069E+02  0.10566000000E+00 0.  1.
         22    1    1    0    0    0  0.26597529463E+02 -0.10417015590E+02 -0.96670234364E+01  0.30156162379E+02  0.00000000000E+00 0. -1.
</event>
<event>
 5    1  0.1709463E-003  0.9118800E+02  0.7818608E-02  0.1130116E+00
         25   -1    0    0    0    0  0.00000000000E+00  0.00000000000E+00  0.99999998245E-14  0.12500000000E+03  0.12500000000E+03 0.  0.
        -13    1    3    3    0    0  0.10828346299E+02 -0.63399393893E+01  0.33452867424E+02  0.35728887724E+02  0.10566000000E+00 0. -1.
         23    2    1    0    0    0 -0.19894395425E+02  0.28142464577E+02  0.44861426958E+01  0.90244989454E+02  0.83284136325E+02 0.  0.
         13    1    3    3    0    0 -0.30722741724E+02  0.34482403966E+02 -0.28966724729E+02  0.54516101730E+02  0.10566000000E+00 0.  1.
         22    1    1    0    0    0  0.19894395425E+02 -0.28142464577E+02 -0.44861426958E+01  0.34755010546E+02  0.00000000000E+00 0.  1.
</event>
<event>
 5    1  0.1709463E-003  0.9118800E+02  0.7818608E-02  0.1130116E+00
         25   -1    0    0    0    0  0.00000000000E+00  0.00000000000E+00  0.99999998245E-14  0.12500000000E+03  0.12500000000E+03 0.  0.
        -13    1    3    3    0    0  0.63766397142E+01  0.62448950657E+01  0.44005077897E+02  0.44901205921E+02  0.10566000000E+00 0. -1.
         23    2    1    0    0    0  0.90181043590E+01 -0.29162326585E+02  0.13868545202E+02  0.91472339120E+02  0.85106314572E+02 0.  0.
         13    1    3    3    0    0  0.26414646448E+01 -0.35407221651E+02 -0.30136532695E+02  0.46571133199E+02  0.10566000000E+00 0.  1.
         22    1    1    0    0    0 -0.90181043590E+01  0.29162326585E+02 -0.13868545202E+02  0.33527660880E+02  0.00000000000E+00 0.  1.
</event>
<event>
 5    1  0.1709463E-003  0.9118800E+02  0.7818608E-02  0.1130116E+00
         25   -1    0    0    0    0  0.00000000000E+00  0.00000000000E+00  0.99999998245E-14  0.12500000000E+03  0.12500000000E+03 0.  0.
        -13    1    3    3    0    0  0.20404894883E+02  0.46211625573E+02 -0.62517641513E+01  0.50901569645E+02  0.10566000000E+00 0.  1.
         23    2    1    0    0    0 -0.18455530311E+02  0.17878129472E+02 -0.92865912866E+00  0.99288202702E+02  0.95901254818E+02 0.  0.
         13    1    3    3    0    0 -0.38860425194E+02 -0.28333496101E+02  0.53231050226E+01  0.48386633058E+02  0.10566000000E+00 0. -1.
         22    1    1    0    0    0  0.18455530311E+02 -0.17878129472E+02  0.92865912866E+00  0.25711797298E+02  0.00000000000E+00 0. -1.
</event>
<event>
 5    1  0.1709463E-003  0.9118800E+02  0.7818608E-02  0.1130116E+00
         25   -1    0    0    0    0  0.00000000000E+00  0.00000000000E+00  0.99999998245E-14  0.12500000000E+03  0.12500000000E+03 0.  0.
        -13    1    3    3    0    0 -0.26223344265E+02 -0.45512841345E+02  0.16391642873E+02  0.55025263578E+02  0.10566000000E+00 0.  1.
         23    2    1    0    0    0 -0.23935799411E+02 -0.15331700227E+02 -0.96781904256E+01  0.94972497686E+02  0.90100634967E+02 0.  0.
         13    1    3    3    0    0  0.22875448537E+01  0.30181141118E+02 -0.26069833298E+02  0.39947234108E+02  0.10566000000E+00 0. -1.
         22    1    1    0    0    0  0.23935799411E+02  0.15331700227E+02  0.96781904256E+01  0.30027502314E+02  0.00000000000E+00 0.  1.
</event>
<event>
 5    1  0.1709463E-003  0.9118800E+02  0.7818608E-02  0.1130116E+00
         25   -1    0    0    0    0  0.00000000000E+00  0.00000000000E+00  0.99999998245E-14  0.12500000000E+03  0.12500000000E+03 0.  0.
        -13    1    3    3    0    0 -0.35885226262E+02 -0.15292360437E+02  0.19298151656E+02  0.43520518989E+02  0.10566000000E+00 0. -1.
         23    2    1    0    0    0  0.15171006278E+02 -0.21087040191E+02  0.14803214458E+02  0.95100872023E+02  0.90278557840E+02 0.  0.
         13    1    3    3    0    0  0.51056232540E+02 -0.57946797541E+01 -0.44949371982E+01  0.51580353034E+02  0.10566000000E+00 0.  1.
         22    1    1    0    0    0 -0.15171006278E+02  0.21087040191E+02 -0.14803214458E+02  0.29899127977E+02  0.00000000000E+00 0.  1.
</event>
<event>
 5    1  0.1709463E-003  0.9118800E+02  0.7818608E-02  0.1130116E+00
         25   -1    0    0    0    0  0.00000000000E+00  0.00000000000E+00  0.99999998245E-14  0.12500000000E+03  0.12500000000E+03 0.  0.
        -13    1    3    3    0    0  0.10169112800E+02  0.45260910189E+02  0.16416761366E+02  0.49208556817E+02  0.10566000000E+00 0.  1.
         23    2    1    0    0    0 -0.21815005673E+01  0.20050681920E+02 -0.20932449058E+02  0.95931869448E+02  0.91421919484E+02 0.  0.
         13    1    3    3    0    0 -0.12350613367E+02 -0.25210228269E+02 -0.37349210424E+02  0.46723312631E+02  0.10566000000E+00 0. -1.
         22    1    1    0    0    0  0.21815005673E+01 -0.20050681920E+02  0.20932449058E+02  0.29068130552E+02  0.00000000000E+00 0. -1.
</event>
<event>
 5    1  0.1709463E-003  0.9118800E+02  0.7818608E-02  0.1130116E+00
         25   -1    0    0    0    0  0.00000000000E+00  0.00000000000E+00  0.99999998245E-14  0.12500000000E+03  0.12500000000E+03 0.  0.
        -13    1    3    3    0    0  0.37506488237E+01 -0.43569159605E+02 -0.33312430723E+02  0.54973341176E+02  0.10566000000E+00 0.  1.
         23    2    1    0    0    0  0.49921182944E+01 -0.28905666363E+02  0.42913223886E+01  0.95354186792E+02  0.90628619641E+02 0.  0.
         13    1    3    3    0    0  0.12414694707E+01  0.14663493243E+02  0.37603753112E+02  0.40380845616E+02  0.10566000000E+00 0. -1.
         22    1    1    0    0    0 -0.49921182944E+01  0.28905666363E+02 -0.42913223886E+01  0.29645813208E+02  0.00000000000E+00 0.  1.
</event>
<event>
 5    1  0.1709463E-003  0.9118800E+02  0.7818608E-02  0.1130116E+00
         25   -1    0    0    0    0  0.00000000000E+00  0.00000000000E+00  0.99999998245E-14  0.12500000000E+03  0.12500000000E+03 0.  0.
        -13    1    3    3    0    0  0.30674331798E+02 -0.40067320649E+02 -0.18599214811E+02  0.53779612967E+02  0.10566000000E+00 0. -1.
         23    2    1    0    0    0 -0.65815030651E+01 -0.27747094789E+02 -0.19171208931E+01  0.96418663356E+02  0.92085101069E+02 0.  0.
         13    1    3    3    0    0 -0.37255834863E+02  0.12320225860E+02  0.16682093917E+02  0.42639050389E+02  0.10566000000E+00 0.  1.
         22    1    1    0    0    0  0.65815030651E+01  0.27747094789E+02  0.19171208931E+01  0.28581336644E+02  0.00000000000E+00 0.  1.
</event>
<event>
 5    1  0.1709463E-003  0.9118800E+02  0.7818608E-02  0.1130116E+00
         25   -1    0    0    0    0  0.00000000000E+00  0.00000000000E+00  0.99999998245E-14  0.12500000000E+03  0.12500000000E+03 0.  0.
        -13    1    3    3    0    0 -0.46562650065E+02 -0.33148133601E+01 -0.37656620419E+02  0.59975833417E+02  0.10566000000E+00 0.  1.
         23    2    1    0    0    0 -0.13996193862E+02  0.30918710817E+01 -0.26285305856E+02  0.95060554225E+02  0.90222716408E+02 0.  0.
         13    1    3    3    0    0  0.32566456204E+02  0.64066844418E+01  0.11371314563E+02  0.35084720807E+02  0.10566000000E+00 0. -1.
         22    1    1    0    0    0  0.13996193862E+02 -0.30918710817E+01  0.26285305856E+02  0.29939445775E+02  0.00000000000E+00 0.  1.
</event>
<event>
 5    1  0.1709463E-003  0.9118800E+02  0.7818608E-02  0.1130116E+00
         25   -1    0    0    0    0  0.00000000000E+00  0.00000000000E+00  0.99999998245E-14  0.12500000000E+03  0.12500000000E+03 0.  0.
        -13    1    3    3    0    0  0.12476686750E+02  0.75358335093E+01  0.30884786022E+02  0.34151686204E+02  0.10566000000E+00 0. -1.
         23    2    1    0    0    0 -0.26110542574E+02  0.87548915717E+01 -0.14614733517E+02  0.93823101570E+02  0.88491668492E+02 0.  0.
         13    1    3    3    0    0 -0.38587229324E+02  0.12190580624E+01 -0.45499519538E+02  0.59671415366E+02  0.10566000000E+00 0.  1.
         22    1    1    0    0    0  0.26110542574E+02 -0.87548915717E+01  0.14614733517E+02  0.31176898430E+02  0.00000000000E+00 0.  1.
</event>
<event>
 5    1  0.1709463E-003  0.9118800E+02  0.7818608E-02  0.1130116E+00
         25   -1    0    0    0    0  0.00000000000E+00  0.00000000000E+00  0.99999998245E-14  0.12500000000E+03  0.12500000000E+03 0.  0.
        -13    1    3    3    0    0  0.11590727654E+02 -0.18741373861E+02 -0.34996363884E+02  0.41356265679E+02  0.10566000000E+00 0.  1.
         23    2    1    0    0    0 -0.14056769465E+02  0.22930979828E+02 -0.14874262706E+02  0.94264575899E+02  0.89113096538E+02 0.  0.
         13    1    3    3    0    0 -0.25647497119E+02  0.41672353689E+02  0.20122101178E+02  0.52908310220E+02  0.10566000000E+00 0. -1.
         22    1    1    0    0    0  0.14056769465E+02 -0.22930979828E+02  0.14874262706E+02  0.30735424101E+02  0.00000000000E+00 0.  1.
</event>
<event>
 5    1  0.1709463E-003  0.9118800E+02  0.7818608E-02  0.1130116E+00
         25   -1    0    0    0    0  0.00000000000E+00  0.00000000000E+00  0.99999998245E-14  0.12500000000E+03  0.12500000000E+03 0.  0.
        -13    1    3    3    0    0 -0.34696774590E+02 -0.22524739121E+02 -0.41258483168E+02  0.58425196934E+02  0.10566000000E+00 0. -1.
         23    2    1    0    0    0 -0.15334353660E+02 -0.23418782656E+02 -0.98659185080E+01  0.95319734986E+02  0.90581089343E+02 0.  0.
         13    1    3    3    0    0  0.19362420930E+02 -0.89404353526E+00  0.31392564660E+02  0.36894538052E+02  0.10566000000E+00 0.  1.
         22    1    1    0    0    0  0.15334353660E+02  0.23418782656E+02  0.98659185080E+01  0.29680265014E+02  0.00000000000E+00 0. -1.
</event>
<event>
 5    1  0.1709463E-003  0.9118800E+02  0.7818608E-02  0.1130116E+00
         25   -1    0    0    0    0  0.00000000000E+00  0.00000000000E+00  0.99999998245E-14  0.12500000000E+03  0.12500000000E+03 0.  0.
        -13    1    3    3    0    0  0.18567743320E+02 -0.20150640716E+02  0.19140130890E+02  0.33424021119E+02  0.10566000000E+00 0. -1.
         23    2    1    0    0    0 -0.19802547136E+02  0.68956284794E+01 -0.21098389031E+02  0.95253864371E+02  0.90490143622E+02 0.  0.
         13    1    3    3    0    0 -0.38370290456E+02  0.27046269195E+02 -0.40238519921E+02  0.61829843251E+02  0.10566000000E+00 0.  1.
         22    1    1    0    0    0  0.19802547136E+02 -0.68956284794E+01  0.21098389031E+02  0.29746135629E+02  0.00000000000E+00 0.  1.
</event>
<event>
 5    1  0.1709463E-003  0.9118800E+02  0.7818608E-02  0.1130116E+00
         25   -1    0    0    0    0  0.00000000000E+00  0.00000000000E+00  0.99999998245E-14  0.12500000000E+03  0.12500000000E+03 0.  0.
        -13    1    3    3    0    0  0.78889299909E+01 -0.38738265245E+02 -0.80480775378E+01  0.40344406386E+02  0.10566000000E+00 0.  1.
         23    2    1    0    0    0 -0.26908431886E+02  0.11990522006E+01  0.99453777502E+01  0.96287424857E+02  0.91906780023E+02 0.  0.
         13    1    3    3    0    0 -0.34797361877E+02  0.39937317445E+02  0.17993455288E+02  0.55943018470E+02  0.10566000000E+00 0. -1.
         22    1    1    0    0    0  0.26908431886E+02 -0.11990522006E+01 -0.99453777502E+01  0.28712575143E+02  0.00000000000E+00 0. -1.
</event>
<event>
 5    1  0.1709463E-003  0.9118800E+02  0.7818608E-02  0.1130116E+00
         25   -1    0    0    0    0  0.00000000000E+00  0.00000000000E+00  0.99999998245E-14  0.12500000000E+03  0.12500000000E+03 0.  0.
        -13    1    3    3    0    0  0.24397305109E+02 -0.31640005231E+02  0.38186629093E+02  0.55267967514E+02  0.10566000000E+00 0. -1.
         23    2    1    0    0    0 -0.51517547439E+01 -0.22872753795E+02  0.29551970651E+02  0.87277030705E+02  0.78703606501E+02 0.  0.
         13    1    3    3    0    0 -0.29549059853E+02  0.87672514366E+01 -0.86346584419E+01  0.32009063191E+02  0.10566000000E+00 0.  1.
         22    1    1    0    0    0  0.51517547439E+01  0.22872753795E+02 -0.29551970651E+02  0.37722969295E+02  0.00000000000E+00 0. -1.
</event>
<event>
 5    1  0.1709463E-003  0.9118800E+02  0.7818608E-02  0.1130116E+00
         25   -1    0    0    0    0  0.00000000000E+00  0.00000000000E+00  0.99999998245E-14  0.12500000000E+03  0.12500000000E+03 0.  0.
        -13    1    3    3    0    0 -0.55577964875E+02 -0.64876670669E+01 -0.47771544943E+01  0.56158991914E+02  0.10566000000E+00 0.  1.
         23    2    1    0    0    0 -0.22566276203E+02  0.16822354427E+02  0.81090561509E-02  0.96853446110E+02  0.92673413272E+02 0.  0.
         13    1    3    3    0    0  0.33011688672E+02  0.23310021494E+02  0.47852635505E+01  0.40694454196E+02  0.10566000000E+00 0. -1.
         22    1    1    0    0    0  0.22566276203E+02 -0.16822354427E+02 -0.81090561509E-02  0.28146553890E+02  0.00000000000E+00 0.  1.
</event>
<event>
 5    1  0.1709463E-003  0.9118800E+02  0.7818608E-02  0.1130116E+00
         25   -1    0    0    0    0  0.00000000000E+00  0.00000000000E+00  0.99999998245E-14  0.12500000000E+03  0.12500000000E+03 0.  0.
        -13    1    3    3    0    0 -0.50694694510E+02 -0.18757469471E+02 -0.30323316928E+02  0.61978298024E+02  0.10566000000E+00 0.  1.
         23    2    1    0    0    0 -0.62451381999E+01  0.14022189319E+01 -0.42879467542E+01  0.11729581565E+03  0.11704253036E+03 0.  0.
         13    1    3    3    0    0  0.44449556310E+02  0.20159688402E+02  0.26035370174E+02  0.55317517630E+02  0.10566000000E+00 0. -1.
         22    1    1    0    0    0  0.62451381999E+01 -0.14022189319E+01  0.42879467542E+01  0.77041843459E+01  0.00000000000E+00 0.  1.
</event>
<event>
 5    1  0.1709463E-003  0.9118800E+02  0.7818608E-02  0.1130116E+00
         25   -1    0    0    0    0  0.00000000000E+00  0.00000000000E+00  0.99999998245E-14  0.12500000000E+03  0.12500000000E+03 0.  0.
        -13    1    3    3    0    0  0.28762092275E+02 -0.12865526033E+02  0.50983913595E+02  0.59934550316E+02  0.10566000000E+00 0. -1.
         23    2    1    0    0    0  0.19419890162E+01 -0.74584074464E+01  0.28884815598E+02  0.95104653622E+02  0.90283793703E+02 0.  0.
         13    1    3    3    0    0 -0.26820103259E+02  0.54071185864E+01 -0.22099097997E+02  0.35170103306E+02  0.10566000000E+00 0.  1.
         22    1    1    0    0    0 -0.19419890162E+01  0.74584074464E+01 -0.28884815598E+02  0.29895346378E+02  0.00000000000E+00 0. -1.
</event>
<event>
 5    1  0.1709463E-003  0.9118800E+02  0.7818608E-02  0.1130116E+00
         25   -1    0    0    0    0  0.00000000000E+00  0.00000000000E+00  0.99999998245E-14  0.12500000000E+03  0.12500000000E+03 0.  0.
        -13    1    3    3    0    0 -0.13742979123E+02 -0.42943304521E+02  0.14596608504E+01  0.45112511039E+02  0.10566000000E+00 0.  1.
         23    2    1    0    0    0  0.26407140217E+02 -0.11508736056E+02  0.22029784297E+01  0.96109842956E+02  0.91664937348E+02 0.  0.
         13    1    3    3    0    0  0.40150119340E+02  0.31434568466E+02  0.74331757923E+00  0.50997331917E+02  0.10566000000E+00 0. -1.
         22    1    1    0    0    0 -0.26407140217E+02  0.11508736056E+02 -0.22029784297E+01  0.28890157044E+02  0.00000000000E+00 0. -1.
</event>
<event>
 5    1  0.1709463E-003  0.9118800E+02  0.7818608E-02  0.1130116E+00
         25   -1    0    0    0    0  0.00000000000E+00  0.00000000000E+00  0.99999998245E-14  0.12500000000E+03  0.12500000000E+03 0.  0.
        -13    1    3    3    0    0  0.13230562598E+02 -0.34471439063E+02 -0.40811539925E+02  0.55035632574E+02  0.10566000000E+00 0.  1.
         23    2    1    0    0    0 -0.48038858261E+01 -0.28791250976E+02 -0.52062505110E+01  0.95350067519E+02  0.90622937933E+02 0.  0.
         13    1    3    3    0    0 -0.18034448424E+02  0.56801880870E+01  0.35605289414E+02  0.40314434945E+02  0.10566000000E+00 0. -1.
         22    1    1    0    0    0  0.48038858261E+01  0.28791250976E+02  0.52062505110E+01  0.29649932481E+02  0.00000000000E+00 0.  1.
</event>
<event>
 5    1  0.1709463E-003  0.9118800E+02  0.7818608E-02  0.1130116E+00
         25   -1    0    0    0    0  0.00000000000E+00  0.00000000000E+00  0.99999998245E-14  0.12500000000E+03  0.12500000000E+03 0.  0.
        -13    1    3    3    0    0  0.16912056085E+02 -0.51026888904E+01 -0.59782176205E+02  0.62337587624E+02  0.10566000000E+00 0.  1.
         23    2    1    0    0    0  0.10884486491E+02 -0.32341323835E+01 -0.27206051130E+02  0.95519483103E+02  0.90856319404E+02 0.  0.
         13    1    3    3    0    0 -0.60275695941E+01  0.18685565069E+01  0.32576125075E+02  0.33181895479E+02  0.10566000000E+00 0. -1.
         22    1    1    0    0    0 -0.10884486491E+02  0.32341323835E+01  0.27206051130E+02  0.29480516897E+02  0.00000000000E+00 0.  1.
</event>
<event>
 5    1  0.1709463E-003  0.9118800E+02  0.7818608E-02  0.1130116E+00
         25   -1    0    0    0    0  0.00000000000E+00  0.00000000000E+00  0.99999998245E-14  0.12500000000E+03  0.12500000000E+03 0.  0.
        -13    1    3    3    0    0  0.29742230423E+02  0.90307798804E+01 -0.17106136465E+02  0.35479378864E+02  0.10566000000E+00 0. -1.
         23    2    1    0    0    0 -0.27343751638E+02 -0.74976739968E+01 -0.73966283292E+01  0.95698020892E+02  0.91101620310E+02 0.  0.
         13    1    3    3    0    0 -0.57085982061E+02 -0.16528453877E+02  0.97095081358E+01  0.60218642028E+02  0.10566000000E+00 0.  1.
         22    1    1    0    0    0  0.27343751638E+02  0.74976739968E+01  0.73966283292E+01  0.29301979108E+02  0.00000000000E+00 0.  1.
</event>
<event>
 5    1  0.1709463E-003  0.9118800E+02  0.7818608E-02  0.1130116E+00
         25   -1    0    0    0    0  0.00000000000E+00  0.00000000000E+00  0.99999998245E-14  0.12500000000E+03  0.12500000000E+03 0.  0.
        -13    1    3    3    0    0 -0.59079463192E+01  0.33679712806E+02  0.45084471095E+02  0.56584870614E+02  0.10566000000E+00 0. -1.
         23    2    1    0    0    0  0.56873323198E+01  0.31553202702E+01  0.32941793486E+02  0.91422275941E+02  0.85032752427E+02 0.  0.
         13    1    3    3    0    0  0.11595278639E+02 -0.30524392536E+02 -0.12142677609E+02  0.34837405328E+02  0.10566000000E+00 0.  1.
         22    1    1    0    0    0 -0.56873323198E+01 -0.31553202702E+01 -0.32941793486E+02  0.33577724059E+02  0.00000000000E+00 0. -1.
</event>
<event>
 5    1  0.1709463E-003  0.9118800E+02  0.7818608E-02  0.1130116E+00
         25   -1    0    0    0    0  0.00000000000E+00  0.00000000000E+00  0.99999998245E-14  0.12500000000E+03  0.12500000000E+03 0.  0.
        -13    1    3    3    0    0  0.25640205456E+02  0.25135543538E+02  0.40705524926E+02  0.54278601753E+02  0.10566000000E+00 0.  1.
         23    2    1    0    0    0  0.30262534698E+02  0.56114516723E+01  0.71075336020E+01  0.93411609251E+02  0.87908488286E+02 0.  0.
         13    1    3    3    0    0  0.46223292422E+01 -0.19524091866E+02 -0.33597991323E+02  0.39133007498E+02  0.10566000000E+00 0. -1.
         22    1    1    0    0    0 -0.30262534698E+02 -0.56114516723E+01 -0.71075336020E+01  0.31588390749E+02  0.00000000000E+00 0.  1.
</event>
<event>
 5    1  0.1709463E-003  0.9118800E+02  0.7818608E-02  0.1130116E+00
         25   -1    0    0    0    0  0.00000000000E+00  0.00000000000E+00  0.99999998245E-14  0.12500000000E+03  0.12500000000E+03 0.  0.
        -13    1    3    3    0    0 -0.36144856804E+01  0.37149164122E+02  0.23186427647E+02  0.43940260499E+02  0.10566000000E+00 0.  1.
         23    2    1    0    0    0  0.26239083844E+02 -0.37470415839E+01  0.12526818549E+02  0.95683604850E+02  0.91081837995E+02 0.  0.
         13    1    3    3    0    0  0.29853569525E+02 -0.40896205705E+02 -0.10659609098E+02  0.51743344351E+02  0.10566000000E+00 0. -1.
         22    1    1    0    0    0 -0.26239083844E+02  0.37470415839E+01 -0.12526818549E+02  0.29316395150E+02  0.00000000000E+00 0.  1.
</event>
<event>
 5    1  0.1709463E-003  0.9118800E+02  0.7818608E-02  0.1130116E+00
         25   -1    0    0    0    0  0.00000000000E+00  0.00000000000E+00  0.99999998245E-14  0.12500000000E+03  0.12500000000E+03 0.  0.
        -13    1    3    3    0    0 -0.27641616399E+02 -0.13082087799E+02 -0.48903746317E+02  0.57678310882E+02  0.10566000000E+00 0.  1.
         23    2    1    0    0    0  0.55897507785E+00 -0.17564450318E+02 -0.21197009497E+02  0.97465738076E+02  0.93495639037E+02 0.  0.
         13    1    3    3    0    0  0.28200591477E+02 -0.44823625190E+01  0.27706736820E+02  0.39787427193E+02  0.10566000000E+00 0. -1.
         22    1    1    0    0    0 -0.55897507785E+00  0.17564450318E+02  0.21197009497E+02  0.27534261924E+02  0.00000000000E+00 0.  1.
</event>
<event>
 5    1  0.1709463E-003  0.9118800E+02  0.7818608E-02  0.1130116E+00
         25   -1    0    0    0    0  0.00000000000E+00  0.00000000000E+00  0.99999998245E-14  0.12500000000E+03  0.12500000000E+03 0.  0.
        -13    1    3    3    0    0  0.18223971699E+02  0.31774959369E+02  0.61010577920E+01  0.37134825401E+02  0.10566000000E+00 0. -1.
         23    2    1    0    0    0 -0.48487503376E+01 -0.18859382094E+02 -0.18651859350E+02  0.98035606255E+02  0.94254451162E+02 0.  0.
         13    1    3    3    0    0 -0.23072722037E+02 -0.50634341463E+02 -0.24752917142E+02  0.60900780854E+02  0.10566000000E+00 0.  1.
         22    1    1    0    0    0  0.48487503376E+01  0.18859382094E+02  0.18651859350E+02  0.26964393745E+02  0.00000000000E+00 0.  1.
</event>
<event>
 5    1  0.1709463E-003  0.9118800E+02  0.7818608E-02  0.1130116E+00
         25   -1    0    0    0    0  0.00000000000E+00  0.00000000000E+00  0.99999998245E-14  0.12500000000E+03  0.12500000000E+03 0.  0.
        -13    1    3    3    0    0 -0.33252379989E+02 -0.45510473956E+02  0.26800696872E+02  0.62411637789E+02  0.10566000000E+00 0. -1.
         23    2    1    0    0    0 -0.17133607457E+02 -0.25368406528E+02  0.16805272241E+02  0.90078176890E+02  0.83033392213E+02 0.  0.
         13    1    3    3    0    0  0.16118772532E+02  0.20142067428E+02 -0.99954246317E+01  0.27666539101E+02  0.10566000000E+00 0.  1.
         22    1    1    0    0    0  0.17133607457E+02  0.25368406528E+02 -0.16805272241E+02  0.34921823110E+02  0.00000000000E+00 0. -1.
</event>
<event>
 5    1  0.1709463E-003  0.9118800E+02  0.7818608E-02  0.1130116E+00
         25   -1    0    0    0    0  0.00000000000E+00  0.00000000000E+00  0.99999998245E-14  0.12500000000E+03  0.12500000000E+03 0.  0.
        -13    1    3    3    0    0 -0.67143129618E+01  0.43391637424E+01  0.39832952329E+02  0.40627399570E+02  0.10566000000E+00 0. -1.
         23    2    1    0    0    0 -0.26317865847E+02  0.64975884459E+01 -0.11450709888E+02  0.95572674684E+02  0.90929470860E+02 0.  0.
         13    1    3    3    0    0 -0.19603552885E+02  0.21584247035E+01 -0.51283662217E+02  0.54945275114E+02  0.10566000000E+00 0.  1.
         22    1    1    0    0    0  0.26317865847E+02 -0.64975884459E+01  0.11450709888E+02  0.29427325316E+02  0.00000000000E+00 0.  1.
</event>
<event>
 5    1  0.1709463E-003  0.9118800E+02  0.7818608E-02  0.1130116E+00
         25   -1    0    0    0    0  0.00000000000E+00  0.00000000000E+00  0.99999998245E-14  0.12500000000E+03  0.12500000000E+03 0.  0.
        -13    1    3    3    0    0 -0.25302767388E+02  0.23827485564E+02 -0.49147528180E+02  0.60195263900E+02  0.10566000000E+00 0. -1.
         23    2    1    0    0    0 -0.94066088607E+01  0.21161136222E+02 -0.16625992082E+02  0.96492078483E+02  0.92184703833E+02 0.  0.
         13    1    3    3    0    0  0.15896158527E+02 -0.26663493420E+01  0.32521536097E+02  0.36296814583E+02  0.10566000000E+00 0.  1.
         22    1    1    0    0    0  0.94066088607E+01 -0.21161136222E+02  0.16625992082E+02  0.28507921517E+02  0.00000000000E+00 0. -1.
</event>
<event>
 5    1  0.1709463E-003  0.9118800E+02  0.7818608E-02  0.1130116E+00
         25   -1    0    0    0    0  0.00000000000E+00  0.00000000000E+00  0.99999998245E-14  0.12500000000E+03  0.12500000000E+03 0.  0.
        -13    1    3    3    0    0  0.17283449680E+02 -0.29628081156E+02 -0.25828870313E+02  0.42938124453E+02  0.10566000000E+00 0.  1.
         23    2    1    0    0    0 -0.20382347905E+02  0.51064383407E+01 -0.22396480499E+02  0.94289771127E+02  0.89148431180E+02 0.  0.
         13    1    3    3    0    0 -0.37665797585E+02  0.34734519497E+02  0.34323898136E+01  0.51351646675E+02  0.10566000000E+00 0. -1.
         22    1    1    0    0    0  0.20382347905E+02 -0.51064383407E+01  0.22396480499E+02  0.30710228873E+02  0.00000000000E+00 0. -1.
</event>
<event>
 5    1  0.1709463E-003  0.9118800E+02  0.7818608E-02  0.1130116E+00
         25   -1    0    0    0    0  0.00000000000E+00  0.00000000000E+00  0.99999998245E-14  0.12500000000E+03  0.12500000000E+03 0.  0.
        -13    1    3    3    0    0 -0.31525332169E+01 -0.32258227249E+02  0.14594302796E+02  0.35546259002E+02  0.10566000000E+00 0. -1.
         23    2    1    0    0    0  0.69046456094E+01  0.18581181486E+02 -0.19189864781E+02  0.97410412350E+02  0.93421641430E+02 0.  0.
         13    1    3    3    0    0  0.10057178826E+02  0.50839408735E+02 -0.33784167576E+02  0.61864153347E+02  0.10566000000E+00 0.  1.
         22    1    1    0    0    0 -0.69046456094E+01 -0.18581181486E+02  0.19189864781E+02  0.27589587650E+02  0.00000000000E+00 0.  1.
</event>
<event>
 5    1  0.1709463E-003  0.9118800E+02  0.7818608E-02  0.1130116E+00
         25   -1    0    0    0    0  0.00000000000E+00  0.00000000000E+00  0.99999998245E-14  0.12500000000E+03  0.12500000000E+03 0.  0.
        -13    1    3    3    0    0  0.38177153020E+02 -0.17376486788E+02 -0.11555731880E+02  0.43508429173E+02  0.10566000000E+00 0.  1.
         23    2    1    0    0    0 -0.59913327006E+01  0.28463939877E+01 -0.29096983508E+02  0.95156533789E+02  0.90355594443E+02 0.  0.
         13    1    3    3    0    0 -0.44168485720E+02  0.20222880776E+02 -0.17541251627E+02  0.51648104616E+02  0.10566000000E+00 0. -1.
         22    1    1    0    0    0  0.59913327006E+01 -0.28463939877E+01  0.29096983508E+02  0.29843466211E+02  0.00000000000E+00 0. -1.
</event>
<event>
 5    1  0.1709463E-003  0.9118800E+02  0.7818608E-02  0.1130116E+00
         25   -1    0    0    0    0  0.00000000000E+00  0.00000000000E+00  0.99999998245E-14  0.12500000000E+03  0.12500000000E+03 0.  0.
        -13    1    3    3    0    0  0.62483919137E+01 -0.21536142451E+02  0.26133177425E+02  0.34435475306E+02  0.10566000000E+00 0. -1.
         23    2    1    0    0    0  0.73512154241E+01  0.69472903262E+01 -0.27788507887E+02  0.95427945934E+02  0.90730295291E+02 0.  0.
         13    1    3    3    0    0  0.11028235104E+01  0.28483432777E+02 -0.53921685312E+02  0.60992470629E+02  0.10566000000E+00 0.  1.
         22    1    1    0    0    0 -0.73512154241E+01 -0.69472903262E+01  0.27788507887E+02  0.29572054066E+02  0.00000000000E+00 0.  1.
</event>
<event>
 5    1  0.1709463E-003  0.9118800E+02  0.7818608E-02  0.1130116E+00
         25   -1    0    0    0    0  0.00000000000E+00  0.00000000000E+00  0.99999998245E-14  0.12500000000E+03  0.12500000000E+03 0.  0.
        -13    1    3    3    0    0 -0.48880630974E+02  0.25446598902E+02 -0.18753041266E+02  0.58211108912E+02  0.10566000000E+00 0. -1.
         23    2    1    0    0    0 -0.23751350605E+02 -0.29173110341E+01 -0.16017203002E+02  0.96204372707E+02  0.91793753473E+02 0.  0.
         13    1    3    3    0    0  0.25129280369E+02 -0.28363909936E+02  0.27358382643E+01  0.37993263794E+02  0.10566000000E+00 0.  1.
         22    1    1    0    0    0  0.23751350605E+02  0.29173110341E+01  0.16017203002E+02  0.28795627293E+02  0.00000000000E+00 0. -1.
</event>
<event>
 5    1  0.1709463E-003  0.9118800E+02  0.7818608E-02  0.1130116E+00
         25   -1    0    0    0    0  0.00000000000E+00  0.00000000000E+00  0.99999998245E-14  0.12500000000E+03  0.12500000000E+03 0.  0.
        -13    1    3    3    0    0  0.14485348030E+02  0.30843432583E+02 -0.13592170110E+02  0.36686521958E+02  0.10566000000E+00 0.  1.
         23    2    1    0    0    0  0.13203627820E+02 -0.25178174421E+02  0.58013560315E+01  0.95983935715E+02  0.91493081316E+02 0.  0.
         13    1    3    3    0    0 -0.12817202100E+01 -0.56021607004E+02  0.19393526141E+02  0.59297413757E+02  0.10566000000E+00 0. -1.
         22    1    1    0    0    0 -0.13203627820E+02  0.25178174421E+02 -0.58013560315E+01  0.29016064285E+02  0.00000000000E+00 0. -1.
</event>
<event>
 5    1  0.1709463E-003  0.9118800E+02  0.7818608E-02  0.1130116E+00
         25   -1    0    0    0    0  0.00000000000E+00  0.00000000000E+00  0.99999998245E-14  0.12500000000E+03  0.12500000000E+03 0.  0.
        -13    1    3    3    0    0  0.31973833588E+02 -0.43277336158E+02 -0.74439414608E+01  0.54320137037E+02  0.10566000000E+00 0.  1.
         23    2    1    0    0    0  0.20223819130E+01 -0.25648066735E+02  0.14543668060E+02  0.95446123156E+02  0.90755334769E+02 0.  0.
         13    1    3    3    0    0 -0.29951451675E+02  0.17629269423E+02  0.21987609520E+02  0.41125986119E+02  0.10566000000E+00 0. -1.
         22    1    1    0    0    0 -0.20223819130E+01  0.25648066735E+02 -0.14543668060E+02  0.29553876844E+02  0.00000000000E+00 0.  1.
</event>
<event>
 5    1  0.1709463E-003  0.9118800E+02  0.7818608E-02  0.1130116E+00
         25   -1    0    0    0    0  0.00000000000E+00  0.00000000000E+00  0.99999998245E-14  0.12500000000E+03  0.12500000000E+03 0.  0.
        -13    1    3    3    0    0  0.35195161881E+02  0.19132463810E+01 -0.25464087179E+02  0.43483224713E+02  0.10566000000E+00 0. -1.
         23    2    1    0    0    0  0.10868939305E+02 -0.27702137636E+02  0.78061313807E+01  0.94235118099E+02  0.89071766148E+02 0.  0.
         13    1    3    3    0    0 -0.24326222576E+02 -0.29615384017E+02  0.33270218559E+02  0.50751893386E+02  0.10566000000E+00 0.  1.
         22    1    1    0    0    0 -0.10868939305E+02  0.27702137636E+02 -0.78061313807E+01  0.30764881901E+02  0.00000000000E+00 0. -1.
</event>
<event>
 5    1  0.1709463E-003  0.9118800E+02  0.7818608E-02  0.1130116E+00
         25   -1    0    0    0    0  0.00000000000E+00  0.00000000000E+00  0.99999998245E-14  0.12500000000E+03  0.12500000000E+03 0.  0.
        -13    1    3    3    0    0  0.45146773032E+02 -0.53256276567E+01 -0.35005945432E+02  0.57376134453E+02  0.10566000000E+00 0.  1.
         23    2    1    0    0    0  0.78744454883E+01  0.31471187216E+01 -0.27359012498E+02  0.96356906367E+02  0.92001231469E+02 0.  0.
         13    1    3    3    0    0 -0.37272327544E+02  0.84727463784E+01  0.76469329344E+01  0.38980771914E+02  0.10566000000E+00 0. -1.
         22    1    1    0    0    0 -0.78744454883E+01 -0.31471187216E+01  0.27359012498E+02  0.28643093633E+02  0.00000000000E+00 0.  1.
</event>
<event>
 5    1  0.1709463E-003  0.9118800E+02  0.7818608E-02  0.1130116E+00
         25   -1    0    0    0    0  0.00000000000E+00  0.00000000000E+00  0.99999998245E-14  0.12500000000E+03  0.12500000000E+03 0.  0.
        -13    1    3    3    0    0 -0.34418928038E+02  0.32436338912E+02  0.30382308656E+01  0.47392200837E+02  0.10566000000E+00 0.  1.
         23    2    1    0    0    0  0.55805424654E+01  0.31287378152E+02 -0.13211983968E+02  0.90581995900E+02  0.83788417905E+02 0.  0.
         13    1    3    3    0    0  0.39999470504E+02 -0.11489607594E+01 -0.16250214834E+02  0.43189795063E+02  0.10566000000E+00 0. -1.
         22    1    1    0    0    0 -0.55805424654E+01 -0.31287378152E+02  0.13211983968E+02  0.34418004100E+02  0.00000000000E+00 0.  1.
</event>
<event>
 5    1  0.1709463E-003  0.9118800E+02  0.7818608E-02  0.1130116E+00
         25   -1    0    0    0    0  0.00000000000E+00  0.00000000000E+00  0.99999998245E-14  0.12500000000E+03  0.12500000000E+03 0.  0.
        -13    1    3    3    0    0  0.18474344985E+02 -0.30872822696E+02  0.18873023518E+02  0.40628004930E+02  0.10566000000E+00 0.  1.
         23    2    1    0    0    0  0.28130739996E+02  0.62460533187E+01 -0.15630152641E+02  0.92218093613E+02  0.86194683149E+02 0.  0.
         13    1    3    3    0    0  0.96563950115E+01  0.37118876014E+02 -0.34503176159E+02  0.51590088683E+02  0.10566000000E+00 0. -1.
         22    1    1    0    0    0 -0.28130739996E+02 -0.62460533187E+01  0.15630152641E+02  0.32781906387E+02  0.00000000000E+00 0. -1.
</event>
<event>
 5    1  0.1709463E-003  0.9118800E+02  0.7818608E-02  0.1130116E+00
         25   -1    0    0    0    0  0.00000000000E+00  0.00000000000E+00  0.99999998245E-14  0.12500000000E+03  0.12500000000E+03 0.  0.
        -13    1    3    3    0    0 -0.83921439269E+01 -0.47807122859E+02 -0.34151926783E+02  0.59349088811E+02  0.10566000000E+00 0.  1.
         23    2    1    0    0    0 -0.13453142657E+02 -0.10767896608E+02 -0.18026735355E+02  0.10006212053E+03  0.96904747734E+02 0.  0.
         13    1    3    3    0    0 -0.50609987302E+01  0.37039226251E+02  0.16125191427E+02  0.40713031722E+02  0.10566000000E+00 0. -1.
         22    1    1    0    0    0  0.13453142657E+02  0.10767896608E+02  0.18026735355E+02  0.24937879467E+02  0.00000000000E+00 0.  1.
</event>
<event>
 5    1  0.1709463E-003  0.9118800E+02  0.7818608E-02  0.1130116E+00
         25   -1    0    0    0    0  0.00000000000E+00  0.00000000000E+00  0.99999998245E-14  0.12500000000E+03  0.12500000000E+03 0.  0.
        -13    1    3    3    0    0 -0.16009931338E+02 -0.12968866243E+02 -0.49456006142E+02  0.53576273673E+02  0.10566000000E+00 0. -1.
         23    2    1    0    0    0 -0.24497649830E+02 -0.12015230577E+02 -0.70713958983E+01  0.96813030440E+02  0.92618883658E+02 0.  0.
         13    1    3    3    0    0 -0.84877184922E+01  0.95363566611E+00  0.42384610244E+02  0.43236756767E+02  0.10566000000E+00 0.  1.
         22    1    1    0    0    0  0.24497649830E+02  0.12015230577E+02  0.70713958983E+01  0.28186969560E+02  0.00000000000E+00 0. -1.
</event>
<event>
 5    1  0.1709463E-003  0.9118800E+02  0.7818608E-02  0.1130116E+00
         25   -1    0    0    0    0  0.00000000000E+00  0.00000000000E+00  0.99999998245E-14  0.12500000000E+03  0.12500000000E+03 0.  0.
        -13    1    3    3    0    0  0.15904972574E+02 -0.35776153055E+02  0.46490604233E+02  0.60780660789E+02  0.10566000000E+00 0.  1.
         23    2    1    0    0    0  0.30946659522E+01 -0.25394014307E+02  0.17927630299E+02  0.93761676612E+02  0.88404859329E+02 0.  0.
         13    1    3    3    0    0 -0.12810306621E+02  0.10382138748E+02 -0.28562973934E+02  0.32981015823E+02  0.10566000000E+00 0. -1.
         22    1    1    0    0    0 -0.30946659522E+01  0.25394014307E+02 -0.17927630299E+02  0.31238323388E+02  0.00000000000E+00 0.  1.
</event>
<event>
 5    1  0.1709463E-003  0.9118800E+02  0.7818608E-02  0.1130116E+00
         25   -1    0    0    0    0  0.00000000000E+00  0.00000000000E+00  0.99999998245E-14  0.12500000000E+03  0.12500000000E+03 0.  0.
        -13    1    3    3    0    0 -0.10852257415E+02  0.13046617059E+02 -0.57568167158E+02  0.60017420319E+02  0.10566000000E+00 0. -1.
         23    2    1    0    0    0  0.18192086332E+01 -0.41420232184E+01 -0.28808627824E+02  0.95838331435E+02  0.91293936593E+02 0.  0.
         13    1    3    3    0    0  0.12671466049E+02 -0.17188640278E+02  0.28759539334E+02  0.35820911116E+02  0.10566000000E+00 0.  1.
         22    1    1    0    0    0 -0.18192086332E+01  0.41420232184E+01  0.28808627824E+02  0.29161668565E+02  0.00000000000E+00 0. -1.
</event>
<event>
 5    1  0.1709463E-003  0.9118800E+02  0.7818608E-02  0.1130116E+00
         25   -1    0    0    0    0  0.00000000000E+00  0.00000000000E+00  0.99999998245E-14  0.12500000000E+03  0.12500000000E+03 0.  0.
        -13    1    3    3    0    0  0.31515603217E+01 -0.29455191620E+02  0.23973558120E+02  0.38108834918E+02  0.10566000000E+00 0.  1.
         23    2    1    0    0    0 -0.19069052695E+02 -0.69880015946E+00 -0.21456421262E+02  0.96285977193E+02  0.91904811073E+02 0.  0.
         13    1    3    3    0    0 -0.22220613017E+02  0.28756391461E+02 -0.45429979382E+02  0.58177142276E+02  0.10566000000E+00 0. -1.
         22    1    1    0    0    0  0.19069052695E+02  0.69880015946E+00  0.21456421262E+02  0.28714022807E+02  0.00000000000E+00 0. -1.
</event>
<event>
 5    1  0.1709463E-003  0.9118800E+02  0.7818608E-02  0.1130116E+00
         25   -1    0    0    0    0  0.00000000000E+00  0.00000000000E+00  0.99999998245E-14  0.12500000000E+03  0.12500000000E+03 0.  0.
        -13    1    3    3    0    0  0.33877720758E+02 -0.29703726390E+02  0.11708732050E+02  0.46552302794E+02  0.10566000000E+00 0. -1.
         23    2    1    0    0    0 -0.10466072610E+02 -0.17459761617E+02  0.23366911177E+02  0.94009767837E+02  0.88754954561E+02 0.  0.
         13    1    3    3    0    0 -0.44343793368E+02  0.12243964773E+02  0.11658179127E+02  0.47457465042E+02  0.10566000000E+00 0.  1.
         22    1    1    0    0    0  0.10466072610E+02  0.17459761617E+02 -0.23366911177E+02  0.30990232163E+02  0.00000000000E+00 0.  1.
</event>
<event>
 5    1  0.1709463E-003  0.9118800E+02  0.7818608E-02  0.1130116E+00
         25   -1    0    0    0    0  0.00000000000E+00  0.00000000000E+00  0.99999998245E-14  0.12500000000E+03  0.12500000000E+03 0.  0.
        -13    1    3    3    0    0 -0.16754249727E+02  0.40202399231E+02 -0.15212321126E+02  0.46134191939E+02  0.10566000000E+00 0.  1.
         23    2    1    0    0    0 -0.25335305395E+02  0.15305265870E+01  0.14606543329E+02  0.95715681344E+02  0.91125848890E+02 0.  0.
         13    1    3    3    0    0 -0.85810556683E+01 -0.38671872644E+02  0.29818864455E+02  0.49581489405E+02  0.10566000000E+00 0. -1.
         22    1    1    0    0    0  0.25335305395E+02 -0.15305265870E+01 -0.14606543329E+02  0.29284318656E+02  0.00000000000E+00 0. -1.
</event>
<event>
 5    1  0.1709463E-003  0.9118800E+02  0.7818608E-02  0.1130116E+00
         25   -1    0    0    0    0  0.00000000000E+00  0.00000000000E+00  0.99999998245E-14  0.12500000000E+03  0.12500000000E+03 0.  0.
        -13    1    3    3    0    0 -0.51607946350E+02  0.31221790139E+02 -0.94850453774E+01  0.61058640304E+02  0.10566000000E+00 0. -1.
         23    2    1    0    0    0 -0.28199976621E+02  0.82536082152E+01  0.13200887830E+01  0.95587360465E+02  0.90949657043E+02 0.  0.
         13    1    3    3    0    0  0.23407969729E+02 -0.22968181924E+02  0.10805134160E+02  0.34528720161E+02  0.10566000000E+00 0.  1.
         22    1    1    0    0    0  0.28199976621E+02 -0.82536082152E+01 -0.13200887830E+01  0.29412639535E+02  0.00000000000E+00 0. -1.
</event>
<event>
 5    1  0.1709463E-003  0.9118800E+02  0.7818608E-02  0.1130116E+00
         25   -1    0    0    0    0  0.00000000000E+00  0.00000000000E+00  0.99999998245E-14  0.12500000000E+03  0.12500000000E+03 0.  0.
        -13    1    3    3    0    0 -0.19086206775E+02  0.40452268915E+02 -0.27716823120E+02  0.52620364854E+02  0.10566000000E+00 0. -1.
         23    2    1    0    0    0 -0.18044759949E+01  0.24573928514E+01 -0.30400341704E+02  0.94447165615E+02  0.89368850298E+02 0.  0.
         13    1    3    3    0    0  0.17281730780E+02 -0.37994876064E+02 -0.26835185838E+01  0.41826800761E+02  0.10566000000E+00 0.  1.
         22    1    1    0    0    0  0.18044759949E+01 -0.24573928514E+01  0.30400341704E+02  0.30552834385E+02  0.00000000000E+00 0.  1.
</event>
<event>
 5    1  0.1709463E-003  0.9118800E+02  0.7818608E-02  0.1130116E+00
         25   -1    0    0    0    0  0.00000000000E+00  0.00000000000E+00  0.99999998245E-14  0.12500000000E+03  0.12500000000E+03 0.  0.
        -13    1    3    3    0    0 -0.54371404068E+02 -0.18170456758E+02 -0.84976709840E+01  0.57953745826E+02  0.10566000000E+00 0.  1.
         23    2    1    0    0    0 -0.26872425384E+02  0.84515867642E+01 -0.21860667088E+01  0.96745169395E+02  0.92527251925E+02 0.  0.
         13    1    3    3    0    0  0.27498978684E+02  0.26622043522E+02  0.63116042752E+01  0.38791423569E+02  0.10566000000E+00 0. -1.
         22    1    1    0    0    0  0.26872425384E+02 -0.84515867642E+01  0.21860667088E+01  0.28254830605E+02  0.00000000000E+00 0.  1.
</event>
<event>
 5    1  0.1709463E-003  0.9118800E+02  0.7818608E-02  0.1130116E+00
         25   -1    0    0    0    0  0.00000000000E+00  0.00000000000E+00  0.99999998245E-14  0.12500000000E+03  0.12500000000E+03 0.  0.
        -13    1    3    3    0    0 -0.66278454396E+01 -0.31979931862E+02  0.92962539474E+01  0.33956970986E+02  0.10566000000E+00 0. -1.
         23    2    1    0    0    0 -0.15832224521E+02  0.27353012870E+01 -0.32307255117E+02  0.88918149443E+02  0.81268304774E+02 0.  0.
         13    1    3    3    0    0 -0.92043790818E+01  0.34715233149E+02 -0.41603509064E+02  0.54961178457E+02  0.10566000000E+00 0.  1.
         22    1    1    0    0    0  0.15832224521E+02 -0.27353012870E+01  0.32307255117E+02  0.36081850557E+02  0.00000000000E+00 0.  1.
</event>
<event>
 5    1  0.1709463E-003  0.9118800E+02  0.7818608E-02  0.1130116E+00
         25   -1    0    0    0    0  0.00000000000E+00  0.00000000000E+00  0.99999998245E-14  0.12500000000E+03  0.12500000000E+03 0.  0.
        -13    1    3    3    0    0  0.26282202529E+02 -0.21796471935E+02  0.62313766750E+01  0.34708523130E+02  0.10566000000E+00 0.  1.
         23    2    1    0    0    0 -0.29918350071E+02 -0.29719625429E+01  0.75808370643E+01  0.93993398721E+02  0.88731897760E+02 0.  0.
         13    1    3    3    0    0 -0.56200552600E+02  0.18824509392E+02  0.13494603893E+01  0.59284875590E+02  0.10566000000E+00 0. -1.
         22    1    1    0    0    0  0.29918350071E+02  0.29719625429E+01 -0.75808370643E+01  0.31006601279E+02  0.00000000000E+00 0. -1.
</event>
<event>
 5    1  0.1709463E-003  0.9118800E+02  0.7818608E-02  0.1130116E+00
         25   -1    0    0    0    0  0.00000000000E+00  0.00000000000E+00  0.99999998245E-14  0.12500000000E+03  0.12500000000E+03 0.  0.
        -13    1    3    3    0    0 -0.22847934351E+02  0.15983360211E+02  0.26508677007E+02  0.38473588713E+02  0.10566000000E+00 0.  1.
         23    2    1    0    0    0  0.16094332424E+02  0.11145841892E+02 -0.18415061538E+02  0.98123024368E+02  0.94370313616E+02 0.  0.
         13    1    3    3    0    0  0.38942266775E+02 -0.48375183196E+01 -0.44923738545E+02  0.59649435655E+02  0.10566000000E+00 0. -1.
         22    1    1    0    0    0 -0.16094332424E+02 -0.11145841892E+02  0.18415061538E+02  0.26876975632E+02  0.00000000000E+00 0. -1.
</event>
<event>
 5    1  0.1709463E-003  0.9118800E+02  0.7818608E-02  0.1130116E+00
         25   -1    0    0    0    0  0.00000000000E+00  0.00000000000E+00  0.99999998245E-14  0.12500000000E+03  0.12500000000E+03 0.  0.
        -13    1    3    3    0    0  0.26228829614E+00  0.39786800258E+02  0.11810083251E+02  0.41503584187E+02  0.10566000000E+00 0.  1.
         23    2    1    0    0    0 -0.14688268597E+02  0.27282142480E+01 -0.25027209691E+02  0.95852965635E+02  0.91313971596E+02 0.  0.
         13    1    3    3    0    0 -0.14950556894E+02 -0.37058586010E+02 -0.36837292942E+02  0.54349381448E+02  0.10566000000E+00 0. -1.
         22    1    1    0    0    0  0.14688268597E+02 -0.27282142480E+01  0.25027209691E+02  0.29147034365E+02  0.00000000000E+00 0. -1.
</event>
<event>
 5    1  0.1709463E-003  0.9118800E+02  0.7818608E-02  0.1130116E+00
         25   -1    0    0    0    0  0.00000000000E+00  0.00000000000E+00  0.99999998245E-14  0.12500000000E+03  0.12500000000E+03 0.  0.
        -13    1    3    3    0    0 -0.42274703200E+02  0.62180560517E+01  0.41591023600E+02  0.59629180439E+02  0.10566000000E+00 0. -1.
         23    2    1    0    0    0 -0.84752405838E+01  0.11830693915E+02  0.20488484573E+02  0.99868883400E+02  0.96655164632E+02 0.  0.
         13    1    3    3    0    0  0.33799462616E+02  0.56126378635E+01 -0.21102539027E+02  0.40239702961E+02  0.10566000000E+00 0.  1.
         22    1    1    0    0    0  0.84752405838E+01 -0.11830693915E+02 -0.20488484573E+02  0.25131116600E+02  0.00000000000E+00 0. -1.
</event>
<event>
 5    1  0.1709463E-003  0.9118800E+02  0.7818608E-02  0.1130116E+00
         25   -1    0    0    0    0  0.00000000000E+00  0.00000000000E+00  0.99999998245E-14  0.12500000000E+03  0.12500000000E+03 0.  0.
        -13    1    3    3    0    0  0.53926736813E+02  0.21428859012E+01  0.71389006319E+01  0.54439507433E+02  0.10566000000E+00 0. -1.
         23    2    1    0    0    0  0.23155931111E+02 -0.13092094452E+02 -0.14180289150E+02  0.94855669138E+02  0.89938408283E+02 0.  0.
         13    1    3    3    0    0 -0.30770805702E+02 -0.15234980353E+02 -0.21319189782E+02  0.40416161705E+02  0.10566000000E+00 0.  1.
         22    1    1    0    0    0 -0.23155931111E+02  0.13092094452E+02  0.14180289150E+02  0.30144330862E+02  0.00000000000E+00 0. -1.
</event>
<event>
 5    1  0.1709463E-003  0.9118800E+02  0.7818608E-02  0.1130116E+00
         25   -1    0    0    0    0  0.00000000000E+00  0.00000000000E+00  0.99999998245E-14  0.12500000000E+03  0.12500000000E+03 0.  0.
        -13    1    3    3    0    0 -0.32532106492E+02 -0.14154271582E+02  0.23374504443E+02  0.42485997443E+02  0.10566000000E+00 0.  1.
         23    2    1    0    0    0 -0.10139804570E+01  0.26988479489E+02  0.11435475543E+02  0.95671237967E+02  0.91064864200E+02 0.  0.
         13    1    3    3    0    0  0.31518126034E+02  0.41142751071E+02 -0.11939028900E+02  0.53185240523E+02  0.10566000000E+00 0. -1.
         22    1    1    0    0    0  0.10139804570E+01 -0.26988479489E+02 -0.11435475543E+02  0.29328762033E+02  0.00000000000E+00 0. -1.
</event>
<event>
 5    1  0.1709463E-003  0.9118800E+02  0.7818608E-02  0.1130116E+00
         25   -1    0    0    0    0  0.00000000000E+00  0.00000000000E+00  0.99999998245E-14  0.12500000000E+03  0.12500000000E+03 0.  0.
        -13    1    3    3    0    0 -0.39228775567E+02 -0.30073555057E+02 -0.51532173497E+01  0.49697911016E+02  0.10566000000E+00 0.  1.
         23    2    1    0    0    0  0.46503820025E+01 -0.22213796992E+02 -0.17936839446E+02  0.96072348196E+02  0.91613792897E+02 0.  0.
         13    1    3    3    0    0  0.43879157570E+02  0.78597580643E+01 -0.12783622096E+02  0.46374437180E+02  0.10566000000E+00 0. -1.
         22    1    1    0    0    0 -0.46503820025E+01  0.22213796992E+02  0.17936839446E+02  0.28927651804E+02  0.00000000000E+00 0. -1.
</event>
<event>
 5    1  0.1709463E-003  0.9118800E+02  0.7818608E-02  0.1130116E+00
         25   -1    0    0    0    0  0.00000000000E+00  0.00000000000E+00  0.99999998245E-14  0.12500000000E+03  0.12500000000E+03 0.  0.
        -13    1    3    3    0    0  0.41193568816E+02 -0.17796287822E+02  0.40221687509E+02  0.60261208768E+02  0.10566000000E+00 0. -1.
         23    2    1    0    0    0  0.11789132965E+02 -0.17767723688E+02  0.16997929287E+02  0.97730873480E+02  0.93849445230E+02 0.  0.
         13    1    3    3    0    0 -0.29404435851E+02  0.28564133602E-01 -0.23223758222E+02  0.37469664712E+02  0.10566000000E+00 0.  1.
         22    1    1    0    0    0 -0.11789132965E+02  0.17767723688E+02 -0.16997929287E+02  0.27269126520E+02  0.00000000000E+00 0. -1.
</event>
<event>
 5    1  0.1709463E-003  0.9118800E+02  0.7818608E-02  0.1130116E+00
         25   -1    0    0    0    0  0.00000000000E+00  0.00000000000E+00  0.99999998245E-14  0.12500000000E+03  0.12500000000E+03 0.  0.
        -13    1    3    3    0    0  0.24837319584E+02  0.46326452272E+02 -0.31079055433E+02  0.61065141242E+02  0.10566000000E+00 0.  1.
         23    2    1    0    0    0  0.19182704775E+02  0.17236998768E+02 -0.10442851265E+02  0.97176566863E+02  0.93108225822E+02 0.  0.
         13    1    3    3    0    0 -0.56546148094E+01 -0.29089453505E+02  0.20636204168E+02  0.36111425621E+02  0.10566000000E+00 0. -1.
         22    1    1    0    0    0 -0.19182704775E+02 -0.17236998768E+02  0.10442851265E+02  0.27823433137E+02  0.00000000000E+00 0.  1.
</event>
<event>
 5    1  0.1709463E-003  0.9118800E+02  0.7818608E-02  0.1130116E+00
         25   -1    0    0    0    0  0.00000000000E+00  0.00000000000E+00  0.99999998245E-14  0.12500000000E+03  0.12500000000E+03 0.  0.
        -13    1    3    3    0    0 -0.77862498568E+01 -0.67579409410E+01 -0.42783920962E+02  0.44008754919E+02  0.10566000000E+00 0. -1.
         23    2    1    0    0    0  0.91499630386E+01  0.26971456446E+02 -0.29431968724E+02  0.84043656542E+02  0.73388787533E+02 0.  0.
         13    1    3    3    0    0  0.16936212895E+02  0.33729397387E+02  0.13351952238E+02  0.40034901623E+02  0.10566000000E+00 0.  1.
         22    1    1    0    0    0 -0.91499630386E+01 -0.26971456446E+02  0.29431968724E+02  0.40956343458E+02  0.00000000000E+00 0.  1.
</event>
<event>
 5    1  0.1709463E-003  0.9118800E+02  0.7818608E-02  0.1130116E+00
         25   -1    0    0    0    0  0.00000000000E+00  0.00000000000E+00  0.99999998245E-14  0.12500000000E+03  0.12500000000E+03 0.  0.
        -13    1    3    3    0    0  0.35784038216E+02 -0.67795485160E+01 -0.14785275897E+02  0.39307444798E+02  0.10566000000E+00 0. -1.
         23    2    1    0    0    0 -0.91260208331E+01  0.18992870634E+02 -0.25227842451E+02  0.92129687773E+02  0.86066381028E+02 0.  0.
         13    1    3    3    0    0 -0.44910059049E+02  0.25772419150E+02 -0.10442566554E+02  0.52822242975E+02  0.10566000000E+00 0.  1.
         22    1    1    0    0    0  0.91260208331E+01 -0.18992870634E+02  0.25227842451E+02  0.32870312227E+02  0.00000000000E+00 0.  1.
</event>
<event>
 5    1  0.1709463E-003  0.9118800E+02  0.7818608E-02  0.1130116E+00
         25   -1    0    0    0    0  0.00000000000E+00  0.00000000000E+00  0.99999998245E-14  0.12500000000E+03  0.12500000000E+03 0.  0.
        -13    1    3    3    0    0 -0.80348634459E+01 -0.21673838313E+02  0.36465150113E+02  0.43174444230E+02  0.10566000000E+00 0. -1.
         23    2    1    0    0    0 -0.16367728587E+01  0.25458846968E+02  0.10064622824E+02  0.97575037886E+02  0.93641654575E+02 0.  0.
         13    1    3    3    0    0  0.63980905872E+01  0.47132685281E+02 -0.26400527289E+02  0.54400593656E+02  0.10566000000E+00 0.  1.
         22    1    1    0    0    0  0.16367728587E+01 -0.25458846968E+02 -0.10064622824E+02  0.27424962114E+02  0.00000000000E+00 0.  1.
</event>
<event>
 5    1  0.1709463E-003  0.9118800E+02  0.7818608E-02  0.1130116E+00
         25   -1    0    0    0    0  0.00000000000E+00  0.00000000000E+00  0.99999998245E-14  0.12500000000E+03  0.12500000000E+03 0.  0.
        -13    1    3    3    0    0 -0.36684021338E+02  0.24543354794E+02  0.41937574820E+02  0.60884029367E+02  0.10566000000E+00 0. -1.
         23    2    1    0    0    0 -0.13342739296E+02  0.19307192892E+02  0.13965248984E+02  0.97690211124E+02  0.93795270568E+02 0.  0.
         13    1    3    3    0    0  0.23341282041E+02 -0.52361619025E+01 -0.27972325836E+02  0.36806181757E+02  0.10566000000E+00 0.  1.
         22    1    1    0    0    0  0.13342739296E+02 -0.19307192892E+02 -0.13965248984E+02  0.27309788876E+02  0.00000000000E+00 0. -1.
</event>
<event>
 5    1  0.1709463E-003  0.9118800E+02  0.7818608E-02  0.1130116E+00
         25   -1    0    0    0    0  0.00000000000E+00  0.00000000000E+00  0.99999998245E-14  0.12500000000E+03  0.12500000000E+03 0.  0.
        -13    1    3    3    0    0  0.32528806662E+02  0.16731188098E+02 -0.13998412110E+02  0.39166600869E+02  0.10566000000E+00 0.  1.
         23    2    1    0    0    0 -0.12330445606E+02  0.14429978937E+02  0.21428291265E+02  0.96374210098E+02  0.92024738655E+02 0.  0.
         13    1    3    3    0    0 -0.44859252268E+02 -0.23012091612E+01  0.35426703374E+02  0.57207609229E+02  0.10566000000E+00 0. -1.
         22    1    1    0    0    0  0.12330445606E+02 -0.14429978937E+02 -0.21428291265E+02  0.28625789902E+02  0.00000000000E+00 0. -1.
</event>
<event>
 5    1  0.1709463E-003  0.9118800E+02  0.7818608E-02  0.1130116E+00
         25   -1    0    0    0    0  0.00000000000E+00  0.00000000000E+00  0.99999998245E-14  0.12500000000E+03  0.12500000000E+03 0.  0.
        -13    1    3    3    0    0 -0.41613102301E+00 -0.13321019853E+02 -0.42150883706E+02  0.44207814877E+02  0.10566000000E+00 0. -1.
         23    2    1    0    0    0 -0.26996471512E+02 -0.12694938210E+02  0.12903630696E+01  0.95139725937E+02  0.90332339083E+02 0.  0.
         13    1    3    3    0    0 -0.26580340489E+02  0.62608164274E+00  0.43441246776E+02  0.50931911060E+02  0.10566000000E+00 0.  1.
         22    1    1    0    0    0  0.26996471512E+02  0.12694938210E+02 -0.12903630696E+01  0.29860274063E+02  0.00000000000E+00 0.  1.
</event>
<event>
 5    1  0.1709463E-003  0.9118800E+02  0.7818608E-02  0.1130116E+00
         25   -1    0    0    0    0  0.00000000000E+00  0.00000000000E+00  0.99999998245E-14  0.12500000000E+03  0.12500000000E+03 0.  0.
        -13    1    3    3    0    0 -0.64157527997E+01 -0.16828305677E+02  0.36602533903E+02  0.40793509387E+02  0.10566000000E+00 0. -1.
         23    2    1    0    0    0  0.22536774117E+02 -0.15509692320E+02 -0.10165957504E+02  0.95814328251E+02  0.91261065427E+02 0.  0.
         13    1    3    3    0    0  0.28952526916E+02  0.13186133578E+01 -0.46768491407E+02  0.55020818865E+02  0.10566000000E+00 0.  1.
         22    1    1    0    0    0 -0.22536774117E+02  0.15509692320E+02  0.10165957504E+02  0.29185671749E+02  0.00000000000E+00 0.  1.
</event>
<event>
 5    1  0.1709463E-003  0.9118800E+02  0.7818608E-02  0.1130116E+00
         25   -1    0    0    0    0  0.00000000000E+00  0.00000000000E+00  0.99999998245E-14  0.12500000000E+03  0.12500000000E+03 0.  0.
        -13    1    3    3    0    0 -0.97082655767E+01 -0.41365661575E+01  0.32069052725E+02  0.33760878348E+02  0.10566000000E+00 0.  1.
         23    2    1    0    0    0  0.78187973270E+01 -0.36073572364E+00 -0.27728198372E+02  0.96188254012E+02  0.91771801241E+02 0.  0.
         13    1    3    3    0    0  0.17527062904E+02  0.37758304339E+01 -0.59797251097E+02  0.62427375664E+02  0.10566000000E+00 0. -1.
         22    1    1    0    0    0 -0.78187973270E+01  0.36073572364E+00  0.27728198372E+02  0.28811745988E+02  0.00000000000E+00 0. -1.
</event>
<event>
 5    1  0.1709463E-003  0.9118800E+02  0.7818608E-02  0.1130116E+00
         25   -1    0    0    0    0  0.00000000000E+00  0.00000000000E+00  0.99999998245E-14  0.12500000000E+03  0.12500000000E+03 0.  0.
        -13    1    3    3    0    0  0.38131304108E+01 -0.37701283858E+02 -0.12374961380E+02  0.39863236212E+02  0.10566000000E+00 0.  1.
         23    2    1    0    0    0 -0.92951474335E+01  0.16916846194E+02 -0.20757807399E+02  0.96654523836E+02  0.92404712861E+02 0.  0.
         13    1    3    3    0    0 -0.13108277844E+02  0.54618130053E+02 -0.83828460184E+01  0.56791287623E+02  0.10566000000E+00 0. -1.
         22    1    1    0    0    0  0.92951474335E+01 -0.16916846194E+02  0.20757807399E+02  0.28345476164E+02  0.00000000000E+00 0. -1.
</event>
<event>
 5    1  0.1709463E-003  0.9118800E+02  0.7818608E-02  0.1130116E+00
         25   -1    0    0    0    0  0.00000000000E+00  0.00000000000E+00  0.99999998245E-14  0.12500000000E+03  0.12500000000E+03 0.  0.
        -13    1    3    3    0    0  0.45067641719E+02  0.57732846196E+01  0.33887879166E+02  0.56681766590E+02  0.10566000000E+00 0. -1.
         23    2    1    0    0    0  0.94261723346E+01  0.19070351935E+02  0.12660423852E+02  0.10024485145E+03  0.97140171204E+02 0.  0.
         13    1    3    3    0    0 -0.35641469384E+02  0.13297067315E+02 -0.21227455314E+02  0.43563084856E+02  0.10566000000E+00 0.  1.
         22    1    1    0    0    0 -0.94261723346E+01 -0.19070351935E+02 -0.12660423852E+02  0.24755148554E+02  0.00000000000E+00 0.  1.
</event>
<event>
 5    1  0.1709463E-003  0.9118800E+02  0.7818608E-02  0.1130116E+00
         25   -1    0    0    0    0  0.00000000000E+00  0.00000000000E+00  0.99999998245E-14  0.12500000000E+03  0.12500000000E+03 0.  0.
        -13    1    3    3    0    0  0.14944281974E+02 -0.35899431002E+02  0.16112521259E+02  0.42091866380E+02  0.10566000000E+00 0. -1.
         23    2    1    0    0    0 -0.26314791520E+02 -0.73401486276E+01  0.17961287024E+02  0.92305140065E+02  0.86320826086E+02 0.  0.
         13    1    3    3    0    0 -0.41259073494E+02  0.28559282374E+02  0.18487657648E+01  0.50213273685E+02  0.10566000000E+00 0.  1.
         22    1    1    0    0    0  0.26314791520E+02  0.73401486276E+01 -0.17961287024E+02  0.32694859935E+02  0.00000000000E+00 0.  1.
</event>
<event>
 5    1  0.1709463E-003  0.9118800E+02  0.7818608E-02  0.1130116E+00
         25   -1    0    0    0    0  0.00000000000E+00  0.00000000000E+00  0.99999998245E-14  0.12500000000E+03  0.12500000000E+03 0.  0.
        -13    1    3    3    0    0 -0.46945214450E+01 -0.38131160033E+02  0.30603423463E+02  0.49118271435E+02  0.10566000000E+00 0.  1.
         23    2    1    0    0    0  0.23241087944E+02 -0.15909084313E+02 -0.10332985498E+01  0.96816408348E+02  0.92623442427E+02 0.  0.
         13    1    3    3    0    0  0.27935609389E+02  0.22222075720E+02 -0.31636722013E+02  0.47698136913E+02  0.10566000000E+00 0. -1.
         22    1    1    0    0    0 -0.23241087944E+02  0.15909084313E+02  0.10332985498E+01  0.28183591652E+02  0.00000000000E+00 0. -1.
</event>
<event>
 4    1  0.1709463E-003  0.9118800E+02  0.7818608E-02  0.1130116E+00
         25   -1    0    0    0    0  0.00000000000E+00  0.00000000000E+00  0.99999998245E-14  0.12500000000E+03  0.12500000000E+03 0.  0.
        -13    1    1    0    0    0 -0.20710140568E+02  0.29853811801E+02  0.30787734728E+02  0.47624109179E+02  0.10566000000E+00 0.  1.
         13    1    1    0    0    0  0.12023295815E+02  0.79421841663E+01  0.12628827297E+02  0.19160803077E+02  0.10566000000E+00 0. -1.
         22    1    1    0    0    0  0.86868447529E+01 -0.37795995968E+02 -0.43416562025E+02  0.58215087744E+02  0.00000000000E+00 0. -1.
</event>
<event>
 5    1  0.1709463E-003  0.9118800E+02  0.7818608E-02  0.1130116E+00
         25   -1    0    0    0    0  0.00000000000E+00  0.00000000000E+00  0.99999998245E-14  0.12500000000E+03  0.12500000000E+03 0.  0.
        -13    1    3    3    0    0 -0.42900247132E+02  0.19060546867E+02  0.32226215283E+02  0.56940984944E+02  0.10566000000E+00 0.  1.
         23    2    1    0    0    0 -0.16682827505E+02  0.23508083803E+02  0.37036532326E+01  0.95936899943E+02  0.91428797354E+02 0.  0.
         13    1    3    3    0    0  0.26217419627E+02  0.44475369357E+01 -0.28522562050E+02  0.38995914999E+02  0.10566000000E+00 0. -1.
         22    1    1    0    0    0  0.16682827505E+02 -0.23508083803E+02 -0.37036532326E+01  0.29063100057E+02  0.00000000000E+00 0.  1.
</event>
<event>
 5    1  0.1709463E-003  0.9118800E+02  0.7818608E-02  0.1130116E+00
         25   -1    0    0    0    0  0.00000000000E+00  0.00000000000E+00  0.99999998245E-14  0.12500000000E+03  0.12500000000E+03 0.  0.
        -13    1    3    3    0    0  0.23590554060E+02 -0.18038227350E+02  0.19088566330E+02  0.35302640345E+02  0.10566000000E+00 0. -1.
         23    2    1    0    0    0  0.36182181792E+01 -0.74537779517E+01 -0.32412193810E+02  0.91545544152E+02  0.85213766716E+02 0.  0.
         13    1    3    3    0    0 -0.19972335880E+02  0.10584449398E+02 -0.51500760140E+02  0.56242903807E+02  0.10566000000E+00 0.  1.
         22    1    1    0    0    0 -0.36182181792E+01  0.74537779517E+01  0.32412193810E+02  0.33454455848E+02  0.00000000000E+00 0.  1.
</event>
<event>
 5    1  0.1709463E-003  0.9118800E+02  0.7818608E-02  0.1130116E+00
         25   -1    0    0    0    0  0.00000000000E+00  0.00000000000E+00  0.99999998245E-14  0.12500000000E+03  0.12500000000E+03 0.  0.
        -13    1    3    3    0    0  0.23689566145E+02 -0.50268364628E+01  0.45569639022E+02  0.51604920246E+02  0.10566000000E+00 0. -1.
         23    2    1    0    0    0 -0.79511657280E+01 -0.20390385540E+02  0.22145954085E+02  0.93864294753E+02  0.88549837313E+02 0.  0.
         13    1    3    3    0    0 -0.31640731873E+02 -0.15363549077E+02 -0.23423684936E+02  0.42259374507E+02  0.10566000000E+00 0.  1.
         22    1    1    0    0    0  0.79511657280E+01  0.20390385540E+02 -0.22145954085E+02  0.31135705247E+02  0.00000000000E+00 0. -1.
</event>
<event>
 5    1  0.1709463E-003  0.9118800E+02  0.7818608E-02  0.1130116E+00
         25   -1    0    0    0    0  0.00000000000E+00  0.00000000000E+00  0.99999998245E-14  0.12500000000E+03  0.12500000000E+03 0.  0.
        -13    1    3    3    0    0  0.23620048799E+02 -0.24400931625E+01  0.40490599102E+02  0.46939967401E+02  0.10566000000E+00 0.  1.
         23    2    1    0    0    0 -0.11596232483E+02  0.21245641406E+02  0.16695551614E+02  0.95596066076E+02  0.90961621132E+02 0.  0.
         13    1    3    3    0    0 -0.35216281281E+02  0.23685734568E+02 -0.23795047488E+02  0.48656098675E+02  0.10566000000E+00 0. -1.
         22    1    1    0    0    0  0.11596232483E+02 -0.21245641406E+02 -0.16695551614E+02  0.29403933924E+02  0.00000000000E+00 0.  1.
</event>
<event>
 5    1  0.1709463E-003  0.9118800E+02  0.7818608E-02  0.1130116E+00
         25   -1    0    0    0    0  0.00000000000E+00  0.00000000000E+00  0.99999998245E-14  0.12500000000E+03  0.12500000000E+03 0.  0.
        -13    1    3    3    0    0  0.53892372981E+01  0.61287162006E+02  0.80003211337E+01  0.62041731179E+02  0.10566000000E+00 0. -1.
         23    2    1    0    0    0 -0.27845457696E+01  0.29307116575E+02  0.36428339896E+01  0.95336368790E+02  0.90604040735E+02 0.  0.
         13    1    3    3    0    0 -0.81737830678E+01 -0.31980045431E+02 -0.43574871441E+01  0.33294637611E+02  0.10566000000E+00 0.  1.
         22    1    1    0    0    0  0.27845457696E+01 -0.29307116575E+02 -0.36428339896E+01  0.29663631210E+02  0.00000000000E+00 0. -1.
</event>
<event>
 5    1  0.1709463E-003  0.9118800E+02  0.7818608E-02  0.1130116E+00
         25   -1    0    0    0    0  0.00000000000E+00  0.00000000000E+00  0.99999998245E-14  0.12500000000E+03  0.12500000000E+03 0.  0.
        -13    1    3    3    0    0 -0.52200708606E+01  0.95175440362E+01  0.48121571902E+02  0.49330818264E+02  0.10566000000E+00 0. -1.
         23    2    1    0    0    0 -0.27659989734E+02 -0.37100659570E+00  0.82612597995E+01  0.96130273790E+02  0.91692793869E+02 0.  0.
         13    1    3    3    0    0 -0.22439918873E+02 -0.98885506319E+01 -0.39860312102E+02  0.46799455526E+02  0.10566000000E+00 0.  1.
         22    1    1    0    0    0  0.27659989734E+02  0.37100659570E+00 -0.82612597995E+01  0.28869726210E+02  0.00000000000E+00 0.  1.
</event>
<event>
 5    1  0.1709463E-003  0.9118800E+02  0.7818608E-02  0.1130116E+00
         25   -1    0    0    0    0  0.00000000000E+00  0.00000000000E+00  0.99999998245E-14  0.12500000000E+03  0.12500000000E+03 0.  0.
        -13    1    3    3    0    0 -0.34522953885E+02 -0.14369848912E+02  0.46555997384E+02  0.59714311175E+02  0.10566000000E+00 0. -1.
         23    2    1    0    0    0 -0.84871498034E+01  0.69420058008E+01  0.18370423327E+02  0.10360617824E+03  0.10137329313E+03 0.  0.
         13    1    3    3    0    0  0.26035804081E+02  0.21311854713E+02 -0.28185574057E+02  0.43891867064E+02  0.10566000000E+00 0.  1.
         22    1    1    0    0    0  0.84871498034E+01 -0.69420058008E+01 -0.18370423327E+02  0.21393821761E+02  0.00000000000E+00 0. -1.
</event>
<event>
 5    1  0.1709463E-003  0.9118800E+02  0.7818608E-02  0.1130116E+00
         25   -1    0    0    0    0  0.00000000000E+00  0.00000000000E+00  0.99999998245E-14  0.12500000000E+03  0.12500000000E+03 0.  0.
        -13    1    3    3    0    0  0.37223375203E+02  0.11726543283E+02 -0.16729905757E+02  0.42461657875E+02  0.10566000000E+00 0.  1.
         23    2    1    0    0    0 -0.10977780191E+02 -0.71488763041E+01 -0.26774458083E+02  0.95192455720E+02  0.90405276008E+02 0.  0.
         13    1    3    3    0    0 -0.48201155394E+02 -0.18875419587E+02 -0.10044552326E+02  0.52730797845E+02  0.10566000000E+00 0. -1.
         22    1    1    0    0    0  0.10977780191E+02  0.71488763041E+01  0.26774458083E+02  0.29807544280E+02  0.00000000000E+00 0. -1.
</event>
<event>
 5    1  0.1709463E-003  0.9118800E+02  0.7818608E-02  0.1130116E+00
         25   -1    0    0    0    0  0.00000000000E+00  0.00000000000E+00  0.99999998245E-14  0.12500000000E+03  0.12500000000E+03 0.  0.
        -13    1    3    3    0    0 -0.95356924848E+01 -0.27897962188E+02  0.22397186689E+02  0.37025273274E+02  0.10566000000E+00 0. -1.
         23    2    1    0    0    0  0.22060408455E+02  0.17813452850E+02  0.82709545550E+00  0.96633385635E+02  0.92376113843E+02 0.  0.
         13    1    3    3    0    0  0.31596100940E+02  0.45711415038E+02 -0.21570091234E+02  0.59608112361E+02  0.10566000000E+00 0.  1.
         22    1    1    0    0    0 -0.22060408455E+02 -0.17813452850E+02 -0.82709545550E+00  0.28366614365E+02  0.00000000000E+00 0.  1.
</event>
<event>
 5    1  0.1709463E-003  0.9118800E+02  0.7818608E-02  0.1130116E+00
         25   -1    0    0    0    0  0.00000000000E+00  0.00000000000E+00  0.99999998245E-14  0.12500000000E+03  0.12500000000E+03 0.  0.
        -13    1    3    3    0    0  0.46965654572E+02 -0.24506873290E+02 -0.19886533789E+01  0.53012502809E+02  0.10566000000E+00 0.  1.
         23    2    1    0    0    0 -0.28189050350E+01 -0.21728784626E+02  0.17806506976E+01  0.10301689231E+03  0.10064404144E+03 0.  0.
         13    1    3    3    0    0 -0.49784559607E+02  0.27780886648E+01  0.37693040765E+01  0.50004389499E+02  0.10566000000E+00 0. -1.
         22    1    1    0    0    0  0.28189050350E+01  0.21728784626E+02 -0.17806506976E+01  0.21983107692E+02  0.00000000000E+00 0.  1.
</event>
<event>
 5    1  0.1709463E-003  0.9118800E+02  0.7818608E-02  0.1130116E+00
         25   -1    0    0    0    0  0.00000000000E+00  0.00000000000E+00  0.99999998245E-14  0.12500000000E+03  0.12500000000E+03 0.  0.
        -13    1    3    3    0    0 -0.20637353758E+02 -0.32599111615E+02 -0.44557527751E+02  0.58940536913E+02  0.10566000000E+00 0.  1.
         23    2    1    0    0    0  0.13087680666E+01 -0.90914360617E+01 -0.28834022604E+02  0.94738342030E+02  0.89775194278E+02 0.  0.
         13    1    3    3    0    0  0.21946121825E+02  0.23507675553E+02  0.15723505147E+02  0.35797805117E+02  0.10566000000E+00 0. -1.
         22    1    1    0    0    0 -0.13087680666E+01  0.90914360617E+01  0.28834022604E+02  0.30261657970E+02  0.00000000000E+00 0.  1.
</event>
<event>
 5    1  0.1709463E-003  0.9118800E+02  0.7818608E-02  0.1130116E+00
         25   -1    0    0    0    0  0.00000000000E+00  0.00000000000E+00  0.99999998245E-14  0.12500000000E+03  0.12500000000E+03 0.  0.
        -13    1    3    3    0    0 -0.51403435251E+02  0.16913446761E+02 -0.28641917633E+02  0.61227023827E+02  0.10566000000E+00 0.  1.
         23    2    1    0    0    0 -0.17592206534E+02  0.62372884492E+01 -0.19839922557E+02  0.97760102331E+02  0.93888367665E+02 0.  0.
         13    1    3    3    0    0  0.33811228717E+02 -0.10676158312E+02  0.88019950762E+01  0.36533078505E+02  0.10566000000E+00 0. -1.
         22    1    1    0    0    0  0.17592206534E+02 -0.62372884492E+01  0.19839922557E+02  0.27239897669E+02  0.00000000000E+00 0.  1.
</event>
<event>
 5    1  0.1709463E-003  0.9118800E+02  0.7818608E-02  0.1130116E+00
         25   -1    0    0    0    0  0.00000000000E+00  0.00000000000E+00  0.99999998245E-14  0.12500000000E+03  0.12500000000E+03 0.  0.
        -13    1    3    3    0    0 -0.39586429140E+01 -0.11186844670E+01  0.33012634410E+02  0.33268115417E+02  0.10566000000E+00 0.  1.
         23    2    1    0    0    0  0.40087776856E+00  0.15890219149E+02 -0.25827923089E+02  0.94672761770E+02  0.89683836015E+02 0.  0.
         13    1    3    3    0    0  0.43595206826E+01  0.17008903616E+02 -0.58840557499E+02  0.61404646352E+02  0.10566000000E+00 0. -1.
         22    1    1    0    0    0 -0.40087776856E+00 -0.15890219149E+02  0.25827923089E+02  0.30327238230E+02  0.00000000000E+00 0. -1.
</event>
<event>
 5    1  0.1709463E-003  0.9118800E+02  0.7818608E-02  0.1130116E+00
         25   -1    0    0    0    0  0.00000000000E+00  0.00000000000E+00  0.99999998245E-14  0.12500000000E+03  0.12500000000E+03 0.  0.
        -13    1    3    3    0    0  0.40448414025E+02 -0.16010819589E+01  0.71972474503E+01  0.41115072607E+02  0.10566000000E+00 0.  1.
         23    2    1    0    0    0 -0.15058813445E+01  0.22570065928E+02 -0.18360993202E+02  0.95865799720E+02  0.91331538529E+02 0.  0.
         13    1    3    3    0    0 -0.41954295370E+02  0.24171147887E+02 -0.25558240652E+02  0.54750727113E+02  0.10566000000E+00 0. -1.
         22    1    1    0    0    0  0.15058813445E+01 -0.22570065928E+02  0.18360993202E+02  0.29134200280E+02  0.00000000000E+00 0. -1.
</event>
<event>
 5    1  0.1709463E-003  0.9118800E+02  0.7818608E-02  0.1130116E+00
         25   -1    0    0    0    0  0.00000000000E+00  0.00000000000E+00  0.99999998245E-14  0.12500000000E+03  0.12500000000E+03 0.  0.
        -13    1    3    3    0    0 -0.36958796168E+02 -0.23998575510E+02 -0.14344885788E+02  0.46342973071E+02  0.10566000000E+00 0.  1.
         23    2    1    0    0    0 -0.11589153872E+02 -0.12324088685E+02  0.25135155779E+02  0.94702018130E+02  0.89724603831E+02 0.  0.
         13    1    3    3    0    0  0.25369642297E+02  0.11674486826E+02  0.39480041567E+02  0.48359045059E+02  0.10566000000E+00 0. -1.
         22    1    1    0    0    0  0.11589153872E+02  0.12324088685E+02 -0.25135155779E+02  0.30297981870E+02  0.00000000000E+00 0.  1.
</event>
<event>
 5    1  0.1709463E-003  0.9118800E+02  0.7818608E-02  0.1130116E+00
         25   -1    0    0    0    0  0.00000000000E+00  0.00000000000E+00  0.99999998245E-14  0.12500000000E+03  0.12500000000E+03 0.  0.
        -13    1    3    3    0    0 -0.35208186176E+02  0.12159479426E+02 -0.25959199186E+02  0.45402208098E+02  0.10566000000E+00 0. -1.
         23    2    1    0    0    0  0.15787479004E+02  0.27704231989E+01 -0.22505490436E+02  0.97370001126E+02  0.93367554758E+02 0.  0.
         13    1    3    3    0    0  0.50995665181E+02 -0.93890562269E+01  0.34537087498E+01  0.51967793028E+02  0.10566000000E+00 0.  1.
         22    1    1    0    0    0 -0.15787479004E+02 -0.27704231989E+01  0.22505490436E+02  0.27629998874E+02  0.00000000000E+00 0.  1.
</event>
<event>
 5    1  0.1709463E-003  0.9118800E+02  0.7818608E-02  0.1130116E+00
         25   -1    0    0    0    0  0.00000000000E+00  0.00000000000E+00  0.99999998245E-14  0.12500000000E+03  0.12500000000E+03 0.  0.
        -13    1    3    3    0    0  0.27547248179E+02 -0.24132942165E+02  0.17807128952E+02  0.40722902467E+02  0.10566000000E+00 0. -1.
         23    2    1    0    0    0  0.62303521826E+01 -0.22069787519E+01 -0.28238480519E+02  0.95998278921E+02  0.91512675243E+02 0.  0.
         13    1    3    3    0    0 -0.21316895996E+02  0.21925963413E+02 -0.46045609471E+02  0.55275376454E+02  0.10566000000E+00 0.  1.
         22    1    1    0    0    0 -0.62303521826E+01  0.22069787519E+01  0.28238480519E+02  0.29001721079E+02  0.00000000000E+00 0.  1.
</event>
<event>
 5    1  0.1709463E-003  0.9118800E+02  0.7818608E-02  0.1130116E+00
         25   -1    0    0    0    0  0.00000000000E+00  0.00000000000E+00  0.99999998245E-14  0.12500000000E+03  0.12500000000E+03 0.  0.
        -13    1    3    3    0    0 -0.40161291801E+02  0.20546932401E+02 -0.93017055293E+00  0.45121859132E+02  0.10566000000E+00 0.  1.
         23    2    1    0    0    0 -0.13032255307E+02 -0.13910338312E+02  0.23037311581E+02  0.95099248919E+02  0.90276310457E+02 0.  0.
         13    1    3    3    0    0  0.27129036494E+02 -0.34457270713E+02  0.23967482134E+02  0.49977389787E+02  0.10566000000E+00 0. -1.
         22    1    1    0    0    0  0.13032255307E+02  0.13910338312E+02 -0.23037311581E+02  0.29900751081E+02  0.00000000000E+00 0. -1.
</event>
<event>
 5    1  0.1709463E-003  0.9118800E+02  0.7818608E-02  0.1130116E+00
         25   -1    0    0    0    0  0.00000000000E+00  0.00000000000E+00  0.99999998245E-14  0.12500000000E+03  0.12500000000E+03 0.  0.
        -13    1    3    3    0    0  0.63582861947E+01 -0.24518419791E+02 -0.22886050178E+02  0.34137415971E+02  0.10566000000E+00 0. -1.
         23    2    1    0    0    0  0.38114711868E+01  0.12290892035E+02  0.26356439180E+02  0.95669892160E+02  0.91063016862E+02 0.  0.
         13    1    3    3    0    0 -0.25468150079E+01  0.36809311826E+02  0.49242489358E+02  0.61532476189E+02  0.10566000000E+00 0.  1.
         22    1    1    0    0    0 -0.38114711868E+01 -0.12290892035E+02 -0.26356439180E+02  0.29330107840E+02  0.00000000000E+00 0.  1.
</event>
<event>
 5    1  0.1709463E-003  0.9118800E+02  0.7818608E-02  0.1130116E+00
         25   -1    0    0    0    0  0.00000000000E+00  0.00000000000E+00  0.99999998245E-14  0.12500000000E+03  0.12500000000E+03 0.  0.
        -13    1    3    3    0    0  0.42997452409E+02  0.16714705068E+02  0.83118131111E+01  0.46874936591E+02  0.10566000000E+00 0.  1.
         23    2    1    0    0    0 -0.31860376554E+01  0.26042366170E+02 -0.92836847934E+01  0.97169396790E+02  0.93098599331E+02 0.  0.
         13    1    3    3    0    0 -0.46183490064E+02  0.93276611023E+01 -0.17595497905E+02  0.50294460199E+02  0.10566000000E+00 0. -1.
         22    1    1    0    0    0  0.31860376554E+01 -0.26042366170E+02  0.92836847934E+01  0.27830603210E+02  0.00000000000E+00 0. -1.
</event>
<event>
 5    1  0.1709463E-003  0.9118800E+02  0.7818608E-02  0.1130116E+00
         25   -1    0    0    0    0  0.00000000000E+00  0.00000000000E+00  0.99999998245E-14  0.12500000000E+03  0.12500000000E+03 0.  0.
        -13    1    3    3    0    0 -0.21884005344E+02  0.22108819428E+02  0.20742877897E+02  0.37389674162E+02  0.10566000000E+00 0. -1.
         23    2    1    0    0    0  0.10316706515E+02 -0.23714158506E+02  0.18055028683E+02  0.93459869884E+02  0.87977084920E+02 0.  0.
         13    1    3    3    0    0  0.32200711860E+02 -0.45822977934E+02 -0.26878492143E+01  0.56070195723E+02  0.10566000000E+00 0.  1.
         22    1    1    0    0    0 -0.10316706515E+02  0.23714158506E+02 -0.18055028683E+02  0.31540130116E+02  0.00000000000E+00 0.  1.
</event>
<event>
 5    1  0.1709463E-003  0.9118800E+02  0.7818608E-02  0.1130116E+00
         25   -1    0    0    0    0  0.00000000000E+00  0.00000000000E+00  0.99999998245E-14  0.12500000000E+03  0.12500000000E+03 0.  0.
        -13    1    3    3    0    0  0.21263886817E+02  0.32878284176E+02  0.46424560849E+02  0.60732079390E+02  0.10566000000E+00 0.  1.
         23    2    1    0    0    0  0.15441518819E+02  0.54154964430E+01  0.17578628040E+02  0.10098383318E+03  0.98086483747E+02 0.  0.
         13    1    3    3    0    0 -0.58223679986E+01 -0.27462787733E+02 -0.28845932809E+02  0.40251753786E+02  0.10566000000E+00 0. -1.
         22    1    1    0    0    0 -0.15441518819E+02 -0.54154964430E+01 -0.17578628040E+02  0.24016166824E+02  0.00000000000E+00 0.  1.
</event>
<event>
 5    1  0.1709463E-003  0.9118800E+02  0.7818608E-02  0.1130116E+00
         25   -1    0    0    0    0  0.00000000000E+00  0.00000000000E+00  0.99999998245E-14  0.12500000000E+03  0.12500000000E+03 0.  0.
        -13    1    3    3    0    0 -0.18379981825E+02  0.26068122194E+01 -0.16297396239E+02  0.24702944967E+02  0.10566000000E+00 0. -1.
         23    2    1    0    0    0  0.27689341679E+02  0.10758006539E+00  0.25795580524E+02  0.87156596471E+02  0.78512095360E+02 0.  0.
         13    1    3    3    0    0  0.46069323503E+02 -0.24992321540E+01  0.42092976763E+02  0.62453651504E+02  0.10566000000E+00 0.  1.
         22    1    1    0    0    0 -0.27689341679E+02 -0.10758006539E+00 -0.25795580524E+02  0.37843403529E+02  0.00000000000E+00 0.  1.
</event>
<event>
 5    1  0.1709463E-003  0.9118800E+02  0.7818608E-02  0.1130116E+00
         25   -1    0    0    0    0  0.00000000000E+00  0.00000000000E+00  0.99999998245E-14  0.12500000000E+03  0.12500000000E+03 0.  0.
        -13    1    3    3    0    0  0.49563141075E+01 -0.27075787164E+02 -0.24702471437E+02  0.36984950442E+02  0.10566000000E+00 0.  1.
         23    2    1    0    0    0 -0.24708828063E+02  0.92353146206E+01  0.11500830850E+02  0.96223510800E+02  0.91819811044E+02 0.  0.
         13    1    3    3    0    0 -0.29665142171E+02  0.36311101784E+02  0.36203302287E+02  0.59238560358E+02  0.10566000000E+00 0. -1.
         22    1    1    0    0    0  0.24708828063E+02 -0.92353146206E+01 -0.11500830850E+02  0.28776489200E+02  0.00000000000E+00 0. -1.
</event>
<event>
 5    1  0.1709463E-003  0.9118800E+02  0.7818608E-02  0.1130116E+00
         25   -1    0    0    0    0  0.00000000000E+00  0.00000000000E+00  0.99999998245E-14  0.12500000000E+03  0.12500000000E+03 0.  0.
        -13    1    3    3    0    0  0.33163001394E+02  0.85401132995E+01 -0.51135781470E+01  0.34624818297E+02  0.10566000000E+00 0.  1.
         23    2    1    0    0    0 -0.26664345026E+02 -0.17283597507E+01 -0.11985351868E+02  0.95714795843E+02  0.91124634215E+02 0.  0.
         13    1    3    3    0    0 -0.59827346420E+02 -0.10268473050E+02 -0.68717737213E+01  0.61089977546E+02  0.10566000000E+00 0. -1.
         22    1    1    0    0    0  0.26664345026E+02  0.17283597507E+01  0.11985351868E+02  0.29285204157E+02  0.00000000000E+00 0. -1.
</event>
<event>
 5    1  0.1709463E-003  0.9118800E+02  0.7818608E-02  0.1130116E+00
         25   -1    0    0    0    0  0.00000000000E+00  0.00000000000E+00  0.99999998245E-14  0.12500000000E+03  0.12500000000E+03 0.  0.
        -13    1    3    3    0    0 -0.23747296479E+02 -0.19560042264E+02  0.12381556916E+02  0.33163887878E+02  0.10566000000E+00 0.  1.
         23    2    1    0    0    0  0.22195178213E+02  0.17026336757E+02 -0.89206844183E+01  0.95638448785E+02  0.91019845068E+02 0.  0.
         13    1    3    3    0    0  0.45942474692E+02  0.36586379021E+02 -0.21302241334E+02  0.62474560908E+02  0.10566000000E+00 0. -1.
         22    1    1    0    0    0 -0.22195178213E+02 -0.17026336757E+02  0.89206844183E+01  0.29361551215E+02  0.00000000000E+00 0. -1.
</event>
<event>
 5    1  0.1709463E-003  0.9118800E+02  0.7818608E-02  0.1130116E+00
         25   -1    0    0    0    0  0.00000000000E+00  0.00000000000E+00  0.99999998245E-14  0.12500000000E+03  0.12500000000E+03 0.  0.
        -13    1    3    3    0    0 -0.28268846198E+01 -0.25021772492E+02 -0.23518643529E+02  0.34456031878E+02  0.10566000000E+00 0. -1.
         23    2    1    0    0    0 -0.13215138723E+02  0.11186395593E+02  0.24195668134E+02  0.95247593471E+02  0.90481480800E+02 0.  0.
         13    1    3    3    0    0 -0.10388254103E+02  0.36208168085E+02  0.47714311663E+02  0.60791561593E+02  0.10566000000E+00 0.  1.
         22    1    1    0    0    0  0.13215138723E+02 -0.11186395593E+02 -0.24195668134E+02  0.29752406529E+02  0.00000000000E+00 0.  1.
</event>
<event>
 5    1  0.1709463E-003  0.9118800E+02  0.7818608E-02  0.1130116E+00
         25   -1    0    0    0    0  0.00000000000E+00  0.00000000000E+00  0.99999998245E-14  0.12500000000E+03  0.12500000000E+03 0.  0.
        -13    1    3    3    0    0  0.79402664712E+01 -0.40613483234E+02 -0.24084609916E+00  0.41383233596E+02  0.10566000000E+00 0. -1.
         23    2    1    0    0    0 -0.11082758418E+02 -0.27791944613E+01  0.29654778295E+02  0.93220174139E+02  0.87635857586E+02 0.  0.
         13    1    3    3    0    0 -0.19023024889E+02  0.37834288773E+02  0.29895624395E+02  0.51836940543E+02  0.10566000000E+00 0.  1.
         22    1    1    0    0    0  0.11082758418E+02  0.27791944613E+01 -0.29654778295E+02  0.31779825861E+02  0.00000000000E+00 0.  1.
</event>
<event>
 5    1  0.1709463E-003  0.9118800E+02  0.7818608E-02  0.1130116E+00
         25   -1    0    0    0    0  0.00000000000E+00  0.00000000000E+00  0.99999998245E-14  0.12500000000E+03  0.12500000000E+03 0.  0.
        -13    1    3    3    0    0  0.36803264026E+02  0.49025638023E+02  0.46889917134E+01  0.61481633305E+02  0.10566000000E+00 0.  1.
         23    2    1    0    0    0  0.25638348742E+02  0.21442270869E+02  0.19579019217E+00  0.91576441841E+02  0.85259078462E+02 0.  0.
         13    1    3    3    0    0 -0.11164915284E+02 -0.27583367154E+02 -0.44932015212E+01  0.30094808536E+02  0.10566000000E+00 0. -1.
         22    1    1    0    0    0 -0.25638348742E+02 -0.21442270869E+02 -0.19579019217E+00  0.33423558159E+02  0.00000000000E+00 0.  1.
</event>
<event>
 5    1  0.1709463E-003  0.9118800E+02  0.7818608E-02  0.1130116E+00
         25   -1    0    0    0    0  0.00000000000E+00  0.00000000000E+00  0.99999998245E-14  0.12500000000E+03  0.12500000000E+03 0.  0.
        -13    1    3    3    0    0 -0.61535754010E+02 -0.81124320726E+01 -0.93478760728E-01  0.62068353273E+02  0.10566000000E+00 0. -1.
         23    2    1    0    0    0 -0.29773001966E+02  0.91887541159E+00 -0.20038226810E+01  0.95145498104E+02  0.90340326135E+02 0.  0.
         13    1    3    3    0    0  0.31762752044E+02  0.90313074842E+01 -0.19103439202E+01  0.33077144831E+02  0.10566000000E+00 0.  1.
         22    1    1    0    0    0  0.29773001966E+02 -0.91887541159E+00  0.20038226810E+01  0.29854501896E+02  0.00000000000E+00 0. -1.
</event>
<event>
 5    1  0.1709463E-003  0.9118800E+02  0.7818608E-02  0.1130116E+00
         25   -1    0    0    0    0  0.00000000000E+00  0.00000000000E+00  0.99999998245E-14  0.12500000000E+03  0.12500000000E+03 0.  0.
        -13    1    3    3    0    0 -0.29952701024E+01  0.30855568477E+02  0.16372877477E+02  0.35058808165E+02  0.10566000000E+00 0.  1.
         23    2    1    0    0    0 -0.82560770603E+01 -0.24585111020E+02 -0.10656629104E+02  0.96961557886E+02  0.92819122338E+02 0.  0.
         13    1    3    3    0    0 -0.52608069580E+01 -0.55440679497E+02 -0.27029506582E+02  0.61902749721E+02  0.10566000000E+00 0. -1.
         22    1    1    0    0    0  0.82560770603E+01  0.24585111020E+02  0.10656629104E+02  0.28038442114E+02  0.00000000000E+00 0. -1.
</event>
<event>
 5    1  0.1709463E-003  0.9118800E+02  0.7818608E-02  0.1130116E+00
         25   -1    0    0    0    0  0.00000000000E+00  0.00000000000E+00  0.99999998245E-14  0.12500000000E+03  0.12500000000E+03 0.  0.
        -13    1    3    3    0    0  0.37904557080E+02 -0.37817339734E+01 -0.31536745681E+01  0.38223210051E+02  0.10566000000E+00 0.  1.
         23    2    1    0    0    0 -0.13324579598E+02  0.17156346091E+02 -0.19372435535E+02  0.95893713888E+02  0.91369734989E+02 0.  0.
         13    1    3    3    0    0 -0.51229136678E+02  0.20938080064E+02 -0.16218760967E+02  0.57670503838E+02  0.10566000000E+00 0. -1.
         22    1    1    0    0    0  0.13324579598E+02 -0.17156346091E+02  0.19372435535E+02  0.29106286112E+02  0.00000000000E+00 0. -1.
</event>
<event>
 5    1  0.1709463E-003  0.9118800E+02  0.7818608E-02  0.1130116E+00
         25   -1    0    0    0    0  0.00000000000E+00  0.00000000000E+00  0.99999998245E-14  0.12500000000E+03  0.12500000000E+03 0.  0.
        -13    1    3    3    0    0  0.16954988585E+02 -0.22235415508E+02 -0.37957764020E+02  0.47145395895E+02  0.10566000000E+00 0.  1.
         23    2    1    0    0    0  0.10704041135E+02 -0.22317753311E+02  0.11999775046E+02  0.97492669874E+02  0.93531638864E+02 0.  0.
         13    1    3    3    0    0 -0.62509474500E+01 -0.82337803761E-01  0.49957539066E+02  0.50347273979E+02  0.10566000000E+00 0. -1.
         22    1    1    0    0    0 -0.10704041135E+02  0.22317753311E+02 -0.11999775046E+02  0.27507330126E+02  0.00000000000E+00 0.  1.
</event>
<event>
 5    1  0.1709463E-003  0.9118800E+02  0.7818608E-02  0.1130116E+00
         25   -1    0    0    0    0  0.00000000000E+00  0.00000000000E+00  0.99999998245E-14  0.12500000000E+03  0.12500000000E+03 0.  0.
        -13    1    3    3    0    0  0.12013127747E+02  0.60608515298E+02 -0.66462639576E+01  0.62144117610E+02  0.10566000000E+00 0.  1.
         23    2    1    0    0    0  0.10026538088E+02  0.27291504105E+02 -0.43748404096E+01  0.95597672014E+02  0.90963827996E+02 0.  0.
         13    1    3    3    0    0 -0.19865896590E+01 -0.33317011193E+02  0.22714235480E+01  0.33453554404E+02  0.10566000000E+00 0. -1.
         22    1    1    0    0    0 -0.10026538088E+02 -0.27291504105E+02  0.43748404096E+01  0.29402327986E+02  0.00000000000E+00 0.  1.
</event>
<event>
 5    1  0.1709463E-003  0.9118800E+02  0.7818608E-02  0.1130116E+00
         25   -1    0    0    0    0  0.00000000000E+00  0.00000000000E+00  0.99999998245E-14  0.12500000000E+03  0.12500000000E+03 0.  0.
        -13    1    3    3    0    0 -0.38681049631E+02 -0.10586563409E+02 -0.45058956289E+02  0.60320971737E+02  0.10566000000E+00 0.  1.
         23    2    1    0    0    0 -0.84324153402E+01 -0.37455962893E+01 -0.27574145130E+02  0.95923057250E+02  0.91409869886E+02 0.  0.
         13    1    3    3    0    0  0.30248634291E+02  0.68409671195E+01  0.17484811159E+02  0.35602085513E+02  0.10566000000E+00 0. -1.
         22    1    1    0    0    0  0.84324153402E+01  0.37455962893E+01  0.27574145130E+02  0.29076942750E+02  0.00000000000E+00 0.  1.
</event>
<event>
 5    1  0.1709463E-003  0.9118800E+02  0.7818608E-02  0.1130116E+00
         25   -1    0    0    0    0  0.00000000000E+00  0.00000000000E+00  0.99999998245E-14  0.12500000000E+03  0.12500000000E+03 0.  0.
        -13    1    3    3    0    0 -0.10297195249E+02 -0.41912407231E+02 -0.47969394799E+01  0.43424692311E+02  0.10566000000E+00 0. -1.
         23    2    1    0    0    0  0.52299931224E+01  0.99678342208E+01 -0.22035104793E+02  0.10025618481E+03  0.97154753881E+02 0.  0.
         13    1    3    3    0    0  0.15527188371E+02  0.51880241452E+02 -0.17238165313E+02  0.56831492495E+02  0.10566000000E+00 0.  1.
         22    1    1    0    0    0 -0.52299931224E+01 -0.99678342208E+01  0.22035104793E+02  0.24743815194E+02  0.00000000000E+00 0.  1.
</event>
<event>
 5    1  0.1709463E-003  0.9118800E+02  0.7818608E-02  0.1130116E+00
         25   -1    0    0    0    0  0.00000000000E+00  0.00000000000E+00  0.99999998245E-14  0.12500000000E+03  0.12500000000E+03 0.  0.
        -13    1    3    3    0    0  0.23346037125E+02  0.52273720341E+01 -0.27388690544E+02  0.36366391099E+02  0.10566000000E+00 0.  1.
         23    2    1    0    0    0  0.68229976721E+01 -0.75016864427E+01  0.27823065010E+02  0.95386632355E+02  0.90673359311E+02 0.  0.
         13    1    3    3    0    0 -0.16523039453E+02 -0.12729058477E+02  0.55211755554E+02  0.59020241256E+02  0.10566000000E+00 0. -1.
         22    1    1    0    0    0 -0.68229976721E+01  0.75016864427E+01 -0.27823065010E+02  0.29613367645E+02  0.00000000000E+00 0. -1.
</event>
<event>
 5    1  0.1709463E-003  0.9118800E+02  0.7818608E-02  0.1130116E+00
         25   -1    0    0    0    0  0.00000000000E+00  0.00000000000E+00  0.99999998245E-14  0.12500000000E+03  0.12500000000E+03 0.  0.
        -13    1    3    3    0    0 -0.62369618675E+01 -0.26104593818E+01 -0.43686217017E+02  0.44206457818E+02  0.10566000000E+00 0.  1.
         23    2    1    0    0    0 -0.74721743413E+01  0.28140052547E+02 -0.22821600144E+01  0.95795476359E+02  0.91235240395E+02 0.  0.
         13    1    3    3    0    0 -0.12352124737E+01  0.30750511929E+02  0.41404057003E+02  0.51589018541E+02  0.10566000000E+00 0. -1.
         22    1    1    0    0    0  0.74721743413E+01 -0.28140052547E+02  0.22821600144E+01  0.29204523641E+02  0.00000000000E+00 0. -1.
</event>
<event>
 4    1  0.1709463E-003  0.9118800E+02  0.7818608E-02  0.1130116E+00
         25   -1    0    0    0    0  0.00000000000E+00  0.00000000000E+00  0.99999998245E-14  0.12500000000E+03  0.12500000000E+03 0.  0.
        -13    1    1    0    0    0 -0.60855300482E+02 -0.56409450035E+01  0.12225191755E+02  0.62326995233E+02  0.10566000000E+00 0.  1.
         13    1    1    0    0    0  0.99457714745E+01 -0.12281404659E+01 -0.31614141496E+01  0.10508682253E+02  0.10566000000E+00 0. -1.
         22    1    1    0    0    0  0.50909529007E+02  0.68690854693E+01 -0.90637776058E+01  0.52164322515E+02  0.00000000000E+00 0.  1.
</event>
<event>
 5    1  0.1709463E-003  0.9118800E+02  0.7818608E-02  0.1130116E+00
         25   -1    0    0    0    0  0.00000000000E+00  0.00000000000E+00  0.99999998245E-14  0.12500000000E+03  0.12500000000E+03 0.  0.
        -13    1    3    3    0    0 -0.34239229155E+02  0.76851466114E+01  0.14137318642E+02  0.37832013348E+02  0.10566000000E+00 0.  1.
         23    2    1    0    0    0  0.11568764062E+01 -0.50864403000E+01 -0.29263909227E+02  0.95274815035E+02  0.90519079529E+02 0.  0.
         13    1    3    3    0    0  0.35396105561E+02 -0.12771586911E+02 -0.43401227869E+02  0.57442801687E+02  0.10566000000E+00 0. -1.
         22    1    1    0    0    0 -0.11568764062E+01  0.50864403000E+01  0.29263909227E+02  0.29725184965E+02  0.00000000000E+00 0. -1.
</event>
<event>
 5    1  0.1709463E-003  0.9118800E+02  0.7818608E-02  0.1130116E+00
         25   -1    0    0    0    0  0.00000000000E+00  0.00000000000E+00  0.99999998245E-14  0.12500000000E+03  0.12500000000E+03 0.  0.
        -13    1    3    3    0    0  0.72698103793E+01  0.23955306574E+02  0.22110429088E+02  0.33400435543E+02  0.10566000000E+00 0.  1.
         23    2    1    0    0    0 -0.11086860262E+02 -0.20307999178E+02 -0.17836167317E+02  0.95785925214E+02  0.91222153578E+02 0.  0.
         13    1    3    3    0    0 -0.18356670642E+02 -0.44263305751E+02 -0.39946596405E+02  0.62385489670E+02  0.10566000000E+00 0. -1.
         22    1    1    0    0    0  0.11086860262E+02  0.20307999178E+02  0.17836167317E+02  0.29214074786E+02  0.00000000000E+00 0. -1.
</event>
<event>
 5    1  0.1709463E-003  0.9118800E+02  0.7818608E-02  0.1130116E+00
         25   -1    0    0    0    0  0.00000000000E+00  0.00000000000E+00  0.99999998245E-14  0.12500000000E+03  0.12500000000E+03 0.  0.
        -13    1    3    3    0    0  0.16874286868E+02 -0.20620209360E+02 -0.54147909150E+02  0.60348503053E+02  0.10566000000E+00 0.  1.
         23    2    1    0    0    0 -0.22721463338E+01 -0.45254111036E+01 -0.28047022988E+02  0.96499517669E+02  0.92194790619E+02 0.  0.
         13    1    3    3    0    0 -0.19146433202E+02  0.16094798256E+02  0.26100886162E+02  0.36151014616E+02  0.10566000000E+00 0. -1.
         22    1    1    0    0    0  0.22721463338E+01  0.45254111036E+01  0.28047022988E+02  0.28500482331E+02  0.00000000000E+00 0.  1.
</event>
<event>
 5    1  0.1709463E-003  0.9118800E+02  0.7818608E-02  0.1130116E+00
         25   -1    0    0    0    0  0.00000000000E+00  0.00000000000E+00  0.99999998245E-14  0.12500000000E+03  0.12500000000E+03 0.  0.
        -13    1    3    3    0    0 -0.31985126300E+02 -0.17637919319E+02  0.13278530859E+02  0.38864830479E+02  0.10566000000E+00 0. -1.
         23    2    1    0    0    0  0.23414560380E+02 -0.17782345455E+02  0.80810906020E+01  0.94508075283E+02  0.89454003939E+02 0.  0.
         13    1    3    3    0    0  0.55399686679E+02 -0.14442613569E+00 -0.51974402574E+01  0.55643244804E+02  0.10566000000E+00 0.  1.
         22    1    1    0    0    0 -0.23414560380E+02  0.17782345455E+02 -0.80810906020E+01  0.30491924717E+02  0.00000000000E+00 0.  1.
</event>
<event>
 5    1  0.1709463E-003  0.9118800E+02  0.7818608E-02  0.1130116E+00
         25   -1    0    0    0    0  0.00000000000E+00  0.00000000000E+00  0.99999998245E-14  0.12500000000E+03  0.12500000000E+03 0.  0.
        -13    1    3    3    0    0  0.28173997669E+02 -0.10056380666E+02 -0.22175097563E+02  0.37237763799E+02  0.10566000000E+00 0. -1.
         23    2    1    0    0    0 -0.84127598098E+01 -0.14976349097E+02  0.23452777675E+02  0.95929424833E+02  0.91418576931E+02 0.  0.
         13    1    3    3    0    0 -0.36586757479E+02 -0.49199684317E+01  0.45627875238E+02  0.58691661034E+02  0.10566000000E+00 0.  1.
         22    1    1    0    0    0  0.84127598098E+01  0.14976349097E+02 -0.23452777675E+02  0.29070575167E+02  0.00000000000E+00 0.  1.
</event>
<event>
 5    1  0.1709463E-003  0.9118800E+02  0.7818608E-02  0.1130116E+00
         25   -1    0    0    0    0  0.00000000000E+00  0.00000000000E+00  0.99999998245E-14  0.12500000000E+03  0.12500000000E+03 0.  0.
        -13    1    3    3    0    0  0.96016124664E+01  0.30774120990E+02  0.19313149589E+02  0.37579866894E+02  0.10566000000E+00 0. -1.
         23    2    1    0    0    0 -0.24332829039E+02 -0.14528807452E+02  0.29164818782E+01  0.96510024893E+02  0.92209035475E+02 0.  0.
         13    1    3    3    0    0 -0.33934441506E+02 -0.45302928443E+02 -0.16396667711E+02  0.58930157999E+02  0.10566000000E+00 0.  1.
         22    1    1    0    0    0  0.24332829039E+02  0.14528807452E+02 -0.29164818782E+01  0.28489975107E+02  0.00000000000E+00 0.  1.
</event>
<event>
 5    1  0.1709463E-003  0.9118800E+02  0.7818608E-02  0.1130116E+00
         25   -1    0    0    0    0  0.00000000000E+00  0.00000000000E+00  0.99999998245E-14  0.12500000000E+03  0.12500000000E+03 0.  0.
        -13    1    3    3    0    0 -0.14071160230E+02  0.40089225119E+01  0.33891556674E+02  0.36915007622E+02  0.10566000000E+00 0.  1.
         23    2    1    0    0    0 -0.16609998292E+02 -0.26614999725E+01 -0.24246446132E+02  0.95489564974E+02  0.90815148756E+02 0.  0.
         13    1    3    3    0    0 -0.25388380622E+01 -0.66704224844E+01 -0.58138002805E+02  0.58574557353E+02  0.10566000000E+00 0. -1.
         22    1    1    0    0    0  0.16609998292E+02  0.26614999725E+01  0.24246446132E+02  0.29510435026E+02  0.00000000000E+00 0. -1.
</event>
<event>
 5    1  0.1709463E-003  0.9118800E+02  0.7818608E-02  0.1130116E+00
         25   -1    0    0    0    0  0.00000000000E+00  0.00000000000E+00  0.99999998245E-14  0.12500000000E+03  0.12500000000E+03 0.  0.
        -13    1    3    3    0    0  0.28011036132E+02  0.11397310343E+02 -0.89170964053E+01  0.31528441138E+02  0.10566000000E+00 0.  1.
         23    2    1    0    0    0 -0.21805243886E+02 -0.16919761812E+02  0.14960435608E+02  0.93606344044E+02  0.88184953428E+02 0.  0.
         13    1    3    3    0    0 -0.49816280018E+02 -0.28317072154E+02  0.23877532014E+02  0.62077902907E+02  0.10566000000E+00 0. -1.
         22    1    1    0    0    0  0.21805243886E+02  0.16919761812E+02 -0.14960435608E+02  0.31393655956E+02  0.00000000000E+00 0. -1.
</event>
<event>
 5    1  0.1709463E-003  0.9118800E+02  0.7818608E-02  0.1130116E+00
         25   -1    0    0    0    0  0.00000000000E+00  0.00000000000E+00  0.99999998245E-14  0.12500000000E+03  0.12500000000E+03 0.  0.
        -13    1    3    3    0    0 -0.32185826191E+02  0.41266468492E+02 -0.26911700134E+02  0.58848106151E+02  0.10566000000E+00 0.  1.
         23    2    1    0    0    0 -0.18005022328E+02  0.85693161488E+01 -0.22778027325E+02  0.94727032899E+02  0.89759446437E+02 0.  0.
         13    1    3    3    0    0  0.14180803864E+02 -0.32697152344E+02  0.41336728089E+01  0.35878926747E+02  0.10566000000E+00 0. -1.
         22    1    1    0    0    0  0.18005022328E+02 -0.85693161488E+01  0.22778027325E+02  0.30272967101E+02  0.00000000000E+00 0.  1.
</event>
<event>
 5    1  0.1709463E-003  0.9118800E+02  0.7818608E-02  0.1130116E+00
         25   -1    0    0    0    0  0.00000000000E+00  0.00000000000E+00  0.99999998245E-14  0.12500000000E+03  0.12500000000E+03 0.  0.
        -13    1    3    3    0    0  0.18242495210E+02 -0.14209922349E+02 -0.29086603232E+02  0.37158473815E+02  0.10566000000E+00 0.  1.
         23    2    1    0    0    0  0.11962464237E+02 -0.17410192140E+02  0.25323212469E+02  0.92023031814E+02  0.85911337748E+02 0.  0.
         13    1    3    3    0    0 -0.62800309732E+01 -0.32002697909E+01  0.54409815701E+02  0.54864557999E+02  0.10566000000E+00 0. -1.
         22    1    1    0    0    0 -0.11962464237E+02  0.17410192140E+02 -0.25323212469E+02  0.32976968186E+02  0.00000000000E+00 0. -1.
</event>
<event>
 5    1  0.1709463E-003  0.9118800E+02  0.7818608E-02  0.1130116E+00
         25   -1    0    0    0    0  0.00000000000E+00  0.00000000000E+00  0.99999998245E-14  0.12500000000E+03  0.12500000000E+03 0.  0.
        -13    1    3    3    0    0  0.24104006074E+02  0.25541471151E+02 -0.11270382830E+02  0.36883635267E+02  0.10566000000E+00 0. -1.
         23    2    1    0    0    0 -0.25820932484E+02 -0.34501669466E+01  0.80027346523E+01  0.97748064872E+02  0.93872340005E+02 0.  0.
         13    1    3    3    0    0 -0.49924938558E+02 -0.28991638097E+02  0.19273117482E+02  0.60864429605E+02  0.10566000000E+00 0.  1.
         22    1    1    0    0    0  0.25820932484E+02  0.34501669466E+01 -0.80027346523E+01  0.27251935128E+02  0.00000000000E+00 0.  1.
</event>
<event>
 5    1  0.1709463E-003  0.9118800E+02  0.7818608E-02  0.1130116E+00
         25   -1    0    0    0    0  0.00000000000E+00  0.00000000000E+00  0.99999998245E-14  0.12500000000E+03  0.12500000000E+03 0.  0.
        -13    1    3    3    0    0 -0.10710266990E+02 -0.12030465736E+02 -0.30564782823E+02  0.34549371020E+02  0.10566000000E+00 0. -1.
         23    2    1    0    0    0  0.29624593650E+02  0.13154446206E+02  0.25350578397E+01  0.92487194489E+02  0.86584055243E+02 0.  0.
         13    1    3    3    0    0  0.40334860640E+02  0.25184911942E+02  0.33099840663E+02  0.57937823469E+02  0.10566000000E+00 0.  1.
         22    1    1    0    0    0 -0.29624593650E+02 -0.13154446206E+02 -0.25350578397E+01  0.32512805511E+02  0.00000000000E+00 0.  1.
</event>
<event>
 5    1  0.1709463E-003  0.9118800E+02  0.7818608E-02  0.1130116E+00
         25   -1    0    0    0    0  0.00000000000E+00  0.00000000000E+00  0.99999998245E-14  0.12500000000E+03  0.12500000000E+03 0.  0.
        -13    1    3    3    0    0  0.22650482458E+02 -0.39853203910E+02 -0.35263253426E+02  0.57834508934E+02  0.10566000000E+00 0. -1.
         23    2    1    0    0    0 -0.58426808568E+01 -0.18241742180E+02 -0.21631931752E+02  0.96106427208E+02  0.91660279304E+02 0.  0.
         13    1    3    3    0    0 -0.28493163315E+02  0.21611461730E+02  0.13631321674E+02  0.38271918274E+02  0.10566000000E+00 0.  1.
         22    1    1    0    0    0  0.58426808568E+01  0.18241742180E+02  0.21631931752E+02  0.28893572792E+02  0.00000000000E+00 0. -1.
</event>
<event>
 5    1  0.1709463E-003  0.9118800E+02  0.7818608E-02  0.1130116E+00
         25   -1    0    0    0    0  0.00000000000E+00  0.00000000000E+00  0.99999998245E-14  0.12500000000E+03  0.12500000000E+03 0.  0.
        -13    1    3    3    0    0  0.18288786590E+02 -0.86511446740E+01  0.10575289802E+02  0.22829146667E+02  0.10566000000E+00 0.  1.
         23    2    1    0    0    0 -0.30016567306E+02  0.26407309397E+02  0.14067426111E+02  0.82618013498E+02  0.70918991635E+02 0.  0.
         13    1    3    3    0    0 -0.48305353897E+02  0.35058454071E+02  0.34921363098E+01  0.59788866831E+02  0.10566000000E+00 0. -1.
         22    1    1    0    0    0  0.30016567306E+02 -0.26407309397E+02 -0.14067426111E+02  0.42381986502E+02  0.00000000000E+00 0. -1.
</event>
<event>
 5    1  0.1709463E-003  0.9118800E+02  0.7818608E-02  0.1130116E+00
         25   -1    0    0    0    0  0.00000000000E+00  0.00000000000E+00  0.99999998245E-14  0.12500000000E+03  0.12500000000E+03 0.  0.
        -13    1    3    3    0    0 -0.12821362253E+02  0.33895947925E+02  0.37688229838E+02  0.52285145578E+02  0.10566000000E+00 0.  1.
         23    2    1    0    0    0 -0.95694627410E+01  0.10366559473E+02  0.45557502512E+02  0.77308006882E+02  0.60844077119E+02 0.  0.
         13    1    3    3    0    0  0.32518995117E+01 -0.23529388452E+02  0.78692726737E+01  0.25022861304E+02  0.10566000000E+00 0. -1.
         22    1    1    0    0    0  0.95694627410E+01 -0.10366559473E+02 -0.45557502512E+02  0.47691993118E+02  0.00000000000E+00 0.  1.
</event>
<event>
 5    1  0.1709463E-003  0.9118800E+02  0.7818608E-02  0.1130116E+00
         25   -1    0    0    0    0  0.00000000000E+00  0.00000000000E+00  0.99999998245E-14  0.12500000000E+03  0.12500000000E+03 0.  0.
        -13    1    3    3    0    0 -0.17751694072E+02  0.12078619464E+02  0.29068759115E+02  0.36138893330E+02  0.10566000000E+00 0.  1.
         23    2    1    0    0    0 -0.10931013532E+02 -0.10799779490E+02 -0.25232652201E+02  0.95456658432E+02  0.90769844156E+02 0.  0.
         13    1    3    3    0    0  0.68206805398E+01 -0.22878398954E+02 -0.54301411317E+02  0.59317765102E+02  0.10566000000E+00 0. -1.
         22    1    1    0    0    0  0.10931013532E+02  0.10799779490E+02  0.25232652201E+02  0.29543341568E+02  0.00000000000E+00 0. -1.
</event>
<event>
 5    1  0.1709463E-003  0.9118800E+02  0.7818608E-02  0.1130116E+00
         25   -1    0    0    0    0  0.00000000000E+00  0.00000000000E+00  0.99999998245E-14  0.12500000000E+03  0.12500000000E+03 0.  0.
        -13    1    3    3    0    0 -0.31937633395E+02 -0.31986781313E+02 -0.13525906553E+02  0.47181860050E+02  0.10566000000E+00 0. -1.
         23    2    1    0    0    0  0.14411318979E+02 -0.25649279749E+02 -0.12180899557E+01  0.95554195383E+02  0.90904063968E+02 0.  0.
         13    1    3    3    0    0  0.46348952374E+02  0.63375015640E+01  0.12307816597E+02  0.48372335334E+02  0.10566000000E+00 0.  1.
         22    1    1    0    0    0 -0.14411318979E+02  0.25649279749E+02  0.12180899557E+01  0.29445804617E+02  0.00000000000E+00 0. -1.
</event>
<event>
 5    1  0.1709463E-003  0.9118800E+02  0.7818608E-02  0.1130116E+00
         25   -1    0    0    0    0  0.00000000000E+00  0.00000000000E+00  0.99999998245E-14  0.12500000000E+03  0.12500000000E+03 0.  0.
        -13    1    3    3    0    0 -0.38687375037E+02  0.28368862723E+02  0.11319942502E+02  0.49291557307E+02  0.10566000000E+00 0. -1.
         23    2    1    0    0    0 -0.24594767503E+02 -0.14924919163E+02 -0.96323257048E-01  0.96230831108E+02  0.91829776092E+02 0.  0.
         13    1    3    3    0    0  0.14092607534E+02 -0.43293781886E+02 -0.11416265759E+02  0.46939273802E+02  0.10566000000E+00 0.  1.
         22    1    1    0    0    0  0.24594767503E+02  0.14924919163E+02  0.96323257048E-01  0.28769168892E+02  0.00000000000E+00 0. -1.
</event>
<event>
 5    1  0.1709463E-003  0.9118800E+02  0.7818608E-02  0.1130116E+00
         25   -1    0    0    0    0  0.00000000000E+00  0.00000000000E+00  0.99999998245E-14  0.12500000000E+03  0.12500000000E+03 0.  0.
        -13    1    3    3    0    0  0.32530653571E+02  0.70361794159E+01 -0.22365004858E+02  0.40099324793E+02  0.10566000000E+00 0. -1.
         23    2    1    0    0    0 -0.31346448013E+01 -0.29924080622E+02 -0.39937277527E+01  0.94648287355E+02  0.89649717449E+02 0.  0.
         13    1    3    3    0    0 -0.35665298372E+02 -0.36960260038E+02  0.18371277105E+02  0.54548962562E+02  0.10566000000E+00 0.  1.
         22    1    1    0    0    0  0.31346448013E+01  0.29924080622E+02  0.39937277527E+01  0.30351712645E+02  0.00000000000E+00 0.  1.
</event>
<event>
 5    1  0.1709463E-003  0.9118800E+02  0.7818608E-02  0.1130116E+00
         25   -1    0    0    0    0  0.00000000000E+00  0.00000000000E+00  0.99999998245E-14  0.12500000000E+03  0.12500000000E+03 0.  0.
        -13    1    3    3    0    0 -0.82171709882E+01  0.29765087154E+02  0.28075036481E+01  0.31006056717E+02  0.10566000000E+00 0.  1.
         23    2    1    0    0    0  0.28578247729E+02 -0.17904943756E+02  0.38627026961E+00  0.91273860896E+02  0.84814298465E+02 0.  0.
         13    1    3    3    0    0  0.36795418717E+02 -0.47670030910E+02 -0.24212333785E+01  0.60267804179E+02  0.10566000000E+00 0. -1.
         22    1    1    0    0    0 -0.28578247729E+02  0.17904943756E+02 -0.38627026961E+00  0.33726139104E+02  0.00000000000E+00 0. -1.
</event>
<event>
 5    1  0.1709463E-003  0.9118800E+02  0.7818608E-02  0.1130116E+00
         25   -1    0    0    0    0  0.00000000000E+00  0.00000000000E+00  0.99999998245E-14  0.12500000000E+03  0.12500000000E+03 0.  0.
        -13    1    3    3    0    0  0.41347373117E+02 -0.13021708141E+02 -0.13315847975E+02  0.45348573494E+02  0.10566000000E+00 0. -1.
         23    2    1    0    0    0 -0.56873668952E+01 -0.14365294913E+02 -0.26597086955E+02  0.94241052121E+02  0.89080093344E+02 0.  0.
         13    1    3    3    0    0 -0.47034740012E+02 -0.13435867718E+01 -0.13281238981E+02  0.48892478627E+02  0.10566000000E+00 0.  1.
         22    1    1    0    0    0  0.56873668952E+01  0.14365294913E+02  0.26597086955E+02  0.30758947879E+02  0.00000000000E+00 0.  1.
</event>
<event>
 5    1  0.1709463E-003  0.9118800E+02  0.7818608E-02  0.1130116E+00
         25   -1    0    0    0    0  0.00000000000E+00  0.00000000000E+00  0.99999998245E-14  0.12500000000E+03  0.12500000000E+03 0.  0.
        -13    1    3    3    0    0 -0.31066469706E+02 -0.10426596850E+02  0.38701473470E+02  0.50711484643E+02  0.10566000000E+00 0. -1.
         23    2    1    0    0    0 -0.12904206627E+02 -0.25897530692E+02  0.13025833287E+00  0.96065287078E+02  0.91604158037E+02 0.  0.
         13    1    3    3    0    0  0.18162263080E+02 -0.15470933843E+02 -0.38571215138E+02  0.45353802435E+02  0.10566000000E+00 0.  1.
         22    1    1    0    0    0  0.12904206627E+02  0.25897530692E+02 -0.13025833287E+00  0.28934712922E+02  0.00000000000E+00 0. -1.
</event>
<event>
 5    1  0.1709463E-003  0.9118800E+02  0.7818608E-02  0.1130116E+00
         25   -1    0    0    0    0  0.00000000000E+00  0.00000000000E+00  0.99999998245E-14  0.12500000000E+03  0.12500000000E+03 0.  0.
        -13    1    3    3    0    0  0.20355432964E+02 -0.29862908116E+01  0.40992883306E+02  0.45865992082E+02  0.10566000000E+00 0.  1.
         23    2    1    0    0    0  0.55195600366E+01  0.27974439038E+02  0.42176947098E+01  0.96175986901E+02  0.91755091004E+02 0.  0.
         13    1    3    3    0    0 -0.14835872927E+02  0.30960729849E+02 -0.36775188596E+02  0.50309994818E+02  0.10566000000E+00 0. -1.
         22    1    1    0    0    0 -0.55195600366E+01 -0.27974439038E+02 -0.42176947098E+01  0.28824013099E+02  0.00000000000E+00 0. -1.
</event>
<event>
 5    1  0.1709463E-003  0.9118800E+02  0.7818608E-02  0.1130116E+00
         25   -1    0    0    0    0  0.00000000000E+00  0.00000000000E+00  0.99999998245E-14  0.12500000000E+03  0.12500000000E+03 0.  0.
        -13    1    3    3    0    0  0.54001793881E+02 -0.72948229160E+01  0.19236967469E+02  0.57788236391E+02  0.10566000000E+00 0.  1.
         23    2    1    0    0    0  0.29185189681E+02  0.29729993788E+01 -0.64625517987E+01  0.94960382862E+02  0.90083826049E+02 0.  0.
         13    1    3    3    0    0 -0.24816604200E+02  0.10267822295E+02 -0.25699519268E+02  0.37172146472E+02  0.10566000000E+00 0. -1.
         22    1    1    0    0    0 -0.29185189681E+02 -0.29729993788E+01  0.64625517987E+01  0.30039617138E+02  0.00000000000E+00 0.  1.
</event>
<event>
 5    1  0.1709463E-003  0.9118800E+02  0.7818608E-02  0.1130116E+00
         25   -1    0    0    0    0  0.00000000000E+00  0.00000000000E+00  0.99999998245E-14  0.12500000000E+03  0.12500000000E+03 0.  0.
        -13    1    3    3    0    0  0.12754445113E+02 -0.16367276808E+02  0.34099291117E+02  0.39916618582E+02  0.10566000000E+00 0. -1.
         23    2    1    0    0    0  0.22565736812E+02 -0.80965775953E+01 -0.18915296423E+02  0.94462228546E+02  0.89389916302E+02 0.  0.
         13    1    3    3    0    0  0.98112916991E+01  0.82706992130E+01 -0.53014587540E+02  0.54545609964E+02  0.10566000000E+00 0.  1.
         22    1    1    0    0    0 -0.22565736812E+02  0.80965775953E+01  0.18915296423E+02  0.30537771454E+02  0.00000000000E+00 0.  1.
</event>
<event>
 5    1  0.1709463E-003  0.9118800E+02  0.7818608E-02  0.1130116E+00
         25   -1    0    0    0    0  0.00000000000E+00  0.00000000000E+00  0.99999998245E-14  0.12500000000E+03  0.12500000000E+03 0.  0.
        -13    1    3    3    0    0  0.38948727087E+02 -0.41122993843E+02  0.12814182254E+02  0.58071666027E+02  0.10566000000E+00 0. -1.
         23    2    1    0    0    0  0.40300316730E+01 -0.24756330689E+02  0.13239209859E+02  0.96638163985E+02  0.92382579506E+02 0.  0.
         13    1    3    3    0    0 -0.34918695414E+02  0.16366663155E+02  0.42502760588E+00  0.38566497958E+02  0.10566000000E+00 0.  1.
         22    1    1    0    0    0 -0.40300316730E+01  0.24756330689E+02 -0.13239209859E+02  0.28361836015E+02  0.00000000000E+00 0. -1.
</event>
<event>
 5    1  0.1709463E-003  0.9118800E+02  0.7818608E-02  0.1130116E+00
         25   -1    0    0    0    0  0.00000000000E+00  0.00000000000E+00  0.99999998245E-14  0.12500000000E+03  0.12500000000E+03 0.  0.
        -13    1    3    3    0    0 -0.41820205575E-01 -0.25249289924E+02 -0.24447882913E+02  0.35145960416E+02  0.10566000000E+00 0.  1.
         23    2    1    0    0    0  0.90398270334E+01  0.27271593072E+02  0.46869369407E+01  0.95889423926E+02  0.91363865841E+02 0.  0.
         13    1    3    3    0    0  0.90816472390E+01  0.52520882996E+02  0.29134819854E+02  0.60743463510E+02  0.10566000000E+00 0. -1.
         22    1    1    0    0    0 -0.90398270334E+01 -0.27271593072E+02 -0.46869369407E+01  0.29110576074E+02  0.00000000000E+00 0. -1.
</event>
<event>
 5    1  0.1709463E-003  0.9118800E+02  0.7818608E-02  0.1130116E+00
         25   -1    0    0    0    0  0.00000000000E+00  0.00000000000E+00  0.99999998245E-14  0.12500000000E+03  0.12500000000E+03 0.  0.
        -13    1    3    3    0    0  0.30729404770E+02  0.89224099857E+01 -0.11853708982E+02  0.34123705809E+02  0.10566000000E+00 0.  1.
         23    2    1    0    0    0 -0.18492123276E+02 -0.75152154224E+00  0.23200938360E+02  0.95321608051E+02  0.90583674096E+02 0.  0.
         13    1    3    3    0    0 -0.49221528047E+02 -0.96739315279E+01  0.35054647342E+02  0.61197902242E+02  0.10566000000E+00 0. -1.
         22    1    1    0    0    0  0.18492123276E+02  0.75152154224E+00 -0.23200938360E+02  0.29678391949E+02  0.00000000000E+00 0. -1.
</event>
<event>
 5    1  0.1709463E-003  0.9118800E+02  0.7818608E-02  0.1130116E+00
         25   -1    0    0    0    0  0.00000000000E+00  0.00000000000E+00  0.99999998245E-14  0.12500000000E+03  0.12500000000E+03 0.  0.
        -13    1    3    3    0    0  0.19295593633E+02 -0.49446520364E+02 -0.17648419851E+02  0.55935285795E+02  0.10566000000E+00 0.  1.
         23    2    1    0    0    0  0.97396240996E+01 -0.18112922012E+02 -0.27971568657E+02  0.90281894139E+02  0.83339507647E+02 0.  0.
         13    1    3    3    0    0 -0.95559695329E+01  0.31333598352E+02 -0.10323148807E+02  0.34346608344E+02  0.10566000000E+00 0. -1.
         22    1    1    0    0    0 -0.97396240996E+01  0.18112922012E+02  0.27971568657E+02  0.34718105861E+02  0.00000000000E+00 0.  1.
</event>
<event>
 5    1  0.1709463E-003  0.9118800E+02  0.7818608E-02  0.1130116E+00
         25   -1    0    0    0    0  0.00000000000E+00  0.00000000000E+00  0.99999998245E-14  0.12500000000E+03  0.12500000000E+03 0.  0.
        -13    1    3    3    0    0  0.13490326911E+02  0.60562090138E+02 -0.77292560657E+00  0.62051303451E+02  0.10566000000E+00 0.  1.
         23    2    1    0    0    0  0.92185190576E+00  0.28039565699E+02 -0.11803803768E+01  0.96920463797E+02  0.92763764204E+02 0.  0.
         13    1    3    3    0    0 -0.12568475005E+02 -0.32522524438E+02 -0.40745477019E+00  0.34869160346E+02  0.10566000000E+00 0. -1.
         22    1    1    0    0    0 -0.92185190576E+00 -0.28039565699E+02  0.11803803768E+01  0.28079536203E+02  0.00000000000E+00 0.  1.
</event>
<event>
 5    1  0.1709463E-003  0.9118800E+02  0.7818608E-02  0.1130116E+00
         25   -1    0    0    0    0  0.00000000000E+00  0.00000000000E+00  0.99999998245E-14  0.12500000000E+03  0.12500000000E+03 0.  0.
        -13    1    3    3    0    0 -0.27463186138E+02  0.26902201864E+02 -0.47594381744E+02  0.61181626291E+02  0.10566000000E+00 0.  1.
         23    2    1    0    0    0 -0.29161021795E+01  0.14847034998E+02 -0.18239526947E+02  0.10130150968E+03  0.98490494060E+02 0.  0.
         13    1    3    3    0    0  0.24547083959E+02 -0.12055166866E+02  0.29354854797E+02  0.40119883390E+02  0.10566000000E+00 0. -1.
         22    1    1    0    0    0  0.29161021795E+01 -0.14847034998E+02  0.18239526947E+02  0.23698490319E+02  0.00000000000E+00 0.  1.
</event>
<event>
 5    1  0.1709463E-003  0.9118800E+02  0.7818608E-02  0.1130116E+00
         25   -1    0    0    0    0  0.00000000000E+00  0.00000000000E+00  0.99999998245E-14  0.12500000000E+03  0.12500000000E+03 0.  0.
        -13    1    3    3    0    0 -0.28474899540E+02  0.26366974285E+02 -0.86603512534E+01  0.39762420508E+02  0.10566000000E+00 0. -1.
         23    2    1    0    0    0 -0.38921831139E+01 -0.16459218534E+01  0.30724570284E+02  0.93986174578E+02  0.88721720253E+02 0.  0.
         13    1    3    3    0    0  0.24582716426E+02 -0.28012896138E+02  0.39384921538E+02  0.54223754071E+02  0.10566000000E+00 0.  1.
         22    1    1    0    0    0  0.38921831139E+01  0.16459218534E+01 -0.30724570284E+02  0.31013825422E+02  0.00000000000E+00 0.  1.
</event>
<event>
 5    1  0.1709463E-003  0.9118800E+02  0.7818608E-02  0.1130116E+00
         25   -1    0    0    0    0  0.00000000000E+00  0.00000000000E+00  0.99999998245E-14  0.12500000000E+03  0.12500000000E+03 0.  0.
        -13    1    3    3    0    0  0.13862989555E+02  0.36338670423E+01 -0.50877542965E+02  0.52857572884E+02  0.10566000000E+00 0. -1.
         23    2    1    0    0    0 -0.18315258253E+02  0.20732617071E+01 -0.23487506712E+02  0.95143508737E+02  0.90337573492E+02 0.  0.
         13    1    3    3    0    0 -0.32178247808E+02 -0.15606053352E+01  0.27390036253E+02  0.42285935853E+02  0.10566000000E+00 0.  1.
         22    1    1    0    0    0  0.18315258253E+02 -0.20732617071E+01  0.23487506712E+02  0.29856491263E+02  0.00000000000E+00 0. -1.
</event>
<event>
 5    1  0.1709463E-003  0.9118800E+02  0.7818608E-02  0.1130116E+00
         25   -1    0    0    0    0  0.00000000000E+00  0.00000000000E+00  0.99999998245E-14  0.12500000000E+03  0.12500000000E+03 0.  0.
        -13    1    3    3    0    0  0.21689086033E+02 -0.24581365312E+02 -0.14521558589E+02  0.35854522747E+02  0.10566000000E+00 0.  1.
         23    2    1    0    0    0 -0.29411891128E+02 -0.52770462151E+01  0.65595009931E+01  0.94406967954E+02  0.89312608229E+02 0.  0.
         13    1    3    3    0    0 -0.51100977161E+02  0.19304319097E+02  0.21081059582E+02  0.58552445207E+02  0.10566000000E+00 0. -1.
         22    1    1    0    0    0  0.29411891128E+02  0.52770462151E+01 -0.65595009931E+01  0.30593032046E+02  0.00000000000E+00 0. -1.
</event>
<event>
 5    1  0.1709463E-003  0.9118800E+02  0.7818608E-02  0.1130116E+00
         25   -1    0    0    0    0  0.00000000000E+00  0.00000000000E+00  0.99999998245E-14  0.12500000000E+03  0.12500000000E+03 0.  0.
        -13    1    3    3    0    0  0.47262881523E+02 -0.14822727713E+02  0.10343638765E+02  0.50601336481E+02  0.10566000000E+00 0. -1.
         23    2    1    0    0    0  0.74741686228E+01  0.43577738673E+01  0.26104110366E+02  0.97499491501E+02  0.93540755157E+02 0.  0.
         13    1    3    3    0    0 -0.39788712901E+02  0.19180501580E+02  0.15760471602E+02  0.46898155020E+02  0.10566000000E+00 0.  1.
         22    1    1    0    0    0 -0.74741686228E+01 -0.43577738673E+01 -0.26104110366E+02  0.27500508499E+02  0.00000000000E+00 0. -1.
</event>
<event>
 4    1  0.1709463E-003  0.9118800E+02  0.7818608E-02  0.1130116E+00
         25   -1    0    0    0    0  0.00000000000E+00  0.00000000000E+00  0.99999998245E-14  0.12500000000E+03  0.12500000000E+03 0.  0.
        -13    1    1    0    0    0 -0.52505345173E+01 -0.28458772770E+01 -0.30009927530E+00  0.59806649968E+01  0.10566000000E+00 0.  1.
         13    1    1    0    0    0  0.35668421870E+02  0.47293323792E+01  0.49469749497E+02  0.61170827874E+02  0.10566000000E+00 0. -1.
         22    1    1    0    0    0 -0.30417887352E+02 -0.18834551022E+01 -0.49169650222E+02  0.57848507129E+02  0.00000000000E+00 0. -1.
</event>
<event>
 5    1  0.1709463E-003  0.9118800E+02  0.7818608E-02  0.1130116E+00
         25   -1    0    0    0    0  0.00000000000E+00  0.00000000000E+00  0.99999998245E-14  0.12500000000E+03  0.12500000000E+03 0.  0.
        -13    1    3    3    0    0  0.13969963175E+02 -0.17300395294E+02 -0.52031752915E+02  0.56584255972E+02  0.10566000000E+00 0.  1.
         23    2    1    0    0    0 -0.91875170912E+01  0.20050645140E+01 -0.28968569710E+02  0.94543329383E+02  0.89503253270E+02 0.  0.
         13    1    3    3    0    0 -0.23157480266E+02  0.19305459808E+02  0.23063183205E+02  0.37959073412E+02  0.10566000000E+00 0. -1.
         22    1    1    0    0    0  0.91875170912E+01 -0.20050645140E+01  0.28968569710E+02  0.30456670617E+02  0.00000000000E+00 0.  1.
</event>
<event>
 5    1  0.1709463E-003  0.9118800E+02  0.7818608E-02  0.1130116E+00
         25   -1    0    0    0    0  0.00000000000E+00  0.00000000000E+00  0.99999998245E-14  0.12500000000E+03  0.12500000000E+03 0.  0.
        -13    1    3    3    0    0  0.17050604978E+01  0.27566217922E+02  0.45982301892E+02  0.53639415108E+02  0.10566000000E+00 0. -1.
         23    2    1    0    0    0 -0.35099522429E+01 -0.10126609373E+02  0.26554757370E+02  0.96363954164E+02  0.92010806653E+02 0.  0.
         13    1    3    3    0    0 -0.52150127407E+01 -0.37692827295E+02 -0.19427544521E+02  0.42724539056E+02  0.10566000000E+00 0.  1.
         22    1    1    0    0    0  0.35099522429E+01  0.10126609373E+02 -0.26554757370E+02  0.28636045836E+02  0.00000000000E+00 0.  1.
</event>
<event>
 5    1  0.1709463E-003  0.9118800E+02  0.7818608E-02  0.1130116E+00
         25   -1    0    0    0    0  0.00000000000E+00  0.00000000000E+00  0.99999998245E-14  0.12500000000E+03  0.12500000000E+03 0.  0.
        -13    1    3    3    0    0 -0.79116708158E+01 -0.32512607404E+02  0.38706068440E+02  0.51164783527E+02  0.10566000000E+00 0. -1.
         23    2    1    0    0    0 -0.93320309539E+01  0.10764761084E+02  0.24359321169E+02  0.96780442762E+02  0.92574892333E+02 0.  0.
         13    1    3    3    0    0 -0.14203601381E+01  0.43277368487E+02 -0.14346747272E+02  0.45615659235E+02  0.10566000000E+00 0.  1.
         22    1    1    0    0    0  0.93320309539E+01 -0.10764761084E+02 -0.24359321169E+02  0.28219557238E+02  0.00000000000E+00 0. -1.
</event>
<event>
 5    1  0.1709463E-003  0.9118800E+02  0.7818608E-02  0.1130116E+00
         25   -1    0    0    0    0  0.00000000000E+00  0.00000000000E+00  0.99999998245E-14  0.12500000000E+03  0.12500000000E+03 0.  0.
        -13    1    3    3    0    0 -0.22302458810E+02  0.33692664682E+01  0.28814076662E+02  0.36592537537E+02  0.10566000000E+00 0.  1.
         23    2    1    0    0    0 -0.26759264072E+01 -0.88695652376E+01 -0.26703148702E+02  0.96735394568E+02  0.92514045647E+02 0.  0.
         13    1    3    3    0    0  0.19626532403E+02 -0.12238831706E+02 -0.55517225363E+02  0.60142857031E+02  0.10566000000E+00 0. -1.
         22    1    1    0    0    0  0.26759264072E+01  0.88695652376E+01  0.26703148702E+02  0.28264605432E+02  0.00000000000E+00 0. -1.
</event>
<event>
 5    1  0.1709463E-003  0.9118800E+02  0.7818608E-02  0.1130116E+00
         25   -1    0    0    0    0  0.00000000000E+00  0.00000000000E+00  0.99999998245E-14  0.12500000000E+03  0.12500000000E+03 0.  0.
        -13    1    3    3    0    0 -0.22786339524E+01 -0.12340544781E+02  0.36974275518E+02  0.39045991245E+02  0.10566000000E+00 0. -1.
         23    2    1    0    0    0  0.79691675125E+01  0.30069781059E+02  0.42117654967E+01  0.93608307909E+02  0.88187737113E+02 0.  0.
         13    1    3    3    0    0  0.10247801465E+02  0.42410325840E+02 -0.32762510021E+02  0.54562316663E+02  0.10566000000E+00 0.  1.
         22    1    1    0    0    0 -0.79691675125E+01 -0.30069781059E+02 -0.42117654967E+01  0.31391692091E+02  0.00000000000E+00 0.  1.
</event>
<event>
 5    1  0.1709463E-003  0.9118800E+02  0.7818608E-02  0.1130116E+00
         25   -1    0    0    0    0  0.00000000000E+00  0.00000000000E+00  0.99999998245E-14  0.12500000000E+03  0.12500000000E+03 0.  0.
        -13    1    3    3    0    0  0.23815741402E+02 -0.28261449318E+02  0.26017330091E+02  0.45197474323E+02  0.10566000000E+00 0. -1.
         23    2    1    0    0    0 -0.12393211514E+02  0.75770793014E+01  0.24920090514E+02  0.96155334400E+02  0.91726951328E+02 0.  0.
         13    1    3    3    0    0 -0.36208952916E+02  0.35838528619E+02 -0.10972395772E+01  0.50957860077E+02  0.10566000000E+00 0.  1.
         22    1    1    0    0    0  0.12393211514E+02 -0.75770793014E+01 -0.24920090514E+02  0.28844665600E+02  0.00000000000E+00 0.  1.
</event>
<event>
 5    1  0.1709463E-003  0.9118800E+02  0.7818608E-02  0.1130116E+00
         25   -1    0    0    0    0  0.00000000000E+00  0.00000000000E+00  0.99999998245E-14  0.12500000000E+03  0.12500000000E+03 0.  0.
        -13    1    3    3    0    0  0.17719766668E+02  0.40208557579E+02 -0.35628090619E+02  0.56569340093E+02  0.10566000000E+00 0.  1.
         23    2    1    0    0    0  0.11184243397E+02  0.26736296157E+02  0.85518422245E+00  0.96006066623E+02  0.91523312090E+02 0.  0.
         13    1    3    3    0    0 -0.65355232704E+01 -0.13472261422E+02  0.36483274842E+02  0.39436726530E+02  0.10566000000E+00 0. -1.
         22    1    1    0    0    0 -0.11184243397E+02 -0.26736296157E+02 -0.85518422245E+00  0.28993933377E+02  0.00000000000E+00 0. -1.
</event>
<event>
 5    1  0.1709463E-003  0.9118800E+02  0.7818608E-02  0.1130116E+00
         25   -1    0    0    0    0  0.00000000000E+00  0.00000000000E+00  0.99999998245E-14  0.12500000000E+03  0.12500000000E+03 0.  0.
        -13    1    3    3    0    0 -0.16651435306E+02 -0.58227448105E+02 -0.12232522379E+02  0.61784721237E+02  0.10566000000E+00 0. -1.
         23    2    1    0    0    0 -0.15652188625E+02 -0.35414850673E+02 -0.39318278832E+01  0.86081342168E+02  0.76781088439E+02 0.  0.
         13    1    3    3    0    0  0.99924668059E+00  0.22812597431E+02  0.83006944957E+01  0.24296620931E+02  0.10566000000E+00 0.  1.
         22    1    1    0    0    0  0.15652188625E+02  0.35414850673E+02  0.39318278832E+01  0.38918657832E+02  0.00000000000E+00 0. -1.
</event>
<event>
 5    1  0.1709463E-003  0.9118800E+02  0.7818608E-02  0.1130116E+00
         25   -1    0    0    0    0  0.00000000000E+00  0.00000000000E+00  0.99999998245E-14  0.12500000000E+03  0.12500000000E+03 0.  0.
        -13    1    3    3    0    0  0.96636689600E+01  0.31923772275E+02 -0.12946162993E+02  0.35778876929E+02  0.10566000000E+00 0.  1.
         23    2    1    0    0    0 -0.11738530621E+02 -0.24262340387E+02 -0.10866122371E+02  0.95939255385E+02  0.91432017621E+02 0.  0.
         13    1    3    3    0    0 -0.21402199581E+02 -0.56186112662E+02  0.20800406218E+01  0.60160378456E+02  0.10566000000E+00 0. -1.
         22    1    1    0    0    0  0.11738530621E+02  0.24262340387E+02  0.10866122371E+02  0.29060744615E+02  0.00000000000E+00 0. -1.
</event>
<event>
 5    1  0.1709463E-003  0.9118800E+02  0.7818608E-02  0.1130116E+00
         25   -1    0    0    0    0  0.00000000000E+00  0.00000000000E+00  0.99999998245E-14  0.12500000000E+03  0.12500000000E+03 0.  0.
        -13    1    3    3    0    0  0.24792854909E+02 -0.37084553340E+02  0.32137142149E+02  0.54979603678E+02  0.10566000000E+00 0.  1.
         23    2    1    0    0    0  0.13339289850E+02  0.81888983268E+00  0.26955316134E+02  0.94913519612E+02  0.90018775280E+02 0.  0.
         13    1    3    3    0    0 -0.11453565059E+02  0.37903443173E+02 -0.51818260152E+01  0.39933915934E+02  0.10566000000E+00 0. -1.
         22    1    1    0    0    0 -0.13339289850E+02 -0.81888983268E+00 -0.26955316134E+02  0.30086480388E+02  0.00000000000E+00 0.  1.
</event>
<event>
 5    1  0.1709463E-003  0.9118800E+02  0.7818608E-02  0.1130116E+00
         25   -1    0    0    0    0  0.00000000000E+00  0.00000000000E+00  0.99999998245E-14  0.12500000000E+03  0.12500000000E+03 0.  0.
        -13    1    3    3    0    0 -0.14172316916E+02 -0.13755003685E+02 -0.31260636682E+02  0.36976928793E+02  0.10566000000E+00 0.  1.
         23    2    1    0    0    0 -0.60769481092E+01  0.22243926132E+02  0.15998577023E+02  0.96934433645E+02  0.92782586789E+02 0.  0.
         13    1    3    3    0    0  0.80953688068E+01  0.35998929817E+02  0.47259213705E+02  0.59957504852E+02  0.10566000000E+00 0. -1.
         22    1    1    0    0    0  0.60769481092E+01 -0.22243926132E+02 -0.15998577023E+02  0.28065566355E+02  0.00000000000E+00 0. -1.
</event>
<event>
 5    1  0.1709463E-003  0.9118800E+02  0.7818608E-02  0.1130116E+00
         25   -1    0    0    0    0  0.00000000000E+00  0.00000000000E+00  0.99999998245E-14  0.12500000000E+03  0.12500000000E+03 0.  0.
        -13    1    3    3    0    0 -0.31955361028E+02  0.34749972859E+01 -0.18667440954E+02  0.37171295651E+02  0.10566000000E+00 0.  1.
         23    2    1    0    0    0  0.20378678988E+02 -0.19434445217E+02 -0.16026406780E+01  0.96794385748E+02  0.92593717050E+02 0.  0.
         13    1    3    3    0    0  0.52334040017E+02 -0.22909442503E+02  0.17064800276E+02  0.59623090097E+02  0.10566000000E+00 0. -1.
         22    1    1    0    0    0 -0.20378678988E+02  0.19434445217E+02  0.16026406780E+01  0.28205614252E+02  0.00000000000E+00 0. -1.
</event>
<event>
 5    1  0.1709463E-003  0.9118800E+02  0.7818608E-02  0.1130116E+00
         25   -1    0    0    0    0  0.00000000000E+00  0.00000000000E+00  0.99999998245E-14  0.12500000000E+03  0.12500000000E+03 0.  0.
        -13    1    3    3    0    0 -0.39828059777E+02  0.48797803294E+01 -0.14789385389E+02  0.42764748168E+02  0.10566000000E+00 0. -1.
         23    2    1    0    0    0  0.92100132929E+01 -0.40240552254E+01  0.19363363896E+02  0.10318355605E+03  0.10085082554E+03 0.  0.
         13    1    3    3    0    0  0.49038073070E+02 -0.89038355547E+01  0.34152749285E+02  0.60418807881E+02  0.10566000000E+00 0.  1.
         22    1    1    0    0    0 -0.92100132929E+01  0.40240552254E+01 -0.19363363896E+02  0.21816443951E+02  0.00000000000E+00 0.  1.
</event>
<event>
 5    1  0.1709463E-003  0.9118800E+02  0.7818608E-02  0.1130116E+00
         25   -1    0    0    0    0  0.00000000000E+00  0.00000000000E+00  0.99999998245E-14  0.12500000000E+03  0.12500000000E+03 0.  0.
        -13    1    3    3    0    0  0.38797420071E+02 -0.16936035214E+02  0.36554673309E+02  0.55931425851E+02  0.10566000000E+00 0. -1.
         23    2    1    0    0    0  0.30062015918E+02 -0.43788275654E+01  0.10371780096E+01  0.94603048341E+02  0.89586617781E+02 0.  0.
         13    1    3    3    0    0 -0.87354041533E+01  0.12557207649E+02 -0.35517495299E+02  0.38671622490E+02  0.10566000000E+00 0.  1.
         22    1    1    0    0    0 -0.30062015918E+02  0.43788275654E+01 -0.10371780096E+01  0.30396951659E+02  0.00000000000E+00 0. -1.
</event>
<event>
 5    1  0.1709463E-003  0.9118800E+02  0.7818608E-02  0.1130116E+00
         25   -1    0    0    0    0  0.00000000000E+00  0.00000000000E+00  0.99999998245E-14  0.12500000000E+03  0.12500000000E+03 0.  0.
        -13    1    3    3    0    0 -0.14254614584E+02 -0.18249802557E+02 -0.32266829152E+02  0.39716605568E+02  0.10566000000E+00 0. -1.
         23    2    1    0    0    0 -0.17708456982E+02  0.17160864137E+02  0.12865326400E+02  0.97186310386E+02  0.93121305813E+02 0.  0.
         13    1    3    3    0    0 -0.34538423982E+01  0.35410666694E+02  0.45132155552E+02  0.57469704817E+02  0.10566000000E+00 0.  1.
         22    1    1    0    0    0  0.17708456982E+02 -0.17160864137E+02 -0.12865326400E+02  0.27813689614E+02  0.00000000000E+00 0.  1.
</event>
<event>
 5    1  0.1709463E-003  0.9118800E+02  0.7818608E-02  0.1130116E+00
         25   -1    0    0    0    0  0.00000000000E+00  0.00000000000E+00  0.99999998245E-14  0.12500000000E+03  0.12500000000E+03 0.  0.
        -13    1    3    3    0    0  0.32478372303E+02 -0.16822493866E+02  0.18479407181E+02  0.40979758675E+02  0.10566000000E+00 0. -1.
         23    2    1    0    0    0 -0.64142812613E+01  0.19801841773E+02  0.22245328548E+02  0.94535092583E+02  0.89491749038E+02 0.  0.
         13    1    3    3    0    0 -0.38892653564E+02  0.36624335639E+02  0.37659213668E+01  0.53555333908E+02  0.10566000000E+00 0.  1.
         22    1    1    0    0    0  0.64142812613E+01 -0.19801841773E+02 -0.22245328548E+02  0.30464907417E+02  0.00000000000E+00 0.  1.
</event>
<event>
 5    1  0.1709463E-003  0.9118800E+02  0.7818608E-02  0.1130116E+00
         25   -1    0    0    0    0  0.00000000000E+00  0.00000000000E+00  0.99999998245E-14  0.12500000000E+03  0.12500000000E+03 0.  0.
        -13    1    3    3    0    0  0.40678673473E+02  0.10901439334E+02  0.13087029373E+02  0.44100763677E+02  0.10566000000E+00 0. -1.
         23    2    1    0    0    0  0.48059055756E+01 -0.26873431685E+02  0.49268406242E+00  0.97695773285E+02  0.93802682911E+02 0.  0.
         13    1    3    3    0    0 -0.35872767897E+02 -0.37774871018E+02 -0.12594345311E+02  0.53595009608E+02  0.10566000000E+00 0.  1.
         22    1    1    0    0    0 -0.48059055756E+01  0.26873431685E+02 -0.49268406242E+00  0.27304226715E+02  0.00000000000E+00 0.  1.
</event>
<event>
 5    1  0.1709463E-003  0.9118800E+02  0.7818608E-02  0.1130116E+00
         25   -1    0    0    0    0  0.00000000000E+00  0.00000000000E+00  0.99999998245E-14  0.12500000000E+03  0.12500000000E+03 0.  0.
        -13    1    3    3    0    0  0.18918430053E+02 -0.22139794825E+01 -0.29648453097E+02  0.35239901190E+02  0.10566000000E+00 0. -1.
         23    2    1    0    0    0 -0.13439137304E+02 -0.91174544498E+01  0.22652541848E+02  0.97127503892E+02  0.93042334305E+02 0.  0.
         13    1    3    3    0    0 -0.32357567356E+02 -0.69034749674E+01  0.52300994945E+02  0.61887602702E+02  0.10566000000E+00 0.  1.
         22    1    1    0    0    0  0.13439137304E+02  0.91174544498E+01 -0.22652541848E+02  0.27872496108E+02  0.00000000000E+00 0.  1.
</event>
<event>
 4    1  0.1709463E-003  0.9118800E+02  0.7818608E-02  0.1130116E+00
         25   -1    0    0    0    0  0.00000000000E+00  0.00000000000E+00  0.99999998245E-14  0.12500000000E+03  0.12500000000E+03 0.  0.
        -13    1    1    0    0    0 -0.22813241715E+01  0.87949377821E+01 -0.59570094847E+01  0.10865196575E+02  0.10566000000E+00 0. -1.
         13    1    1    0    0    0 -0.31770421347E+02 -0.40881653955E+02  0.31723733770E+02  0.60721295696E+02  0.10566000000E+00 0.  1.
         22    1    1    0    0    0  0.34051745518E+02  0.32086716173E+02 -0.25766724285E+02  0.53413507730E+02  0.00000000000E+00 0.  1.
</event>
<event>
 5    1  0.1709463E-003  0.9118800E+02  0.7818608E-02  0.1130116E+00
         25   -1    0    0    0    0  0.00000000000E+00  0.00000000000E+00  0.99999998245E-14  0.12500000000E+03  0.12500000000E+03 0.  0.
        -13    1    3    3    0    0  0.66197580652E+01 -0.83801843353E+01 -0.18458500641E+02  0.21325479977E+02  0.10566000000E+00 0.  1.
         23    2    1    0    0    0  0.31500528793E+02 -0.21169337165E+02  0.29556485084E+02  0.76895842584E+02  0.59991338091E+02 0.  0.
         13    1    3    3    0    0  0.24880770727E+02 -0.12789152829E+02  0.48014985724E+02  0.55570362606E+02  0.10566000000E+00 0. -1.
         22    1    1    0    0    0 -0.31500528793E+02  0.21169337165E+02 -0.29556485084E+02  0.48104157416E+02  0.00000000000E+00 0. -1.
</event>
<event>
 5    1  0.1709463E-003  0.9118800E+02  0.7818608E-02  0.1130116E+00
         25   -1    0    0    0    0  0.00000000000E+00  0.00000000000E+00  0.99999998245E-14  0.12500000000E+03  0.12500000000E+03 0.  0.
        -13    1    3    3    0    0  0.30940047009E+02 -0.12343010134E+02 -0.23375708790E+02  0.40694856352E+02  0.10566000000E+00 0.  1.
         23    2    1    0    0    0 -0.11614089902E+02 -0.25135443563E+02  0.92338486701E+01  0.95811961892E+02  0.91257824174E+02 0.  0.
         13    1    3    3    0    0 -0.42554136911E+02 -0.12792433429E+02  0.32609557460E+02  0.55117105539E+02  0.10566000000E+00 0. -1.
         22    1    1    0    0    0  0.11614089902E+02  0.25135443563E+02 -0.92338486701E+01  0.29188038108E+02  0.00000000000E+00 0. -1.
</event>
<event>
 5    1  0.1709463E-003  0.9118800E+02  0.7818608E-02  0.1130116E+00
         25   -1    0    0    0    0  0.00000000000E+00  0.00000000000E+00  0.99999998245E-14  0.12500000000E+03  0.12500000000E+03 0.  0.
        -13    1    3    3    0    0 -0.24612333638E+02 -0.93529445940E+01 -0.21970430409E+02  0.34292207804E+02  0.10566000000E+00 0. -1.
         23    2    1    0    0    0  0.21889457625E+02 -0.48908327183E+01  0.18364794669E+02  0.96011480151E+02  0.91530705437E+02 0.  0.
         13    1    3    3    0    0  0.46501791263E+02  0.44621118756E+01  0.40335225077E+02  0.61719272348E+02  0.10566000000E+00 0.  1.
         22    1    1    0    0    0 -0.21889457625E+02  0.48908327183E+01 -0.18364794669E+02  0.28988519849E+02  0.00000000000E+00 0.  1.
</event>
<event>
 5    1  0.1709463E-003  0.9118800E+02  0.7818608E-02  0.1130116E+00
         25   -1    0    0    0    0  0.00000000000E+00  0.00000000000E+00  0.99999998245E-14  0.12500000000E+03  0.12500000000E+03 0.  0.
        -13    1    3    3    0    0 -0.14072612375E+02  0.22750470099E+02 -0.17095919367E+02  0.31747502765E+02  0.10566000000E+00 0. -1.
         23    2    1    0    0    0  0.23386474278E+02 -0.18176217680E+02  0.10321676343E+02  0.93633790939E+02  0.88223850147E+02 0.  0.
         13    1    3    3    0    0  0.37459086652E+02 -0.40926687779E+02  0.27417595710E+02  0.61886288174E+02  0.10566000000E+00 0.  1.
         22    1    1    0    0    0 -0.23386474278E+02  0.18176217680E+02 -0.10321676343E+02  0.31366209061E+02  0.00000000000E+00 0.  1.
</event>
<event>
 5    1  0.1709463E-003  0.9118800E+02  0.7818608E-02  0.1130116E+00
         25   -1    0    0    0    0  0.00000000000E+00  0.00000000000E+00  0.99999998245E-14  0.12500000000E+03  0.12500000000E+03 0.  0.
        -13    1    3    3    0    0  0.31365301459E+01 -0.82635321078E+01 -0.32818650903E+02  0.33988215537E+02  0.10566000000E+00 0.  1.
         23    2    1    0    0    0  0.76047048241E+01 -0.54061045860E+01  0.28230572392E+02  0.95267480432E+02  0.90508950430E+02 0.  0.
         13    1    3    3    0    0  0.44681746782E+01  0.28574275218E+01  0.61049223296E+02  0.61279264895E+02  0.10566000000E+00 0. -1.
         22    1    1    0    0    0 -0.76047048241E+01  0.54061045860E+01 -0.28230572392E+02  0.29732519568E+02  0.00000000000E+00 0. -1.
</event>
<event>
 5    1  0.1709463E-003  0.9118800E+02  0.7818608E-02  0.1130116E+00
         25   -1    0    0    0    0  0.00000000000E+00  0.00000000000E+00  0.99999998245E-14  0.12500000000E+03  0.12500000000E+03 0.  0.
        -13    1    3    3    0    0  0.14621708831E+02 -0.45231826013E+02 -0.98890230752E+01  0.48554262377E+02  0.10566000000E+00 0. -1.
         23    2    1    0    0    0 -0.22500936626E+02 -0.15625476767E+02  0.20933402942E+01  0.97525834921E+02  0.93575951666E+02 0.  0.
         13    1    3    3    0    0 -0.37122645457E+02  0.29606349246E+02  0.11982363369E+02  0.48971572543E+02  0.10566000000E+00 0.  1.
         22    1    1    0    0    0  0.22500936626E+02  0.15625476767E+02 -0.20933402942E+01  0.27474165079E+02  0.00000000000E+00 0.  1.
</event>
<event>
 5    1  0.1709463E-003  0.9118800E+02  0.7818608E-02  0.1130116E+00
         25   -1    0    0    0    0  0.00000000000E+00  0.00000000000E+00  0.99999998245E-14  0.12500000000E+03  0.12500000000E+03 0.  0.
        -13    1    3    3    0    0 -0.25847297206E+02 -0.11256865754E+02  0.53194518037E+02  0.60203552326E+02  0.10566000000E+00 0.  1.
         23    2    1    0    0    0 -0.56433714854E+01 -0.15337089312E+02  0.25109106278E+02  0.95041008556E+02  0.90195632593E+02 0.  0.
         13    1    3    3    0    0  0.20203925721E+02 -0.40802235584E+01 -0.28085411759E+02  0.34837456229E+02  0.10566000000E+00 0. -1.
         22    1    1    0    0    0  0.56433714854E+01  0.15337089312E+02 -0.25109106278E+02  0.29958991444E+02  0.00000000000E+00 0.  1.
</event>
<event>
 5    1  0.1709463E-003  0.9118800E+02  0.7818608E-02  0.1130116E+00
         25   -1    0    0    0    0  0.00000000000E+00  0.00000000000E+00  0.99999998245E-14  0.12500000000E+03  0.12500000000E+03 0.  0.
        -13    1    3    3    0    0  0.16029563266E+02 -0.10777972147E+02 -0.42465095671E+02  0.46651978484E+02  0.10566000000E+00 0.  1.
         23    2    1    0    0    0  0.24985748840E+02  0.10878663532E+02  0.27808856078E+01  0.97607185429E+02  0.93684557731E+02 0.  0.
         13    1    3    3    0    0  0.89561855741E+01  0.21656635678E+02  0.45245981278E+02  0.50955206945E+02  0.10566000000E+00 0. -1.
         22    1    1    0    0    0 -0.24985748840E+02 -0.10878663532E+02 -0.27808856078E+01  0.27392814571E+02  0.00000000000E+00 0.  1.
</event>
<event>
 5    1  0.1709463E-003  0.9118800E+02  0.7818608E-02  0.1130116E+00
         25   -1    0    0    0    0  0.00000000000E+00  0.00000000000E+00  0.99999998245E-14  0.12500000000E+03  0.12500000000E+03 0.  0.
        -13    1    3    3    0    0 -0.23538688877E+02  0.22653314202E+02  0.19065693142E+02  0.37825313448E+02  0.10566000000E+00 0.  1.
         23    2    1    0    0    0 -0.33597382912E+01 -0.28332765261E+02 -0.15987907883E+01  0.96423968773E+02  0.92092302573E+02 0.  0.
         13    1    3    3    0    0  0.20178950586E+02 -0.50986079463E+02 -0.20664483930E+02  0.58598655325E+02  0.10566000000E+00 0. -1.
         22    1    1    0    0    0  0.33597382912E+01  0.28332765261E+02  0.15987907883E+01  0.28576031227E+02  0.00000000000E+00 0. -1.
</event>
<event>
 5    1  0.1709463E-003  0.9118800E+02  0.7818608E-02  0.1130116E+00
         25   -1    0    0    0    0  0.00000000000E+00  0.00000000000E+00  0.99999998245E-14  0.12500000000E+03  0.12500000000E+03 0.  0.
        -13    1    3    3    0    0  0.31605179723E+02 -0.39262466873E+02 -0.28513556414E+02  0.57909090424E+02  0.10566000000E+00 0.  1.
         23    2    1    0    0    0  0.17119203750E+02 -0.22719780470E+02  0.30636240298E+01  0.96388090699E+02  0.92043591166E+02 0.  0.
         13    1    3    3    0    0 -0.14485975973E+02  0.16542686403E+02  0.31577180444E+02  0.38479000275E+02  0.10566000000E+00 0. -1.
         22    1    1    0    0    0 -0.17119203750E+02  0.22719780470E+02 -0.30636240298E+01  0.28611909301E+02  0.00000000000E+00 0.  1.
</event>
<event>
 5    1  0.1709463E-003  0.9118800E+02  0.7818608E-02  0.1130116E+00
         25   -1    0    0    0    0  0.00000000000E+00  0.00000000000E+00  0.99999998245E-14  0.12500000000E+03  0.12500000000E+03 0.  0.
        -13    1    3    3    0    0  0.52578334195E+02  0.62695309983E+01  0.16503988191E+02  0.55463330552E+02  0.10566000000E+00 0.  1.
         23    2    1    0    0    0  0.32979312862E+02  0.48214800285E+01 -0.11558226587E+02  0.89722892007E+02  0.82496806009E+02 0.  0.
         13    1    3    3    0    0 -0.19599021333E+02 -0.14480509699E+01 -0.28062214779E+02  0.34259561455E+02  0.10566000000E+00 0. -1.
         22    1    1    0    0    0 -0.32979312862E+02 -0.48214800285E+01  0.11558226587E+02  0.35277107993E+02  0.00000000000E+00 0.  1.
</event>
<event>
 5    1  0.1709463E-003  0.9118800E+02  0.7818608E-02  0.1130116E+00
         25   -1    0    0    0    0  0.00000000000E+00  0.00000000000E+00  0.99999998245E-14  0.12500000000E+03  0.12500000000E+03 0.  0.
        -13    1    3    3    0    0  0.46682009754E+02  0.36551821746E+02 -0.12089782319E+02  0.60509666237E+02  0.10566000000E+00 0. -1.
         23    2    1    0    0    0  0.14977795647E+02  0.19116552265E+02 -0.14401338204E+02  0.96765703922E+02  0.92554988955E+02 0.  0.
         13    1    3    3    0    0 -0.31704214106E+02 -0.17435269481E+02 -0.23115558848E+01  0.36256037685E+02  0.10566000000E+00 0.  1.
         22    1    1    0    0    0 -0.14977795647E+02 -0.19116552265E+02  0.14401338204E+02  0.28234296078E+02  0.00000000000E+00 0. -1.
</event>
<event>
 5    1  0.1709463E-003  0.9118800E+02  0.7818608E-02  0.1130116E+00
         25   -1    0    0    0    0  0.00000000000E+00  0.00000000000E+00  0.99999998245E-14  0.12500000000E+03  0.12500000000E+03 0.  0.
        -13    1    3    3    0    0 -0.29740582477E+02 -0.24952228901E+02 -0.13204682328E+02  0.41005984595E+02  0.10566000000E+00 0. -1.
         23    2    1    0    0    0 -0.33305706561E+01  0.62308195846E+01  0.26254272044E+02  0.97811719177E+02  0.93957063567E+02 0.  0.
         13    1    3    3    0    0  0.26410011820E+02  0.31183048486E+02  0.39458954372E+02  0.56805734582E+02  0.10566000000E+00 0.  1.
         22    1    1    0    0    0  0.33305706561E+01 -0.62308195846E+01 -0.26254272044E+02  0.27188280823E+02  0.00000000000E+00 0.  1.
</event>
<event>
 5    1  0.1709463E-003  0.9118800E+02  0.7818608E-02  0.1130116E+00
         25   -1    0    0    0    0  0.00000000000E+00  0.00000000000E+00  0.99999998245E-14  0.12500000000E+03  0.12500000000E+03 0.  0.
        -13    1    3    3    0    0 -0.12463647422E+01 -0.33429196447E+02  0.23448492296E+01  0.33534669852E+02  0.10566000000E+00 0. -1.
         23    2    1    0    0    0 -0.66053570027E+01  0.27436184781E+02  0.98841107187E+01  0.95098986285E+02  0.90275946804E+02 0.  0.
         13    1    3    3    0    0 -0.53589922606E+01  0.60865381228E+02  0.75392614891E+01  0.61564316433E+02  0.10566000000E+00 0.  1.
         22    1    1    0    0    0  0.66053570027E+01 -0.27436184781E+02 -0.98841107187E+01  0.29901013715E+02  0.00000000000E+00 0.  1.
</event>
<event>
 5    1  0.1709463E-003  0.9118800E+02  0.7818608E-02  0.1130116E+00
         25   -1    0    0    0    0  0.00000000000E+00  0.00000000000E+00  0.99999998245E-14  0.12500000000E+03  0.12500000000E+03 0.  0.
        -13    1    3    3    0    0  0.21850189602E+02  0.32474224202E+02  0.72199234577E+00  0.39147649484E+02  0.10566000000E+00 0.  1.
         23    2    1    0    0    0 -0.20509801153E+02 -0.54608838780E+00  0.20130607775E+02  0.96256452459E+02  0.91864645619E+02 0.  0.
         13    1    3    3    0    0 -0.42359990755E+02 -0.33020312590E+02  0.19408615429E+02  0.57108802975E+02  0.10566000000E+00 0. -1.
         22    1    1    0    0    0  0.20509801153E+02  0.54608838780E+00 -0.20130607775E+02  0.28743547541E+02  0.00000000000E+00 0. -1.
</event>
<event>
 5    1  0.1709463E-003  0.9118800E+02  0.7818608E-02  0.1130116E+00
         25   -1    0    0    0    0  0.00000000000E+00  0.00000000000E+00  0.99999998245E-14  0.12500000000E+03  0.12500000000E+03 0.  0.
        -13    1    3    3    0    0 -0.42584232705E+02 -0.33544900365E+02  0.15435672167E+02  0.56364424550E+02  0.10566000000E+00 0. -1.
         23    2    1    0    0    0 -0.21442833027E+02 -0.16742065964E+02 -0.12360330967E+02  0.95119075607E+02  0.90303759067E+02 0.  0.
         13    1    3    3    0    0  0.21141399678E+02  0.16802834400E+02 -0.27796003134E+02  0.38754651057E+02  0.10566000000E+00 0.  1.
         22    1    1    0    0    0  0.21442833027E+02  0.16742065964E+02  0.12360330967E+02  0.29880924393E+02  0.00000000000E+00 0. -1.
</event>
<event>
 5    1  0.1709463E-003  0.9118800E+02  0.7818608E-02  0.1130116E+00
         25   -1    0    0    0    0  0.00000000000E+00  0.00000000000E+00  0.99999998245E-14  0.12500000000E+03  0.12500000000E+03 0.  0.
        -13    1    3    3    0    0 -0.24660556726E+02  0.18716261942E+02  0.14524306018E+02  0.34196610190E+02  0.10566000000E+00 0.  1.
         23    2    1    0    0    0  0.14274247962E+02 -0.12604145057E+02 -0.21860333900E+02  0.96008745703E+02  0.91526971029E+02 0.  0.
         13    1    3    3    0    0  0.38934804688E+02 -0.31320407000E+02 -0.36384639918E+02  0.61812135513E+02  0.10566000000E+00 0. -1.
         22    1    1    0    0    0 -0.14274247962E+02  0.12604145057E+02  0.21860333900E+02  0.28991254297E+02  0.00000000000E+00 0. -1.
</event>
<event>
 5    1  0.1709463E-003  0.9118800E+02  0.7818608E-02  0.1130116E+00
         25   -1    0    0    0    0  0.00000000000E+00  0.00000000000E+00  0.99999998245E-14  0.12500000000E+03  0.12500000000E+03 0.  0.
        -13    1    3    3    0    0 -0.41085430814E+02  0.25197172250E+02 -0.31859774231E+02  0.57775137322E+02  0.10566000000E+00 0. -1.
         23    2    1    0    0    0 -0.77291594510E+01  0.24586752040E+02 -0.15399125365E+02  0.94976986432E+02  0.90106862158E+02 0.  0.
         13    1    3    3    0    0  0.33356271363E+02 -0.61042020935E+00  0.16460648866E+02  0.37201849110E+02  0.10566000000E+00 0.  1.
         22    1    1    0    0    0  0.77291594510E+01 -0.24586752040E+02  0.15399125365E+02  0.30023013568E+02  0.00000000000E+00 0. -1.
</event>
<event>
 5    1  0.1709463E-003  0.9118800E+02  0.7818608E-02  0.1130116E+00
         25   -1    0    0    0    0  0.00000000000E+00  0.00000000000E+00  0.99999998245E-14  0.12500000000E+03  0.12500000000E+03 0.  0.
        -13    1    3    3    0    0  0.82647747135E+00  0.24534150507E+02 -0.27400685023E+02  0.36788806856E+02  0.10566000000E+00 0.  1.
         23    2    1    0    0    0 -0.23870094862E+02 -0.13592110026E+02  0.10139847963E+02  0.95719573084E+02  0.91131187147E+02 0.  0.
         13    1    3    3    0    0 -0.24696572334E+02 -0.38126260533E+02  0.37540532986E+02  0.58930766228E+02  0.10566000000E+00 0. -1.
         22    1    1    0    0    0  0.23870094862E+02  0.13592110026E+02 -0.10139847963E+02  0.29280426916E+02  0.00000000000E+00 0. -1.
</event>
<event>
 5    1  0.1709463E-003  0.9118800E+02  0.7818608E-02  0.1130116E+00
         25   -1    0    0    0    0  0.00000000000E+00  0.00000000000E+00  0.99999998245E-14  0.12500000000E+03  0.12500000000E+03 0.  0.
        -13    1    3    3    0    0 -0.74157660405E+01  0.31591634844E+02 -0.30519162698E+02  0.44547227005E+02  0.10566000000E+00 0.  1.
         23    2    1    0    0    0  0.27867879326E+02  0.12756152230E+01 -0.10465326714E+02  0.95204548073E+02  0.90421994106E+02 0.  0.
         13    1    3    3    0    0  0.35283645367E+02 -0.30316019621E+02  0.20053835983E+02  0.50657321067E+02  0.10566000000E+00 0. -1.
         22    1    1    0    0    0 -0.27867879326E+02 -0.12756152230E+01  0.10465326714E+02  0.29795451927E+02  0.00000000000E+00 0. -1.
</event>
<event>
 5    1  0.1709463E-003  0.9118800E+02  0.7818608E-02  0.1130116E+00
         25   -1    0    0    0    0  0.00000000000E+00  0.00000000000E+00  0.99999998245E-14  0.12500000000E+03  0.12500000000E+03 0.  0.
        -13    1    3    3    0    0  0.35678659569E+02 -0.66114615902E+00 -0.17043163980E+02  0.39545979130E+02  0.10566000000E+00 0. -1.
         23    2    1    0    0    0  0.30078755551E+01 -0.50096254471E+00  0.28910029007E+02  0.95929601722E+02  0.91418818799E+02 0.  0.
         13    1    3    3    0    0 -0.32670784014E+02  0.16018361431E+00  0.45953192987E+02  0.56383622592E+02  0.10566000000E+00 0.  1.
         22    1    1    0    0    0 -0.30078755551E+01  0.50096254471E+00 -0.28910029007E+02  0.29070398278E+02  0.00000000000E+00 0.  1.
</event>
<event>
 5    1  0.1709463E-003  0.9118800E+02  0.7818608E-02  0.1130116E+00
         25   -1    0    0    0    0  0.00000000000E+00  0.00000000000E+00  0.99999998245E-14  0.12500000000E+03  0.12500000000E+03 0.  0.
        -13    1    3    3    0    0  0.20753541435E+02  0.15750018131E+02 -0.10547689961E+02  0.28107605390E+02  0.10566000000E+00 0. -1.
         23    2    1    0    0    0  0.22558679771E+02 -0.37100926386E+02 -0.39390221571E+01  0.81400818043E+02  0.68740123005E+02 0.  0.
         13    1    3    3    0    0  0.18051383368E+01 -0.52850944517E+02  0.66086678040E+01  0.53293212654E+02  0.10566000000E+00 0.  1.
         22    1    1    0    0    0 -0.22558679771E+02  0.37100926386E+02  0.39390221571E+01  0.43599181957E+02  0.00000000000E+00 0.  1.
</event>
<event>
 5    1  0.1709463E-003  0.9118800E+02  0.7818608E-02  0.1130116E+00
         25   -1    0    0    0    0  0.00000000000E+00  0.00000000000E+00  0.99999998245E-14  0.12500000000E+03  0.12500000000E+03 0.  0.
        -13    1    3    3    0    0  0.21897387622E+02 -0.20519712416E+02 -0.22283692668E+02  0.37378179534E+02  0.10566000000E+00 0.  1.
         23    2    1    0    0    0 -0.15502562824E+01  0.28837743477E+02 -0.75328471240E+00  0.96110794728E+02  0.91666235235E+02 0.  0.
         13    1    3    3    0    0 -0.23447643904E+02  0.49357455893E+02  0.21530407956E+02  0.58732615195E+02  0.10566000000E+00 0. -1.
         22    1    1    0    0    0  0.15502562824E+01 -0.28837743477E+02  0.75328471240E+00  0.28889205272E+02  0.00000000000E+00 0. -1.
</event>
<event>
 5    1  0.1709463E-003  0.9118800E+02  0.7818608E-02  0.1130116E+00
         25   -1    0    0    0    0  0.00000000000E+00  0.00000000000E+00  0.99999998245E-14  0.12500000000E+03  0.12500000000E+03 0.  0.
        -13    1    3    3    0    0 -0.14031333641E+02 -0.24876423274E+02  0.41750756733E+02  0.50585092769E+02  0.10566000000E+00 0.  1.
         23    2    1    0    0    0  0.21011384991E+02 -0.11886182972E+02  0.14482098638E+02  0.96848786424E+02  0.92667127968E+02 0.  0.
         13    1    3    3    0    0  0.35042718632E+02  0.12990240302E+02 -0.27268658095E+02  0.46263693654E+02  0.10566000000E+00 0. -1.
         22    1    1    0    0    0 -0.21011384991E+02  0.11886182972E+02 -0.14482098638E+02  0.28151213576E+02  0.00000000000E+00 0. -1.
</event>
<event>
 5    1  0.1709463E-003  0.9118800E+02  0.7818608E-02  0.1130116E+00
         25   -1    0    0    0    0  0.00000000000E+00  0.00000000000E+00  0.99999998245E-14  0.12500000000E+03  0.12500000000E+03 0.  0.
        -13    1    3    3    0    0 -0.13059407161E+02  0.30783490505E+02 -0.11142011878E+02  0.35246659357E+02  0.10566000000E+00 0. -1.
         23    2    1    0    0    0  0.18305293948E+02 -0.20075693884E+02 -0.12677699928E+02  0.95019317104E+02  0.90165565911E+02 0.  0.
         13    1    3    3    0    0  0.31364701109E+02 -0.50859184389E+02 -0.15356880499E+01  0.59772657747E+02  0.10566000000E+00 0.  1.
         22    1    1    0    0    0 -0.18305293948E+02  0.20075693884E+02  0.12677699928E+02  0.29980682896E+02  0.00000000000E+00 0.  1.
</event>
<event>
 5    1  0.1709463E-003  0.9118800E+02  0.7818608E-02  0.1130116E+00
         25   -1    0    0    0    0  0.00000000000E+00  0.00000000000E+00  0.99999998245E-14  0.12500000000E+03  0.12500000000E+03 0.  0.
        -13    1    3    3    0    0  0.12405008243E+02  0.28508519469E+02 -0.27546927431E+02  0.41538708294E+02  0.10566000000E+00 0.  1.
         23    2    1    0    0    0  0.57183351668E+01  0.64656611599E+01  0.24805975694E+02  0.98735183963E+02  0.95177707426E+02 0.  0.
         13    1    3    3    0    0 -0.66866730760E+01 -0.22042858309E+02  0.52352903125E+02  0.57196475669E+02  0.10566000000E+00 0. -1.
         22    1    1    0    0    0 -0.57183351668E+01 -0.64656611599E+01 -0.24805975694E+02  0.26264816037E+02  0.00000000000E+00 0. -1.
</event>
<event>
 5    1  0.1709463E-003  0.9118800E+02  0.7818608E-02  0.1130116E+00
         25   -1    0    0    0    0  0.00000000000E+00  0.00000000000E+00  0.99999998245E-14  0.12500000000E+03  0.12500000000E+03 0.  0.
        -13    1    3    3    0    0  0.17335436657E+02  0.27392904796E+02  0.23663311685E+02  0.40135421776E+02  0.10566000000E+00 0.  1.
         23    2    1    0    0    0 -0.29867915077E+01  0.21961818857E+02 -0.24058807543E+02  0.92288096488E+02  0.86296141988E+02 0.  0.
         13    1    3    3    0    0 -0.20322228164E+02 -0.54310859384E+01 -0.47722119227E+02  0.52152674712E+02  0.10566000000E+00 0. -1.
         22    1    1    0    0    0  0.29867915077E+01 -0.21961818857E+02  0.24058807543E+02  0.32711903512E+02  0.00000000000E+00 0. -1.
</event>
<event>
 5    1  0.1709463E-003  0.9118800E+02  0.7818608E-02  0.1130116E+00
         25   -1    0    0    0    0  0.00000000000E+00  0.00000000000E+00  0.99999998245E-14  0.12500000000E+03  0.12500000000E+03 0.  0.
        -13    1    3    3    0    0  0.16489753933E+02 -0.46329265048E+02  0.29326803254E+02  0.57257185906E+02  0.10566000000E+00 0. -1.
         23    2    1    0    0    0 -0.83325821667E+01 -0.15720324786E+02  0.20891614452E+02  0.97558788449E+02  0.93619961078E+02 0.  0.
         13    1    3    3    0    0 -0.24822336100E+02  0.30608940262E+02 -0.84351888019E+01  0.40301602544E+02  0.10566000000E+00 0.  1.
         22    1    1    0    0    0  0.83325821667E+01  0.15720324786E+02 -0.20891614452E+02  0.27441211551E+02  0.00000000000E+00 0. -1.
</event>
<event>
 5    1  0.1709463E-003  0.9118800E+02  0.7818608E-02  0.1130116E+00
         25   -1    0    0    0    0  0.00000000000E+00  0.00000000000E+00  0.99999998245E-14  0.12500000000E+03  0.12500000000E+03 0.  0.
        -13    1    3    3    0    0 -0.38295879444E+02 -0.16061179728E+02 -0.28419441165E+02  0.50321085807E+02  0.10566000000E+00 0. -1.
         23    2    1    0    0    0 -0.23262229872E+02  0.16661087353E+02  0.30543454558E+00  0.96385030829E+02  0.92039435610E+02 0.  0.
         13    1    3    3    0    0  0.15033649572E+02  0.32722267081E+02  0.28724875710E+02  0.46063945022E+02  0.10566000000E+00 0.  1.
         22    1    1    0    0    0  0.23262229872E+02 -0.16661087353E+02 -0.30543454558E+00  0.28614969171E+02  0.00000000000E+00 0. -1.
</event>
<event>
 5    1  0.1709463E-003  0.9118800E+02  0.7818608E-02  0.1130116E+00
         25   -1    0    0    0    0  0.00000000000E+00  0.00000000000E+00  0.99999998245E-14  0.12500000000E+03  0.12500000000E+03 0.  0.
        -13    1    3    3    0    0  0.97762517264E+01 -0.33156683353E+02  0.27881302793E+02  0.44410797767E+02  0.10566000000E+00 0.  1.
         23    2    1    0    0    0 -0.27638430210E+02 -0.35353199504E+01  0.11336743655E+02  0.94918393189E+02  0.90025542471E+02 0.  0.
         13    1    3    3    0    0 -0.37414681937E+02  0.29621363402E+02 -0.16544559138E+02  0.50507595422E+02  0.10566000000E+00 0. -1.
         22    1    1    0    0    0  0.27638430210E+02  0.35353199504E+01 -0.11336743655E+02  0.30081606811E+02  0.00000000000E+00 0. -1.
</event>
<event>
 5    1  0.1709463E-003  0.9118800E+02  0.7818608E-02  0.1130116E+00
         25   -1    0    0    0    0  0.00000000000E+00  0.00000000000E+00  0.99999998245E-14  0.12500000000E+03  0.12500000000E+03 0.  0.
        -13    1    3    3    0    0 -0.87118537523E+01  0.13299973505E+01  0.44986045003E+02  0.45841255413E+02  0.10566000000E+00 0. -1.
         23    2    1    0    0    0  0.26773845092E+02 -0.66120821605E+01  0.12047714434E+02  0.94905053005E+02  0.90007017790E+02 0.  0.
         13    1    3    3    0    0  0.35485698845E+02 -0.79420795110E+01 -0.32938330570E+02  0.49063797593E+02  0.10566000000E+00 0.  1.
         22    1    1    0    0    0 -0.26773845092E+02  0.66120821605E+01 -0.12047714434E+02  0.30094946995E+02  0.00000000000E+00 0.  1.
</event>
<event>
 5    1  0.1709463E-003  0.9118800E+02  0.7818608E-02  0.1130116E+00
         25   -1    0    0    0    0  0.00000000000E+00  0.00000000000E+00  0.99999998245E-14  0.12500000000E+03  0.12500000000E+03 0.  0.
        -13    1    3    3    0    0 -0.50322609626E+02 -0.12994447722E+02  0.17146010442E+02  0.54728580735E+02  0.10566000000E+00 0. -1.
         23    2    1    0    0    0 -0.10962556665E+02 -0.21940904522E+02  0.17113253688E+02  0.95092736807E+02  0.90267293090E+02 0.  0.
         13    1    3    3    0    0  0.39360052961E+02 -0.89464568004E+01 -0.32756754133E-01  0.40364156072E+02  0.10566000000E+00 0.  1.
         22    1    1    0    0    0  0.10962556665E+02  0.21940904522E+02 -0.17113253688E+02  0.29907263193E+02  0.00000000000E+00 0. -1.
</event>
<event>
 5    1  0.1709463E-003  0.9118800E+02  0.7818608E-02  0.1130116E+00
         25   -1    0    0    0    0  0.00000000000E+00  0.00000000000E+00  0.99999998245E-14  0.12500000000E+03  0.12500000000E+03 0.  0.
        -13    1    3    3    0    0 -0.21181808809E+01 -0.18638249076E+02  0.54075719888E+02  0.57236925706E+02  0.10566000000E+00 0. -1.
         23    2    1    0    0    0  0.59397162915E+01 -0.23235440516E+02  0.16627880157E+02  0.95816917159E+02  0.91264611377E+02 0.  0.
         13    1    3    3    0    0  0.80578971723E+01 -0.45971914402E+01 -0.37447839731E+02  0.38579991453E+02  0.10566000000E+00 0.  1.
         22    1    1    0    0    0 -0.59397162915E+01  0.23235440516E+02 -0.16627880157E+02  0.29183082841E+02  0.00000000000E+00 0. -1.
</event>
<event>
 5    1  0.1709463E-003  0.9118800E+02  0.7818608E-02  0.1130116E+00
         25   -1    0    0    0    0  0.00000000000E+00  0.00000000000E+00  0.99999998245E-14  0.12500000000E+03  0.12500000000E+03 0.  0.
        -13    1    3    3    0    0  0.29006400398E+02 -0.48175352658E+02 -0.73618636939E+01  0.56713702655E+02  0.10566000000E+00 0. -1.
         23    2    1    0    0    0  0.37996784999E+01 -0.20180627395E+02 -0.19888247296E+02  0.96412631124E+02  0.92076912312E+02 0.  0.
         13    1    3    3    0    0 -0.25206721899E+02  0.27994725263E+02 -0.12526383602E+02  0.39698928469E+02  0.10566000000E+00 0.  1.
         22    1    1    0    0    0 -0.37996784999E+01  0.20180627395E+02  0.19888247296E+02  0.28587368876E+02  0.00000000000E+00 0. -1.
</event>
<event>
 5    1  0.1709463E-003  0.9118800E+02  0.7818608E-02  0.1130116E+00
         25   -1    0    0    0    0  0.00000000000E+00  0.00000000000E+00  0.99999998245E-14  0.12500000000E+03  0.12500000000E+03 0.  0.
        -13    1    3    3    0    0 -0.28325046408E+02 -0.52557238007E+02 -0.75235098473E+01  0.60176290060E+02  0.10566000000E+00 0. -1.
         23    2    1    0    0    0 -0.99606274075E+01 -0.26574122445E+02  0.79084732276E+01  0.95539144091E+02  0.90883364940E+02 0.  0.
         13    1    3    3    0    0  0.18364419001E+02  0.25983115562E+02  0.15431983075E+02  0.35362854031E+02  0.10566000000E+00 0.  1.
         22    1    1    0    0    0  0.99606274075E+01  0.26574122445E+02 -0.79084732276E+01  0.29460855909E+02  0.00000000000E+00 0. -1.
</event>
<event>
 5    1  0.1709463E-003  0.9118800E+02  0.7818608E-02  0.1130116E+00
         25   -1    0    0    0    0  0.00000000000E+00  0.00000000000E+00  0.99999998245E-14  0.12500000000E+03  0.12500000000E+03 0.  0.
        -13    1    3    3    0    0  0.10961014760E+02  0.33824805026E+02 -0.81598459367E+01  0.36480892661E+02  0.10566000000E+00 0.  1.
         23    2    1    0    0    0  0.96964569743E+01 -0.24725731193E+02 -0.13349597812E+02  0.95274677082E+02  0.90518889025E+02 0.  0.
         13    1    3    3    0    0 -0.12645577860E+01 -0.58550536219E+02 -0.51897518754E+01  0.58793784420E+02  0.10566000000E+00 0. -1.
         22    1    1    0    0    0 -0.96964569743E+01  0.24725731193E+02  0.13349597812E+02  0.29725322918E+02  0.00000000000E+00 0. -1.
</event>
<event>
 5    1  0.1709463E-003  0.9118800E+02  0.7818608E-02  0.1130116E+00
         25   -1    0    0    0    0  0.00000000000E+00  0.00000000000E+00  0.99999998245E-14  0.12500000000E+03  0.12500000000E+03 0.  0.
        -13    1    3    3    0    0  0.17587503195E+02 -0.28797703642E+02 -0.50069413765E+02  0.60378683014E+02  0.10566000000E+00 0.  1.
         23    2    1    0    0    0  0.35881015059E+00 -0.21672614532E+02 -0.21679063164E+02  0.94343634510E+02  0.89223924075E+02 0.  0.
         13    1    3    3    0    0 -0.17228693045E+02  0.71250891099E+01  0.28390350600E+02  0.33964951496E+02  0.10566000000E+00 0. -1.
         22    1    1    0    0    0 -0.35881015059E+00  0.21672614532E+02  0.21679063164E+02  0.30656365490E+02  0.00000000000E+00 0.  1.
</event>
<event>
 5    1  0.1709463E-003  0.9118800E+02  0.7818608E-02  0.1130116E+00
         25   -1    0    0    0    0  0.00000000000E+00  0.00000000000E+00  0.99999998245E-14  0.12500000000E+03  0.12500000000E+03 0.  0.
        -13    1    3    3    0    0 -0.44485969043E+01 -0.53887526672E+02 -0.13252311808E+02  0.55671271564E+02  0.10566000000E+00 0. -1.
         23    2    1    0    0    0 -0.29068306811E+01 -0.16103126765E+02 -0.24868218565E+02  0.95231079112E+02  0.90458663367E+02 0.  0.
         13    1    3    3    0    0  0.15417662232E+01  0.37784399907E+02 -0.11615906757E+02  0.39559807548E+02  0.10566000000E+00 0.  1.
         22    1    1    0    0    0  0.29068306811E+01  0.16103126765E+02  0.24868218565E+02  0.29768920888E+02  0.00000000000E+00 0. -1.
</event>
<event>
 5    1  0.1709463E-003  0.9118800E+02  0.7818608E-02  0.1130116E+00
         25   -1    0    0    0    0  0.00000000000E+00  0.00000000000E+00  0.99999998245E-14  0.12500000000E+03  0.12500000000E+03 0.  0.
        -13    1    3    3    0    0  0.37421828408E+02 -0.25305356521E+02  0.37793751837E+02  0.58899347637E+02  0.10566000000E+00 0. -1.
         23    2    1    0    0    0  0.23292766183E+02  0.20814751930E+01  0.17358101180E+02  0.95876312527E+02  0.91345925644E+02 0.  0.
         13    1    3    3    0    0 -0.14129062224E+02  0.27386831714E+02 -0.20435650657E+02  0.36976964890E+02  0.10566000000E+00 0.  1.
         22    1    1    0    0    0 -0.23292766183E+02 -0.20814751930E+01 -0.17358101180E+02  0.29123687473E+02  0.00000000000E+00 0. -1.
</event>
<event>
 5    1  0.1709463E-003  0.9118800E+02  0.7818608E-02  0.1130116E+00
         25   -1    0    0    0    0  0.00000000000E+00  0.00000000000E+00  0.99999998245E-14  0.12500000000E+03  0.12500000000E+03 0.  0.
        -13    1    3    3    0    0 -0.19968918809E+01  0.29928113246E+02  0.20886651073E+02  0.36550552619E+02  0.10566000000E+00 0.  1.
         23    2    1    0    0    0 -0.23589950447E+02 -0.16888403615E+02 -0.69855545866E+01  0.95158721347E+02  0.90358620711E+02 0.  0.
         13    1    3    3    0    0 -0.21593058566E+02 -0.46816516862E+02 -0.27872205660E+02  0.58608168728E+02  0.10566000000E+00 0. -1.
         22    1    1    0    0    0  0.23589950447E+02  0.16888403615E+02  0.69855545866E+01  0.29841278653E+02  0.00000000000E+00 0. -1.
</event>
<event>
 5    1  0.1709463E-003  0.9118800E+02  0.7818608E-02  0.1130116E+00
         25   -1    0    0    0    0  0.00000000000E+00  0.00000000000E+00  0.99999998245E-14  0.12500000000E+03  0.12500000000E+03 0.  0.
        -13    1    3    3    0    0  0.16543247671E+02 -0.34797538982E+02 -0.17779265874E+02  0.42434198729E+02  0.10566000000E+00 0. -1.
         23    2    1    0    0    0 -0.50811463358E+01  0.84128515563E+01 -0.30958665314E+02  0.92518727281E+02  0.86629566663E+02 0.  0.
         13    1    3    3    0    0 -0.21624394007E+02  0.43210390538E+02 -0.13179399441E+02  0.50084528552E+02  0.10566000000E+00 0.  1.
         22    1    1    0    0    0  0.50811463358E+01 -0.84128515563E+01  0.30958665314E+02  0.32481272719E+02  0.00000000000E+00 0.  1.
</event>
<event>
 5    1  0.1709463E-003  0.9118800E+02  0.7818608E-02  0.1130116E+00
         25   -1    0    0    0    0  0.00000000000E+00  0.00000000000E+00  0.99999998245E-14  0.12500000000E+03  0.12500000000E+03 0.  0.
        -13    1    3    3    0    0 -0.26832242467E+02 -0.63725911216E+01 -0.52944347819E+02  0.59696685699E+02  0.10566000000E+00 0. -1.
         23    2    1    0    0    0 -0.96854601010E+00  0.31560239011E+01 -0.27796257922E+02  0.97008384778E+02  0.92882162952E+02 0.  0.
         13    1    3    3    0    0  0.25863696457E+02  0.95286150227E+01  0.25148089897E+02  0.37311699079E+02  0.10566000000E+00 0.  1.
         22    1    1    0    0    0  0.96854601010E+00 -0.31560239011E+01  0.27796257922E+02  0.27991615222E+02  0.00000000000E+00 0. -1.
</event>
<event>
 5    1  0.1709463E-003  0.9118800E+02  0.7818608E-02  0.1130116E+00
         25   -1    0    0    0    0  0.00000000000E+00  0.00000000000E+00  0.99999998245E-14  0.12500000000E+03  0.12500000000E+03 0.  0.
        -13    1    3    3    0    0  0.15701225593E+02 -0.35793492794E+02  0.43634301317E+02  0.58580423581E+02  0.10566000000E+00 0. -1.
         23    2    1    0    0    0  0.11630086554E+02 -0.29850664111E+01  0.26697868927E+02  0.95726364422E+02  0.91140502003E+02 0.  0.
         13    1    3    3    0    0 -0.40711390392E+01  0.32808426383E+02 -0.16936432390E+02  0.37145940840E+02  0.10566000000E+00 0.  1.
         22    1    1    0    0    0 -0.11630086554E+02  0.29850664111E+01 -0.26697868927E+02  0.29273635578E+02  0.00000000000E+00 0. -1.
</event>
<event>
 5    1  0.1709463E-003  0.9118800E+02  0.7818608E-02  0.1130116E+00
         25   -1    0    0    0    0  0.00000000000E+00  0.00000000000E+00  0.99999998245E-14  0.12500000000E+03  0.12500000000E+03 0.  0.
        -13    1    3    3    0    0  0.14374912956E+02 -0.31700842805E+02 -0.48443460133E+02  0.59652003744E+02  0.10566000000E+00 0. -1.
         23    2    1    0    0    0 -0.16688816500E+01 -0.80054561756E+01 -0.30486708820E+02  0.93435591100E+02  0.87942582263E+02 0.  0.
         13    1    3    3    0    0 -0.16043794606E+02  0.23695386629E+02  0.17956751313E+02  0.33783587356E+02  0.10566000000E+00 0.  1.
         22    1    1    0    0    0  0.16688816500E+01  0.80054561756E+01  0.30486708820E+02  0.31564408900E+02  0.00000000000E+00 0. -1.
</event>
<event>
 5    1  0.1709463E-003  0.9118800E+02  0.7818608E-02  0.1130116E+00
         25   -1    0    0    0    0  0.00000000000E+00  0.00000000000E+00  0.99999998245E-14  0.12500000000E+03  0.12500000000E+03 0.  0.
        -13    1    3    3    0    0 -0.22385480757E+02 -0.30411872764E+02 -0.47576582970E+01  0.38060980417E+02  0.10566000000E+00 0.  1.
         23    2    1    0    0    0  0.10441215778E+02  0.11179886697E+02 -0.25746151385E+02  0.95052159266E+02  0.90211084777E+02 0.  0.
         13    1    3    3    0    0  0.32826696536E+02  0.41591759461E+02 -0.20988493088E+02  0.56991178850E+02  0.10566000000E+00 0. -1.
         22    1    1    0    0    0 -0.10441215778E+02 -0.11179886697E+02  0.25746151385E+02  0.29947840734E+02  0.00000000000E+00 0. -1.
</event>
<event>
 5    1  0.1709463E-003  0.9118800E+02  0.7818608E-02  0.1130116E+00
         25   -1    0    0    0    0  0.00000000000E+00  0.00000000000E+00  0.99999998245E-14  0.12500000000E+03  0.12500000000E+03 0.  0.
        -13    1    3    3    0    0 -0.29879923441E+02 -0.33495095929E+02  0.38021056749E+02  0.58824681865E+02  0.10566000000E+00 0.  1.
         23    2    1    0    0    0 -0.22558680444E+02 -0.71242201212E+01  0.67121587886E+01  0.10040931779E+03  0.97351576508E+02 0.  0.
         13    1    3    3    0    0  0.73212429970E+01  0.26370875808E+02 -0.31308897960E+02  0.41584635930E+02  0.10566000000E+00 0. -1.
         22    1    1    0    0    0  0.22558680444E+02  0.71242201212E+01 -0.67121587886E+01  0.24590682205E+02  0.00000000000E+00 0.  1.
</event>
<event>
 5    1  0.1709463E-003  0.9118800E+02  0.7818608E-02  0.1130116E+00
         25   -1    0    0    0    0  0.00000000000E+00  0.00000000000E+00  0.99999998245E-14  0.12500000000E+03  0.12500000000E+03 0.  0.
        -13    1    3    3    0    0  0.97852170959E+01 -0.48619823328E+02 -0.26748569725E+02  0.56348334850E+02  0.10566000000E+00 0.  1.
         23    2    1    0    0    0 -0.15125130065E+02 -0.21640051799E+02 -0.92608155673E+01  0.97021005981E+02  0.92899146903E+02 0.  0.
         13    1    3    3    0    0 -0.24910347161E+02  0.26979771529E+02  0.17487754158E+02  0.40672671131E+02  0.10566000000E+00 0. -1.
         22    1    1    0    0    0  0.15125130065E+02  0.21640051799E+02  0.92608155673E+01  0.27978994019E+02  0.00000000000E+00 0.  1.
</event>
<event>
 5    1  0.1709463E-003  0.9118800E+02  0.7818608E-02  0.1130116E+00
         25   -1    0    0    0    0  0.00000000000E+00  0.00000000000E+00  0.99999998245E-14  0.12500000000E+03  0.12500000000E+03 0.  0.
        -13    1    3    3    0    0  0.15476007252E+02 -0.43774300130E+02  0.14583773374E+02  0.48666145956E+02  0.10566000000E+00 0. -1.
         23    2    1    0    0    0  0.19297318058E+02 -0.10243603255E+02 -0.18830249988E+02  0.96157389049E+02  0.91729751238E+02 0.  0.
         13    1    3    3    0    0  0.38213108062E+01  0.33530696875E+02 -0.33414023362E+02  0.47491243093E+02  0.10566000000E+00 0.  1.
         22    1    1    0    0    0 -0.19297318058E+02  0.10243603255E+02  0.18830249988E+02  0.28842610951E+02  0.00000000000E+00 0. -1.
</event>
<event>
 5    1  0.1709463E-003  0.9118800E+02  0.7818608E-02  0.1130116E+00
         25   -1    0    0    0    0  0.00000000000E+00  0.00000000000E+00  0.99999998245E-14  0.12500000000E+03  0.12500000000E+03 0.  0.
        -13    1    3    3    0    0 -0.11553660807E+02 -0.29759153913E+02  0.18347400943E+02  0.36820274376E+02  0.10566000000E+00 0. -1.
         23    2    1    0    0    0  0.27330357179E+02  0.11174306848E+02  0.30360267211E+01  0.95317833379E+02  0.90578465126E+02 0.  0.
         13    1    3    3    0    0  0.38884017987E+02  0.40933460762E+02 -0.15311374222E+02  0.58497559003E+02  0.10566000000E+00 0.  1.
         22    1    1    0    0    0 -0.27330357179E+02 -0.11174306848E+02 -0.30360267211E+01  0.29682166621E+02  0.00000000000E+00 0.  1.
</event>
<event>
 5    1  0.1709463E-003  0.9118800E+02  0.7818608E-02  0.1130116E+00
         25   -1    0    0    0    0  0.00000000000E+00  0.00000000000E+00  0.99999998245E-14  0.12500000000E+03  0.12500000000E+03 0.  0.
        -13    1    3    3    0    0 -0.12219553890E+02  0.21101346234E+02 -0.45832355947E+02  0.51915318797E+02  0.10566000000E+00 0.  1.
         23    2    1    0    0    0 -0.27460107333E+02  0.25749510917E+01 -0.87804758828E+01  0.96055490597E+02  0.91590789107E+02 0.  0.
         13    1    3    3    0    0 -0.15240553443E+02 -0.18526395142E+02  0.37051880064E+02  0.44140171800E+02  0.10566000000E+00 0. -1.
         22    1    1    0    0    0  0.27460107333E+02 -0.25749510917E+01  0.87804758828E+01  0.28944509403E+02  0.00000000000E+00 0. -1.
</event>
<event>
 5    1  0.1709463E-003  0.9118800E+02  0.7818608E-02  0.1130116E+00
         25   -1    0    0    0    0  0.00000000000E+00  0.00000000000E+00  0.99999998245E-14  0.12500000000E+03  0.12500000000E+03 0.  0.
        -13    1    3    3    0    0  0.21962755023E+02  0.48923866105E+02  0.77491659144E+01  0.54184573628E+02  0.10566000000E+00 0.  1.
         23    2    1    0    0    0  0.16866429544E+02  0.17325576918E+02  0.24727106977E+02  0.90415583270E+02  0.83539785836E+02 0.  0.
         13    1    3    3    0    0 -0.50963254788E+01 -0.31598289187E+02  0.16977941063E+02  0.36231009642E+02  0.10566000000E+00 0. -1.
         22    1    1    0    0    0 -0.16866429544E+02 -0.17325576918E+02 -0.24727106977E+02  0.34584416730E+02  0.00000000000E+00 0. -1.
</event>
<event>
 5    1  0.1709463E-003  0.9118800E+02  0.7818608E-02  0.1130116E+00
         25   -1    0    0    0    0  0.00000000000E+00  0.00000000000E+00  0.99999998245E-14  0.12500000000E+03  0.12500000000E+03 0.  0.
        -13    1    3    3    0    0 -0.20464576845E+02  0.34863148861E+02 -0.33581128882E+01  0.40565085235E+02  0.10566000000E+00 0.  1.
         23    2    1    0    0    0 -0.15687043360E+02 -0.14932891845E+02  0.19768045126E+02  0.95676797645E+02  0.91072495361E+02 0.  0.
         13    1    3    3    0    0  0.47775334850E+01 -0.49796040706E+02  0.23126158014E+02  0.55111712410E+02  0.10566000000E+00 0. -1.
         22    1    1    0    0    0  0.15687043360E+02  0.14932891845E+02 -0.19768045126E+02  0.29323202355E+02  0.00000000000E+00 0. -1.
</event>
<event>
 5    1  0.1709463E-003  0.9118800E+02  0.7818608E-02  0.1130116E+00
         25   -1    0    0    0    0  0.00000000000E+00  0.00000000000E+00  0.99999998245E-14  0.12500000000E+03  0.12500000000E+03 0.  0.
        -13    1    3    3    0    0  0.10197167654E+01 -0.37074422919E+02  0.30850264791E+02  0.48242125355E+02  0.10566000000E+00 0. -1.
         23    2    1    0    0    0 -0.68944709619E+01  0.94578121427E+01  0.26967593789E+02  0.95602124990E+02  0.90969946946E+02 0.  0.
         13    1    3    3    0    0 -0.79141877272E+01  0.46532235062E+02 -0.38826710024E+01  0.47359999634E+02  0.10566000000E+00 0.  1.
         22    1    1    0    0    0  0.68944709619E+01 -0.94578121427E+01 -0.26967593789E+02  0.29397875010E+02  0.00000000000E+00 0.  1.
</event>
<event>
 5    1  0.1709463E-003  0.9118800E+02  0.7818608E-02  0.1130116E+00
         25   -1    0    0    0    0  0.00000000000E+00  0.00000000000E+00  0.99999998245E-14  0.12500000000E+03  0.12500000000E+03 0.  0.
        -13    1    3    3    0    0  0.12141150027E+02  0.33233193221E+02 -0.62967051459E+01  0.35937616996E+02  0.10566000000E+00 0.  1.
         23    2    1    0    0    0 -0.24530882846E+02 -0.12740440315E+02 -0.11679404697E+02  0.94991809006E+02  0.90127422306E+02 0.  0.
         13    1    3    3    0    0 -0.36672032873E+02 -0.45973633536E+02 -0.53826995511E+01  0.59054192010E+02  0.10566000000E+00 0. -1.
         22    1    1    0    0    0  0.24530882846E+02  0.12740440315E+02  0.11679404697E+02  0.30008190994E+02  0.00000000000E+00 0. -1.
</event>
<event>
 5    1  0.1709463E-003  0.9118800E+02  0.7818608E-02  0.1130116E+00
         25   -1    0    0    0    0  0.00000000000E+00  0.00000000000E+00  0.99999998245E-14  0.12500000000E+03  0.12500000000E+03 0.  0.
        -13    1    3    3    0    0  0.35999952973E+02 -0.10954014742E+02 -0.11307995224E+02  0.39292098099E+02  0.10566000000E+00 0. -1.
         23    2    1    0    0    0 -0.19735303051E+02 -0.15296533391E+02 -0.15921620738E+02  0.95386419885E+02  0.90673066405E+02 0.  0.
         13    1    3    3    0    0 -0.55735256024E+02 -0.43425186482E+01 -0.46136255142E+01  0.56094321786E+02  0.10566000000E+00 0.  1.
         22    1    1    0    0    0  0.19735303051E+02  0.15296533391E+02  0.15921620738E+02  0.29613580115E+02  0.00000000000E+00 0.  1.
</event>
<event>
 5    1  0.1709463E-003  0.9118800E+02  0.7818608E-02  0.1130116E+00
         25   -1    0    0    0    0  0.00000000000E+00  0.00000000000E+00  0.99999998245E-14  0.12500000000E+03  0.12500000000E+03 0.  0.
        -13    1    3    3    0    0 -0.14344705228E+02  0.83839249758E+01  0.41232583413E+02  0.44454447078E+02  0.10566000000E+00 0.  1.
         23    2    1    0    0    0  0.25890262500E+02 -0.57512052281E+01  0.16851542587E+02  0.93577769947E+02  0.88144441043E+02 0.  0.
         13    1    3    3    0    0  0.40234967728E+02 -0.14135130204E+02 -0.24381040826E+02  0.49123322870E+02  0.10566000000E+00 0. -1.
         22    1    1    0    0    0 -0.25890262500E+02  0.57512052281E+01 -0.16851542587E+02  0.31422230053E+02  0.00000000000E+00 0. -1.
</event>
<event>
 5    1  0.1709463E-003  0.9118800E+02  0.7818608E-02  0.1130116E+00
         25   -1    0    0    0    0  0.00000000000E+00  0.00000000000E+00  0.99999998245E-14  0.12500000000E+03  0.12500000000E+03 0.  0.
        -13    1    3    3    0    0 -0.19907534489E+02 -0.19720802072E+02 -0.42875975998E+02  0.51220898524E+02  0.10566000000E+00 0.  1.
         23    2    1    0    0    0 -0.23993747898E+02 -0.15684615842E+02  0.18127340324E+01  0.96277306586E+02  0.91893017398E+02 0.  0.
         13    1    3    3    0    0 -0.40862134091E+01  0.40361862307E+01  0.44688710030E+02  0.45056408062E+02  0.10566000000E+00 0. -1.
         22    1    1    0    0    0  0.23993747898E+02  0.15684615842E+02 -0.18127340324E+01  0.28722693414E+02  0.00000000000E+00 0.  1.
</event>
<event>
 5    1  0.1709463E-003  0.9118800E+02  0.7818608E-02  0.1130116E+00
         25   -1    0    0    0    0  0.00000000000E+00  0.00000000000E+00  0.99999998245E-14  0.12500000000E+03  0.12500000000E+03 0.  0.
        -13    1    3    3    0    0 -0.22399551453E+02  0.29229030461E+02  0.19072427680E+01  0.36874447331E+02  0.10566000000E+00 0.  1.
         23    2    1    0    0    0 -0.29122391470E+01 -0.27734403121E+02 -0.11058211637E+00  0.97112897574E+02  0.93022709020E+02 0.  0.
         13    1    3    3    0    0  0.19487312306E+02 -0.56963433582E+02 -0.20178248844E+01  0.60238450243E+02  0.10566000000E+00 0. -1.
         22    1    1    0    0    0  0.29122391470E+01  0.27734403121E+02  0.11058211637E+00  0.27887102426E+02  0.00000000000E+00 0. -1.
</event>
<event>
 5    1  0.1709463E-003  0.9118800E+02  0.7818608E-02  0.1130116E+00
         25   -1    0    0    0    0  0.00000000000E+00  0.00000000000E+00  0.99999998245E-14  0.12500000000E+03  0.12500000000E+03 0.  0.
        -13    1    3    3    0    0  0.49079971639E+02 -0.23377959529E+02  0.17076538802E+02  0.56982382798E+02  0.10566000000E+00 0.  1.
         23    2    1    0    0    0  0.15570443761E+02 -0.18511816327E+01  0.22912257594E+02  0.97236046024E+02  0.93188043793E+02 0.  0.
         13    1    3    3    0    0 -0.33509527879E+02  0.21526777896E+02  0.58357187921E+01  0.40253663226E+02  0.10566000000E+00 0. -1.
         22    1    1    0    0    0 -0.15570443761E+02  0.18511816327E+01 -0.22912257594E+02  0.27763953976E+02  0.00000000000E+00 0.  1.
</event>
<event>
 5    1  0.1709463E-003  0.9118800E+02  0.7818608E-02  0.1130116E+00
         25   -1    0    0    0    0  0.00000000000E+00  0.00000000000E+00  0.99999998245E-14  0.12500000000E+03  0.12500000000E+03 0.  0.
        -13    1    3    3    0    0  0.34572687220E+02  0.21862456001E+02  0.26350473291E+02  0.48657951979E+02  0.10566000000E+00 0. -1.
         23    2    1    0    0    0  0.22776473934E+02 -0.18599418931E+02  0.12798691322E+02  0.92929567371E+02  0.87220363693E+02 0.  0.
         13    1    3    3    0    0 -0.11796213286E+02 -0.40461874932E+02 -0.13551781969E+02  0.44271615393E+02  0.10566000000E+00 0.  1.
         22    1    1    0    0    0 -0.22776473934E+02  0.18599418931E+02 -0.12798691322E+02  0.32070432629E+02  0.00000000000E+00 0.  1.
</event>
<event>
 5    1  0.1709463E-003  0.9118800E+02  0.7818608E-02  0.1130116E+00
         25   -1    0    0    0    0  0.00000000000E+00  0.00000000000E+00  0.99999998245E-14  0.12500000000E+03  0.12500000000E+03 0.  0.
        -13    1    3    3    0    0  0.23429977871E+02  0.14663634273E+02 -0.30294285385E+02  0.41009034665E+02  0.10566000000E+00 0. -1.
         23    2    1    0    0    0 -0.26619595940E+02  0.81342082915E+01 -0.96797250503E+01  0.95530264514E+02  0.90871151245E+02 0.  0.
         13    1    3    3    0    0 -0.50049573812E+02 -0.65294259818E+01  0.20614560335E+02  0.54521229849E+02  0.10566000000E+00 0.  1.
         22    1    1    0    0    0  0.26619595940E+02 -0.81342082915E+01  0.96797250503E+01  0.29469735486E+02  0.00000000000E+00 0.  1.
</event>
<event>
 5    1  0.1709463E-003  0.9118800E+02  0.7818608E-02  0.1130116E+00
         25   -1    0    0    0    0  0.00000000000E+00  0.00000000000E+00  0.99999998245E-14  0.12500000000E+03  0.12500000000E+03 0.  0.
        -13    1    3    3    0    0  0.53944505322E+01 -0.26518384625E+02  0.35553309836E+02  0.44680799276E+02  0.10566000000E+00 0.  1.
         23    2    1    0    0    0  0.17950949441E+02  0.17204967476E+02  0.45742269506E+01  0.99718167711E+02  0.96460053534E+02 0.  0.
         13    1    3    3    0    0  0.12556498909E+02  0.43723352101E+02 -0.30979082885E+02  0.55037368435E+02  0.10566000000E+00 0. -1.
         22    1    1    0    0    0 -0.17950949441E+02 -0.17204967476E+02 -0.45742269506E+01  0.25281832289E+02  0.00000000000E+00 0. -1.
</event>
<event>
 5    1  0.1709463E-003  0.9118800E+02  0.7818608E-02  0.1130116E+00
         25   -1    0    0    0    0  0.00000000000E+00  0.00000000000E+00  0.99999998245E-14  0.12500000000E+03  0.12500000000E+03 0.  0.
        -13    1    3    3    0    0  0.26094160754E+01 -0.31959785051E+02 -0.34859518968E+02  0.47364904090E+02  0.10566000000E+00 0.  1.
         23    2    1    0    0    0  0.25907262370E+02 -0.10271321602E+02  0.31627351381E+01  0.96952019957E+02  0.92806276670E+02 0.  0.
         13    1    3    3    0    0  0.23297846294E+02  0.21688463449E+02  0.38022254106E+02  0.49587115867E+02  0.10566000000E+00 0. -1.
         22    1    1    0    0    0 -0.25907262370E+02  0.10271321602E+02 -0.31627351381E+01  0.28047980043E+02  0.00000000000E+00 0.  1.
</event>
<event>
 5    1  0.1709463E-003  0.9118800E+02  0.7818608E-02  0.1130116E+00
         25   -1    0    0    0    0  0.00000000000E+00  0.00000000000E+00  0.99999998245E-14  0.12500000000E+03  0.12500000000E+03 0.  0.
        -13    1    3    3    0    0 -0.20278036087E+01  0.10866391794E+02 -0.38816614674E+02  0.40360019783E+02  0.10566000000E+00 0.  1.
         23    2    1    0    0    0 -0.41986122708E+01 -0.28506044902E+02  0.68973930884E+00  0.96178156178E+02  0.91758046212E+02 0.  0.
         13    1    3    3    0    0 -0.21708086621E+01 -0.39372436696E+02  0.39506353983E+02  0.55818136396E+02  0.10566000000E+00 0. -1.
         22    1    1    0    0    0  0.41986122708E+01  0.28506044902E+02 -0.68973930884E+00  0.28821843822E+02  0.00000000000E+00 0. -1.
</event>
<event>
 5    1  0.1709463E-003  0.9118800E+02  0.7818608E-02  0.1130116E+00
         25   -1    0    0    0    0  0.00000000000E+00  0.00000000000E+00  0.99999998245E-14  0.12500000000E+03  0.12500000000E+03 0.  0.
        -13    1    3    3    0    0  0.38732056024E+02  0.36449366642E+02 -0.14967752682E+02  0.55251907450E+02  0.10566000000E+00 0.  1.
         23    2    1    0    0    0  0.92392416720E+01  0.24447383053E+02  0.11296831909E+02  0.96527969233E+02  0.92233357893E+02 0.  0.
         13    1    3    3    0    0 -0.29492814353E+02 -0.12001983589E+02  0.26264584591E+02  0.41276061783E+02  0.10566000000E+00 0. -1.
         22    1    1    0    0    0 -0.92392416720E+01 -0.24447383053E+02 -0.11296831909E+02  0.28472030767E+02  0.00000000000E+00 0.  1.
</event>
<event>
 5    1  0.1709463E-003  0.9118800E+02  0.7818608E-02  0.1130116E+00
         25   -1    0    0    0    0  0.00000000000E+00  0.00000000000E+00  0.99999998245E-14  0.12500000000E+03  0.12500000000E+03 0.  0.
        -13    1    3    3    0    0  0.15024271666E+02  0.45483177048E+02 -0.37835344258E+02  0.61040745185E+02  0.10566000000E+00 0. -1.
         23    2    1    0    0    0  0.55549820801E+01  0.14785522548E+02 -0.24557459987E+02  0.95801740738E+02  0.91243822719E+02 0.  0.
         13    1    3    3    0    0 -0.94692895857E+01 -0.30697654501E+02  0.13277884271E+02  0.34760995553E+02  0.10566000000E+00 0.  1.
         22    1    1    0    0    0 -0.55549820801E+01 -0.14785522548E+02  0.24557459987E+02  0.29198259262E+02  0.00000000000E+00 0. -1.
</event>
<event>
 5    1  0.1709463E-003  0.9118800E+02  0.7818608E-02  0.1130116E+00
         25   -1    0    0    0    0  0.00000000000E+00  0.00000000000E+00  0.99999998245E-14  0.12500000000E+03  0.12500000000E+03 0.  0.
        -13    1    3    3    0    0  0.29495522402E+02  0.82988208776E+01  0.61740155153E+01  0.31256773687E+02  0.10566000000E+00 0. -1.
         23    2    1    0    0    0 -0.14674250348E+02 -0.25167176506E+02 -0.16939897172E+02  0.91300140760E+02  0.84853021102E+02 0.  0.
         13    1    3    3    0    0 -0.44169772750E+02 -0.33465997384E+02 -0.23113912687E+02  0.60043367073E+02  0.10566000000E+00 0.  1.
         22    1    1    0    0    0  0.14674250348E+02  0.25167176506E+02  0.16939897172E+02  0.33699859240E+02  0.00000000000E+00 0.  1.
</event>
<event>
 5    1  0.1709463E-003  0.9118800E+02  0.7818608E-02  0.1130116E+00
         25   -1    0    0    0    0  0.00000000000E+00  0.00000000000E+00  0.99999998245E-14  0.12500000000E+03  0.12500000000E+03 0.  0.
        -13    1    3    3    0    0 -0.36000674960E+02 -0.70708269739E+01 -0.15861679815E+02  0.39970604727E+02  0.10566000000E+00 0.  1.
         23    2    1    0    0    0  0.23151490308E+02 -0.57400194027E+01 -0.31825294930E+00  0.10114542788E+03  0.98292201976E+02 0.  0.
         13    1    3    3    0    0  0.59152165268E+02  0.13308075712E+01  0.15543426866E+02  0.61174823150E+02  0.10566000000E+00 0. -1.
         22    1    1    0    0    0 -0.23151490308E+02  0.57400194027E+01  0.31825294930E+00  0.23854572123E+02  0.00000000000E+00 0. -1.
</event>
<event>
 5    1  0.1709463E-003  0.9118800E+02  0.7818608E-02  0.1130116E+00
         25   -1    0    0    0    0  0.00000000000E+00  0.00000000000E+00  0.99999998245E-14  0.12500000000E+03  0.12500000000E+03 0.  0.
        -13    1    3    3    0    0  0.23606547441E+02 -0.38436947623E+02  0.30745120816E+02  0.54588841741E+02  0.10566000000E+00 0.  1.
         23    2    1    0    0    0 -0.29413264606E+01 -0.78327423005E+01  0.28645484064E+02  0.95157630614E+02  0.90357111804E+02 0.  0.
         13    1    3    3    0    0 -0.26547873901E+02  0.30604205322E+02 -0.20996367516E+01  0.40568788873E+02  0.10566000000E+00 0. -1.
         22    1    1    0    0    0  0.29413264606E+01  0.78327423005E+01 -0.28645484064E+02  0.29842369386E+02  0.00000000000E+00 0.  1.
</event>
<event>
 5    1  0.1709463E-003  0.9118800E+02  0.7818608E-02  0.1130116E+00
         25   -1    0    0    0    0  0.00000000000E+00  0.00000000000E+00  0.99999998245E-14  0.12500000000E+03  0.12500000000E+03 0.  0.
        -13    1    3    3    0    0 -0.72656352453E+01  0.32611466369E+01 -0.58902740453E+02  0.59438779680E+02  0.10566000000E+00 0. -1.
         23    2    1    0    0    0 -0.16725909317E+02  0.51712131332E+00 -0.23741916811E+02  0.95953449933E+02  0.91451421439E+02 0.  0.
         13    1    3    3    0    0 -0.94602740719E+01 -0.27440253236E+01  0.35160823642E+02  0.36514670253E+02  0.10566000000E+00 0.  1.
         22    1    1    0    0    0  0.16725909317E+02 -0.51712131332E+00  0.23741916811E+02  0.29046550067E+02  0.00000000000E+00 0. -1.
</event>
<event>
 5    1  0.1709463E-003  0.9118800E+02  0.7818608E-02  0.1130116E+00
         25   -1    0    0    0    0  0.00000000000E+00  0.00000000000E+00  0.99999998245E-14  0.12500000000E+03  0.12500000000E+03 0.  0.
        -13    1    3    3    0    0  0.18439482353E+02 -0.23593116649E+02 -0.32387720648E+02  0.44109242517E+02  0.10566000000E+00 0. -1.
         23    2    1    0    0    0  0.29205320225E+02  0.12157411149E+02 -0.26236132011E+00  0.93364225807E+02  0.87841086353E+02 0.  0.
         13    1    3    3    0    0  0.10765837872E+02  0.35750527798E+02  0.32125359328E+02  0.49254983290E+02  0.10566000000E+00 0.  1.
         22    1    1    0    0    0 -0.29205320225E+02 -0.12157411149E+02  0.26236132011E+00  0.31635774193E+02  0.00000000000E+00 0.  1.
</event>
<event>
 5    1  0.1709463E-003  0.9118800E+02  0.7818608E-02  0.1130116E+00
         25   -1    0    0    0    0  0.00000000000E+00  0.00000000000E+00  0.99999998245E-14  0.12500000000E+03  0.12500000000E+03 0.  0.
        -13    1    3    3    0    0 -0.14274040724E+02  0.12362362494E+02 -0.30001151379E+02  0.35449351096E+02  0.10566000000E+00 0.  1.
         23    2    1    0    0    0  0.27176345932E+01 -0.12600340843E+02  0.24249190393E+02  0.97537710185E+02  0.93591813457E+02 0.  0.
         13    1    3    3    0    0  0.16991675317E+02 -0.24962703337E+02  0.54250341772E+02  0.62088359089E+02  0.10566000000E+00 0. -1.
         22    1    1    0    0    0 -0.27176345932E+01  0.12600340843E+02 -0.24249190393E+02  0.27462289815E+02  0.00000000000E+00 0. -1.
</event>
<event>
 5    1  0.1709463E-003  0.9118800E+02  0.7818608E-02  0.1130116E+00
         25   -1    0    0    0    0  0.00000000000E+00  0.00000000000E+00  0.99999998245E-14  0.12500000000E+03  0.12500000000E+03 0.  0.
        -13    1    3    3    0    0 -0.31996270463E+02 -0.41838984734E+01 -0.26135258312E+02  0.41525043300E+02  0.10566000000E+00 0. -1.
         23    2    1    0    0    0 -0.16562968348E+02 -0.70804940696E+01  0.24529250068E+02  0.94567296774E+02  0.89536719806E+02 0.  0.
         13    1    3    3    0    0  0.15433302115E+02 -0.28965955961E+01  0.50664508380E+02  0.53042253474E+02  0.10566000000E+00 0.  1.
         22    1    1    0    0    0  0.16562968348E+02  0.70804940696E+01 -0.24529250068E+02  0.30432703226E+02  0.00000000000E+00 0.  1.
</event>
<event>
 5    1  0.1709463E-003  0.9118800E+02  0.7818608E-02  0.1130116E+00
         25   -1    0    0    0    0  0.00000000000E+00  0.00000000000E+00  0.99999998245E-14  0.12500000000E+03  0.12500000000E+03 0.  0.
        -13    1    3    3    0    0 -0.16311882567E+02  0.34102920543E+02  0.23614361573E+01  0.37877093965E+02  0.10566000000E+00 0.  1.
         23    2    1    0    0    0 -0.10055419919E+02 -0.22947513676E+02  0.13797671491E+02  0.96397979228E+02  0.92057019326E+02 0.  0.
         13    1    3    3    0    0  0.62564626483E+01 -0.57050434219E+02  0.11436235333E+02  0.58520885264E+02  0.10566000000E+00 0. -1.
         22    1    1    0    0    0  0.10055419919E+02  0.22947513676E+02 -0.13797671491E+02  0.28602020772E+02  0.00000000000E+00 0. -1.
</event>
<event>
 5    1  0.1709463E-003  0.9118800E+02  0.7818608E-02  0.1130116E+00
         25   -1    0    0    0    0  0.00000000000E+00  0.00000000000E+00  0.99999998245E-14  0.12500000000E+03  0.12500000000E+03 0.  0.
        -13    1    3    3    0    0 -0.44459078928E+02 -0.31746736147E+02 -0.36363839579E+01  0.54751250282E+02  0.10566000000E+00 0. -1.
         23    2    1    0    0    0 -0.27571167462E+02  0.63656705428E+01 -0.38816405647E+01  0.96438519469E+02  0.92112050608E+02 0.  0.
         13    1    3    3    0    0  0.16887911466E+02  0.38112406690E+02 -0.24525660675E+00  0.41687269187E+02  0.10566000000E+00 0.  1.
         22    1    1    0    0    0  0.27571167462E+02 -0.63656705428E+01  0.38816405647E+01  0.28561480531E+02  0.00000000000E+00 0. -1.
</event>
<event>
 5    1  0.1709463E-003  0.9118800E+02  0.7818608E-02  0.1130116E+00
         25   -1    0    0    0    0  0.00000000000E+00  0.00000000000E+00  0.99999998245E-14  0.12500000000E+03  0.12500000000E+03 0.  0.
        -13    1    3    3    0    0  0.46823934161E+00  0.30689749483E+02 -0.13105945566E+02  0.33374495421E+02  0.10566000000E+00 0.  1.
         23    2    1    0    0    0  0.11429561775E+02 -0.26518723824E+02  0.75067709737E+01  0.95163290965E+02  0.90364941992E+02 0.  0.
         13    1    3    3    0    0  0.10961322434E+02 -0.57208473307E+02  0.20612716539E+02  0.61788795544E+02  0.10566000000E+00 0. -1.
         22    1    1    0    0    0 -0.11429561775E+02  0.26518723824E+02 -0.75067709737E+01  0.29836709035E+02  0.00000000000E+00 0. -1.
</event>
<event>
 5    1  0.1709463E-003  0.9118800E+02  0.7818608E-02  0.1130116E+00
         25   -1    0    0    0    0  0.00000000000E+00  0.00000000000E+00  0.99999998245E-14  0.12500000000E+03  0.12500000000E+03 0.  0.
        -13    1    3    3    0    0  0.47791845228E+02  0.13166025678E+02  0.57280892160E+01  0.49902173025E+02  0.10566000000E+00 0.  1.
         23    2    1    0    0    0  0.17450262530E+02 -0.21633952931E+02 -0.35019441385E+01  0.96985660912E+02  0.92851576336E+02 0.  0.
         13    1    3    3    0    0 -0.30341582698E+02 -0.34799978610E+02 -0.92300333546E+01  0.47083487887E+02  0.10566000000E+00 0. -1.
         22    1    1    0    0    0 -0.17450262530E+02  0.21633952931E+02  0.35019441385E+01  0.28014339088E+02  0.00000000000E+00 0. -1.
</event>
<event>
 5    1  0.1709463E-003  0.9118800E+02  0.7818608E-02  0.1130116E+00
         25   -1    0    0    0    0  0.00000000000E+00  0.00000000000E+00  0.99999998245E-14  0.12500000000E+03  0.12500000000E+03 0.  0.
        -13    1    3    3    0    0 -0.29082700061E+02 -0.37172030947E+02 -0.71201371386E+01  0.47731235522E+02  0.10566000000E+00 0.  1.
         23    2    1    0    0    0  0.24498341175E+01 -0.75595721070E+01 -0.28092907336E+02  0.95804790457E+02  0.91248000604E+02 0.  0.
         13    1    3    3    0    0  0.31532534179E+02  0.29612458840E+02 -0.20972770198E+02  0.48073554935E+02  0.10566000000E+00 0. -1.
         22    1    1    0    0    0 -0.24498341175E+01  0.75595721070E+01  0.28092907336E+02  0.29195209543E+02  0.00000000000E+00 0.  1.
</event>
<event>
 5    1  0.1709463E-003  0.9118800E+02  0.7818608E-02  0.1130116E+00
         25   -1    0    0    0    0  0.00000000000E+00  0.00000000000E+00  0.99999998245E-14  0.12500000000E+03  0.12500000000E+03 0.  0.
        -13    1    3    3    0    0 -0.49276406580E+01 -0.21326481364E+02 -0.31814624268E+02  0.38617119664E+02  0.10566000000E+00 0. -1.
         23    2    1    0    0    0 -0.13230970722E+02  0.15181470071E+02  0.15952745142E+02  0.99309034714E+02  0.95928403920E+02 0.  0.
         13    1    3    3    0    0 -0.83033300637E+01  0.36507951434E+02  0.47767369410E+02  0.60691915050E+02  0.10566000000E+00 0.  1.
         22    1    1    0    0    0  0.13230970722E+02 -0.15181470071E+02 -0.15952745142E+02  0.25690965286E+02  0.00000000000E+00 0.  1.
</event>
<event>
 5    1  0.1709463E-003  0.9118800E+02  0.7818608E-02  0.1130116E+00
         25   -1    0    0    0    0  0.00000000000E+00  0.00000000000E+00  0.99999998245E-14  0.12500000000E+03  0.12500000000E+03 0.  0.
        -13    1    3    3    0    0  0.40005365724E+02  0.24622419698E+02  0.10545932257E+02  0.48144788811E+02  0.10566000000E+00 0. -1.
         23    2    1    0    0    0  0.11346102453E+02  0.98750901653E+01 -0.24809553690E+02  0.95986806434E+02  0.91497003276E+02 0.  0.
         13    1    3    3    0    0 -0.28659263271E+02 -0.14747329533E+02 -0.35355485946E+02  0.47842017622E+02  0.10566000000E+00 0.  1.
         22    1    1    0    0    0 -0.11346102453E+02 -0.98750901653E+01  0.24809553690E+02  0.29013193566E+02  0.00000000000E+00 0. -1.
</event>
<event>
 5    1  0.1709463E-003  0.9118800E+02  0.7818608E-02  0.1130116E+00
         25   -1    0    0    0    0  0.00000000000E+00  0.00000000000E+00  0.99999998245E-14  0.12500000000E+03  0.12500000000E+03 0.  0.
        -13    1    3    3    0    0  0.20437789264E+02 -0.26633342708E+02 -0.97364612693E+01  0.34954942653E+02  0.10566000000E+00 0.  1.
         23    2    1    0    0    0  0.13187772558E+01  0.20971956793E+02  0.21434278629E+02  0.94983497114E+02  0.90115893595E+02 0.  0.
         13    1    3    3    0    0 -0.19119012008E+02  0.47605299501E+02  0.31170739898E+02  0.60028554460E+02  0.10566000000E+00 0. -1.
         22    1    1    0    0    0 -0.13187772558E+01 -0.20971956793E+02 -0.21434278629E+02  0.30016502886E+02  0.00000000000E+00 0. -1.
</event>
<event>
 5    1  0.1709463E-003  0.9118800E+02  0.7818608E-02  0.1130116E+00
         25   -1    0    0    0    0  0.00000000000E+00  0.00000000000E+00  0.99999998245E-14  0.12500000000E+03  0.12500000000E+03 0.  0.
        -13    1    3    3    0    0  0.30024937545E+02 -0.40363020029E+02 -0.29256353460E+02  0.58194635855E+02  0.10566000000E+00 0. -1.
         23    2    1    0    0    0  0.26047531860E+02 -0.77113330011E+01 -0.13136613966E+02  0.94825355028E+02  0.89896266647E+02 0.  0.
         13    1    3    3    0    0 -0.39774056852E+01  0.32651687028E+02  0.16119739494E+02  0.36630719173E+02  0.10566000000E+00 0.  1.
         22    1    1    0    0    0 -0.26047531860E+02  0.77113330011E+01  0.13136613966E+02  0.30174644972E+02  0.00000000000E+00 0. -1.
</event>
<event>
 5    1  0.1709463E-003  0.9118800E+02  0.7818608E-02  0.1130116E+00
         25   -1    0    0    0    0  0.00000000000E+00  0.00000000000E+00  0.99999998245E-14  0.12500000000E+03  0.12500000000E+03 0.  0.
        -13    1    3    3    0    0  0.51805143276E+02 -0.49913345019E+01 -0.15436067368E+02  0.54285998469E+02  0.10566000000E+00 0. -1.
         23    2    1    0    0    0  0.15571101135E+02 -0.23473495806E+02 -0.39227609848E+01  0.96559672124E+02  0.92276313489E+02 0.  0.
         13    1    3    3    0    0 -0.36234042141E+02 -0.18482161304E+02  0.11513306383E+02  0.42273673655E+02  0.10566000000E+00 0.  1.
         22    1    1    0    0    0 -0.15571101135E+02  0.23473495806E+02  0.39227609848E+01  0.28440327876E+02  0.00000000000E+00 0. -1.
</event>
<event>
 5    1  0.1709463E-003  0.9118800E+02  0.7818608E-02  0.1130116E+00
         25   -1    0    0    0    0  0.00000000000E+00  0.00000000000E+00  0.99999998245E-14  0.12500000000E+03  0.12500000000E+03 0.  0.
        -13    1    3    3    0    0  0.22004176680E+02 -0.27846201325E+02 -0.34137402420E+01  0.35654726280E+02  0.10566000000E+00 0. -1.
         23    2    1    0    0    0 -0.12055183984E+02  0.13815821958E+02  0.22988082945E+02  0.95594960385E+02  0.90960101672E+02 0.  0.
         13    1    3    3    0    0 -0.34059360664E+02  0.41662023283E+02  0.26401823187E+02  0.59940234105E+02  0.10566000000E+00 0.  1.
         22    1    1    0    0    0  0.12055183984E+02 -0.13815821958E+02 -0.22988082945E+02  0.29405039615E+02  0.00000000000E+00 0.  1.
</event>
<event>
 5    1  0.1709463E-003  0.9118800E+02  0.7818608E-02  0.1130116E+00
         25   -1    0    0    0    0  0.00000000000E+00  0.00000000000E+00  0.99999998245E-14  0.12500000000E+03  0.12500000000E+03 0.  0.
        -13    1    3    3    0    0  0.41724010421E+02  0.39717738955E+02  0.16962468730E+01  0.57630549631E+02  0.10566000000E+00 0.  1.
         23    2    1    0    0    0  0.43647799373E+02  0.24923567774E+02 -0.59354379078E+01  0.74388301315E+02  0.54516743563E+02 0.  0.
         13    1    3    3    0    0  0.19237889520E+01 -0.14794171181E+02 -0.76316847808E+01  0.16757751684E+02  0.10566000000E+00 0. -1.
         22    1    1    0    0    0 -0.43647799373E+02 -0.24923567774E+02  0.59354379078E+01  0.50611698685E+02  0.00000000000E+00 0.  1.
</event>
<event>
 5    1  0.1709463E-003  0.9118800E+02  0.7818608E-02  0.1130116E+00
         25   -1    0    0    0    0  0.00000000000E+00  0.00000000000E+00  0.99999998245E-14  0.12500000000E+03  0.12500000000E+03 0.  0.
        -13    1    3    3    0    0 -0.17432187163E+02 -0.50815138770E+02 -0.10453326911E+02  0.54729723963E+02  0.10566000000E+00 0.  1.
         23    2    1    0    0    0 -0.22047519841E+02 -0.10359498622E+02 -0.16045766996E+02  0.95830170015E+02  0.91282761263E+02 0.  0.
         13    1    3    3    0    0 -0.46153326782E+01  0.40455640149E+02 -0.55924400854E+01  0.41100446053E+02  0.10566000000E+00 0. -1.
         22    1    1    0    0    0  0.22047519841E+02  0.10359498622E+02  0.16045766996E+02  0.29169829985E+02  0.00000000000E+00 0.  1.
</event>
<event>
 5    1  0.1709463E-003  0.9118800E+02  0.7818608E-02  0.1130116E+00
         25   -1    0    0    0    0  0.00000000000E+00  0.00000000000E+00  0.99999998245E-14  0.12500000000E+03  0.12500000000E+03 0.  0.
        -13    1    3    3    0    0  0.33957917721E+01  0.27729790833E+02  0.18469123376E+02  0.33490183393E+02  0.10566000000E+00 0. -1.
         23    2    1    0    0    0 -0.26027596164E+02 -0.20282101920E+02  0.31165417149E+01  0.91856188320E+02  0.85668238456E+02 0.  0.
         13    1    3    3    0    0 -0.29423387937E+02 -0.48011892753E+02 -0.15352581661E+02  0.58366004927E+02  0.10566000000E+00 0.  1.
         22    1    1    0    0    0  0.26027596164E+02  0.20282101920E+02 -0.31165417149E+01  0.33143811680E+02  0.00000000000E+00 0.  1.
</event>
<event>
 5    1  0.1709463E-003  0.9118800E+02  0.7818608E-02  0.1130116E+00
         25   -1    0    0    0    0  0.00000000000E+00  0.00000000000E+00  0.99999998245E-14  0.12500000000E+03  0.12500000000E+03 0.  0.
        -13    1    3    3    0    0 -0.58374031054E+01  0.48470432061E+02 -0.85834677267E+01  0.49569598964E+02  0.10566000000E+00 0.  1.
         23    2    1    0    0    0 -0.11475297502E+01  0.13475875889E+02  0.23894803974E+02  0.97543166379E+02  0.93599100395E+02 0.  0.
         13    1    3    3    0    0  0.46898733551E+01 -0.34994556172E+02  0.32478271701E+02  0.47973567415E+02  0.10566000000E+00 0. -1.
         22    1    1    0    0    0  0.11475297502E+01 -0.13475875889E+02 -0.23894803974E+02  0.27456833621E+02  0.00000000000E+00 0. -1.
</event>
<event>
 5    1  0.1709463E-003  0.9118800E+02  0.7818608E-02  0.1130116E+00
         25   -1    0    0    0    0  0.00000000000E+00  0.00000000000E+00  0.99999998245E-14  0.12500000000E+03  0.12500000000E+03 0.  0.
        -13    1    3    3    0    0  0.80817511074E+01 -0.38003791621E+02  0.32387795877E+02  0.50582441265E+02  0.10566000000E+00 0.  1.
         23    2    1    0    0    0  0.27643805019E+02 -0.42363235707E+01  0.12926459064E+02  0.94190590118E+02  0.89009255303E+02 0.  0.
         13    1    3    3    0    0  0.19562053912E+02  0.33767468050E+02 -0.19461336813E+02  0.43608148853E+02  0.10566000000E+00 0. -1.
         22    1    1    0    0    0 -0.27643805019E+02  0.42363235707E+01 -0.12926459064E+02  0.30809409882E+02  0.00000000000E+00 0.  1.
</event>
<event>
 5    1  0.1709463E-003  0.9118800E+02  0.7818608E-02  0.1130116E+00
         25   -1    0    0    0    0  0.00000000000E+00  0.00000000000E+00  0.99999998245E-14  0.12500000000E+03  0.12500000000E+03 0.  0.
        -13    1    3    3    0    0 -0.34321281581E+02  0.12109479121E+01 -0.37858105875E+02  0.51114226089E+02  0.10566000000E+00 0.  1.
         23    2    1    0    0    0  0.10073004923E+02  0.11300246113E+01 -0.26042895934E+02  0.97054073420E+02  0.92943629986E+02 0.  0.
         13    1    3    3    0    0  0.44394286504E+02 -0.80923300769E-01  0.11815209941E+02  0.45939847331E+02  0.10566000000E+00 0. -1.
         22    1    1    0    0    0 -0.10073004923E+02 -0.11300246113E+01  0.26042895934E+02  0.27945926580E+02  0.00000000000E+00 0.  1.
</event>
<event>
 5    1  0.1709463E-003  0.9118800E+02  0.7818608E-02  0.1130116E+00
         25   -1    0    0    0    0  0.00000000000E+00  0.00000000000E+00  0.99999998245E-14  0.12500000000E+03  0.12500000000E+03 0.  0.
        -13    1    3    3    0    0  0.41318039019E+02  0.33897178878E+02 -0.60835769520E+01  0.53788661973E+02  0.10566000000E+00 0. -1.
         23    2    1    0    0    0  0.16336115581E+02  0.63527520308E+01 -0.24172857211E+02  0.95141112606E+02  0.90334257907E+02 0.  0.
         13    1    3    3    0    0 -0.24981923438E+02 -0.27544426848E+02 -0.18089280259E+02  0.41352450633E+02  0.10566000000E+00 0.  1.
         22    1    1    0    0    0 -0.16336115581E+02 -0.63527520308E+01  0.24172857211E+02  0.29858887394E+02  0.00000000000E+00 0. -1.
</event>
<event>
 5    1  0.1709463E-003  0.9118800E+02  0.7818608E-02  0.1130116E+00
         25   -1    0    0    0    0  0.00000000000E+00  0.00000000000E+00  0.99999998245E-14  0.12500000000E+03  0.12500000000E+03 0.  0.
        -13    1    3    3    0    0  0.22523538622E+02 -0.35317023674E+02 -0.58796380939E+01  0.42298738296E+02  0.10566000000E+00 0.  1.
         23    2    1    0    0    0 -0.10406048744E+02  0.16695018015E+02  0.47314467107E+01  0.10476646188E+03  0.10279404394E+03 0.  0.
         13    1    3    3    0    0 -0.32929587366E+02  0.52012041689E+02  0.10611084805E+02  0.62467723582E+02  0.10566000000E+00 0. -1.
         22    1    1    0    0    0  0.10406048744E+02 -0.16695018015E+02 -0.47314467107E+01  0.20233538122E+02  0.00000000000E+00 0. -1.
</event>
<event>
 5    1  0.1709463E-003  0.9118800E+02  0.7818608E-02  0.1130116E+00
         25   -1    0    0    0    0  0.00000000000E+00  0.00000000000E+00  0.99999998245E-14  0.12500000000E+03  0.12500000000E+03 0.  0.
        -13    1    3    3    0    0 -0.27175769733E+02  0.32238535983E+02  0.24982042464E+02  0.49009787519E+02  0.10566000000E+00 0.  1.
         23    2    1    0    0    0 -0.24706303403E+02  0.84214942478E+01 -0.14466661413E+02  0.95156955824E+02  0.90356178295E+02 0.  0.
         13    1    3    3    0    0  0.24694663298E+01 -0.23817041735E+02 -0.39448703878E+02  0.46147168306E+02  0.10566000000E+00 0. -1.
         22    1    1    0    0    0  0.24706303403E+02 -0.84214942478E+01  0.14466661413E+02  0.29843044176E+02  0.00000000000E+00 0.  1.
</event>
<event>
 5    1  0.1709463E-003  0.9118800E+02  0.7818608E-02  0.1130116E+00
         25   -1    0    0    0    0  0.00000000000E+00  0.00000000000E+00  0.99999998245E-14  0.12500000000E+03  0.12500000000E+03 0.  0.
        -13    1    3    3    0    0  0.32426969152E+02  0.13318889617E+02  0.11168853773E+02  0.36792059030E+02  0.10566000000E+00 0.  1.
         23    2    1    0    0    0 -0.24130117483E+02  0.56665291884E+01  0.18134247081E+02  0.94288063558E+02  0.89146036870E+02 0.  0.
         13    1    3    3    0    0 -0.56557086635E+02 -0.76523604285E+01  0.69653933085E+01  0.57496004529E+02  0.10566000000E+00 0. -1.
         22    1    1    0    0    0  0.24130117483E+02 -0.56665291884E+01 -0.18134247081E+02  0.30711936442E+02  0.00000000000E+00 0. -1.
</event>
<event>
 5    1  0.1709463E-003  0.9118800E+02  0.7818608E-02  0.1130116E+00
         25   -1    0    0    0    0  0.00000000000E+00  0.00000000000E+00  0.99999998245E-14  0.12500000000E+03  0.12500000000E+03 0.  0.
        -13    1    3    3    0    0  0.27125820835E+00  0.30618643746E+02 -0.16401982239E+02  0.34736308256E+02  0.10566000000E+00 0.  1.
         23    2    1    0    0    0 -0.67340970600E+01 -0.15033232455E+02  0.23858793852E+02  0.96007101123E+02  0.91524724969E+02 0.  0.
         13    1    3    3    0    0 -0.70053552684E+01 -0.45651876201E+02  0.40260776090E+02  0.61270792867E+02  0.10566000000E+00 0. -1.
         22    1    1    0    0    0  0.67340970600E+01  0.15033232455E+02 -0.23858793852E+02  0.28992898877E+02  0.00000000000E+00 0. -1.
</event>
<event>
 5    1  0.1709463E-003  0.9118800E+02  0.7818608E-02  0.1130116E+00
         25   -1    0    0    0    0  0.00000000000E+00  0.00000000000E+00  0.99999998245E-14  0.12500000000E+03  0.12500000000E+03 0.  0.
        -13    1    3    3    0    0  0.24832236112E+02 -0.37653648713E+02  0.34071745311E+02  0.56527269563E+02  0.10566000000E+00 0. -1.
         23    2    1    0    0    0  0.13777613470E+02 -0.24083947452E+02 -0.25701130761E+01  0.97134884910E+02  0.93052249986E+02 0.  0.
         13    1    3    3    0    0 -0.11054622642E+02  0.13569701261E+02 -0.36641858387E+02  0.40607615347E+02  0.10566000000E+00 0.  1.
         22    1    1    0    0    0 -0.13777613470E+02  0.24083947452E+02  0.25701130761E+01  0.27865115090E+02  0.00000000000E+00 0. -1.
</event>
<event>
 5    1  0.1709463E-003  0.9118800E+02  0.7818608E-02  0.1130116E+00
         25   -1    0    0    0    0  0.00000000000E+00  0.00000000000E+00  0.99999998245E-14  0.12500000000E+03  0.12500000000E+03 0.  0.
        -13    1    3    3    0    0  0.18808842572E+02 -0.11947219702E+02  0.40055990464E+02  0.45836690037E+02  0.10566000000E+00 0. -1.
         23    2    1    0    0    0 -0.23778638969E+02 -0.70947388788E+01  0.97157660083E+01  0.98351264568E+02  0.94672150827E+02 0.  0.
         13    1    3    3    0    0 -0.42587481541E+02  0.48524808227E+01 -0.30340224456E+02  0.52514574531E+02  0.10566000000E+00 0.  1.
         22    1    1    0    0    0  0.23778638969E+02  0.70947388788E+01 -0.97157660083E+01  0.26648735432E+02  0.00000000000E+00 0.  1.
</event>
<event>
 5    1  0.1709463E-003  0.9118800E+02  0.7818608E-02  0.1130116E+00
         25   -1    0    0    0    0  0.00000000000E+00  0.00000000000E+00  0.99999998245E-14  0.12500000000E+03  0.12500000000E+03 0.  0.
        -13    1    3    3    0    0  0.12626510114E+02 -0.52810212559E+02 -0.16148138413E+02  0.56649102786E+02  0.10566000000E+00 0.  1.
         23    2    1    0    0    0 -0.13362373550E+01 -0.28717876419E+02  0.97157336456E+01  0.94653708027E+02  0.89657275258E+02 0.  0.
         13    1    3    3    0    0 -0.13962747469E+02  0.24092336140E+02  0.25863872059E+02  0.38004605241E+02  0.10566000000E+00 0. -1.
         22    1    1    0    0    0  0.13362373550E+01  0.28717876419E+02 -0.97157336456E+01  0.30346291973E+02  0.00000000000E+00 0. -1.
</event>
<event>
 5    1  0.1709463E-003  0.9118800E+02  0.7818608E-02  0.1130116E+00
         25   -1    0    0    0    0  0.00000000000E+00  0.00000000000E+00  0.99999998245E-14  0.12500000000E+03  0.12500000000E+03 0.  0.
        -13    1    3    3    0    0  0.96493997477E+01  0.31941175643E+02 -0.27161910990E+02  0.43024762517E+02  0.10566000000E+00 0. -1.
         23    2    1    0    0    0 -0.18657780021E+01 -0.19302230540E+02 -0.21805966559E+02  0.95818543406E+02  0.91266838728E+02 0.  0.
         13    1    3    3    0    0 -0.11515177750E+02 -0.51243406183E+02  0.53559444302E+01  0.52793780889E+02  0.10566000000E+00 0.  1.
         22    1    1    0    0    0  0.18657780021E+01  0.19302230540E+02  0.21805966559E+02  0.29181456594E+02  0.00000000000E+00 0.  1.
</event>
<event>
 5    1  0.1709463E-003  0.9118800E+02  0.7818608E-02  0.1130116E+00
         25   -1    0    0    0    0  0.00000000000E+00  0.00000000000E+00  0.99999998245E-14  0.12500000000E+03  0.12500000000E+03 0.  0.
        -13    1    3    3    0    0  0.19445426170E+02 -0.52488815269E+02 -0.92842112677E+01  0.56739827901E+02  0.10566000000E+00 0.  1.
         23    2    1    0    0    0 -0.95694231975E+01 -0.25511457396E+02  0.12134639321E+01  0.97725821488E+02  0.93842716137E+02 0.  0.
         13    1    3    3    0    0 -0.29014849368E+02  0.26977357874E+02  0.10497675200E+02  0.40985993587E+02  0.10566000000E+00 0. -1.
         22    1    1    0    0    0  0.95694231975E+01  0.25511457396E+02 -0.12134639321E+01  0.27274178512E+02  0.00000000000E+00 0.  1.
</event>
<event>
 5    1  0.1709463E-003  0.9118800E+02  0.7818608E-02  0.1130116E+00
         25   -1    0    0    0    0  0.00000000000E+00  0.00000000000E+00  0.99999998245E-14  0.12500000000E+03  0.12500000000E+03 0.  0.
        -13    1    3    3    0    0  0.14768931852E+02  0.50327092629E+02 -0.21388002925E+02  0.56642699739E+02  0.10566000000E+00 0.  1.
         23    2    1    0    0    0  0.23056408379E+02  0.17958170553E+02 -0.10553983173E+01  0.95756065200E+02  0.91181227783E+02 0.  0.
         13    1    3    3    0    0  0.82874765275E+01 -0.32368922076E+02  0.20332604607E+02  0.39113365462E+02  0.10566000000E+00 0. -1.
         22    1    1    0    0    0 -0.23056408379E+02 -0.17958170553E+02  0.10553983173E+01  0.29243934800E+02  0.00000000000E+00 0.  1.
</event>
<event>
 5    1  0.1709463E-003  0.9118800E+02  0.7818608E-02  0.1130116E+00
         25   -1    0    0    0    0  0.00000000000E+00  0.00000000000E+00  0.99999998245E-14  0.12500000000E+03  0.12500000000E+03 0.  0.
        -13    1    3    3    0    0  0.15010824912E+02 -0.10919868674E+02  0.27520697492E+02  0.33195908647E+02  0.10566000000E+00 0. -1.
         23    2    1    0    0    0 -0.16020568022E+01  0.16761482796E+02 -0.25007655993E+02  0.94852085482E+02  0.89933427437E+02 0.  0.
         13    1    3    3    0    0 -0.16612881714E+02  0.27681351470E+02 -0.52528353486E+02  0.61656176835E+02  0.10566000000E+00 0.  1.
         22    1    1    0    0    0  0.16020568022E+01 -0.16761482796E+02  0.25007655993E+02  0.30147914518E+02  0.00000000000E+00 0.  1.
</event>
<event>
 5    1  0.1709463E-003  0.9118800E+02  0.7818608E-02  0.1130116E+00
         25   -1    0    0    0    0  0.00000000000E+00  0.00000000000E+00  0.99999998245E-14  0.12500000000E+03  0.12500000000E+03 0.  0.
        -13    1    3    3    0    0 -0.15667820378E+02 -0.10952067811E+02 -0.59361695747E+02  0.62363855483E+02  0.10566000000E+00 0.  1.
         23    2    1    0    0    0 -0.94443371460E+01 -0.32220622501E+01 -0.26900760009E+02  0.96308048544E+02  0.91934825480E+02 0.  0.
         13    1    3    3    0    0  0.62234832316E+01  0.77300055613E+01  0.32460935738E+02  0.33944193061E+02  0.10566000000E+00 0. -1.
         22    1    1    0    0    0  0.94443371460E+01  0.32220622501E+01  0.26900760009E+02  0.28691951456E+02  0.00000000000E+00 0.  1.
</event>
<event>
 5    1  0.1709463E-003  0.9118800E+02  0.7818608E-02  0.1130116E+00
         25   -1    0    0    0    0  0.00000000000E+00  0.00000000000E+00  0.99999998245E-14  0.12500000000E+03  0.12500000000E+03 0.  0.
        -13    1    3    3    0    0 -0.22432995681E+02  0.13219306367E+02 -0.20690988166E+02  0.33258344988E+02  0.10566000000E+00 0. -1.
         23    2    1    0    0    0  0.18799354406E+02 -0.95688447137E+01  0.20313714246E+02  0.95714756246E+02  0.91124579898E+02 0.  0.
         13    1    3    3    0    0  0.41232350087E+02 -0.22788151080E+02  0.41004702412E+02  0.62456411258E+02  0.10566000000E+00 0.  1.
         22    1    1    0    0    0 -0.18799354406E+02  0.95688447137E+01 -0.20313714246E+02  0.29285243754E+02  0.00000000000E+00 0.  1.
</event>
<event>
 5    1  0.1709463E-003  0.9118800E+02  0.7818608E-02  0.1130116E+00
         25   -1    0    0    0    0  0.00000000000E+00  0.00000000000E+00  0.99999998245E-14  0.12500000000E+03  0.12500000000E+03 0.  0.
        -13    1    3    3    0    0  0.92628068898E+01 -0.31030394340E+02 -0.44836914319E+02  0.55308634173E+02  0.10566000000E+00 0.  1.
         23    2    1    0    0    0  0.23393865985E+02 -0.11498726187E+02 -0.11353867570E+02  0.96567554125E+02  0.92286990043E+02 0.  0.
         13    1    3    3    0    0  0.14131059095E+02  0.19531668153E+02  0.33483046749E+02  0.41258919952E+02  0.10566000000E+00 0. -1.
         22    1    1    0    0    0 -0.23393865985E+02  0.11498726187E+02  0.11353867570E+02  0.28432445875E+02  0.00000000000E+00 0.  1.
</event>
<event>
 5    1  0.1709463E-003  0.9118800E+02  0.7818608E-02  0.1130116E+00
         25   -1    0    0    0    0  0.00000000000E+00  0.00000000000E+00  0.99999998245E-14  0.12500000000E+03  0.12500000000E+03 0.  0.
        -13    1    3    3    0    0 -0.10668149987E+02 -0.31221411159E+02  0.26767656992E+02  0.42486522142E+02  0.10566000000E+00 0.  1.
         23    2    1    0    0    0 -0.28869689997E+01  0.22273366466E+02  0.15513371493E+02  0.97703440898E+02  0.93812900096E+02 0.  0.
         13    1    3    3    0    0  0.77811809869E+01  0.53494777625E+02 -0.11254285498E+02  0.55216918755E+02  0.10566000000E+00 0. -1.
         22    1    1    0    0    0  0.28869689997E+01 -0.22273366466E+02 -0.15513371493E+02  0.27296559102E+02  0.00000000000E+00 0. -1.
</event>
<event>
 5    1  0.1709463E-003  0.9118800E+02  0.7818608E-02  0.1130116E+00
         25   -1    0    0    0    0  0.00000000000E+00  0.00000000000E+00  0.99999998245E-14  0.12500000000E+03  0.12500000000E+03 0.  0.
        -13    1    3    3    0    0 -0.27392434528E+02 -0.16068652109E+02  0.95599746266E+01  0.33165514151E+02  0.10566000000E+00 0. -1.
         23    2    1    0    0    0  0.27023783140E+02  0.98347274096E+01 -0.64604014786E+01  0.95525544862E+02  0.90864658782E+02 0.  0.
         13    1    3    3    0    0  0.54416217668E+02  0.25903379519E+02 -0.16020376105E+02  0.62360030712E+02  0.10566000000E+00 0.  1.
         22    1    1    0    0    0 -0.27023783140E+02 -0.98347274096E+01  0.64604014786E+01  0.29474455138E+02  0.00000000000E+00 0.  1.
</event>
<event>
 5    1  0.1709463E-003  0.9118800E+02  0.7818608E-02  0.1130116E+00
         25   -1    0    0    0    0  0.00000000000E+00  0.00000000000E+00  0.99999998245E-14  0.12500000000E+03  0.12500000000E+03 0.  0.
        -13    1    3    3    0    0  0.32435210601E+02  0.10564996729E+02  0.50804816790E+02  0.61194792390E+02  0.10566000000E+00 0.  1.
         23    2    1    0    0    0  0.14381655827E+02  0.59413526778E+01  0.38358984686E+02  0.83605031681E+02  0.72637854595E+02 0.  0.
         13    1    3    3    0    0 -0.18053554774E+02 -0.46236440516E+01 -0.12445832103E+02  0.22410239291E+02  0.10566000000E+00 0. -1.
         22    1    1    0    0    0 -0.14381655827E+02 -0.59413526778E+01 -0.38358984686E+02  0.41394968319E+02  0.00000000000E+00 0.  1.
</event>
<event>
 5    1  0.1709463E-003  0.9118800E+02  0.7818608E-02  0.1130116E+00
         25   -1    0    0    0    0  0.00000000000E+00  0.00000000000E+00  0.99999998245E-14  0.12500000000E+03  0.12500000000E+03 0.  0.
        -13    1    3    3    0    0  0.18278158343E+02 -0.25186740254E+02  0.25424410559E+02  0.40185504517E+02  0.10566000000E+00 0.  1.
         23    2    1    0    0    0  0.19892031529E+02  0.19277115541E+02 -0.83756891730E+01  0.96061232385E+02  0.91598624969E+02 0.  0.
         13    1    3    3    0    0  0.16138731869E+01  0.44463855795E+02 -0.33800099732E+02  0.55875727868E+02  0.10566000000E+00 0. -1.
         22    1    1    0    0    0 -0.19892031529E+02 -0.19277115541E+02  0.83756891730E+01  0.28938767615E+02  0.00000000000E+00 0. -1.
</event>
<event>
 4    1  0.1709463E-003  0.9118800E+02  0.7818608E-02  0.1130116E+00
         25   -1    0    0    0    0  0.00000000000E+00  0.00000000000E+00  0.99999998245E-14  0.12500000000E+03  0.12500000000E+03 0.  0.
        -13    1    1    0    0    0  0.15742921698E+02 -0.25723845517E+02  0.18548285253E+02  0.35406296920E+02  0.10566000000E+00 0.  1.
         13    1    1    0    0    0 -0.89656559680E+01 -0.27465011352E+02 -0.21315201364E+02  0.35903465135E+02  0.10566000000E+00 0. -1.
         22    1    1    0    0    0 -0.67772657298E+01  0.53188856869E+02  0.27669161107E+01  0.53690237944E+02  0.00000000000E+00 0.  1.
</event>
<event>
 5    1  0.1709463E-003  0.9118800E+02  0.7818608E-02  0.1130116E+00
         25   -1    0    0    0    0  0.00000000000E+00  0.00000000000E+00  0.99999998245E-14  0.12500000000E+03  0.12500000000E+03 0.  0.
        -13    1    3    3    0    0  0.88162892730E+01  0.20932456485E+02 -0.56190346419E+02  0.60607432595E+02  0.10566000000E+00 0.  1.
         23    2    1    0    0    0 -0.31697686226E+01  0.21812011160E+01 -0.29007024697E+02  0.95738890089E+02  0.91157679448E+02 0.  0.
         13    1    3    3    0    0 -0.11986057896E+02 -0.18751255369E+02  0.27183321722E+02  0.35131457494E+02  0.10566000000E+00 0. -1.
         22    1    1    0    0    0  0.31697686226E+01 -0.21812011160E+01  0.29007024697E+02  0.29261109911E+02  0.00000000000E+00 0.  1.
</event>
<event>
 5    1  0.1709463E-003  0.9118800E+02  0.7818608E-02  0.1130116E+00
         25   -1    0    0    0    0  0.00000000000E+00  0.00000000000E+00  0.99999998245E-14  0.12500000000E+03  0.12500000000E+03 0.  0.
        -13    1    3    3    0    0 -0.22634439596E+02  0.30447197654E+02 -0.45312758351E+02  0.59098281991E+02  0.10566000000E+00 0. -1.
         23    2    1    0    0    0 -0.61334188326E+01  0.24682163707E+02 -0.11655820004E+02  0.97023471055E+02  0.92902463713E+02 0.  0.
         13    1    3    3    0    0  0.16501020764E+02 -0.57650339473E+01  0.33656938347E+02  0.37925189065E+02  0.10566000000E+00 0.  1.
         22    1    1    0    0    0  0.61334188326E+01 -0.24682163707E+02  0.11655820004E+02  0.27976528945E+02  0.00000000000E+00 0. -1.
</event>
<event>
 5    1  0.1709463E-003  0.9118800E+02  0.7818608E-02  0.1130116E+00
         25   -1    0    0    0    0  0.00000000000E+00  0.00000000000E+00  0.99999998245E-14  0.12500000000E+03  0.12500000000E+03 0.  0.
        -13    1    3    3    0    0  0.10484709524E+00  0.13246278581E+02 -0.32342911616E+02  0.34950679321E+02  0.10566000000E+00 0.  1.
         23    2    1    0    0    0 -0.48455815214E+01 -0.15006914995E+02  0.22899352308E+02  0.97195908681E+02  0.93134189052E+02 0.  0.
         13    1    3    3    0    0 -0.49504286166E+01 -0.28253193576E+02  0.55242263923E+02  0.62245229361E+02  0.10566000000E+00 0. -1.
         22    1    1    0    0    0  0.48455815214E+01  0.15006914995E+02 -0.22899352308E+02  0.27804091319E+02  0.00000000000E+00 0. -1.
</event>
<event>
 5    1  0.1709463E-003  0.9118800E+02  0.7818608E-02  0.1130116E+00
         25   -1    0    0    0    0  0.00000000000E+00  0.00000000000E+00  0.99999998245E-14  0.12500000000E+03  0.12500000000E+03 0.  0.
        -13    1    3    3    0    0  0.46517953756E+02  0.79246817014E+00 -0.11862930851E+02  0.48013418123E+02  0.10566000000E+00 0.  1.
         23    2    1    0    0    0  0.44541932195E+01 -0.23485032442E+02 -0.15163238491E+02  0.96692573632E+02  0.92456170200E+02 0.  0.
         13    1    3    3    0    0 -0.42063760537E+02 -0.24277500612E+02 -0.33003076402E+01  0.48679155509E+02  0.10566000000E+00 0. -1.
         22    1    1    0    0    0 -0.44541932195E+01  0.23485032442E+02  0.15163238491E+02  0.28307426368E+02  0.00000000000E+00 0.  1.
</event>
<event>
 5    1  0.1709463E-003  0.9118800E+02  0.7818608E-02  0.1130116E+00
         25   -1    0    0    0    0  0.00000000000E+00  0.00000000000E+00  0.99999998245E-14  0.12500000000E+03  0.12500000000E+03 0.  0.
        -13    1    3    3    0    0 -0.32719258027E+02 -0.44139638505E+02 -0.27451234007E+02  0.61420183537E+02  0.10566000000E+00 0.  1.
         23    2    1    0    0    0 -0.69789601648E+01 -0.22728965706E+02 -0.13168645932E+02  0.97820504001E+02  0.93968750127E+02 0.  0.
         13    1    3    3    0    0  0.25740297862E+02  0.21410672799E+02  0.14282588075E+02  0.36400320464E+02  0.10566000000E+00 0. -1.
         22    1    1    0    0    0  0.69789601648E+01  0.22728965706E+02  0.13168645932E+02  0.27179495999E+02  0.00000000000E+00 0.  1.
</event>
<event>
 5    1  0.1709463E-003  0.9118800E+02  0.7818608E-02  0.1130116E+00
         25   -1    0    0    0    0  0.00000000000E+00  0.00000000000E+00  0.99999998245E-14  0.12500000000E+03  0.12500000000E+03 0.  0.
        -13    1    3    3    0    0 -0.10581098076E+01 -0.10166119855E+02 -0.34078245092E+02  0.35578189131E+02  0.10566000000E+00 0.  1.
         23    2    1    0    0    0  0.14745133411E+02  0.19766269698E+02  0.15694048255E+02  0.95769407674E+02  0.91199517095E+02 0.  0.
         13    1    3    3    0    0  0.15803243219E+02  0.29932389553E+02  0.49772293347E+02  0.60191218543E+02  0.10566000000E+00 0. -1.
         22    1    1    0    0    0 -0.14745133411E+02 -0.19766269698E+02 -0.15694048255E+02  0.29230592326E+02  0.00000000000E+00 0. -1.
</event>
<event>
 5    1  0.1709463E-003  0.9118800E+02  0.7818608E-02  0.1130116E+00
         25   -1    0    0    0    0  0.00000000000E+00  0.00000000000E+00  0.99999998245E-14  0.12500000000E+03  0.12500000000E+03 0.  0.
        -13    1    3    3    0    0  0.15955303832E+02  0.52923023667E+01  0.29424834724E+02  0.33888231693E+02  0.10566000000E+00 0.  1.
         23    2    1    0    0    0 -0.29918490833E+02 -0.16572897144E+02  0.44571557972E+01  0.90508794581E+02  0.83679141040E+02 0.  0.
         13    1    3    3    0    0 -0.45873794665E+02 -0.21865199511E+02 -0.24967678927E+02  0.56620562887E+02  0.10566000000E+00 0. -1.
         22    1    1    0    0    0  0.29918490833E+02  0.16572897144E+02 -0.44571557972E+01  0.34491205419E+02  0.00000000000E+00 0. -1.
</event>
<event>
 5    1  0.1709463E-003  0.9118800E+02  0.7818608E-02  0.1130116E+00
         25   -1    0    0    0    0  0.00000000000E+00  0.00000000000E+00  0.99999998245E-14  0.12500000000E+03  0.12500000000E+03 0.  0.
        -13    1    3    3    0    0  0.43157151754E+02 -0.24313309786E+01  0.25894565032E+01  0.43303205041E+02  0.10566000000E+00 0.  1.
         23    2    1    0    0    0 -0.48614063542E+01 -0.15370031210E+02  0.22877302761E+02  0.97013536973E+02  0.92889096472E+02 0.  0.
         13    1    3    3    0    0 -0.48018558108E+02 -0.12938700231E+02  0.20287846258E+02  0.53710331932E+02  0.10566000000E+00 0. -1.
         22    1    1    0    0    0  0.48614063542E+01  0.15370031210E+02 -0.22877302761E+02  0.27986463027E+02  0.00000000000E+00 0. -1.
</event>
<event>
 5    1  0.1709463E-003  0.9118800E+02  0.7818608E-02  0.1130116E+00
         25   -1    0    0    0    0  0.00000000000E+00  0.00000000000E+00  0.99999998245E-14  0.12500000000E+03  0.12500000000E+03 0.  0.
        -13    1    3    3    0    0 -0.31576492581E+02  0.48828066685E+02 -0.91830757437E+01  0.58869304600E+02  0.10566000000E+00 0.  1.
         23    2    1    0    0    0 -0.68980197837E+01  0.24473499390E+02 -0.17001838386E+02  0.94412464012E+02  0.89320300061E+02 0.  0.
         13    1    3    3    0    0  0.24678472798E+02 -0.24354567295E+02 -0.78187626419E+01  0.35543159413E+02  0.10566000000E+00 0. -1.
         22    1    1    0    0    0  0.68980197837E+01 -0.24473499390E+02  0.17001838386E+02  0.30587535988E+02  0.00000000000E+00 0.  1.
</event>
<event>
 5    1  0.1709463E-003  0.9118800E+02  0.7818608E-02  0.1130116E+00
         25   -1    0    0    0    0  0.00000000000E+00  0.00000000000E+00  0.99999998245E-14  0.12500000000E+03  0.12500000000E+03 0.  0.
        -13    1    3    3    0    0 -0.42100008139E+02  0.79017233766E+01 -0.32210210215E+01  0.42956187658E+02  0.10566000000E+00 0.  1.
         23    2    1    0    0    0  0.61521337719E+01 -0.10195242244E+02  0.21736369546E+02  0.10021570103E+03  0.97102653196E+02 0.  0.
         13    1    3    3    0    0  0.48252141911E+02 -0.18096965621E+02  0.24957390567E+02  0.57259513373E+02  0.10566000000E+00 0. -1.
         22    1    1    0    0    0 -0.61521337719E+01  0.10195242244E+02 -0.21736369546E+02  0.24784298969E+02  0.00000000000E+00 0. -1.
</event>
<event>
 5    1  0.1709463E-003  0.9118800E+02  0.7818608E-02  0.1130116E+00
         25   -1    0    0    0    0  0.00000000000E+00  0.00000000000E+00  0.99999998245E-14  0.12500000000E+03  0.12500000000E+03 0.  0.
        -13    1    3    3    0    0  0.36825702863E+02  0.13214153443E+02  0.45021222763E+02  0.59646189364E+02  0.10566000000E+00 0.  1.
         23    2    1    0    0    0  0.22770292389E+02  0.16986350818E+02  0.15312876179E+02  0.92727620068E+02  0.86930460813E+02 0.  0.
         13    1    3    3    0    0 -0.14055410474E+02  0.37721973747E+01 -0.29708346584E+02  0.33081430704E+02  0.10566000000E+00 0. -1.
         22    1    1    0    0    0 -0.22770292389E+02 -0.16986350818E+02 -0.15312876179E+02  0.32272379932E+02  0.00000000000E+00 0.  1.
</event>
<event>
 5    1  0.1709463E-003  0.9118800E+02  0.7818608E-02  0.1130116E+00
         25   -1    0    0    0    0  0.00000000000E+00  0.00000000000E+00  0.99999998245E-14  0.12500000000E+03  0.12500000000E+03 0.  0.
        -13    1    3    3    0    0  0.27452667693E+02  0.13149735222E+02  0.47805598897E+02  0.56674076524E+02  0.10566000000E+00 0.  1.
         23    2    1    0    0    0  0.97762724031E+01  0.23093411725E+02  0.13517802103E+02  0.96511192708E+02  0.92210618570E+02 0.  0.
         13    1    3    3    0    0 -0.17676395290E+02  0.99436765028E+01 -0.34287796795E+02  0.39837116184E+02  0.10566000000E+00 0. -1.
         22    1    1    0    0    0 -0.97762724031E+01 -0.23093411725E+02 -0.13517802103E+02  0.28488807292E+02  0.00000000000E+00 0.  1.
</event>
<event>
 5    1  0.1709463E-003  0.9118800E+02  0.7818608E-02  0.1130116E+00
         25   -1    0    0    0    0  0.00000000000E+00  0.00000000000E+00  0.99999998245E-14  0.12500000000E+03  0.12500000000E+03 0.  0.
        -13    1    3    3    0    0 -0.11035141806E+02 -0.25461216780E+02 -0.22068003050E+02  0.35454983250E+02  0.10566000000E+00 0. -1.
         23    2    1    0    0    0  0.89505329216E+01  0.27301468204E+02  0.60793413764E+00  0.96262362839E+02  0.91872687506E+02 0.  0.
         13    1    3    3    0    0  0.19985674727E+02  0.52762684985E+02  0.22675937187E+02  0.60807379589E+02  0.10566000000E+00 0.  1.
         22    1    1    0    0    0 -0.89505329216E+01 -0.27301468204E+02 -0.60793413764E+00  0.28737637161E+02  0.00000000000E+00 0.  1.
</event>
<event>
 5    1  0.1709463E-003  0.9118800E+02  0.7818608E-02  0.1130116E+00
         25   -1    0    0    0    0  0.00000000000E+00  0.00000000000E+00  0.99999998245E-14  0.12500000000E+03  0.12500000000E+03 0.  0.
        -13    1    3    3    0    0 -0.15533101199E+02 -0.21861152761E+02  0.21584854210E+02  0.34425344271E+02  0.10566000000E+00 0. -1.
         23    2    1    0    0    0  0.27415936336E+02  0.84674457463E+01 -0.85914271518E+01  0.95047640775E+02  0.90204823562E+02 0.  0.
         13    1    3    3    0    0  0.42949037535E+02  0.30328598507E+02 -0.30176281362E+02  0.60622296504E+02  0.10566000000E+00 0.  1.
         22    1    1    0    0    0 -0.27415936336E+02 -0.84674457463E+01  0.85914271518E+01  0.29952359225E+02  0.00000000000E+00 0.  1.
</event>
<event>
 5    1  0.1709463E-003  0.9118800E+02  0.7818608E-02  0.1130116E+00
         25   -1    0    0    0    0  0.00000000000E+00  0.00000000000E+00  0.99999998245E-14  0.12500000000E+03  0.12500000000E+03 0.  0.
        -13    1    3    3    0    0  0.37536291295E+02  0.18141359465E+02  0.19515221747E+02  0.46031914270E+02  0.10566000000E+00 0.  1.
         23    2    1    0    0    0  0.65089390768E+01 -0.14819292967E+02  0.28539911361E+02  0.92189875459E+02  0.86153751309E+02 0.  0.
         13    1    3    3    0    0 -0.31027352219E+02 -0.32960652432E+02  0.90246896134E+01  0.46157961189E+02  0.10566000000E+00 0. -1.
         22    1    1    0    0    0 -0.65089390768E+01  0.14819292967E+02 -0.28539911361E+02  0.32810124541E+02  0.00000000000E+00 0.  1.
</event>
<event>
 5    1  0.1709463E-003  0.9118800E+02  0.7818608E-02  0.1130116E+00
         25   -1    0    0    0    0  0.00000000000E+00  0.00000000000E+00  0.99999998245E-14  0.12500000000E+03  0.12500000000E+03 0.  0.
        -13    1    3    3    0    0 -0.41427683560E+02 -0.21429469979E+02  0.86012563102E+00  0.46650038895E+02  0.10566000000E+00 0.  1.
         23    2    1    0    0    0 -0.28567828390E+01 -0.36083572300E+02 -0.54659187122E+01  0.88393147288E+02  0.80456738823E+02 0.  0.
         13    1    3    3    0    0  0.38570900721E+02 -0.14654102321E+02 -0.63260443432E+01  0.41743108393E+02  0.10566000000E+00 0. -1.
         22    1    1    0    0    0  0.28567828390E+01  0.36083572300E+02  0.54659187122E+01  0.36606852712E+02  0.00000000000E+00 0.  1.
</event>
<event>
 5    1  0.1709463E-003  0.9118800E+02  0.7818608E-02  0.1130116E+00
         25   -1    0    0    0    0  0.00000000000E+00  0.00000000000E+00  0.99999998245E-14  0.12500000000E+03  0.12500000000E+03 0.  0.
        -13    1    3    3    0    0  0.37567759718E+02 -0.39371241687E+01 -0.27322395050E+02  0.46619330242E+02  0.10566000000E+00 0.  1.
         23    2    1    0    0    0 -0.22161065352E+01  0.13343520067E+02 -0.32012516060E+02  0.90247131910E+02  0.83287351846E+02 0.  0.
         13    1    3    3    0    0 -0.39783866253E+02  0.17280644236E+02 -0.46901210106E+01  0.43627801668E+02  0.10566000000E+00 0. -1.
         22    1    1    0    0    0  0.22161065352E+01 -0.13343520067E+02  0.32012516060E+02  0.34752868090E+02  0.00000000000E+00 0.  1.
</event>
<event>
 5    1  0.1709463E-003  0.9118800E+02  0.7818608E-02  0.1130116E+00
         25   -1    0    0    0    0  0.00000000000E+00  0.00000000000E+00  0.99999998245E-14  0.12500000000E+03  0.12500000000E+03 0.  0.
        -13    1    3    3    0    0 -0.29947301974E+02 -0.46372611159E+02  0.25873259231E+02  0.60964716587E+02  0.10566000000E+00 0.  1.
         23    2    1    0    0    0 -0.89869427075E+01 -0.27393282778E+02  0.59300921981E+01  0.95566633321E+02  0.90921165469E+02 0.  0.
         13    1    3    3    0    0  0.20960359267E+02  0.18979328381E+02 -0.19943167033E+02  0.34601916735E+02  0.10566000000E+00 0. -1.
         22    1    1    0    0    0  0.89869427075E+01  0.27393282778E+02 -0.59300921981E+01  0.29433366679E+02  0.00000000000E+00 0.  1.
</event>
<event>
 5    1  0.1709463E-003  0.9118800E+02  0.7818608E-02  0.1130116E+00
         25   -1    0    0    0    0  0.00000000000E+00  0.00000000000E+00  0.99999998245E-14  0.12500000000E+03  0.12500000000E+03 0.  0.
        -13    1    3    3    0    0  0.23715126240E+02 -0.23749781694E+00  0.28176356278E+02  0.36829089520E+02  0.10566000000E+00 0. -1.
         23    2    1    0    0    0  0.27327398908E+00  0.17446363339E+02 -0.23179569851E+02  0.95987197121E+02  0.91497537017E+02 0.  0.
         13    1    3    3    0    0 -0.23441852251E+02  0.17683861156E+02 -0.51355926129E+02  0.59158107601E+02  0.10566000000E+00 0.  1.
         22    1    1    0    0    0 -0.27327398908E+00 -0.17446363339E+02  0.23179569851E+02  0.29012802879E+02  0.00000000000E+00 0.  1.
</event>
<event>
 5    1  0.1709463E-003  0.9118800E+02  0.7818608E-02  0.1130116E+00
         25   -1    0    0    0    0  0.00000000000E+00  0.00000000000E+00  0.99999998245E-14  0.12500000000E+03  0.12500000000E+03 0.  0.
        -13    1    3    3    0    0 -0.90229943232E+01  0.31307436244E+02 -0.40995411136E+02  0.52366066197E+02  0.10566000000E+00 0.  1.
         23    2    1    0    0    0 -0.14352123554E+02 -0.88940012725E+01 -0.22320479503E+02  0.97012672253E+02  0.92887932819E+02 0.  0.
         13    1    3    3    0    0 -0.53291292311E+01 -0.40201437517E+02  0.18674931633E+02  0.44646606056E+02  0.10566000000E+00 0. -1.
         22    1    1    0    0    0  0.14352123554E+02  0.88940012725E+01  0.22320479503E+02  0.27987327747E+02  0.00000000000E+00 0.  1.
</event>
<event>
 5    1  0.1709463E-003  0.9118800E+02  0.7818608E-02  0.1130116E+00
         25   -1    0    0    0    0  0.00000000000E+00  0.00000000000E+00  0.99999998245E-14  0.12500000000E+03  0.12500000000E+03 0.  0.
        -13    1    3    3    0    0  0.17612317319E+02  0.40144537585E+01  0.53914887325E+02  0.56860670060E+02  0.10566000000E+00 0. -1.
         23    2    1    0    0    0  0.22748815280E+02 -0.85009357758E+01  0.19449046093E+02  0.93886660423E+02  0.88581403836E+02 0.  0.
         13    1    3    3    0    0  0.51364979616E+01 -0.12515389534E+02 -0.34465841232E+02  0.37025990363E+02  0.10566000000E+00 0.  1.
         22    1    1    0    0    0 -0.22748815280E+02  0.85009357758E+01 -0.19449046093E+02  0.31113339577E+02  0.00000000000E+00 0. -1.
</event>
<event>
 5    1  0.1709463E-003  0.9118800E+02  0.7818608E-02  0.1130116E+00
         25   -1    0    0    0    0  0.00000000000E+00  0.00000000000E+00  0.99999998245E-14  0.12500000000E+03  0.12500000000E+03 0.  0.
        -13    1    3    3    0    0 -0.41095605384E+02  0.13663943034E+02 -0.11535891332E+02  0.44817854410E+02  0.10566000000E+00 0.  1.
         23    2    1    0    0    0  0.31306146002E+01 -0.57273399550E+01 -0.28316442625E+02  0.95941023871E+02  0.91434435350E+02 0.  0.
         13    1    3    3    0    0  0.44226219984E+02 -0.19391282989E+02 -0.16780551292E+02  0.51123169461E+02  0.10566000000E+00 0. -1.
         22    1    1    0    0    0 -0.31306146002E+01  0.57273399550E+01  0.28316442625E+02  0.29058976129E+02  0.00000000000E+00 0. -1.
</event>
<event>
 5    1  0.1709463E-003  0.9118800E+02  0.7818608E-02  0.1130116E+00
         25   -1    0    0    0    0  0.00000000000E+00  0.00000000000E+00  0.99999998245E-14  0.12500000000E+03  0.12500000000E+03 0.  0.
        -13    1    3    3    0    0 -0.24557449726E+02 -0.34698336168E+02 -0.34400581834E+02  0.54685044248E+02  0.10566000000E+00 0.  1.
         23    2    1    0    0    0 -0.41140224558E+01 -0.29098210098E+02  0.60279279669E+00  0.95606218841E+02  0.90975572053E+02 0.  0.
         13    1    3    3    0    0  0.20443427270E+02  0.56001260705E+01  0.35003374630E+02  0.40921174593E+02  0.10566000000E+00 0. -1.
         22    1    1    0    0    0  0.41140224558E+01  0.29098210098E+02 -0.60279279669E+00  0.29393781159E+02  0.00000000000E+00 0. -1.
</event>
<event>
 5    1  0.1709463E-003  0.9118800E+02  0.7818608E-02  0.1130116E+00
         25   -1    0    0    0    0  0.00000000000E+00  0.00000000000E+00  0.99999998245E-14  0.12500000000E+03  0.12500000000E+03 0.  0.
        -13    1    3    3    0    0  0.15747910787E+02  0.36902673836E+02  0.19057724759E+02  0.44418600466E+02  0.10566000000E+00 0.  1.
         23    2    1    0    0    0 -0.12347770551E+02  0.25361730703E+02 -0.17389272987E+02  0.91862836017E+02  0.85677937675E+02 0.  0.
         13    1    3    3    0    0 -0.28095681338E+02 -0.11540943133E+02 -0.36446997746E+02  0.47444235550E+02  0.10566000000E+00 0. -1.
         22    1    1    0    0    0  0.12347770551E+02 -0.25361730703E+02  0.17389272987E+02  0.33137163983E+02  0.00000000000E+00 0. -1.
</event>
<event>
 5    1  0.1709463E-003  0.9118800E+02  0.7818608E-02  0.1130116E+00
         25   -1    0    0    0    0  0.00000000000E+00  0.00000000000E+00  0.99999998245E-14  0.12500000000E+03  0.12500000000E+03 0.  0.
        -13    1    3    3    0    0  0.30882151502E+02  0.73444600328E+01  0.13099764610E+02  0.34340404357E+02  0.10566000000E+00 0.  1.
         23    2    1    0    0    0 -0.28865911662E+02 -0.24538849139E+01  0.14756101963E+01  0.95992417669E+02  0.91504668827E+02 0.  0.
         13    1    3    3    0    0 -0.59748063164E+02 -0.97983449466E+01 -0.11624154414E+02  0.61652013312E+02  0.10566000000E+00 0. -1.
         22    1    1    0    0    0  0.28865911662E+02  0.24538849139E+01 -0.14756101963E+01  0.29007582331E+02  0.00000000000E+00 0. -1.
</event>
<event>
 5    1  0.1709463E-003  0.9118800E+02  0.7818608E-02  0.1130116E+00
         25   -1    0    0    0    0  0.00000000000E+00  0.00000000000E+00  0.99999998245E-14  0.12500000000E+03  0.12500000000E+03 0.  0.
        -13    1    3    3    0    0  0.28127388944E+02 -0.20533693924E+02  0.79001258325E+01  0.35710023063E+02  0.10566000000E+00 0. -1.
         23    2    1    0    0    0 -0.28847814256E+02 -0.60365905890E+01  0.78463509804E+01  0.94500786288E+02  0.89443817965E+02 0.  0.
         13    1    3    3    0    0 -0.56975203201E+02  0.14497103335E+02 -0.53774852091E-01  0.58790763225E+02  0.10566000000E+00 0.  1.
         22    1    1    0    0    0  0.28847814256E+02  0.60365905890E+01 -0.78463509804E+01  0.30499213712E+02  0.00000000000E+00 0.  1.
</event>
<event>
 5    1  0.1709463E-003  0.9118800E+02  0.7818608E-02  0.1130116E+00
         25   -1    0    0    0    0  0.00000000000E+00  0.00000000000E+00  0.99999998245E-14  0.12500000000E+03  0.12500000000E+03 0.  0.
        -13    1    3    3    0    0  0.46774970845E+01  0.19708847934E+02 -0.31500401166E+02  0.37451356498E+02  0.10566000000E+00 0. -1.
         23    2    1    0    0    0 -0.24103844064E+02 -0.16778437262E+02  0.32111208494E+01  0.95456429587E+02  0.90769529010E+02 0.  0.
         13    1    3    3    0    0 -0.28781341149E+02 -0.36487285196E+02  0.34711522016E+02  0.58005073089E+02  0.10566000000E+00 0.  1.
         22    1    1    0    0    0  0.24103844064E+02  0.16778437262E+02 -0.32111208494E+01  0.29543570413E+02  0.00000000000E+00 0.  1.
</event>
<event>
 5    1  0.1709463E-003  0.9118800E+02  0.7818608E-02  0.1130116E+00
         25   -1    0    0    0    0  0.00000000000E+00  0.00000000000E+00  0.99999998245E-14  0.12500000000E+03  0.12500000000E+03 0.  0.
        -13    1    3    3    0    0  0.17541639971E+02  0.22768405584E+02  0.15490551757E+02  0.32650846597E+02  0.10566000000E+00 0. -1.
         23    2    1    0    0    0 -0.19552918637E+02 -0.15502526048E+02 -0.16754665405E+02  0.94943989720E+02  0.90061076110E+02 0.  0.
         13    1    3    3    0    0 -0.37094558608E+02 -0.38270931633E+02 -0.32245217161E+02  0.62293143123E+02  0.10566000000E+00 0.  1.
         22    1    1    0    0    0  0.19552918637E+02  0.15502526048E+02  0.16754665405E+02  0.30056010280E+02  0.00000000000E+00 0.  1.
</event>
<event>
 5    1  0.1709463E-003  0.9118800E+02  0.7818608E-02  0.1130116E+00
         25   -1    0    0    0    0  0.00000000000E+00  0.00000000000E+00  0.99999998245E-14  0.12500000000E+03  0.12500000000E+03 0.  0.
        -13    1    3    3    0    0  0.32155024698E+02 -0.27792887534E+02 -0.20328853496E+02  0.47113306606E+02  0.10566000000E+00 0.  1.
         23    2    1    0    0    0 -0.18359531542E+00 -0.34459686675E+02  0.68334435692E+01  0.89868822052E+02  0.82717625166E+02 0.  0.
         13    1    3    3    0    0 -0.32338620014E+02 -0.66667991413E+01  0.27162297066E+02  0.42755515446E+02  0.10566000000E+00 0. -1.
         22    1    1    0    0    0  0.18359531542E+00  0.34459686675E+02 -0.68334435692E+01  0.35131177948E+02  0.00000000000E+00 0.  1.
</event>
<event>
 5    1  0.1709463E-003  0.9118800E+02  0.7818608E-02  0.1130116E+00
         25   -1    0    0    0    0  0.00000000000E+00  0.00000000000E+00  0.99999998245E-14  0.12500000000E+03  0.12500000000E+03 0.  0.
        -13    1    3    3    0    0  0.26651469365E+02 -0.47075843541E+02 -0.73721852387E+01  0.54596667880E+02  0.10566000000E+00 0.  1.
         23    2    1    0    0    0 -0.10292972838E+02 -0.23931228656E+02  0.73055300763E+00  0.98938866054E+02  0.95444834923E+02 0.  0.
         13    1    3    3    0    0 -0.36944442202E+02  0.23144614884E+02  0.81027382463E+01  0.44342198174E+02  0.10566000000E+00 0. -1.
         22    1    1    0    0    0  0.10292972838E+02  0.23931228656E+02 -0.73055300763E+00  0.26061133946E+02  0.00000000000E+00 0.  1.
</event>
<event>
 5    1  0.1709463E-003  0.9118800E+02  0.7818608E-02  0.1130116E+00
         25   -1    0    0    0    0  0.00000000000E+00  0.00000000000E+00  0.99999998245E-14  0.12500000000E+03  0.12500000000E+03 0.  0.
        -13    1    3    3    0    0  0.17842744230E+02  0.22887568341E+02 -0.38701168564E+02  0.48373504302E+02  0.10566000000E+00 0.  1.
         23    2    1    0    0    0 -0.17954510048E+02  0.21537836615E+02 -0.72643884567E+01  0.96034258567E+02  0.91561807768E+02 0.  0.
         13    1    3    3    0    0 -0.35797254278E+02 -0.13497317261E+01  0.31436780107E+02  0.47660754265E+02  0.10566000000E+00 0. -1.
         22    1    1    0    0    0  0.17954510048E+02 -0.21537836615E+02  0.72643884567E+01  0.28965741433E+02  0.00000000000E+00 0.  1.
</event>
<event>
 5    1  0.1709463E-003  0.9118800E+02  0.7818608E-02  0.1130116E+00
         25   -1    0    0    0    0  0.00000000000E+00  0.00000000000E+00  0.99999998245E-14  0.12500000000E+03  0.12500000000E+03 0.  0.
        -13    1    3    3    0    0  0.34757141325E+02 -0.42405567564E+01 -0.24677343856E+02  0.42837176127E+02  0.10566000000E+00 0.  1.
         23    2    1    0    0    0  0.21003062867E+01  0.28617365759E+02  0.18947737190E+01  0.96243173386E+02  0.91846575039E+02 0.  0.
         13    1    3    3    0    0 -0.32656835039E+02  0.32857922515E+02  0.26572117575E+02  0.53405997259E+02  0.10566000000E+00 0. -1.
         22    1    1    0    0    0 -0.21003062867E+01 -0.28617365759E+02 -0.18947737190E+01  0.28756826614E+02  0.00000000000E+00 0. -1.
</event>
<event>
 5    1  0.1709463E-003  0.9118800E+02  0.7818608E-02  0.1130116E+00
         25   -1    0    0    0    0  0.00000000000E+00  0.00000000000E+00  0.99999998245E-14  0.12500000000E+03  0.12500000000E+03 0.  0.
        -13    1    3    3    0    0 -0.29640079436E+02 -0.35447904217E+01 -0.83610772077E+00  0.29863189520E+02  0.10566000000E+00 0. -1.
         23    2    1    0    0    0  0.19010626633E+02 -0.21946277256E+02  0.23837455179E+02  0.87433162500E+02  0.78951191409E+02 0.  0.
         13    1    3    3    0    0  0.48650706069E+02 -0.18401486834E+02  0.24673562900E+02  0.57569972980E+02  0.10566000000E+00 0.  1.
         22    1    1    0    0    0 -0.19010626633E+02  0.21946277256E+02 -0.23837455179E+02  0.37566837500E+02  0.00000000000E+00 0.  1.
</event>
<event>
 5    1  0.1709463E-003  0.9118800E+02  0.7818608E-02  0.1130116E+00
         25   -1    0    0    0    0  0.00000000000E+00  0.00000000000E+00  0.99999998245E-14  0.12500000000E+03  0.12500000000E+03 0.  0.
        -13    1    3    3    0    0 -0.29155858477E+02 -0.18296722687E+02 -0.12386984907E+02  0.36582546436E+02  0.10566000000E+00 0. -1.
         23    2    1    0    0    0  0.20346512582E+02  0.12903501284E+02  0.95627096586E+01  0.99078458077E+02  0.95627477846E+02 0.  0.
         13    1    3    3    0    0  0.49502371059E+02  0.31200223971E+02  0.21949694566E+02  0.62495911641E+02  0.10566000000E+00 0.  1.
         22    1    1    0    0    0 -0.20346512582E+02 -0.12903501284E+02 -0.95627096586E+01  0.25921541923E+02  0.00000000000E+00 0.  1.
</event>
<event>
 5    1  0.1709463E-003  0.9118800E+02  0.7818608E-02  0.1130116E+00
         25   -1    0    0    0    0  0.00000000000E+00  0.00000000000E+00  0.99999998245E-14  0.12500000000E+03  0.12500000000E+03 0.  0.
        -13    1    3    3    0    0 -0.52025701561E+02 -0.21340510250E+02 -0.20537240485E+02  0.59865519386E+02  0.10566000000E+00 0.  1.
         23    2    1    0    0    0 -0.28183438002E+02  0.22242078701E+01 -0.10187843819E+02  0.94949285533E+02  0.90068426118E+02 0.  0.
         13    1    3    3    0    0  0.23842263558E+02  0.23564718120E+02  0.10349396666E+02  0.35083766147E+02  0.10566000000E+00 0. -1.
         22    1    1    0    0    0  0.28183438002E+02 -0.22242078701E+01  0.10187843819E+02  0.30050714467E+02  0.00000000000E+00 0.  1.
</event>
<event>
 5    1  0.1709463E-003  0.9118800E+02  0.7818608E-02  0.1130116E+00
         25   -1    0    0    0    0  0.00000000000E+00  0.00000000000E+00  0.99999998245E-14  0.12500000000E+03  0.12500000000E+03 0.  0.
        -13    1    3    3    0    0  0.26384051471E+02 -0.29191143229E+02 -0.47955165577E+02  0.62031847342E+02  0.10566000000E+00 0.  1.
         23    2    1    0    0    0  0.96572439164E+01 -0.18738044524E+02 -0.25155967103E+02  0.92179284689E+02  0.86138383850E+02 0.  0.
         13    1    3    3    0    0 -0.16726807554E+02  0.10453098704E+02  0.22799198475E+02  0.30147437347E+02  0.10566000000E+00 0. -1.
         22    1    1    0    0    0 -0.96572439164E+01  0.18738044524E+02  0.25155967103E+02  0.32820715311E+02  0.00000000000E+00 0.  1.
</event>
<event>
 5    1  0.1709463E-003  0.9118800E+02  0.7818608E-02  0.1130116E+00
         25   -1    0    0    0    0  0.00000000000E+00  0.00000000000E+00  0.99999998245E-14  0.12500000000E+03  0.12500000000E+03 0.  0.
        -13    1    3    3    0    0  0.32198136008E+02 -0.29000790132E+02 -0.45297807207E+01  0.43569437317E+02  0.10566000000E+00 0. -1.
         23    2    1    0    0    0  0.12716808074E+02  0.20376203531E+02 -0.13566690752E+02  0.97414460747E+02  0.93427058108E+02 0.  0.
         13    1    3    3    0    0 -0.19481327934E+02  0.49376993663E+02 -0.90369100311E+01  0.53845023430E+02  0.10566000000E+00 0.  1.
         22    1    1    0    0    0 -0.12716808074E+02 -0.20376203531E+02  0.13566690752E+02  0.27585539253E+02  0.00000000000E+00 0.  1.
</event>
<event>
 5    1  0.1709463E-003  0.9118800E+02  0.7818608E-02  0.1130116E+00
         25   -1    0    0    0    0  0.00000000000E+00  0.00000000000E+00  0.99999998245E-14  0.12500000000E+03  0.12500000000E+03 0.  0.
        -13    1    3    3    0    0  0.39957064228E+01  0.26489095994E+02 -0.50013257226E+02  0.56736010952E+02  0.10566000000E+00 0.  1.
         23    2    1    0    0    0 -0.10661618534E+01 -0.63953018334E+01 -0.27101848233E+02  0.97133411326E+02  0.93050270454E+02 0.  0.
         13    1    3    3    0    0 -0.50618682762E+01 -0.32884397827E+02  0.22911408993E+02  0.40397400374E+02  0.10566000000E+00 0. -1.
         22    1    1    0    0    0  0.10661618534E+01  0.63953018334E+01  0.27101848233E+02  0.27866588674E+02  0.00000000000E+00 0.  1.
</event>
<event>
 5    1  0.1709463E-003  0.9118800E+02  0.7818608E-02  0.1130116E+00
         25   -1    0    0    0    0  0.00000000000E+00  0.00000000000E+00  0.99999998245E-14  0.12500000000E+03  0.12500000000E+03 0.  0.
        -13    1    3    3    0    0 -0.37471451937E+02 -0.36798271739E+02  0.54212474801E+01  0.52797950732E+02  0.10566000000E+00 0.  1.
         23    2    1    0    0    0 -0.85636586047E+01 -0.16299604159E+02 -0.21051710773E+02  0.97032378168E+02  0.92914447435E+02 0.  0.
         13    1    3    3    0    0  0.28907793332E+02  0.20498667580E+02 -0.26472958253E+02  0.44234427436E+02  0.10566000000E+00 0. -1.
         22    1    1    0    0    0  0.85636586047E+01  0.16299604159E+02  0.21051710773E+02  0.27967621832E+02  0.00000000000E+00 0.  1.
</event>
<event>
 5    1  0.1709463E-003  0.9118800E+02  0.7818608E-02  0.1130116E+00
         25   -1    0    0    0    0  0.00000000000E+00  0.00000000000E+00  0.99999998245E-14  0.12500000000E+03  0.12500000000E+03 0.  0.
        -13    1    3    3    0    0  0.26920652995E+02  0.18850987434E+02  0.10645672792E+02  0.34545951979E+02  0.10566000000E+00 0.  1.
         23    2    1    0    0    0 -0.10789058281E+02 -0.27679969528E+02  0.53119290221E+00  0.95286927833E+02  0.90535804842E+02 0.  0.
         13    1    3    3    0    0 -0.37709711275E+02 -0.46530956962E+02 -0.10114479890E+02  0.60740975855E+02  0.10566000000E+00 0. -1.
         22    1    1    0    0    0  0.10789058281E+02  0.27679969528E+02 -0.53119290221E+00  0.29713072167E+02  0.00000000000E+00 0. -1.
</event>
<event>
 5    1  0.1709463E-003  0.9118800E+02  0.7818608E-02  0.1130116E+00
         25   -1    0    0    0    0  0.00000000000E+00  0.00000000000E+00  0.99999998245E-14  0.12500000000E+03  0.12500000000E+03 0.  0.
        -13    1    3    3    0    0 -0.95903612411E+01  0.46193491124E+02 -0.35094065757E+02  0.58799815190E+02  0.10566000000E+00 0.  1.
         23    2    1    0    0    0 -0.17889131527E+02  0.14062702293E+02 -0.11606660412E+02  0.99456014632E+02  0.96119736048E+02 0.  0.
         13    1    3    3    0    0 -0.82987702860E+01 -0.32130788831E+02  0.23487405346E+02  0.40656199442E+02  0.10566000000E+00 0. -1.
         22    1    1    0    0    0  0.17889131527E+02 -0.14062702293E+02  0.11606660412E+02  0.25543985368E+02  0.00000000000E+00 0.  1.
</event>
<event>
 5    1  0.1709463E-003  0.9118800E+02  0.7818608E-02  0.1130116E+00
         25   -1    0    0    0    0  0.00000000000E+00  0.00000000000E+00  0.99999998245E-14  0.12500000000E+03  0.12500000000E+03 0.  0.
        -13    1    3    3    0    0  0.53247160193E+02  0.21380076375E+01  0.29746666133E+02  0.61030373220E+02  0.10566000000E+00 0.  1.
         23    2    1    0    0    0  0.27170566201E+02  0.92819162447E+01  0.96837273599E+01  0.94698709394E+02  0.89719994139E+02 0.  0.
         13    1    3    3    0    0 -0.26076593993E+02  0.71439086072E+01 -0.20062938773E+02  0.33668336174E+02  0.10566000000E+00 0. -1.
         22    1    1    0    0    0 -0.27170566201E+02 -0.92819162447E+01 -0.96837273599E+01  0.30301290606E+02  0.00000000000E+00 0.  1.
</event>
<event>
 5    1  0.1709463E-003  0.9118800E+02  0.7818608E-02  0.1130116E+00
         25   -1    0    0    0    0  0.00000000000E+00  0.00000000000E+00  0.99999998245E-14  0.12500000000E+03  0.12500000000E+03 0.  0.
        -13    1    3    3    0    0  0.10575372274E+02 -0.52523859292E+02  0.26229682661E+02  0.59654016715E+02  0.10566000000E+00 0.  1.
         23    2    1    0    0    0 -0.73906322406E+01 -0.22677954194E+02  0.17054178122E+02  0.95678403134E+02  0.91074698921E+02 0.  0.
         13    1    3    3    0    0 -0.17966004515E+02  0.29845905098E+02 -0.91755045387E+01  0.36024386420E+02  0.10566000000E+00 0. -1.
         22    1    1    0    0    0  0.73906322406E+01  0.22677954194E+02 -0.17054178122E+02  0.29321596866E+02  0.00000000000E+00 0.  1.
</event>
<event>
 5    1  0.1709463E-003  0.9118800E+02  0.7818608E-02  0.1130116E+00
         25   -1    0    0    0    0  0.00000000000E+00  0.00000000000E+00  0.99999998245E-14  0.12500000000E+03  0.12500000000E+03 0.  0.
        -13    1    3    3    0    0 -0.41739725916E+02 -0.93346301426E+01  0.57519727240E+01  0.43155954325E+02  0.10566000000E+00 0. -1.
         23    2    1    0    0    0 -0.74989364320E+01  0.29383635645E+01 -0.29867373088E+02  0.94065747088E+02  0.88833759191E+02 0.  0.
         13    1    3    3    0    0  0.34240789484E+02  0.12272993707E+02 -0.35619345812E+02  0.50909792763E+02  0.10566000000E+00 0.  1.
         22    1    1    0    0    0  0.74989364320E+01 -0.29383635645E+01  0.29867373088E+02  0.30934252912E+02  0.00000000000E+00 0. -1.
</event>
<event>
 5    1  0.1709463E-003  0.9118800E+02  0.7818608E-02  0.1130116E+00
         25   -1    0    0    0    0  0.00000000000E+00  0.00000000000E+00  0.99999998245E-14  0.12500000000E+03  0.12500000000E+03 0.  0.
        -13    1    3    3    0    0 -0.32945144797E+02  0.46416173161E+01 -0.33746188577E+02  0.47389277105E+02  0.10566000000E+00 0.  1.
         23    2    1    0    0    0 -0.21224881604E+02 -0.20231210326E+02  0.53574493528E+01  0.95192287341E+02  0.90405043196E+02 0.  0.
         13    1    3    3    0    0  0.11720263193E+02 -0.24872827642E+02  0.39103637930E+02  0.47803010236E+02  0.10566000000E+00 0. -1.
         22    1    1    0    0    0  0.21224881604E+02  0.20231210326E+02 -0.53574493528E+01  0.29807712659E+02  0.00000000000E+00 0.  1.
</event>
<event>
 5    1  0.1709463E-003  0.9118800E+02  0.7818608E-02  0.1130116E+00
         25   -1    0    0    0    0  0.00000000000E+00  0.00000000000E+00  0.99999998245E-14  0.12500000000E+03  0.12500000000E+03 0.  0.
        -13    1    3    3    0    0  0.82442438010E+01  0.38429070490E+01 -0.37216851243E+02  0.38312408837E+02  0.10566000000E+00 0. -1.
         23    2    1    0    0    0 -0.26101858243E+02  0.11114579270E+02  0.79674398272E+01  0.95532713503E+02  0.90874519947E+02 0.  0.
         13    1    3    3    0    0 -0.34346102044E+02  0.72716722215E+01  0.45184291070E+02  0.57220304666E+02  0.10566000000E+00 0.  1.
         22    1    1    0    0    0  0.26101858243E+02 -0.11114579270E+02 -0.79674398272E+01  0.29467286497E+02  0.00000000000E+00 0.  1.
</event>
<event>
 5    1  0.1709463E-003  0.9118800E+02  0.7818608E-02  0.1130116E+00
         25   -1    0    0    0    0  0.00000000000E+00  0.00000000000E+00  0.99999998245E-14  0.12500000000E+03  0.12500000000E+03 0.  0.
        -13    1    3    3    0    0  0.15479087015E+02 -0.89053860860E+01 -0.46176277490E+02  0.49509269870E+02  0.10566000000E+00 0. -1.
         23    2    1    0    0    0  0.28304209769E+02 -0.16084163990E+01 -0.14430617320E+01  0.96613423576E+02  0.92349097959E+02 0.  0.
         13    1    3    3    0    0  0.12825122753E+02  0.72969696870E+01  0.44733215758E+02  0.47104153706E+02  0.10566000000E+00 0.  1.
         22    1    1    0    0    0 -0.28304209769E+02  0.16084163990E+01  0.14430617320E+01  0.28386576424E+02  0.00000000000E+00 0.  1.
</event>
<event>
 5    1  0.1709463E-003  0.9118800E+02  0.7818608E-02  0.1130116E+00
         25   -1    0    0    0    0  0.00000000000E+00  0.00000000000E+00  0.99999998245E-14  0.12500000000E+03  0.12500000000E+03 0.  0.
        -13    1    3    3    0    0  0.38290117046E+02 -0.18795264401E+02 -0.16065951483E+02  0.45579830939E+02  0.10566000000E+00 0.  1.
         23    2    1    0    0    0 -0.11927716849E+02 -0.16914298263E+02  0.98011691497E+01  0.10209963250E+03  0.99498282020E+02 0.  0.
         13    1    3    3    0    0 -0.50217833895E+02  0.18809661386E+01  0.25867120632E+02  0.56519801561E+02  0.10566000000E+00 0. -1.
         22    1    1    0    0    0  0.11927716849E+02  0.16914298263E+02 -0.98011691497E+01  0.22900367500E+02  0.00000000000E+00 0. -1.
</event>
<event>
 5    1  0.1709463E-003  0.9118800E+02  0.7818608E-02  0.1130116E+00
         25   -1    0    0    0    0  0.00000000000E+00  0.00000000000E+00  0.99999998245E-14  0.12500000000E+03  0.12500000000E+03 0.  0.
        -13    1    3    3    0    0  0.15417885743E+02  0.55364019911E+02  0.12549924176E+02  0.58825144813E+02  0.10566000000E+00 0. -1.
         23    2    1    0    0    0 -0.61294987563E+01  0.34243257957E+02  0.74001704940E+01  0.89434089442E+02  0.82058042631E+02 0.  0.
         13    1    3    3    0    0 -0.21547384499E+02 -0.21120761954E+02 -0.51497536817E+01  0.30608944629E+02  0.10566000000E+00 0.  1.
         22    1    1    0    0    0  0.61294987563E+01 -0.34243257957E+02 -0.74001704940E+01  0.35565910558E+02  0.00000000000E+00 0. -1.
</event>
<event>
 5    1  0.1709463E-003  0.9118800E+02  0.7818608E-02  0.1130116E+00
         25   -1    0    0    0    0  0.00000000000E+00  0.00000000000E+00  0.99999998245E-14  0.12500000000E+03  0.12500000000E+03 0.  0.
        -13    1    3    3    0    0  0.16327469554E+02  0.14127517368E+02 -0.38568220430E+02  0.44200585971E+02  0.10566000000E+00 0. -1.
         23    2    1    0    0    0  0.88067027373E+01  0.28480457303E+02  0.85170675166E+01  0.93996211516E+02  0.88735860163E+02 0.  0.
         13    1    3    3    0    0 -0.75207668163E+01  0.14352939935E+02  0.47085287947E+02  0.49795625544E+02  0.10566000000E+00 0.  1.
         22    1    1    0    0    0 -0.88067027373E+01 -0.28480457303E+02 -0.85170675166E+01  0.31003788484E+02  0.00000000000E+00 0. -1.
</event>
<event>
 5    1  0.1709463E-003  0.9118800E+02  0.7818608E-02  0.1130116E+00
         25   -1    0    0    0    0  0.00000000000E+00  0.00000000000E+00  0.99999998245E-14  0.12500000000E+03  0.12500000000E+03 0.  0.
        -13    1    3    3    0    0  0.19341595776E+02  0.28844508058E+02  0.39362095174E+01  0.34951507574E+02  0.10566000000E+00 0.  1.
         23    2    1    0    0    0 -0.28142201462E+02 -0.74280145137E+01 -0.53038845724E+01  0.95414698002E+02  0.90712041651E+02 0.  0.
         13    1    3    3    0    0 -0.47483797238E+02 -0.36272522572E+02 -0.92400940898E+01  0.60463190428E+02  0.10566000000E+00 0. -1.
         22    1    1    0    0    0  0.28142201462E+02  0.74280145137E+01  0.53038845724E+01  0.29585301998E+02  0.00000000000E+00 0. -1.
</event>
<event>
 5    1  0.1709463E-003  0.9118800E+02  0.7818608E-02  0.1130116E+00
         25   -1    0    0    0    0  0.00000000000E+00  0.00000000000E+00  0.99999998245E-14  0.12500000000E+03  0.12500000000E+03 0.  0.
        -13    1    3    3    0    0 -0.42329432202E+02 -0.36996461151E+02 -0.12694225378E+02  0.57633961257E+02  0.10566000000E+00 0.  1.
         23    2    1    0    0    0 -0.99956885537E+01 -0.24383513228E+02  0.72564217930E+01  0.97666409598E+02  0.93763545153E+02 0.  0.
         13    1    3    3    0    0  0.32333743648E+02  0.12612947923E+02  0.19950647171E+02  0.40032448341E+02  0.10566000000E+00 0. -1.
         22    1    1    0    0    0  0.99956885537E+01  0.24383513228E+02 -0.72564217930E+01  0.27333590402E+02  0.00000000000E+00 0.  1.
</event>
<event>
 5    1  0.1709463E-003  0.9118800E+02  0.7818608E-02  0.1130116E+00
         25   -1    0    0    0    0  0.00000000000E+00  0.00000000000E+00  0.99999998245E-14  0.12500000000E+03  0.12500000000E+03 0.  0.
        -13    1    3    3    0    0 -0.22899193801E+02 -0.27254215628E+02 -0.82430433236E+01  0.36539352396E+02  0.10566000000E+00 0. -1.
         23    2    1    0    0    0 -0.33819418277E+01  0.28309794909E+02  0.24096364145E+01  0.96387269163E+02  0.92042475470E+02 0.  0.
         13    1    3    3    0    0  0.19517251974E+02  0.55564010538E+02  0.10652679738E+02  0.59847916766E+02  0.10566000000E+00 0.  1.
         22    1    1    0    0    0  0.33819418277E+01 -0.28309794909E+02 -0.24096364145E+01  0.28612730837E+02  0.00000000000E+00 0.  1.
</event>
<event>
 5    1  0.1709463E-003  0.9118800E+02  0.7818608E-02  0.1130116E+00
         25   -1    0    0    0    0  0.00000000000E+00  0.00000000000E+00  0.99999998245E-14  0.12500000000E+03  0.12500000000E+03 0.  0.
        -13    1    3    3    0    0  0.36988610776E+01  0.41664310649E+02  0.10443823536E+02  0.43112422446E+02  0.10566000000E+00 0. -1.
         23    2    1    0    0    0 -0.27774569315E+01 -0.66632880504E+01  0.28872660311E+02  0.95238545263E+02  0.90468979854E+02 0.  0.
         13    1    3    3    0    0 -0.64763180091E+01 -0.48327598699E+02  0.18428836775E+02  0.52126122817E+02  0.10566000000E+00 0.  1.
         22    1    1    0    0    0  0.27774569315E+01  0.66632880504E+01 -0.28872660311E+02  0.29761454737E+02  0.00000000000E+00 0.  1.
</event>
<event>
 5    1  0.1709463E-003  0.9118800E+02  0.7818608E-02  0.1130116E+00
         25   -1    0    0    0    0  0.00000000000E+00  0.00000000000E+00  0.99999998245E-14  0.12500000000E+03  0.12500000000E+03 0.  0.
        -13    1    3    3    0    0  0.13286025693E+02 -0.38242968330E+02  0.23039266507E+02  0.46581778311E+02  0.10566000000E+00 0.  1.
         23    2    1    0    0    0 -0.25086297064E+02 -0.14110229973E+02  0.32799314951E+01  0.96031416312E+02  0.91557927445E+02 0.  0.
         13    1    3    3    0    0 -0.38372322757E+02  0.24132738357E+02 -0.19759335012E+02  0.49449638002E+02  0.10566000000E+00 0. -1.
         22    1    1    0    0    0  0.25086297064E+02  0.14110229973E+02 -0.32799314951E+01  0.28968583688E+02  0.00000000000E+00 0. -1.
</event>
<event>
 5    1  0.1709463E-003  0.9118800E+02  0.7818608E-02  0.1130116E+00
         25   -1    0    0    0    0  0.00000000000E+00  0.00000000000E+00  0.99999998245E-14  0.12500000000E+03  0.12500000000E+03 0.  0.
        -13    1    3    3    0    0  0.17032557382E+02  0.12527703462E+02 -0.33323269536E+02  0.39465210270E+02  0.10566000000E+00 0. -1.
         23    2    1    0    0    0  0.18073905382E+02 -0.74278131573E+00  0.22086321892E+02  0.96451385419E+02  0.92129508599E+02 0.  0.
         13    1    3    3    0    0  0.10413479991E+01 -0.13270484778E+02  0.55409591427E+02  0.56986175149E+02  0.10566000000E+00 0.  1.
         22    1    1    0    0    0 -0.18073905382E+02  0.74278131573E+00 -0.22086321892E+02  0.28548614581E+02  0.00000000000E+00 0.  1.
</event>
<event>
 5    1  0.1709463E-003  0.9118800E+02  0.7818608E-02  0.1130116E+00
         25   -1    0    0    0    0  0.00000000000E+00  0.00000000000E+00  0.99999998245E-14  0.12500000000E+03  0.12500000000E+03 0.  0.
        -13    1    3    3    0    0  0.27054067545E+02 -0.15382020709E+02 -0.19200251138E+02  0.36567607792E+02  0.10566000000E+00 0.  1.
         23    2    1    0    0    0 -0.11555221453E+02  0.26479789059E+02 -0.20780504653E+01  0.96034146566E+02  0.91561654865E+02 0.  0.
         13    1    3    3    0    0 -0.38609288998E+02  0.41861809767E+02  0.17122200672E+02  0.59466538775E+02  0.10566000000E+00 0. -1.
         22    1    1    0    0    0  0.11555221453E+02 -0.26479789059E+02  0.20780504653E+01  0.28965853434E+02  0.00000000000E+00 0. -1.
</event>
<event>
 5    1  0.1709463E-003  0.9118800E+02  0.7818608E-02  0.1130116E+00
         25   -1    0    0    0    0  0.00000000000E+00  0.00000000000E+00  0.99999998245E-14  0.12500000000E+03  0.12500000000E+03 0.  0.
        -13    1    3    3    0    0 -0.49168958068E+02 -0.13100573602E+02 -0.11026831672E+02  0.52065474615E+02  0.10566000000E+00 0. -1.
         23    2    1    0    0    0 -0.20608228124E+02 -0.93542445667E+00  0.20221272678E+02  0.96112737166E+02  0.91668883987E+02 0.  0.
         13    1    3    3    0    0  0.28560729944E+02  0.12165149145E+02  0.31248104350E+02  0.44047262550E+02  0.10566000000E+00 0.  1.
         22    1    1    0    0    0  0.20608228124E+02  0.93542445667E+00 -0.20221272678E+02  0.28887262834E+02  0.00000000000E+00 0. -1.
</event>
<event>
 5    1  0.1709463E-003  0.9118800E+02  0.7818608E-02  0.1130116E+00
         25   -1    0    0    0    0  0.00000000000E+00  0.00000000000E+00  0.99999998245E-14  0.12500000000E+03  0.12500000000E+03 0.  0.
        -13    1    3    3    0    0  0.38519935286E+02  0.11842600244E+02  0.26430619709E+02  0.48193582739E+02  0.10566000000E+00 0.  1.
         23    2    1    0    0    0  0.67300042751E+01 -0.22534147099E+02  0.17063496733E+02  0.95944128583E+02  0.91438679703E+02 0.  0.
         13    1    3    3    0    0 -0.31789931011E+02 -0.34376747343E+02 -0.93671229757E+01  0.47750545844E+02  0.10566000000E+00 0. -1.
         22    1    1    0    0    0 -0.67300042751E+01  0.22534147099E+02 -0.17063496733E+02  0.29055871417E+02  0.00000000000E+00 0.  1.
</event>
<event>
 5    1  0.1709463E-003  0.9118800E+02  0.7818608E-02  0.1130116E+00
         25   -1    0    0    0    0  0.00000000000E+00  0.00000000000E+00  0.99999998245E-14  0.12500000000E+03  0.12500000000E+03 0.  0.
        -13    1    3    3    0    0  0.25644120965E+02  0.10548114577E+01  0.34230160878E+02  0.42783742766E+02  0.10566000000E+00 0. -1.
         23    2    1    0    0    0 -0.79727073458E+01 -0.28490336892E+02  0.94419770104E+01  0.93944979657E+02  0.88663661746E+02 0.  0.
         13    1    3    3    0    0 -0.33616828311E+02 -0.29545148350E+02 -0.24788183868E+02  0.51161236891E+02  0.10566000000E+00 0.  1.
         22    1    1    0    0    0  0.79727073458E+01  0.28490336892E+02 -0.94419770104E+01  0.31055020343E+02  0.00000000000E+00 0. -1.
</event>
<event>
 5    1  0.1709463E-003  0.9118800E+02  0.7818608E-02  0.1130116E+00
         25   -1    0    0    0    0  0.00000000000E+00  0.00000000000E+00  0.99999998245E-14  0.12500000000E+03  0.12500000000E+03 0.  0.
        -13    1    3    3    0    0  0.38178847835E+02 -0.32774516641E-01 -0.40558566177E+02  0.55701292180E+02  0.10566000000E+00 0.  1.
         23    2    1    0    0    0  0.25916490485E+02  0.13129349124E+02 -0.50428595622E+01  0.95513143266E+02  0.90847596647E+02 0.  0.
         13    1    3    3    0    0 -0.12262357350E+02  0.13162123641E+02  0.35515706615E+02  0.39811851086E+02  0.10566000000E+00 0. -1.
         22    1    1    0    0    0 -0.25916490485E+02 -0.13129349124E+02  0.50428595622E+01  0.29486856734E+02  0.00000000000E+00 0.  1.
</event>
<event>
 5    1  0.1709463E-003  0.9118800E+02  0.7818608E-02  0.1130116E+00
         25   -1    0    0    0    0  0.00000000000E+00  0.00000000000E+00  0.99999998245E-14  0.12500000000E+03  0.12500000000E+03 0.  0.
        -13    1    3    3    0    0 -0.81016363101E+01  0.33156428009E+02  0.36828677530E+01  0.34330160328E+02  0.10566000000E+00 0.  1.
         23    2    1    0    0    0  0.70512895441E+01 -0.23306802756E+02  0.18239223766E+02  0.94576373942E+02  0.89549391318E+02 0.  0.
         13    1    3    3    0    0  0.15152925854E+02 -0.56463230765E+02  0.14556356013E+02  0.60246213614E+02  0.10566000000E+00 0. -1.
         22    1    1    0    0    0 -0.70512895441E+01  0.23306802756E+02 -0.18239223766E+02  0.30423626058E+02  0.00000000000E+00 0. -1.
</event>
<event>
 5    1  0.1709463E-003  0.9118800E+02  0.7818608E-02  0.1130116E+00
         25   -1    0    0    0    0  0.00000000000E+00  0.00000000000E+00  0.99999998245E-14  0.12500000000E+03  0.12500000000E+03 0.  0.
        -13    1    3    3    0    0  0.77689890843E+01 -0.17526806935E+02  0.34871117677E+02  0.39793870945E+02  0.10566000000E+00 0.  1.
         23    2    1    0    0    0 -0.29615015439E+02  0.10066278912E+02  0.13947247602E+02  0.90752301884E+02  0.84042105346E+02 0.  0.
         13    1    3    3    0    0 -0.37384004523E+02  0.27593085847E+02 -0.20923870075E+02  0.50958430939E+02  0.10566000000E+00 0. -1.
         22    1    1    0    0    0  0.29615015439E+02 -0.10066278912E+02 -0.13947247602E+02  0.34247698116E+02  0.00000000000E+00 0. -1.
</event>
<event>
 5    1  0.1709463E-003  0.9118800E+02  0.7818608E-02  0.1130116E+00
         25   -1    0    0    0    0  0.00000000000E+00  0.00000000000E+00  0.99999998245E-14  0.12500000000E+03  0.12500000000E+03 0.  0.
        -13    1    3    3    0    0  0.32652876045E+02  0.25332004381E+02  0.36110624342E+02  0.54880862915E+02  0.10566000000E+00 0. -1.
         23    2    1    0    0    0  0.25439589041E+02 -0.73712488639E+01  0.13663682393E+02  0.95197244810E+02  0.90411897461E+02 0.  0.
         13    1    3    3    0    0 -0.72132870039E+01 -0.32703253245E+02 -0.22446941949E+02  0.40316381895E+02  0.10566000000E+00 0.  1.
         22    1    1    0    0    0 -0.25439589041E+02  0.73712488639E+01 -0.13663682393E+02  0.29802755190E+02  0.00000000000E+00 0. -1.
</event>
<event>
 5    1  0.1709463E-003  0.9118800E+02  0.7818608E-02  0.1130116E+00
         25   -1    0    0    0    0  0.00000000000E+00  0.00000000000E+00  0.99999998245E-14  0.12500000000E+03  0.12500000000E+03 0.  0.
        -13    1    3    3    0    0  0.12651762108E+02 -0.29417464133E+02 -0.23836415225E+02  0.39920422534E+02  0.10566000000E+00 0.  1.
         23    2    1    0    0    0 -0.29526716986E+02 -0.33438403338E+01  0.76494602865E+00  0.95274700564E+02  0.90518921453E+02 0.  0.
         13    1    3    3    0    0 -0.42178479094E+02  0.26073623799E+02  0.24601361254E+02  0.55354278030E+02  0.10566000000E+00 0. -1.
         22    1    1    0    0    0  0.29526716986E+02  0.33438403338E+01 -0.76494602865E+00  0.29725299436E+02  0.00000000000E+00 0.  1.
</event>
<event>
 5    1  0.1709463E-003  0.9118800E+02  0.7818608E-02  0.1130116E+00
         25   -1    0    0    0    0  0.00000000000E+00  0.00000000000E+00  0.99999998245E-14  0.12500000000E+03  0.12500000000E+03 0.  0.
        -13    1    3    3    0    0 -0.51304064804E+02 -0.63713390670E+01 -0.18302301871E+02  0.54842378183E+02  0.10566000000E+00 0.  1.
         23    2    1    0    0    0 -0.12875584912E+02 -0.15442374728E+02 -0.22821715546E+02  0.94584899728E+02  0.89561291483E+02 0.  0.
         13    1    3    3    0    0  0.38428479892E+02 -0.90710356606E+01 -0.45194136757E+01  0.39742521545E+02  0.10566000000E+00 0. -1.
         22    1    1    0    0    0  0.12875584912E+02  0.15442374728E+02  0.22821715546E+02  0.30415100272E+02  0.00000000000E+00 0.  1.
</event>
<event>
 5    1  0.1709463E-003  0.9118800E+02  0.7818608E-02  0.1130116E+00
         25   -1    0    0    0    0  0.00000000000E+00  0.00000000000E+00  0.99999998245E-14  0.12500000000E+03  0.12500000000E+03 0.  0.
        -13    1    3    3    0    0  0.34492619375E+02 -0.22200822505E+01 -0.16205107589E+02  0.38174418562E+02  0.10566000000E+00 0. -1.
         23    2    1    0    0    0 -0.22901932623E+02 -0.30416542214E+01 -0.18168883537E+02  0.95608530025E+02  0.90978747553E+02 0.  0.
         13    1    3    3    0    0 -0.57394551998E+02 -0.82157197088E+00 -0.19637759480E+01  0.57434111463E+02  0.10566000000E+00 0.  1.
         22    1    1    0    0    0  0.22901932623E+02  0.30416542214E+01  0.18168883537E+02  0.29391469975E+02  0.00000000000E+00 0. -1.
</event>
<event>
 5    1  0.1709463E-003  0.9118800E+02  0.7818608E-02  0.1130116E+00
         25   -1    0    0    0    0  0.00000000000E+00  0.00000000000E+00  0.99999998245E-14  0.12500000000E+03  0.12500000000E+03 0.  0.
        -13    1    3    3    0    0 -0.85519301578E+00 -0.59197339563E+02  0.15414856774E+02  0.61177490466E+02  0.10566000000E+00 0.  1.
         23    2    1    0    0    0  0.55529118391E+00 -0.25104820730E+02  0.15855595006E+02  0.95302184168E+02  0.90556866344E+02 0.  0.
         13    1    3    3    0    0  0.14104841997E+01  0.34092518832E+02  0.44073823185E+00  0.34124693702E+02  0.10566000000E+00 0. -1.
         22    1    1    0    0    0 -0.55529118391E+00  0.25104820730E+02 -0.15855595006E+02  0.29697815832E+02  0.00000000000E+00 0.  1.
</event>
<event>
 5    1  0.1709463E-003  0.9118800E+02  0.7818608E-02  0.1130116E+00
         25   -1    0    0    0    0  0.00000000000E+00  0.00000000000E+00  0.99999998245E-14  0.12500000000E+03  0.12500000000E+03 0.  0.
        -13    1    3    3    0    0  0.32929657502E+02  0.72159428766E+01  0.17822600089E+02  0.38132511231E+02  0.10566000000E+00 0. -1.
         23    2    1    0    0    0  0.61697495355E+01 -0.23240950567E+02 -0.20109608381E+02  0.93653485970E+02  0.88251750649E+02 0.  0.
         13    1    3    3    0    0 -0.26759907966E+02 -0.30456893443E+02 -0.37932208470E+02  0.55520974740E+02  0.10566000000E+00 0.  1.
         22    1    1    0    0    0 -0.61697495355E+01  0.23240950567E+02  0.20109608381E+02  0.31346514030E+02  0.00000000000E+00 0.  1.
</event>
<event>
 5    1  0.1709463E-003  0.9118800E+02  0.7818608E-02  0.1130116E+00
         25   -1    0    0    0    0  0.00000000000E+00  0.00000000000E+00  0.99999998245E-14  0.12500000000E+03  0.12500000000E+03 0.  0.
        -13    1    3    3    0    0  0.35467069676E+02  0.98301996387E+01 -0.35413979547E+02  0.51075502618E+02  0.10566000000E+00 0. -1.
         23    2    1    0    0    0  0.44876789545E+01  0.27646366779E+02 -0.87734319147E+01  0.95649804668E+02  0.91035439072E+02 0.  0.
         13    1    3    3    0    0 -0.30979390721E+02  0.17816167140E+02  0.26640547632E+02  0.44574302050E+02  0.10566000000E+00 0.  1.
         22    1    1    0    0    0 -0.44876789545E+01 -0.27646366779E+02  0.87734319147E+01  0.29350195332E+02  0.00000000000E+00 0. -1.
</event>
<event>
 5    1  0.1709463E-003  0.9118800E+02  0.7818608E-02  0.1130116E+00
         25   -1    0    0    0    0  0.00000000000E+00  0.00000000000E+00  0.99999998245E-14  0.12500000000E+03  0.12500000000E+03 0.  0.
        -13    1    3    3    0    0  0.11662172323E+02 -0.46593287398E+02  0.37057878955E+02  0.60664967243E+02  0.10566000000E+00 0.  1.
         23    2    1    0    0    0  0.14960616335E+02 -0.16956091608E+02  0.18457831638E+02  0.95810607534E+02  0.91255969030E+02 0.  0.
         13    1    3    3    0    0  0.32984440126E+01  0.29637195791E+02 -0.18600047317E+02  0.35145640291E+02  0.10566000000E+00 0. -1.
         22    1    1    0    0    0 -0.14960616335E+02  0.16956091608E+02 -0.18457831638E+02  0.29189392466E+02  0.00000000000E+00 0.  1.
</event>
<event>
 5    1  0.1709463E-003  0.9118800E+02  0.7818608E-02  0.1130116E+00
         25   -1    0    0    0    0  0.00000000000E+00  0.00000000000E+00  0.99999998245E-14  0.12500000000E+03  0.12500000000E+03 0.  0.
        -13    1    3    3    0    0  0.70835911575E+00 -0.81296644901E+01 -0.36278645543E+02  0.37185272674E+02  0.10566000000E+00 0.  1.
         23    2    1    0    0    0 -0.77402457966E+01 -0.19943688106E+02  0.20245633443E+02  0.95545836054E+02  0.90892568527E+02 0.  0.
         13    1    3    3    0    0 -0.84486049124E+01 -0.11814023616E+02  0.56524278987E+02  0.58360563379E+02  0.10566000000E+00 0. -1.
         22    1    1    0    0    0  0.77402457966E+01  0.19943688106E+02 -0.20245633443E+02  0.29454163946E+02  0.00000000000E+00 0. -1.
</event>
<event>
 5    1  0.1709463E-003  0.9118800E+02  0.7818608E-02  0.1130116E+00
         25   -1    0    0    0    0  0.00000000000E+00  0.00000000000E+00  0.99999998245E-14  0.12500000000E+03  0.12500000000E+03 0.  0.
        -13    1    3    3    0    0 -0.16947677837E+02 -0.29121470346E+02  0.14470309288E+02  0.36669944561E+02  0.10566000000E+00 0.  1.
         23    2    1    0    0    0  0.21237210844E+02  0.16183147290E+02  0.11305282858E+02  0.96004779684E+02  0.91521554407E+02 0.  0.
         13    1    3    3    0    0  0.38184888681E+02  0.45304617636E+02 -0.31650264300E+01  0.59334835123E+02  0.10566000000E+00 0. -1.
         22    1    1    0    0    0 -0.21237210844E+02 -0.16183147290E+02 -0.11305282858E+02  0.28995220316E+02  0.00000000000E+00 0. -1.
</event>
<event>
 5    1  0.1709463E-003  0.9118800E+02  0.7818608E-02  0.1130116E+00
         25   -1    0    0    0    0  0.00000000000E+00  0.00000000000E+00  0.99999998245E-14  0.12500000000E+03  0.12500000000E+03 0.  0.
        -13    1    3    3    0    0 -0.19160189753E+02  0.30087928713E+02 -0.35482103553E+02  0.50312892604E+02  0.10566000000E+00 0. -1.
         23    2    1    0    0    0  0.14243885591E+02  0.24932550812E+02 -0.49480089302E+01  0.95862341222E+02  0.91326804967E+02 0.  0.
         13    1    3    3    0    0  0.33404075345E+02 -0.51553779015E+01  0.30534094622E+02  0.45549448618E+02  0.10566000000E+00 0.  1.
         22    1    1    0    0    0 -0.14243885591E+02 -0.24932550812E+02  0.49480089302E+01  0.29137658778E+02  0.00000000000E+00 0.  1.
</event>
<event>
 5    1  0.1709463E-003  0.9118800E+02  0.7818608E-02  0.1130116E+00
         25   -1    0    0    0    0  0.00000000000E+00  0.00000000000E+00  0.99999998245E-14  0.12500000000E+03  0.12500000000E+03 0.  0.
        -13    1    3    3    0    0  0.24969294401E+02 -0.47499123317E+00  0.30990888692E+02  0.39801226432E+02  0.10566000000E+00 0. -1.
         23    2    1    0    0    0  0.14835400877E+02 -0.11333421446E+02 -0.22757802126E+02  0.95564424272E+02  0.90918128379E+02 0.  0.
         13    1    3    3    0    0 -0.10133893524E+02 -0.10858430213E+02 -0.53748690818E+02  0.55763197840E+02  0.10566000000E+00 0.  1.
         22    1    1    0    0    0 -0.14835400877E+02  0.11333421446E+02  0.22757802126E+02  0.29435575728E+02  0.00000000000E+00 0.  1.
</event>
<event>
 5    1  0.1709463E-003  0.9118800E+02  0.7818608E-02  0.1130116E+00
         25   -1    0    0    0    0  0.00000000000E+00  0.00000000000E+00  0.99999998245E-14  0.12500000000E+03  0.12500000000E+03 0.  0.
        -13    1    3    3    0    0 -0.53376220543E+02  0.18566513911E+02  0.12617618150E+02  0.57904678655E+02  0.10566000000E+00 0. -1.
         23    2    1    0    0    0 -0.14975149919E+02  0.14606674136E+02  0.18645662684E+02  0.96977316664E+02  0.92840342342E+02 0.  0.
         13    1    3    3    0    0  0.38401070624E+02 -0.39598397752E+01  0.60280445333E+01  0.39072638010E+02  0.10566000000E+00 0.  1.
         22    1    1    0    0    0  0.14975149919E+02 -0.14606674136E+02 -0.18645662684E+02  0.28022683336E+02  0.00000000000E+00 0.  1.
</event>
<event>
 5    1  0.1709463E-003  0.9118800E+02  0.7818608E-02  0.1130116E+00
         25   -1    0    0    0    0  0.00000000000E+00  0.00000000000E+00  0.99999998245E-14  0.12500000000E+03  0.12500000000E+03 0.  0.
        -13    1    3    3    0    0 -0.54834443501E+01  0.33423211723E+02  0.10573486313E+01  0.33886699367E+02  0.10566000000E+00 0. -1.
         23    2    1    0    0    0  0.18298549042E+02 -0.22778809536E+02 -0.55130270017E+01  0.95266104735E+02  0.90507050464E+02 0.  0.
         13    1    3    3    0    0  0.23781993392E+02 -0.56202021259E+02 -0.65703756330E+01  0.61379405368E+02  0.10566000000E+00 0.  1.
         22    1    1    0    0    0 -0.18298549042E+02  0.22778809536E+02  0.55130270017E+01  0.29733895265E+02  0.00000000000E+00 0.  1.
</event>
<event>
 5    1  0.1709463E-003  0.9118800E+02  0.7818608E-02  0.1130116E+00
         25   -1    0    0    0    0  0.00000000000E+00  0.00000000000E+00  0.99999998245E-14  0.12500000000E+03  0.12500000000E+03 0.  0.
        -13    1    3    3    0    0 -0.22466153732E+02  0.82109709904E+01 -0.78264860796E+01  0.25167700660E+02  0.10566000000E+00 0. -1.
         23    2    1    0    0    0  0.37942438927E+02  0.11441271358E+01 -0.89531200229E+01  0.85998768522E+02  0.76646540238E+02 0.  0.
         13    1    3    3    0    0  0.60408592659E+02 -0.70668438546E+01 -0.11266339432E+01  0.60831067862E+02  0.10566000000E+00 0.  1.
         22    1    1    0    0    0 -0.37942438927E+02 -0.11441271358E+01  0.89531200229E+01  0.39001231478E+02  0.00000000000E+00 0.  1.
</event>
<event>
 5    1  0.1709463E-003  0.9118800E+02  0.7818608E-02  0.1130116E+00
         25   -1    0    0    0    0  0.00000000000E+00  0.00000000000E+00  0.99999998245E-14  0.12500000000E+03  0.12500000000E+03 0.  0.
        -13    1    3    3    0    0 -0.94826675891E+00  0.19078696661E+02 -0.34051352169E+02  0.39043586217E+02  0.10566000000E+00 0. -1.
         23    2    1    0    0    0  0.31271272149E+02  0.31505628423E+02 -0.19324934194E+02  0.76585640914E+02  0.59341471405E+02 0.  0.
         13    1    3    3    0    0  0.32219538908E+02  0.12426931762E+02  0.14726417975E+02  0.37542054697E+02  0.10566000000E+00 0.  1.
         22    1    1    0    0    0 -0.31271272149E+02 -0.31505628423E+02  0.19324934194E+02  0.48414359086E+02  0.00000000000E+00 0. -1.
</event>
<event>
 5    1  0.1709463E-003  0.9118800E+02  0.7818608E-02  0.1130116E+00
         25   -1    0    0    0    0  0.00000000000E+00  0.00000000000E+00  0.99999998245E-14  0.12500000000E+03  0.12500000000E+03 0.  0.
        -13    1    3    3    0    0 -0.33971220085E+02 -0.15889498584E+02 -0.31806820087E+02  0.49175247100E+02  0.10566000000E+00 0. -1.
         23    2    1    0    0    0  0.11324991763E+02 -0.38369562593E+01 -0.25969748051E+02  0.96409695951E+02  0.92072927551E+02 0.  0.
         13    1    3    3    0    0  0.45296211848E+02  0.12052542325E+02  0.58370720355E+01  0.47234448851E+02  0.10566000000E+00 0.  1.
         22    1    1    0    0    0 -0.11324991763E+02  0.38369562593E+01  0.25969748051E+02  0.28590304049E+02  0.00000000000E+00 0.  1.
</event>
<event>
 5    1  0.1709463E-003  0.9118800E+02  0.7818608E-02  0.1130116E+00
         25   -1    0    0    0    0  0.00000000000E+00  0.00000000000E+00  0.99999998245E-14  0.12500000000E+03  0.12500000000E+03 0.  0.
        -13    1    3    3    0    0 -0.60909088793E+02  0.88676057515E+01  0.67701789074E+01  0.61922516226E+02  0.10566000000E+00 0.  1.
         23    2    1    0    0    0 -0.27623228707E+02 -0.32272660943E+00  0.71824745900E+01  0.96456439292E+02  0.92136365367E+02 0.  0.
         13    1    3    3    0    0  0.33285860086E+02 -0.91903323609E+01  0.41229568264E+00  0.34533923066E+02  0.10566000000E+00 0. -1.
         22    1    1    0    0    0  0.27623228707E+02  0.32272660943E+00 -0.71824745900E+01  0.28543560708E+02  0.00000000000E+00 0.  1.
</event>
<event>
 5    1  0.1709463E-003  0.9118800E+02  0.7818608E-02  0.1130116E+00
         25   -1    0    0    0    0  0.00000000000E+00  0.00000000000E+00  0.99999998245E-14  0.12500000000E+03  0.12500000000E+03 0.  0.
        -13    1    3    3    0    0 -0.48836138588E+02 -0.35118432135E+02  0.12896077461E+02  0.61519043277E+02  0.10566000000E+00 0.  1.
         23    2    1    0    0    0 -0.25049751716E+02 -0.14902030670E+02 -0.13248085543E+01  0.95822685236E+02  0.91272511246E+02 0.  0.
         13    1    3    3    0    0  0.23786386872E+02  0.20216401465E+02 -0.14220886015E+02  0.34303641960E+02  0.10566000000E+00 0. -1.
         22    1    1    0    0    0  0.25049751716E+02  0.14902030670E+02  0.13248085543E+01  0.29177314764E+02  0.00000000000E+00 0.  1.
</event>
<event>
 5    1  0.1709463E-003  0.9118800E+02  0.7818608E-02  0.1130116E+00
         25   -1    0    0    0    0  0.00000000000E+00  0.00000000000E+00  0.99999998245E-14  0.12500000000E+03  0.12500000000E+03 0.  0.
        -13    1    3    3    0    0 -0.28274796186E+02 -0.24550062388E+02  0.10597505780E+02  0.38916422695E+02  0.10566000000E+00 0.  1.
         23    2    1    0    0    0  0.37363374434E+01 -0.33842365445E+01 -0.29882144650E+02  0.94695613464E+02  0.89715680714E+02 0.  0.
         13    1    3    3    0    0  0.32011133629E+02  0.21165825843E+02 -0.40479650430E+02  0.55779190769E+02  0.10566000000E+00 0. -1.
         22    1    1    0    0    0 -0.37363374434E+01  0.33842365445E+01  0.29882144650E+02  0.30304386536E+02  0.00000000000E+00 0. -1.
</event>
<event>
 5    1  0.1709463E-003  0.9118800E+02  0.7818608E-02  0.1130116E+00
         25   -1    0    0    0    0  0.00000000000E+00  0.00000000000E+00  0.99999998245E-14  0.12500000000E+03  0.12500000000E+03 0.  0.
        -13    1    3    3    0    0  0.82047281200E+01  0.11153551015E+02 -0.54780435194E+02  0.56503331830E+02  0.10566000000E+00 0. -1.
         23    2    1    0    0    0  0.19532032424E+01 -0.14208653945E+02 -0.25510351197E+02  0.95734339782E+02  0.91151439623E+02 0.  0.
         13    1    3    3    0    0 -0.62515248776E+01 -0.25362204959E+02  0.29270083997E+02  0.39231007952E+02  0.10566000000E+00 0.  1.
         22    1    1    0    0    0 -0.19532032424E+01  0.14208653945E+02  0.25510351197E+02  0.29265660218E+02  0.00000000000E+00 0. -1.
</event>
<event>
 5    1  0.1709463E-003  0.9118800E+02  0.7818608E-02  0.1130116E+00
         25   -1    0    0    0    0  0.00000000000E+00  0.00000000000E+00  0.99999998245E-14  0.12500000000E+03  0.12500000000E+03 0.  0.
        -13    1    3    3    0    0  0.21008817113E+02  0.37067108110E+02  0.11123989052E+02  0.44035158642E+02  0.10566000000E+00 0. -1.
         23    2    1    0    0    0  0.29250210748E+02 -0.11073283928E+02  0.25800633556E+01  0.93617693318E+02  0.88201039277E+02 0.  0.
         13    1    3    3    0    0  0.82413936348E+01 -0.48140392038E+02 -0.85439256963E+01  0.49582534677E+02  0.10566000000E+00 0.  1.
         22    1    1    0    0    0 -0.29250210748E+02  0.11073283928E+02 -0.25800633556E+01  0.31382306682E+02  0.00000000000E+00 0. -1.
</event>
<event>
 5    1  0.1709463E-003  0.9118800E+02  0.7818608E-02  0.1130116E+00
         25   -1    0    0    0    0  0.00000000000E+00  0.00000000000E+00  0.99999998245E-14  0.12500000000E+03  0.12500000000E+03 0.  0.
        -13    1    3    3    0    0  0.42573229894E+02  0.12353599089E+02  0.58696103967E+00  0.44333362171E+02  0.10566000000E+00 0.  1.
         23    2    1    0    0    0 -0.21060054457E+01  0.21170899813E+02 -0.21329598567E+02  0.94873698652E+02  0.89963462934E+02 0.  0.
         13    1    3    3    0    0 -0.44679235340E+02  0.88173007246E+01 -0.21916559607E+02  0.50540336482E+02  0.10566000000E+00 0. -1.
         22    1    1    0    0    0  0.21060054457E+01 -0.21170899813E+02  0.21329598567E+02  0.30126301348E+02  0.00000000000E+00 0. -1.
</event>
<event>
 5    1  0.1709463E-003  0.9118800E+02  0.7818608E-02  0.1130116E+00
         25   -1    0    0    0    0  0.00000000000E+00  0.00000000000E+00  0.99999998245E-14  0.12500000000E+03  0.12500000000E+03 0.  0.
        -13    1    3    3    0    0 -0.28763350238E+02  0.32643456471E+02 -0.28719073006E+02  0.52131774242E+02  0.10566000000E+00 0. -1.
         23    2    1    0    0    0 -0.28876910576E+01 -0.34337390494E+01 -0.28110925618E+02  0.96533292031E+02  0.92240571376E+02 0.  0.
         13    1    3    3    0    0  0.25875659180E+02 -0.36077195521E+02  0.60814738824E+00  0.44401517788E+02  0.10566000000E+00 0.  1.
         22    1    1    0    0    0  0.28876910576E+01  0.34337390494E+01  0.28110925618E+02  0.28466707969E+02  0.00000000000E+00 0. -1.
</event>
<event>
 5    1  0.1709463E-003  0.9118800E+02  0.7818608E-02  0.1130116E+00
         25   -1    0    0    0    0  0.00000000000E+00  0.00000000000E+00  0.99999998245E-14  0.12500000000E+03  0.12500000000E+03 0.  0.
        -13    1    3    3    0    0  0.23210230373E+02  0.42874562604E+02  0.33502876045E+02  0.59155699470E+02  0.10566000000E+00 0. -1.
         23    2    1    0    0    0  0.87440016912E+01  0.22879451338E+02  0.32715419998E+00  0.10050441083E+03  0.97473600049E+02 0.  0.
         13    1    3    3    0    0 -0.14466228682E+02 -0.19995111266E+02 -0.33175721845E+02  0.41348711356E+02  0.10566000000E+00 0.  1.
         22    1    1    0    0    0 -0.87440016912E+01 -0.22879451338E+02 -0.32715419998E+00  0.24495589174E+02  0.00000000000E+00 0. -1.
</event>
<event>
 5    1  0.1709463E-003  0.9118800E+02  0.7818608E-02  0.1130116E+00
         25   -1    0    0    0    0  0.00000000000E+00  0.00000000000E+00  0.99999998245E-14  0.12500000000E+03  0.12500000000E+03 0.  0.
        -13    1    3    3    0    0  0.37663029882E+02  0.30120451291E+02  0.36851199322E+02  0.60694047989E+02  0.10566000000E+00 0. -1.
         23    2    1    0    0    0  0.19711221401E+02  0.44279278367E+01  0.21156684793E+02  0.95746895797E+02  0.91168656617E+02 0.  0.
         13    1    3    3    0    0 -0.17951808481E+02 -0.25692523454E+02 -0.15694514528E+02  0.35052847808E+02  0.10566000000E+00 0.  1.
         22    1    1    0    0    0 -0.19711221401E+02 -0.44279278367E+01 -0.21156684793E+02  0.29253104203E+02  0.00000000000E+00 0. -1.
</event>
<event>
 5    1  0.1709463E-003  0.9118800E+02  0.7818608E-02  0.1130116E+00
         25   -1    0    0    0    0  0.00000000000E+00  0.00000000000E+00  0.99999998245E-14  0.12500000000E+03  0.12500000000E+03 0.  0.
        -13    1    3    3    0    0  0.38650784470E+02  0.18329362988E+01 -0.76181046201E+01  0.39437158590E+02  0.10566000000E+00 0.  1.
         23    2    1    0    0    0 -0.97886915272E+01 -0.26064309136E+02 -0.10079292435E+02  0.95389886381E+02  0.90677845118E+02 0.  0.
         13    1    3    3    0    0 -0.48439475997E+02 -0.27897245435E+02 -0.24611878148E+01  0.55952727791E+02  0.10566000000E+00 0. -1.
         22    1    1    0    0    0  0.97886915272E+01  0.26064309136E+02  0.10079292435E+02  0.29610113619E+02  0.00000000000E+00 0. -1.
</event>
<event>
 5    1  0.1709463E-003  0.9118800E+02  0.7818608E-02  0.1130116E+00
         25   -1    0    0    0    0  0.00000000000E+00  0.00000000000E+00  0.99999998245E-14  0.12500000000E+03  0.12500000000E+03 0.  0.
        -13    1    3    3    0    0 -0.25121665305E+02  0.51273792220E+02  0.11931096738E+02  0.58330627202E+02  0.10566000000E+00 0.  1.
         23    2    1    0    0    0 -0.14295284132E+02  0.23883845234E+02 -0.10393643268E+02  0.95287695613E+02  0.90536864886E+02 0.  0.
         13    1    3    3    0    0  0.10826381173E+02 -0.27389946986E+02 -0.22324740006E+02  0.36957068411E+02  0.10566000000E+00 0. -1.
         22    1    1    0    0    0  0.14295284132E+02 -0.23883845234E+02  0.10393643268E+02  0.29712304387E+02  0.00000000000E+00 0.  1.
</event>
<event>
 5    1  0.1709463E-003  0.9118800E+02  0.7818608E-02  0.1130116E+00
         25   -1    0    0    0    0  0.00000000000E+00  0.00000000000E+00  0.99999998245E-14  0.12500000000E+03  0.12500000000E+03 0.  0.
        -13    1    3    3    0    0  0.66071261888E+01  0.34049007214E+02 -0.30401276225E+02  0.46121987911E+02  0.10566000000E+00 0.  1.
         23    2    1    0    0    0  0.33401270766E+01  0.22792824396E+02  0.17901032149E+02  0.95826103365E+02  0.91277192339E+02 0.  0.
         13    1    3    3    0    0 -0.32669991122E+01 -0.11256182817E+02  0.48302308374E+02  0.49704115454E+02  0.10566000000E+00 0. -1.
         22    1    1    0    0    0 -0.33401270766E+01 -0.22792824396E+02 -0.17901032149E+02  0.29173896635E+02  0.00000000000E+00 0. -1.
</event>
<event>
 5    1  0.1709463E-003  0.9118800E+02  0.7818608E-02  0.1130116E+00
         25   -1    0    0    0    0  0.00000000000E+00  0.00000000000E+00  0.99999998245E-14  0.12500000000E+03  0.12500000000E+03 0.  0.
        -13    1    3    3    0    0  0.48493240962E+02  0.24315470683E+02 -0.55987355117E+01  0.54536167237E+02  0.10566000000E+00 0.  1.
         23    2    1    0    0    0  0.18081355554E+02  0.58030461631E+01 -0.23824411984E+02  0.94533405674E+02  0.89489392771E+02 0.  0.
         13    1    3    3    0    0 -0.30411885408E+02 -0.18512424520E+02 -0.18225676473E+02  0.39997238437E+02  0.10566000000E+00 0. -1.
         22    1    1    0    0    0 -0.18081355554E+02 -0.58030461631E+01  0.23824411984E+02  0.30466594326E+02  0.00000000000E+00 0.  1.
</event>
<event>
 5    1  0.1709463E-003  0.9118800E+02  0.7818608E-02  0.1130116E+00
         25   -1    0    0    0    0  0.00000000000E+00  0.00000000000E+00  0.99999998245E-14  0.12500000000E+03  0.12500000000E+03 0.  0.
        -13    1    3    3    0    0  0.94189922415E+01 -0.57307173424E+02  0.20893077350E+02  0.61720024189E+02  0.10566000000E+00 0. -1.
         23    2    1    0    0    0  0.94095430701E+01 -0.26485209911E+02  0.48154483181E+01  0.96483436615E+02  0.92172984945E+02 0.  0.
         13    1    3    3    0    0 -0.94491713544E-02  0.30821963514E+02 -0.16077629032E+02  0.34763412425E+02  0.10566000000E+00 0.  1.
         22    1    1    0    0    0 -0.94095430701E+01  0.26485209911E+02 -0.48154483181E+01  0.28516563385E+02  0.00000000000E+00 0. -1.
</event>
<event>
 5    1  0.1709463E-003  0.9118800E+02  0.7818608E-02  0.1130116E+00
         25   -1    0    0    0    0  0.00000000000E+00  0.00000000000E+00  0.99999998245E-14  0.12500000000E+03  0.12500000000E+03 0.  0.
        -13    1    3    3    0    0 -0.56391934302E+02  0.16143641919E+02 -0.13215687151E+02  0.60127639066E+02  0.10566000000E+00 0.  1.
         23    2    1    0    0    0 -0.27680465168E+02  0.25429575070E+01  0.50111390269E+01  0.96754888934E+02  0.92540381637E+02 0.  0.
         13    1    3    3    0    0  0.28711469134E+02 -0.13600684412E+02  0.18226826178E+02  0.36627249868E+02  0.10566000000E+00 0. -1.
         22    1    1    0    0    0  0.27680465168E+02 -0.25429575070E+01 -0.50111390269E+01  0.28245111066E+02  0.00000000000E+00 0.  1.
</event>
<event>
 5    1  0.1709463E-003  0.9118800E+02  0.7818608E-02  0.1130116E+00
         25   -1    0    0    0    0  0.00000000000E+00  0.00000000000E+00  0.99999998245E-14  0.12500000000E+03  0.12500000000E+03 0.  0.
        -13    1    3    3    0    0  0.22330954171E+02  0.23378183787E+02 -0.10910952899E+02  0.34121416274E+02  0.10566000000E+00 0. -1.
         23    2    1    0    0    0 -0.32320871850E+01 -0.19617078549E+02  0.23033898774E+02  0.94572435998E+02  0.89543894262E+02 0.  0.
         13    1    3    3    0    0 -0.25563041356E+02 -0.42995262336E+02  0.33944851672E+02  0.60451019725E+02  0.10566000000E+00 0.  1.
         22    1    1    0    0    0  0.32320871850E+01  0.19617078549E+02 -0.23033898774E+02  0.30427564002E+02  0.00000000000E+00 0.  1.
</event>
<event>
 5    1  0.1709463E-003  0.9118800E+02  0.7818608E-02  0.1130116E+00
         25   -1    0    0    0    0  0.00000000000E+00  0.00000000000E+00  0.99999998245E-14  0.12500000000E+03  0.12500000000E+03 0.  0.
        -13    1    3    3    0    0 -0.40285077379E+01  0.34008304652E+02  0.14259103094E+02  0.37096183698E+02  0.10566000000E+00 0. -1.
         23    2    1    0    0    0  0.16152694304E+02 -0.51618173565E+01 -0.24110049207E+02  0.95523766108E+02  0.90862211766E+02 0.  0.
         13    1    3    3    0    0  0.20181202042E+02 -0.39170122008E+02 -0.38369152300E+02  0.58427582410E+02  0.10566000000E+00 0.  1.
         22    1    1    0    0    0 -0.16152694304E+02  0.51618173565E+01  0.24110049207E+02  0.29476233892E+02  0.00000000000E+00 0.  1.
</event>
<event>
 5    1  0.1709463E-003  0.9118800E+02  0.7818608E-02  0.1130116E+00
         25   -1    0    0    0    0  0.00000000000E+00  0.00000000000E+00  0.99999998245E-14  0.12500000000E+03  0.12500000000E+03 0.  0.
        -13    1    3    3    0    0 -0.14924830203E+02 -0.43576501791E+01 -0.30617471482E+02  0.34339196200E+02  0.10566000000E+00 0. -1.
         23    2    1    0    0    0  0.96102910135E+01 -0.40908251723E+01  0.26506460638E+02  0.96509914014E+02  0.92208885166E+02 0.  0.
         13    1    3    3    0    0  0.24535121216E+02  0.26682500678E+00  0.57123932120E+02  0.62170717814E+02  0.10566000000E+00 0.  1.
         22    1    1    0    0    0 -0.96102910135E+01  0.40908251723E+01 -0.26506460638E+02  0.28490085986E+02  0.00000000000E+00 0.  1.
</event>
<event>
 5    1  0.1709463E-003  0.9118800E+02  0.7818608E-02  0.1130116E+00
         25   -1    0    0    0    0  0.00000000000E+00  0.00000000000E+00  0.99999998245E-14  0.12500000000E+03  0.12500000000E+03 0.  0.
        -13    1    3    3    0    0  0.37568647374E+02  0.38763322385E+01 -0.11792467517E+01  0.37786651136E+02  0.10566000000E+00 0.  1.
         23    2    1    0    0    0 -0.14419384007E+02 -0.19216234778E+02 -0.15451021691E+02  0.96435749870E+02  0.92108292067E+02 0.  0.
         13    1    3    3    0    0 -0.51988031381E+02 -0.23092567016E+02 -0.14271774940E+02  0.58649098734E+02  0.10566000000E+00 0. -1.
         22    1    1    0    0    0  0.14419384007E+02  0.19216234778E+02  0.15451021691E+02  0.28564250130E+02  0.00000000000E+00 0. -1.
</event>
<event>
 5    1  0.1709463E-003  0.9118800E+02  0.7818608E-02  0.1130116E+00
         25   -1    0    0    0    0  0.00000000000E+00  0.00000000000E+00  0.99999998245E-14  0.12500000000E+03  0.12500000000E+03 0.  0.
        -13    1    3    3    0    0 -0.29969653970E+02 -0.11548827419E+02  0.12934836691E+01  0.32144048249E+02  0.10566000000E+00 0.  1.
         23    2    1    0    0    0  0.30703184918E+02  0.15143450831E+01 -0.90371278455E+00  0.94246211584E+02  0.89087332972E+02 0.  0.
         13    1    3    3    0    0  0.60672838888E+02  0.13063172502E+02 -0.21971964536E+01  0.62102163335E+02  0.10566000000E+00 0. -1.
         22    1    1    0    0    0 -0.30703184918E+02 -0.15143450831E+01  0.90371278455E+00  0.30753788416E+02  0.00000000000E+00 0. -1.
</event>
<event>
 5    1  0.1709463E-003  0.9118800E+02  0.7818608E-02  0.1130116E+00
         25   -1    0    0    0    0  0.00000000000E+00  0.00000000000E+00  0.99999998245E-14  0.12500000000E+03  0.12500000000E+03 0.  0.
        -13    1    3    3    0    0 -0.17572882559E+02  0.44025882846E+01  0.39940273466E+02  0.43856876241E+02  0.10566000000E+00 0.  1.
         23    2    1    0    0    0  0.26375824729E+02 -0.29131506669E-01  0.16872246480E+02  0.93689336001E+02  0.88302514122E+02 0.  0.
         13    1    3    3    0    0  0.43948707289E+02 -0.44317197913E+01 -0.23068026986E+02  0.49832459760E+02  0.10566000000E+00 0. -1.
         22    1    1    0    0    0 -0.26375824729E+02  0.29131506669E-01 -0.16872246480E+02  0.31310663999E+02  0.00000000000E+00 0. -1.
</event>
<event>
 5    1  0.1709463E-003  0.9118800E+02  0.7818608E-02  0.1130116E+00
         25   -1    0    0    0    0  0.00000000000E+00  0.00000000000E+00  0.99999998245E-14  0.12500000000E+03  0.12500000000E+03 0.  0.
        -13    1    3    3    0    0  0.40394848355E+02 -0.40146315426E+02 -0.68064504125E+01  0.57356859635E+02  0.10566000000E+00 0. -1.
         23    2    1    0    0    0  0.26415096439E+02 -0.52410549353E+01 -0.12366066083E+02  0.95366478996E+02  0.90645572143E+02 0.  0.
         13    1    3    3    0    0 -0.13979751917E+02  0.34905260491E+02 -0.55596156702E+01  0.38009619361E+02  0.10566000000E+00 0.  1.
         22    1    1    0    0    0 -0.26415096439E+02  0.52410549353E+01  0.12366066083E+02  0.29633521004E+02  0.00000000000E+00 0. -1.
</event>
<event>
 5    1  0.1709463E-003  0.9118800E+02  0.7818608E-02  0.1130116E+00
         25   -1    0    0    0    0  0.00000000000E+00  0.00000000000E+00  0.99999998245E-14  0.12500000000E+03  0.12500000000E+03 0.  0.
        -13    1    3    3    0    0  0.26337478148E+02  0.30421237104E+02  0.23579017235E+02  0.46637920622E+02  0.10566000000E+00 0.  1.
         23    2    1    0    0    0 -0.11371911501E+02  0.27807792319E+02 -0.56621031130E+01  0.94427903302E+02  0.89341904085E+02 0.  0.
         13    1    3    3    0    0 -0.37709389649E+02 -0.26134447848E+01 -0.29241120348E+02  0.47789982680E+02  0.10566000000E+00 0. -1.
         22    1    1    0    0    0  0.11371911501E+02 -0.27807792319E+02  0.56621031130E+01  0.30572096698E+02  0.00000000000E+00 0. -1.
</event>
<event>
 5    1  0.1709463E-003  0.9118800E+02  0.7818608E-02  0.1130116E+00
         25   -1    0    0    0    0  0.00000000000E+00  0.00000000000E+00  0.99999998245E-14  0.12500000000E+03  0.12500000000E+03 0.  0.
        -13    1    3    3    0    0 -0.29169289235E+02 -0.85460069584E+01  0.52160237955E+02  0.60370383939E+02  0.10566000000E+00 0. -1.
         23    2    1    0    0    0 -0.31377412314E+01 -0.84634652440E+01  0.26830156697E+02  0.96692174715E+02  0.92455630866E+02 0.  0.
         13    1    3    3    0    0  0.26031548004E+02  0.82541714351E-01 -0.25330081258E+02  0.36321790776E+02  0.10566000000E+00 0.  1.
         22    1    1    0    0    0  0.31377412314E+01  0.84634652440E+01 -0.26830156697E+02  0.28307825285E+02  0.00000000000E+00 0. -1.
</event>
<event>
 5    1  0.1709463E-003  0.9118800E+02  0.7818608E-02  0.1130116E+00
         25   -1    0    0    0    0  0.00000000000E+00  0.00000000000E+00  0.99999998245E-14  0.12500000000E+03  0.12500000000E+03 0.  0.
        -13    1    3    3    0    0  0.10397654992E+02 -0.11281607538E+01 -0.32237373840E+02  0.33891642217E+02  0.10566000000E+00 0.  1.
         23    2    1    0    0    0  0.17699522619E+02  0.32916769961E+01  0.26344244406E+02  0.93091890502E+02  0.87452687926E+02 0.  0.
         13    1    3    3    0    0  0.73018676273E+01  0.44198377499E+01  0.58581618246E+02  0.59200248285E+02  0.10566000000E+00 0. -1.
         22    1    1    0    0    0 -0.17699522619E+02 -0.32916769961E+01 -0.26344244406E+02  0.31908109498E+02  0.00000000000E+00 0. -1.
</event>
<event>
 5    1  0.1709463E-003  0.9118800E+02  0.7818608E-02  0.1130116E+00
         25   -1    0    0    0    0  0.00000000000E+00  0.00000000000E+00  0.99999998245E-14  0.12500000000E+03  0.12500000000E+03 0.  0.
        -13    1    3    3    0    0  0.88420469215E+01  0.31216690930E+02 -0.36230718626E+02  0.48634758379E+02  0.10566000000E+00 0.  1.
         23    2    1    0    0    0  0.27514938610E+02  0.10173432724E+02  0.14135516097E+01  0.95630479945E+02  0.91008900589E+02 0.  0.
         13    1    3    3    0    0  0.18672891688E+02 -0.21043258207E+02  0.37644270235E+02  0.46995721566E+02  0.10566000000E+00 0. -1.
         22    1    1    0    0    0 -0.27514938610E+02 -0.10173432724E+02 -0.14135516097E+01  0.29369520055E+02  0.00000000000E+00 0. -1.
</event>
<event>
 5    1  0.1709463E-003  0.9118800E+02  0.7818608E-02  0.1130116E+00
         25   -1    0    0    0    0  0.00000000000E+00  0.00000000000E+00  0.99999998245E-14  0.12500000000E+03  0.12500000000E+03 0.  0.
        -13    1    3    3    0    0 -0.55187886251E+02 -0.80636043844E+01  0.11089926969E+02  0.56865825843E+02  0.10566000000E+00 0. -1.
         23    2    1    0    0    0 -0.26295462249E+02  0.27137811966E+01 -0.12564791699E+02  0.95730733973E+02  0.91146494685E+02 0.  0.
         13    1    3    3    0    0  0.28892424002E+02  0.10777385581E+02 -0.23654718669E+02  0.38864908131E+02  0.10566000000E+00 0.  1.
         22    1    1    0    0    0  0.26295462249E+02 -0.27137811966E+01  0.12564791699E+02  0.29269266027E+02  0.00000000000E+00 0. -1.
</event>
<event>
 5    1  0.1709463E-003  0.9118800E+02  0.7818608E-02  0.1130116E+00
         25   -1    0    0    0    0  0.00000000000E+00  0.00000000000E+00  0.99999998245E-14  0.12500000000E+03  0.12500000000E+03 0.  0.
        -13    1    3    3    0    0 -0.14132090780E+02 -0.41933952501E+02  0.41710674923E+02  0.60810886597E+02  0.10566000000E+00 0.  1.
         23    2    1    0    0    0 -0.87595403397E+01 -0.26234438989E+02  0.11980219226E+02  0.94858649852E+02  0.89942550903E+02 0.  0.
         13    1    3    3    0    0  0.53725504403E+01  0.15699513512E+02 -0.29730455696E+02  0.34047763255E+02  0.10566000000E+00 0. -1.
         22    1    1    0    0    0  0.87595403397E+01  0.26234438989E+02 -0.11980219226E+02  0.30141350148E+02  0.00000000000E+00 0.  1.
</event>
<event>
 5    1  0.1709463E-003  0.9118800E+02  0.7818608E-02  0.1130116E+00
         25   -1    0    0    0    0  0.00000000000E+00  0.00000000000E+00  0.99999998245E-14  0.12500000000E+03  0.12500000000E+03 0.  0.
        -13    1    3    3    0    0 -0.12041202879E+02 -0.32413243912E+02  0.45509754977E+02  0.57155558871E+02  0.10566000000E+00 0. -1.
         23    2    1    0    0    0 -0.66485356623E+01  0.12907390357E+01  0.29273486122E+02  0.94953269339E+02  0.90073954807E+02 0.  0.
         13    1    3    3    0    0  0.53926672168E+01  0.33703982948E+02 -0.16236268856E+02  0.37797710468E+02  0.10566000000E+00 0.  1.
         22    1    1    0    0    0  0.66485356623E+01 -0.12907390357E+01 -0.29273486122E+02  0.30046730661E+02  0.00000000000E+00 0. -1.
</event>
<event>
 5    1  0.1709463E-003  0.9118800E+02  0.7818608E-02  0.1130116E+00
         25   -1    0    0    0    0  0.00000000000E+00  0.00000000000E+00  0.99999998245E-14  0.12500000000E+03  0.12500000000E+03 0.  0.
        -13    1    3    3    0    0  0.42583023879E+01 -0.32825737716E+02 -0.11088601434E+02  0.34908887717E+02  0.10566000000E+00 0.  1.
         23    2    1    0    0    0 -0.23796869886E+02  0.17650366571E+02  0.52178784001E+01  0.94915906006E+02  0.90022088964E+02 0.  0.
         13    1    3    3    0    0 -0.28055172274E+02  0.50476104287E+02  0.16306479834E+02  0.60007018289E+02  0.10566000000E+00 0. -1.
         22    1    1    0    0    0  0.23796869886E+02 -0.17650366571E+02 -0.52178784001E+01  0.30084093994E+02  0.00000000000E+00 0. -1.
</event>
<event>
 5    1  0.1709463E-003  0.9118800E+02  0.7818608E-02  0.1130116E+00
         25   -1    0    0    0    0  0.00000000000E+00  0.00000000000E+00  0.99999998245E-14  0.12500000000E+03  0.12500000000E+03 0.  0.
        -13    1    3    3    0    0 -0.43692683162E+02 -0.37047497863E+02 -0.87086563781E+01  0.57943243953E+02  0.10566000000E+00 0.  1.
         23    2    1    0    0    0 -0.28570078597E+02 -0.44883822539E+01  0.35140793711E+01  0.95866793514E+02  0.91332898665E+02 0.  0.
         13    1    3    3    0    0  0.15122604565E+02  0.32559115609E+02  0.12222735749E+02  0.37923549561E+02  0.10566000000E+00 0. -1.
         22    1    1    0    0    0  0.28570078597E+02  0.44883822539E+01 -0.35140793711E+01  0.29133206486E+02  0.00000000000E+00 0. -1.
</event>
<event>
 5    1  0.1709463E-003  0.9118800E+02  0.7818608E-02  0.1130116E+00
         25   -1    0    0    0    0  0.00000000000E+00  0.00000000000E+00  0.99999998245E-14  0.12500000000E+03  0.12500000000E+03 0.  0.
        -13    1    3    3    0    0 -0.26779881280E+02  0.12726384798E+02 -0.47072210464E+02  0.55632068750E+02  0.10566000000E+00 0.  1.
         23    2    1    0    0    0 -0.31027337497E+02  0.59994707132E+01 -0.12652797406E+02  0.90959103960E+02  0.84349131531E+02 0.  0.
         13    1    3    3    0    0 -0.42474562171E+01 -0.67269140843E+01  0.34419413059E+02  0.35327035210E+02  0.10566000000E+00 0. -1.
         22    1    1    0    0    0  0.31027337497E+02 -0.59994707132E+01  0.12652797406E+02  0.34040896040E+02  0.00000000000E+00 0.  1.
</event>
<event>
 5    1  0.1709463E-003  0.9118800E+02  0.7818608E-02  0.1130116E+00
         25   -1    0    0    0    0  0.00000000000E+00  0.00000000000E+00  0.99999998245E-14  0.12500000000E+03  0.12500000000E+03 0.  0.
        -13    1    3    3    0    0 -0.36099274150E+02 -0.30933506606E+02  0.32149366990E+02  0.57390176747E+02  0.10566000000E+00 0.  1.
         23    2    1    0    0    0 -0.44380139017E+01 -0.27018461192E+02  0.12137370845E+02  0.95049891760E+02  0.90207942777E+02 0.  0.
         13    1    3    3    0    0  0.31661260248E+02  0.39150454143E+01 -0.20011996146E+02  0.37659715013E+02  0.10566000000E+00 0. -1.
         22    1    1    0    0    0  0.44380139017E+01  0.27018461192E+02 -0.12137370845E+02  0.29950108240E+02  0.00000000000E+00 0.  1.
</event>
<event>
 5    1  0.1709463E-003  0.9118800E+02  0.7818608E-02  0.1130116E+00
         25   -1    0    0    0    0  0.00000000000E+00  0.00000000000E+00  0.99999998245E-14  0.12500000000E+03  0.12500000000E+03 0.  0.
        -13    1    3    3    0    0  0.49428155706E+02 -0.35096312601E+02  0.15031474975E+02  0.62456786170E+02  0.10566000000E+00 0.  1.
         23    2    1    0    0    0  0.22025487387E+02 -0.14319292074E+02  0.52530880626E+01  0.98208972503E+02  0.94484089273E+02 0.  0.
         13    1    3    3    0    0 -0.27402668319E+02  0.20777020527E+02 -0.97783869125E+01  0.35752186333E+02  0.10566000000E+00 0. -1.
         22    1    1    0    0    0 -0.22025487387E+02  0.14319292074E+02 -0.52530880626E+01  0.26791027497E+02  0.00000000000E+00 0.  1.
</event>
<event>
 5    1  0.1709463E-003  0.9118800E+02  0.7818608E-02  0.1130116E+00
         25   -1    0    0    0    0  0.00000000000E+00  0.00000000000E+00  0.99999998245E-14  0.12500000000E+03  0.12500000000E+03 0.  0.
        -13    1    3    3    0    0 -0.70049841528E+01 -0.19118208015E+02 -0.57176248289E+02  0.60693576375E+02  0.10566000000E+00 0.  1.
         23    2    1    0    0    0  0.19194329122E+01 -0.19288085537E+01 -0.33973372557E+02  0.90917826242E+02  0.84287938405E+02 0.  0.
         13    1    3    3    0    0  0.89244170650E+01  0.17189399462E+02  0.23202875732E+02  0.30224249868E+02  0.10566000000E+00 0. -1.
         22    1    1    0    0    0 -0.19194329122E+01  0.19288085537E+01  0.33973372557E+02  0.34082173758E+02  0.00000000000E+00 0.  1.
</event>
<event>
 5    1  0.1709463E-003  0.9118800E+02  0.7818608E-02  0.1130116E+00
         25   -1    0    0    0    0  0.00000000000E+00  0.00000000000E+00  0.99999998245E-14  0.12500000000E+03  0.12500000000E+03 0.  0.
        -13    1    3    3    0    0 -0.15645023284E+01  0.32564723350E+02 -0.18713115470E+02  0.37591232077E+02  0.10566000000E+00 0.  1.
         23    2    1    0    0    0 -0.23828144602E+02 -0.15893962841E+02  0.49481023561E+01  0.95933141778E+02  0.91423659107E+02 0.  0.
         13    1    3    3    0    0 -0.22263642273E+02 -0.48458686191E+02  0.23661217827E+02  0.58341909702E+02  0.10566000000E+00 0. -1.
         22    1    1    0    0    0  0.23828144602E+02  0.15893962841E+02 -0.49481023561E+01  0.29066858222E+02  0.00000000000E+00 0. -1.
</event>
<event>
 5    1  0.1709463E-003  0.9118800E+02  0.7818608E-02  0.1130116E+00
         25   -1    0    0    0    0  0.00000000000E+00  0.00000000000E+00  0.99999998245E-14  0.12500000000E+03  0.12500000000E+03 0.  0.
        -13    1    3    3    0    0  0.24633791525E+02  0.23828573867E+02  0.28413693858E+02  0.44519364102E+02  0.10566000000E+00 0. -1.
         23    2    1    0    0    0 -0.90916026127E+01  0.28188598460E+02 -0.79770734583E+01  0.94326101940E+02  0.89199358098E+02 0.  0.
         13    1    3    3    0    0 -0.33725394137E+02  0.43600245932E+01 -0.36390767316E+02  0.49806737838E+02  0.10566000000E+00 0.  1.
         22    1    1    0    0    0  0.90916026127E+01 -0.28188598460E+02  0.79770734583E+01  0.30673898060E+02  0.00000000000E+00 0.  1.
</event>
<event>
 5    1  0.1709463E-003  0.9118800E+02  0.7818608E-02  0.1130116E+00
         25   -1    0    0    0    0  0.00000000000E+00  0.00000000000E+00  0.99999998245E-14  0.12500000000E+03  0.12500000000E+03 0.  0.
        -13    1    3    3    0    0 -0.27671032024E+02  0.41364161343E+02  0.14732287260E+02  0.51901168665E+02  0.10566000000E+00 0.  1.
         23    2    1    0    0    0  0.11572651916E+02  0.22996822928E+02  0.14946812753E+02  0.95231100985E+02  0.90458693591E+02 0.  0.
         13    1    3    3    0    0  0.39243683939E+02 -0.18367338415E+02  0.21452549272E+00  0.43329932319E+02  0.10566000000E+00 0. -1.
         22    1    1    0    0    0 -0.11572651916E+02 -0.22996822928E+02 -0.14946812753E+02  0.29768899015E+02  0.00000000000E+00 0.  1.
</event>
<event>
 5    1  0.1709463E-003  0.9118800E+02  0.7818608E-02  0.1130116E+00
         25   -1    0    0    0    0  0.00000000000E+00  0.00000000000E+00  0.99999998245E-14  0.12500000000E+03  0.12500000000E+03 0.  0.
        -13    1    3    3    0    0 -0.16964409467E+02 -0.53724661644E+02 -0.22846987267E+02  0.60795776568E+02  0.10566000000E+00 0. -1.
         23    2    1    0    0    0  0.13012354647E+01 -0.29376060535E+02 -0.13557442074E+02  0.92620216463E+02  0.86775884414E+02 0.  0.
         13    1    3    3    0    0  0.18265644932E+02  0.24348601109E+02  0.92895451929E+01  0.31824439895E+02  0.10566000000E+00 0.  1.
         22    1    1    0    0    0 -0.13012354647E+01  0.29376060535E+02  0.13557442074E+02  0.32379783537E+02  0.00000000000E+00 0. -1.
</event>
<event>
 5    1  0.1709463E-003  0.9118800E+02  0.7818608E-02  0.1130116E+00
         25   -1    0    0    0    0  0.00000000000E+00  0.00000000000E+00  0.99999998245E-14  0.12500000000E+03  0.12500000000E+03 0.  0.
        -13    1    3    3    0    0  0.35292989959E+02  0.13153224416E+02 -0.43582103573E+01  0.37915796370E+02  0.10566000000E+00 0.  1.
         23    2    1    0    0    0 -0.10211927580E+02 -0.26091899432E+01  0.27427139568E+02  0.95617363598E+02  0.90990883606E+02 0.  0.
         13    1    3    3    0    0 -0.45504917539E+02 -0.15762414359E+02  0.31785349925E+02  0.57701567228E+02  0.10566000000E+00 0. -1.
         22    1    1    0    0    0  0.10211927580E+02  0.26091899432E+01 -0.27427139568E+02  0.29382636402E+02  0.00000000000E+00 0. -1.
</event>
<event>
 5    1  0.1709463E-003  0.9118800E+02  0.7818608E-02  0.1130116E+00
         25   -1    0    0    0    0  0.00000000000E+00  0.00000000000E+00  0.99999998245E-14  0.12500000000E+03  0.12500000000E+03 0.  0.
        -13    1    3    3    0    0  0.53409977404E+01 -0.14908229389E+02 -0.36912082282E+02  0.40165838007E+02  0.10566000000E+00 0.  1.
         23    2    1    0    0    0  0.24399313948E+02  0.15858902342E+02  0.49260943334E+01  0.95485635531E+02  0.90809740021E+02 0.  0.
         13    1    3    3    0    0  0.19058316207E+02  0.30767131731E+02  0.41838176615E+02  0.55319797524E+02  0.10566000000E+00 0. -1.
         22    1    1    0    0    0 -0.24399313948E+02 -0.15858902342E+02 -0.49260943334E+01  0.29514364469E+02  0.00000000000E+00 0. -1.
</event>
<event>
 5    1  0.1709463E-003  0.9118800E+02  0.7818608E-02  0.1130116E+00
         25   -1    0    0    0    0  0.00000000000E+00  0.00000000000E+00  0.99999998245E-14  0.12500000000E+03  0.12500000000E+03 0.  0.
        -13    1    3    3    0    0 -0.44622304632E+02  0.29161153723E+01  0.15137584660E+01  0.44743227737E+02  0.10566000000E+00 0. -1.
         23    2    1    0    0    0 -0.75212790397E+01 -0.21226950206E+02 -0.20826287867E+02  0.94326113390E+02  0.89199374143E+02 0.  0.
         13    1    3    3    0    0  0.37101025593E+02 -0.24143065578E+02 -0.22340046333E+02  0.49582885654E+02  0.10566000000E+00 0.  1.
         22    1    1    0    0    0  0.75212790397E+01  0.21226950206E+02  0.20826287867E+02  0.30673886610E+02  0.00000000000E+00 0. -1.
</event>
<event>
 5    1  0.1709463E-003  0.9118800E+02  0.7818608E-02  0.1130116E+00
         25   -1    0    0    0    0  0.00000000000E+00  0.00000000000E+00  0.99999998245E-14  0.12500000000E+03  0.12500000000E+03 0.  0.
        -13    1    3    3    0    0  0.37964933913E+01 -0.26971940342E+02  0.27307235677E+02  0.38569355870E+02  0.10566000000E+00 0. -1.
         23    2    1    0    0    0 -0.25003423080E+02  0.43102879562E+01 -0.12411010192E+02  0.96754948717E+02  0.92540462390E+02 0.  0.
         13    1    3    3    0    0 -0.28799916471E+02  0.31282228298E+02 -0.39718245870E+02  0.58185592847E+02  0.10566000000E+00 0.  1.
         22    1    1    0    0    0  0.25003423080E+02 -0.43102879562E+01  0.12411010192E+02  0.28245051283E+02  0.00000000000E+00 0.  1.
</event>
<event>
 5    1  0.1709463E-003  0.9118800E+02  0.7818608E-02  0.1130116E+00
         25   -1    0    0    0    0  0.00000000000E+00  0.00000000000E+00  0.99999998245E-14  0.12500000000E+03  0.12500000000E+03 0.  0.
        -13    1    3    3    0    0 -0.28851116651E+02  0.25401730885E+02 -0.45764030034E+02  0.59766148219E+02  0.10566000000E+00 0.  1.
         23    2    1    0    0    0 -0.11413784552E+02  0.23486374673E+02 -0.15824767980E+02  0.94466288227E+02  0.89395593049E+02 0.  0.
         13    1    3    3    0    0  0.17437332099E+02 -0.19153562123E+01  0.29939262054E+02  0.34700140008E+02  0.10566000000E+00 0. -1.
         22    1    1    0    0    0  0.11413784552E+02 -0.23486374673E+02  0.15824767980E+02  0.30533711773E+02  0.00000000000E+00 0.  1.
</event>
<event>
 5    1  0.1709463E-003  0.9118800E+02  0.7818608E-02  0.1130116E+00
         25   -1    0    0    0    0  0.00000000000E+00  0.00000000000E+00  0.99999998245E-14  0.12500000000E+03  0.12500000000E+03 0.  0.
        -13    1    3    3    0    0  0.16768084383E+02  0.20787631062E+02 -0.32339644605E+02  0.41942317965E+02  0.10566000000E+00 0.  1.
         23    2    1    0    0    0 -0.52683748787E+01 -0.24719803285E+02 -0.16031544273E+02  0.95069499502E+02  0.90235108884E+02 0.  0.
         13    1    3    3    0    0 -0.22036459261E+02 -0.45507434347E+02  0.16308100331E+02  0.53127181537E+02  0.10566000000E+00 0. -1.
         22    1    1    0    0    0  0.52683748787E+01  0.24719803285E+02  0.16031544273E+02  0.29930500498E+02  0.00000000000E+00 0. -1.
</event>
<event>
 5    1  0.1709463E-003  0.9118800E+02  0.7818608E-02  0.1130116E+00
         25   -1    0    0    0    0  0.00000000000E+00  0.00000000000E+00  0.99999998245E-14  0.12500000000E+03  0.12500000000E+03 0.  0.
        -13    1    3    3    0    0  0.54742192018E+01  0.18493476091E+02  0.34347041255E+02  0.39391701420E+02  0.10566000000E+00 0. -1.
         23    2    1    0    0    0  0.26050896505E+01 -0.29853854042E+02  0.12286163825E+02  0.92611901649E+02  0.86763906161E+02 0.  0.
         13    1    3    3    0    0 -0.28691295513E+01 -0.48347330133E+02 -0.22060877430E+02  0.53220200229E+02  0.10566000000E+00 0.  1.
         22    1    1    0    0    0 -0.26050896505E+01  0.29853854042E+02 -0.12286163825E+02  0.32388098351E+02  0.00000000000E+00 0.  1.
</event>
<event>
 5    1  0.1709463E-003  0.9118800E+02  0.7818608E-02  0.1130116E+00
         25   -1    0    0    0    0  0.00000000000E+00  0.00000000000E+00  0.99999998245E-14  0.12500000000E+03  0.12500000000E+03 0.  0.
        -13    1    3    3    0    0 -0.20948539210E+02  0.40900003740E+02 -0.30931060641E+02  0.55393079689E+02  0.10566000000E+00 0.  1.
         23    2    1    0    0    0  0.74754872893E+00  0.27718983959E+02  0.22592518807E+01  0.97179052499E+02  0.93111562787E+02 0.  0.
         13    1    3    3    0    0  0.21696087939E+02 -0.13181019781E+02  0.33190312522E+02  0.41785972810E+02  0.10566000000E+00 0. -1.
         22    1    1    0    0    0 -0.74754872893E+00 -0.27718983959E+02 -0.22592518807E+01  0.27820947501E+02  0.00000000000E+00 0.  1.
</event>
<event>
 5    1  0.1709463E-003  0.9118800E+02  0.7818608E-02  0.1130116E+00
         25   -1    0    0    0    0  0.00000000000E+00  0.00000000000E+00  0.99999998245E-14  0.12500000000E+03  0.12500000000E+03 0.  0.
        -13    1    3    3    0    0  0.16477537146E+02 -0.12652542207E+02 -0.31154688048E+02  0.37446252230E+02  0.10566000000E+00 0.  1.
         23    2    1    0    0    0 -0.75634316509E+01  0.26581504337E+02  0.61557977973E+01  0.96686121465E+02  0.92447446510E+02 0.  0.
         13    1    3    3    0    0 -0.24040968797E+02  0.39234046545E+02  0.37310485845E+02  0.59239869235E+02  0.10566000000E+00 0. -1.
         22    1    1    0    0    0  0.75634316509E+01 -0.26581504337E+02 -0.61557977973E+01  0.28313878535E+02  0.00000000000E+00 0. -1.
</event>
<event>
 5    1  0.1709463E-003  0.9118800E+02  0.7818608E-02  0.1130116E+00
         25   -1    0    0    0    0  0.00000000000E+00  0.00000000000E+00  0.99999998245E-14  0.12500000000E+03  0.12500000000E+03 0.  0.
        -13    1    3    3    0    0  0.50071692974E+01 -0.37426727854E+02  0.16348928836E+02  0.41147665065E+02  0.10566000000E+00 0. -1.
         23    2    1    0    0    0 -0.16438692256E+01 -0.14905087799E+02 -0.29076665521E+02  0.92284309176E+02  0.86290655890E+02 0.  0.
         13    1    3    3    0    0 -0.66510385231E+01  0.22521640055E+02 -0.45425594356E+02  0.51136644110E+02  0.10566000000E+00 0.  1.
         22    1    1    0    0    0  0.16438692256E+01  0.14905087799E+02  0.29076665521E+02  0.32715690824E+02  0.00000000000E+00 0.  1.
</event>
<event>
 5    1  0.1709463E-003  0.9118800E+02  0.7818608E-02  0.1130116E+00
         25   -1    0    0    0    0  0.00000000000E+00  0.00000000000E+00  0.99999998245E-14  0.12500000000E+03  0.12500000000E+03 0.  0.
        -13    1    3    3    0    0  0.96523798578E+01  0.48029270223E+02  0.18864314503E+02  0.52496216633E+02  0.10566000000E+00 0. -1.
         23    2    1    0    0    0 -0.13326830148E+02  0.82619958900E+01  0.21370904792E+02  0.98493763951E+02  0.94860112733E+02 0.  0.
         13    1    3    3    0    0 -0.22979210005E+02 -0.39767274333E+02  0.25065902893E+01  0.45997547318E+02  0.10566000000E+00 0.  1.
         22    1    1    0    0    0  0.13326830148E+02 -0.82619958900E+01 -0.21370904792E+02  0.26506236049E+02  0.00000000000E+00 0. -1.
</event>
<event>
 5    1  0.1709463E-003  0.9118800E+02  0.7818608E-02  0.1130116E+00
         25   -1    0    0    0    0  0.00000000000E+00  0.00000000000E+00  0.99999998245E-14  0.12500000000E+03  0.12500000000E+03 0.  0.
        -13    1    3    3    0    0  0.12566177995E+02 -0.13111365017E+02  0.43792518426E+02  0.47408992355E+02  0.10566000000E+00 0. -1.
         23    2    1    0    0    0 -0.24977962343E+02 -0.49510564560E+01  0.14740087471E+02  0.95577529990E+02  0.90936145166E+02 0.  0.
         13    1    3    3    0    0 -0.37544140337E+02  0.81603085607E+01 -0.29052430955E+02  0.48168537635E+02  0.10566000000E+00 0.  1.
         22    1    1    0    0    0  0.24977962343E+02  0.49510564560E+01 -0.14740087471E+02  0.29422470010E+02  0.00000000000E+00 0. -1.
</event>
<event>
 5    1  0.1709463E-003  0.9118800E+02  0.7818608E-02  0.1130116E+00
         25   -1    0    0    0    0  0.00000000000E+00  0.00000000000E+00  0.99999998245E-14  0.12500000000E+03  0.12500000000E+03 0.  0.
        -13    1    3    3    0    0  0.18252317343E+02 -0.31285074002E+02  0.29424731959E+02  0.46666143601E+02  0.10566000000E+00 0.  1.
         23    2    1    0    0    0 -0.23379900085E+02 -0.10552599818E+02  0.14622297063E+02  0.95473932495E+02  0.90793629312E+02 0.  0.
         13    1    3    3    0    0 -0.41632217428E+02  0.20732474184E+02 -0.14802434896E+02  0.48807788894E+02  0.10566000000E+00 0. -1.
         22    1    1    0    0    0  0.23379900085E+02  0.10552599818E+02 -0.14622297063E+02  0.29526067505E+02  0.00000000000E+00 0. -1.
</event>
<event>
 5    1  0.1709463E-003  0.9118800E+02  0.7818608E-02  0.1130116E+00
         25   -1    0    0    0    0  0.00000000000E+00  0.00000000000E+00  0.99999998245E-14  0.12500000000E+03  0.12500000000E+03 0.  0.
        -13    1    3    3    0    0 -0.23737795545E+02 -0.45736641257E+02 -0.12120675760E+02  0.52936237453E+02  0.10566000000E+00 0.  1.
         23    2    1    0    0    0 -0.27367327187E+02 -0.11355127102E+02  0.97046301893E+01  0.93821652449E+02  0.88489621495E+02 0.  0.
         13    1    3    3    0    0 -0.36295316428E+01  0.34381514156E+02  0.21825305949E+02  0.40885414996E+02  0.10566000000E+00 0. -1.
         22    1    1    0    0    0  0.27367327187E+02  0.11355127102E+02 -0.97046301893E+01  0.31178347551E+02  0.00000000000E+00 0.  1.
</event>
<event>
 5    1  0.1709463E-003  0.9118800E+02  0.7818608E-02  0.1130116E+00
         25   -1    0    0    0    0  0.00000000000E+00  0.00000000000E+00  0.99999998245E-14  0.12500000000E+03  0.12500000000E+03 0.  0.
        -13    1    3    3    0    0 -0.15427957419E+02  0.20242818169E+02  0.22662516508E+02  0.34079236730E+02  0.10566000000E+00 0.  1.
         23    2    1    0    0    0  0.24403594492E+02 -0.16308831998E+01 -0.17660301511E+02  0.94832443692E+02  0.89906122834E+02 0.  0.
         13    1    3    3    0    0  0.39831551911E+02 -0.21873701369E+02 -0.40322818019E+02  0.60753206963E+02  0.10566000000E+00 0. -1.
         22    1    1    0    0    0 -0.24403594492E+02  0.16308831998E+01  0.17660301511E+02  0.30167556308E+02  0.00000000000E+00 0. -1.
</event>
<event>
 5    1  0.1709463E-003  0.9118800E+02  0.7818608E-02  0.1130116E+00
         25   -1    0    0    0    0  0.00000000000E+00  0.00000000000E+00  0.99999998245E-14  0.12500000000E+03  0.12500000000E+03 0.  0.
        -13    1    3    3    0    0 -0.41300977568E+02  0.21983332515E+02 -0.25649770239E+01  0.46857527973E+02  0.10566000000E+00 0. -1.
         23    2    1    0    0    0 -0.18664647403E+02 -0.20498624639E+02  0.80121147201E+01  0.96142476595E+02  0.91709427808E+02 0.  0.
         13    1    3    3    0    0  0.22636330165E+02 -0.42481957154E+02  0.10577091744E+02  0.49284948623E+02  0.10566000000E+00 0.  1.
         22    1    1    0    0    0  0.18664647403E+02  0.20498624639E+02 -0.80121147201E+01  0.28857523405E+02  0.00000000000E+00 0.  1.
</event>
<event>
 5    1  0.1709463E-003  0.9118800E+02  0.7818608E-02  0.1130116E+00
         25   -1    0    0    0    0  0.00000000000E+00  0.00000000000E+00  0.99999998245E-14  0.12500000000E+03  0.12500000000E+03 0.  0.
        -13    1    3    3    0    0 -0.83804032982E+01 -0.32370089856E+02  0.48856977946E+01  0.33792529999E+02  0.10566000000E+00 0. -1.
         23    2    1    0    0    0  0.24661632232E+01  0.16716635603E+02  0.30439079622E+02  0.90185269854E+02  0.83194455726E+02 0.  0.
         13    1    3    3    0    0  0.10846566521E+02  0.49086725459E+02  0.25553381827E+02  0.56392739855E+02  0.10566000000E+00 0.  1.
         22    1    1    0    0    0 -0.24661632232E+01 -0.16716635603E+02 -0.30439079622E+02  0.34814730146E+02  0.00000000000E+00 0.  1.
</event>
<event>
 5    1  0.1709463E-003  0.9118800E+02  0.7818608E-02  0.1130116E+00
         25   -1    0    0    0    0  0.00000000000E+00  0.00000000000E+00  0.99999998245E-14  0.12500000000E+03  0.12500000000E+03 0.  0.
        -13    1    3    3    0    0  0.45478988093E+01  0.35525633244E+02 -0.21797522027E+02  0.41927283855E+02  0.10566000000E+00 0. -1.
         23    2    1    0    0    0 -0.23522342462E+02  0.72669179198E+01  0.15014017743E+02  0.96163748167E+02  0.91738416391E+02 0.  0.
         13    1    3    3    0    0 -0.28070241272E+02 -0.28258715324E+02  0.36811539769E+02  0.54236464312E+02  0.10566000000E+00 0.  1.
         22    1    1    0    0    0  0.23522342462E+02 -0.72669179198E+01 -0.15014017743E+02  0.28836251833E+02  0.00000000000E+00 0.  1.
</event>
<event>
 5    1  0.1709463E-003  0.9118800E+02  0.7818608E-02  0.1130116E+00
         25   -1    0    0    0    0  0.00000000000E+00  0.00000000000E+00  0.99999998245E-14  0.12500000000E+03  0.12500000000E+03 0.  0.
        -13    1    3    3    0    0  0.28063048093E+02  0.55797069811E+02 -0.22879248946E+01  0.62498747445E+02  0.10566000000E+00 0.  1.
         23    2    1    0    0    0  0.13159059586E+02  0.26393251857E+02 -0.82536220605E+00  0.95496681279E+02  0.90824943269E+02 0.  0.
         13    1    3    3    0    0 -0.14903988508E+02 -0.29403817954E+02  0.14625626885E+01  0.32997933834E+02  0.10566000000E+00 0. -1.
         22    1    1    0    0    0 -0.13159059586E+02 -0.26393251857E+02  0.82536220605E+00  0.29503318721E+02  0.00000000000E+00 0.  1.
</event>
<event>
 5    1  0.1709463E-003  0.9118800E+02  0.7818608E-02  0.1130116E+00
         25   -1    0    0    0    0  0.00000000000E+00  0.00000000000E+00  0.99999998245E-14  0.12500000000E+03  0.12500000000E+03 0.  0.
        -13    1    3    3    0    0  0.27035789977E+02  0.90907055568E+01 -0.41457979861E+02  0.50322461440E+02  0.10566000000E+00 0. -1.
         23    2    1    0    0    0 -0.82293050811E+01 -0.14174511911E+02 -0.23777018189E+02  0.96121204250E+02  0.91680429005E+02 0.  0.
         13    1    3    3    0    0 -0.35265095058E+02 -0.23265217467E+02  0.17680961672E+02  0.45798742810E+02  0.10566000000E+00 0.  1.
         22    1    1    0    0    0  0.82293050811E+01  0.14174511911E+02  0.23777018189E+02  0.28878795750E+02  0.00000000000E+00 0.  1.
</event>
<event>
 5    1  0.1709463E-003  0.9118800E+02  0.7818608E-02  0.1130116E+00
         25   -1    0    0    0    0  0.00000000000E+00  0.00000000000E+00  0.99999998245E-14  0.12500000000E+03  0.12500000000E+03 0.  0.
        -13    1    3    3    0    0  0.40574297333E+02 -0.10246637655E+02 -0.44585470685E+02  0.61148528581E+02  0.10566000000E+00 0.  1.
         23    2    1    0    0    0  0.18337400169E+02  0.44367923509E+01 -0.21402289805E+02  0.96469255527E+02  0.92153751316E+02 0.  0.
         13    1    3    3    0    0 -0.22236897164E+02  0.14683430006E+02  0.23183180880E+02  0.35320726946E+02  0.10566000000E+00 0. -1.
         22    1    1    0    0    0 -0.18337400169E+02 -0.44367923509E+01  0.21402289805E+02  0.28530744473E+02  0.00000000000E+00 0.  1.
</event>
<event>
 5    1  0.1709463E-003  0.9118800E+02  0.7818608E-02  0.1130116E+00
         25   -1    0    0    0    0  0.00000000000E+00  0.00000000000E+00  0.99999998245E-14  0.12500000000E+03  0.12500000000E+03 0.  0.
        -13    1    3    3    0    0 -0.84535545453E+01  0.71132066367E+01 -0.36339487360E+02  0.37981966757E+02  0.10566000000E+00 0.  1.
         23    2    1    0    0    0  0.30566637581E+01  0.24662570275E+02  0.16724152358E+02  0.95045320266E+02  0.90201607893E+02 0.  0.
         13    1    3    3    0    0  0.11510218303E+02  0.17549363638E+02  0.53063639718E+02  0.57063353509E+02  0.10566000000E+00 0. -1.
         22    1    1    0    0    0 -0.30566637581E+01 -0.24662570275E+02 -0.16724152358E+02  0.29954679734E+02  0.00000000000E+00 0.  1.
</event>
<event>
 5    1  0.1709463E-003  0.9118800E+02  0.7818608E-02  0.1130116E+00
         25   -1    0    0    0    0  0.00000000000E+00  0.00000000000E+00  0.99999998245E-14  0.12500000000E+03  0.12500000000E+03 0.  0.
        -13    1    3    3    0    0  0.23849303319E+02 -0.50846523250E+01 -0.27084476039E+02  0.36444793378E+02  0.10566000000E+00 0. -1.
         23    2    1    0    0    0  0.21812661704E+02 -0.15071271092E+02  0.24423879769E+02  0.88951958085E+02  0.81320289727E+02 0.  0.
         13    1    3    3    0    0 -0.20366416148E+01 -0.99866187673E+01  0.51508355808E+02  0.52507164706E+02  0.10566000000E+00 0.  1.
         22    1    1    0    0    0 -0.21812661704E+02  0.15071271092E+02 -0.24423879769E+02  0.36048041915E+02  0.00000000000E+00 0.  1.
</event>
<event>
 5    1  0.1709463E-003  0.9118800E+02  0.7818608E-02  0.1130116E+00
         25   -1    0    0    0    0  0.00000000000E+00  0.00000000000E+00  0.99999998245E-14  0.12500000000E+03  0.12500000000E+03 0.  0.
        -13    1    3    3    0    0  0.24191748769E+02  0.37218524388E+02 -0.19491785276E+02  0.48480925356E+02  0.10566000000E+00 0. -1.
         23    2    1    0    0    0  0.31247534287E+02 -0.16994370921E+01  0.22684942118E+01  0.93624172498E+02  0.88210221202E+02 0.  0.
         13    1    3    3    0    0  0.70557855180E+01 -0.38917961480E+02  0.21760279488E+02  0.45143247142E+02  0.10566000000E+00 0.  1.
         22    1    1    0    0    0 -0.31247534287E+02  0.16994370921E+01 -0.22684942118E+01  0.31375827502E+02  0.00000000000E+00 0. -1.
</event>
<event>
 5    1  0.1709463E-003  0.9118800E+02  0.7818608E-02  0.1130116E+00
         25   -1    0    0    0    0  0.00000000000E+00  0.00000000000E+00  0.99999998245E-14  0.12500000000E+03  0.12500000000E+03 0.  0.
        -13    1    3    3    0    0 -0.21494149300E+02  0.36331782413E+02 -0.12007002321E+02  0.43888223206E+02  0.10566000000E+00 0.  1.
         23    2    1    0    0    0 -0.25630925582E+02 -0.12188274094E+02 -0.15413336621E+02  0.92703416321E+02  0.86895650525E+02 0.  0.
         13    1    3    3    0    0 -0.41367762822E+01 -0.48520056507E+02 -0.34063342999E+01  0.48815193115E+02  0.10566000000E+00 0. -1.
         22    1    1    0    0    0  0.25630925582E+02  0.12188274094E+02  0.15413336621E+02  0.32296583679E+02  0.00000000000E+00 0. -1.
</event>
<event>
 5    1  0.1709463E-003  0.9118800E+02  0.7818608E-02  0.1130116E+00
         25   -1    0    0    0    0  0.00000000000E+00  0.00000000000E+00  0.99999998245E-14  0.12500000000E+03  0.12500000000E+03 0.  0.
        -13    1    3    3    0    0  0.17160417868E+02 -0.29104581561E+02 -0.24602647007E+02  0.41795430528E+02  0.10566000000E+00 0.  1.
         23    2    1    0    0    0 -0.25055637105E+02  0.11020541398E+01 -0.18012388399E+02  0.94122085403E+02  0.88912998772E+02 0.  0.
         13    1    3    3    0    0 -0.42216054973E+02  0.30206635701E+02  0.65902586088E+01  0.52326654875E+02  0.10566000000E+00 0. -1.
         22    1    1    0    0    0  0.25055637105E+02 -0.11020541398E+01  0.18012388399E+02  0.30877914597E+02  0.00000000000E+00 0. -1.
</event>
<event>
 5    1  0.1709463E-003  0.9118800E+02  0.7818608E-02  0.1130116E+00
         25   -1    0    0    0    0  0.00000000000E+00  0.00000000000E+00  0.99999998245E-14  0.12500000000E+03  0.12500000000E+03 0.  0.
        -13    1    3    3    0    0  0.90529083491E+01  0.25166176151E+02  0.53167659685E+02  0.59515567477E+02  0.10566000000E+00 0. -1.
         23    2    1    0    0    0  0.16295452241E+02  0.19115796459E+02  0.23671467958E+02  0.90484875297E+02  0.83643402753E+02 0.  0.
         13    1    3    3    0    0  0.72425438915E+01 -0.60503796919E+01 -0.29496191727E+02  0.30969307820E+02  0.10566000000E+00 0.  1.
         22    1    1    0    0    0 -0.16295452241E+02 -0.19115796459E+02 -0.23671467958E+02  0.34515124703E+02  0.00000000000E+00 0. -1.
</event>
<event>
 5    1  0.1709463E-003  0.9118800E+02  0.7818608E-02  0.1130116E+00
         25   -1    0    0    0    0  0.00000000000E+00  0.00000000000E+00  0.99999998245E-14  0.12500000000E+03  0.12500000000E+03 0.  0.
        -13    1    3    3    0    0  0.28663103985E+02 -0.26701362137E+02  0.36808521911E+02  0.53753276359E+02  0.10566000000E+00 0.  1.
         23    2    1    0    0    0  0.42600306996E+01 -0.26305078220E+02 -0.51365245238E+00  0.98347254540E+02  0.94666856054E+02 0.  0.
         13    1    3    3    0    0 -0.24403073286E+02  0.39628391702E+00 -0.37322174364E+02  0.44593978181E+02  0.10566000000E+00 0. -1.
         22    1    1    0    0    0 -0.42600306996E+01  0.26305078220E+02  0.51365245238E+00  0.26652745460E+02  0.00000000000E+00 0.  1.
</event>
<event>
 5    1  0.1709463E-003  0.9118800E+02  0.7818608E-02  0.1130116E+00
         25   -1    0    0    0    0  0.00000000000E+00  0.00000000000E+00  0.99999998245E-14  0.12500000000E+03  0.12500000000E+03 0.  0.
        -13    1    3    3    0    0 -0.82739232525E+01  0.80828533906E+01 -0.33835737246E+02  0.35758336146E+02  0.10566000000E+00 0.  1.
         23    2    1    0    0    0  0.34746384076E+01 -0.28056876019E+02  0.11117087561E+02  0.94621536578E+02  0.89612410662E+02 0.  0.
         13    1    3    3    0    0  0.11748561660E+02 -0.36139729410E+02  0.44952824807E+02  0.58863200432E+02  0.10566000000E+00 0. -1.
         22    1    1    0    0    0 -0.34746384076E+01  0.28056876019E+02 -0.11117087561E+02  0.30378463422E+02  0.00000000000E+00 0. -1.
</event>
<event>
 5    1  0.1709463E-003  0.9118800E+02  0.7818608E-02  0.1130116E+00
         25   -1    0    0    0    0  0.00000000000E+00  0.00000000000E+00  0.99999998245E-14  0.12500000000E+03  0.12500000000E+03 0.  0.
        -13    1    3    3    0    0 -0.14461738291E+02 -0.27440062562E+02  0.45258038568E+02  0.54867113345E+02  0.10566000000E+00 0.  1.
         23    2    1    0    0    0  0.66498730426E+01 -0.26734164018E+02  0.10545309466E+02  0.95501866348E+02  0.90832079063E+02 0.  0.
         13    1    3    3    0    0  0.21111611334E+02  0.70589854418E+00 -0.34712729102E+02  0.40634753003E+02  0.10566000000E+00 0. -1.
         22    1    1    0    0    0 -0.66498730426E+01  0.26734164018E+02 -0.10545309466E+02  0.29498133652E+02  0.00000000000E+00 0.  1.
</event>
<event>
 5    1  0.1709463E-003  0.9118800E+02  0.7818608E-02  0.1130116E+00
         25   -1    0    0    0    0  0.00000000000E+00  0.00000000000E+00  0.99999998245E-14  0.12500000000E+03  0.12500000000E+03 0.  0.
        -13    1    3    3    0    0 -0.86708026928E+01 -0.15931663769E+02  0.38858091864E+02  0.42883134180E+02  0.10566000000E+00 0. -1.
         23    2    1    0    0    0  0.23818981638E+02  0.14134153985E+02  0.10925133496E+02  0.95226240798E+02  0.90451977311E+02 0.  0.
         13    1    3    3    0    0  0.32489784331E+02  0.30065817755E+02 -0.27932958368E+02  0.52343106617E+02  0.10566000000E+00 0.  1.
         22    1    1    0    0    0 -0.23818981638E+02 -0.14134153985E+02 -0.10925133496E+02  0.29773759202E+02  0.00000000000E+00 0.  1.
</event>
<event>
 5    1  0.1709463E-003  0.9118800E+02  0.7818608E-02  0.1130116E+00
         25   -1    0    0    0    0  0.00000000000E+00  0.00000000000E+00  0.99999998245E-14  0.12500000000E+03  0.12500000000E+03 0.  0.
        -13    1    3    3    0    0 -0.58921247236E+02  0.72619776085E+01 -0.12515186385E+02  0.60671993118E+02  0.10566000000E+00 0.  1.
         23    2    1    0    0    0 -0.23693361596E+02  0.71966615840E+01 -0.15103609734E+02  0.95995063374E+02  0.91508282923E+02 0.  0.
         13    1    3    3    0    0  0.35227885640E+02 -0.65316024432E-01 -0.25884233491E+01  0.35323070256E+02  0.10566000000E+00 0. -1.
         22    1    1    0    0    0  0.23693361596E+02 -0.71966615840E+01  0.15103609734E+02  0.29004936626E+02  0.00000000000E+00 0.  1.
</event>
<event>
 4    1  0.1709463E-003  0.9118800E+02  0.7818608E-02  0.1130116E+00
         25   -1    0    0    0    0  0.00000000000E+00  0.00000000000E+00  0.99999998245E-14  0.12500000000E+03  0.12500000000E+03 0.  0.
        -13    1    1    0    0    0  0.38362118851E+01  0.23774041099E+02 -0.21707132020E+02  0.32421170496E+02  0.10566000000E+00 0.  1.
         13    1    1    0    0    0 -0.38781691338E+02  0.11287515922E+02  0.75384010978E+01  0.41088517300E+02  0.10566000000E+00 0. -1.
         22    1    1    0    0    0  0.34945479453E+02 -0.35061557021E+02  0.14168730922E+02  0.51490312204E+02  0.00000000000E+00 0. -1.
</event>
<event>
 5    1  0.1709463E-003  0.9118800E+02  0.7818608E-02  0.1130116E+00
         25   -1    0    0    0    0  0.00000000000E+00  0.00000000000E+00  0.99999998245E-14  0.12500000000E+03  0.12500000000E+03 0.  0.
        -13    1    3    3    0    0  0.19039606438E+02 -0.56056488590E+02 -0.11974189865E+02  0.60400570472E+02  0.10566000000E+00 0.  1.
         23    2    1    0    0    0  0.16316240707E+02 -0.24227165648E+02  0.29150115079E+01  0.95645740373E+02  0.91029858251E+02 0.  0.
         13    1    3    3    0    0 -0.27233657306E+01  0.31829322942E+02  0.14889201373E+02  0.35245169901E+02  0.10566000000E+00 0. -1.
         22    1    1    0    0    0 -0.16316240707E+02  0.24227165648E+02 -0.29150115079E+01  0.29354259627E+02  0.00000000000E+00 0.  1.
</event>
<event>
 5    1  0.1709463E-003  0.9118800E+02  0.7818608E-02  0.1130116E+00
         25   -1    0    0    0    0  0.00000000000E+00  0.00000000000E+00  0.99999998245E-14  0.12500000000E+03  0.12500000000E+03 0.  0.
        -13    1    3    3    0    0 -0.13965783286E+02  0.91481633223E+01  0.32968395881E+02  0.36954814111E+02  0.10566000000E+00 0. -1.
         23    2    1    0    0    0  0.31635838406E+02 -0.84445480556E+01  0.14147557099E+02  0.89330825138E+02  0.81900587815E+02 0.  0.
         13    1    3    3    0    0  0.45601621692E+02 -0.17592711378E+02 -0.18820838782E+02  0.52376011027E+02  0.10566000000E+00 0.  1.
         22    1    1    0    0    0 -0.31635838406E+02  0.84445480556E+01 -0.14147557099E+02  0.35669174862E+02  0.00000000000E+00 0.  1.
</event>
<event>
 5    1  0.1709463E-003  0.9118800E+02  0.7818608E-02  0.1130116E+00
         25   -1    0    0    0    0  0.00000000000E+00  0.00000000000E+00  0.99999998245E-14  0.12500000000E+03  0.12500000000E+03 0.  0.
        -13    1    3    3    0    0  0.92147847132E+01 -0.11044400319E+02 -0.29330716224E+02  0.32667921788E+02  0.10566000000E+00 0. -1.
         23    2    1    0    0    0  0.27906289795E+01  0.58418099298E+01  0.29803925647E+02  0.94501010880E+02  0.89444131837E+02 0.  0.
         13    1    3    3    0    0 -0.64241557337E+01  0.16886210249E+02  0.59134641871E+02  0.61833089092E+02  0.10566000000E+00 0.  1.
         22    1    1    0    0    0 -0.27906289795E+01 -0.58418099298E+01 -0.29803925647E+02  0.30498989120E+02  0.00000000000E+00 0.  1.
</event>
<event>
 5    1  0.1709463E-003  0.9118800E+02  0.7818608E-02  0.1130116E+00
         25   -1    0    0    0    0  0.00000000000E+00  0.00000000000E+00  0.99999998245E-14  0.12500000000E+03  0.12500000000E+03 0.  0.
        -13    1    3    3    0    0 -0.23818910963E+02 -0.40801421931E+02  0.25602032107E+02  0.53736130891E+02  0.10566000000E+00 0.  1.
         23    2    1    0    0    0  0.48233237432E+01 -0.28108674026E+02 -0.32113488177E+01  0.96300265355E+02  0.91924242389E+02 0.  0.
         13    1    3    3    0    0  0.28642234706E+02  0.12692747905E+02 -0.28813380925E+02  0.42564134464E+02  0.10566000000E+00 0. -1.
         22    1    1    0    0    0 -0.48233237432E+01  0.28108674026E+02  0.32113488177E+01  0.28699734645E+02  0.00000000000E+00 0.  1.
</event>
<event>
 5    1  0.1709463E-003  0.9118800E+02  0.7818608E-02  0.1130116E+00
         25   -1    0    0    0    0  0.00000000000E+00  0.00000000000E+00  0.99999998245E-14  0.12500000000E+03  0.12500000000E+03 0.  0.
        -13    1    3    3    0    0 -0.18380626812E+02  0.26575198070E+02 -0.88109845578E+01  0.33492285789E+02  0.10566000000E+00 0. -1.
         23    2    1    0    0    0  0.24475558291E+02 -0.16944778153E+02  0.18760672317E+00  0.95230659117E+02  0.90458082996E+02 0.  0.
         13    1    3    3    0    0  0.42856185104E+02 -0.43519976223E+02  0.89985912810E+01  0.61738373328E+02  0.10566000000E+00 0.  1.
         22    1    1    0    0    0 -0.24475558291E+02  0.16944778153E+02 -0.18760672317E+00  0.29769340883E+02  0.00000000000E+00 0.  1.
</event>
<event>
 5    1  0.1709463E-003  0.9118800E+02  0.7818608E-02  0.1130116E+00
         25   -1    0    0    0    0  0.00000000000E+00  0.00000000000E+00  0.99999998245E-14  0.12500000000E+03  0.12500000000E+03 0.  0.
        -13    1    3    3    0    0  0.53942203742E+01 -0.10481053574E+02  0.32382504092E+02  0.34461396269E+02  0.10566000000E+00 0.  1.
         23    2    1    0    0    0  0.12957352453E+02 -0.10715210574E+02 -0.26384379024E+02  0.93713514472E+02  0.88336734250E+02 0.  0.
         13    1    3    3    0    0  0.75631320793E+01 -0.23415700012E+00 -0.58766883116E+02  0.59252118203E+02  0.10566000000E+00 0. -1.
         22    1    1    0    0    0 -0.12957352453E+02  0.10715210574E+02  0.26384379024E+02  0.31286485528E+02  0.00000000000E+00 0. -1.
</event>
<event>
 5    1  0.1709463E-003  0.9118800E+02  0.7818608E-02  0.1130116E+00
         25   -1    0    0    0    0  0.00000000000E+00  0.00000000000E+00  0.99999998245E-14  0.12500000000E+03  0.12500000000E+03 0.  0.
        -13    1    3    3    0    0  0.47576109091E+00 -0.47255184188E+02 -0.21810973699E+02  0.52048136556E+02  0.10566000000E+00 0. -1.
         23    2    1    0    0    0  0.25282078315E+02 -0.19032593245E+02 -0.13846959268E+02  0.90457831994E+02  0.83602978407E+02 0.  0.
         13    1    3    3    0    0  0.24806317224E+02  0.28222590943E+02  0.79640144312E+01  0.38409695438E+02  0.10566000000E+00 0.  1.
         22    1    1    0    0    0 -0.25282078315E+02  0.19032593245E+02  0.13846959268E+02  0.34542168006E+02  0.00000000000E+00 0. -1.
</event>
<event>
 5    1  0.1709463E-003  0.9118800E+02  0.7818608E-02  0.1130116E+00
         25   -1    0    0    0    0  0.00000000000E+00  0.00000000000E+00  0.99999998245E-14  0.12500000000E+03  0.12500000000E+03 0.  0.
        -13    1    3    3    0    0  0.34995827606E+02 -0.18356030105E+01 -0.87250105156E+01  0.36113908135E+02  0.10566000000E+00 0.  1.
         23    2    1    0    0    0 -0.22538087394E+02  0.11344624622E+02 -0.15280963200E+02  0.95501292782E+02  0.90831289738E+02 0.  0.
         13    1    3    3    0    0 -0.57533915000E+02  0.13180227633E+02 -0.65559526845E+01  0.59387384648E+02  0.10566000000E+00 0. -1.
         22    1    1    0    0    0  0.22538087394E+02 -0.11344624622E+02  0.15280963200E+02  0.29498707218E+02  0.00000000000E+00 0. -1.
</event>
<event>
 5    1  0.1709463E-003  0.9118800E+02  0.7818608E-02  0.1130116E+00
         25   -1    0    0    0    0  0.00000000000E+00  0.00000000000E+00  0.99999998245E-14  0.12500000000E+03  0.12500000000E+03 0.  0.
        -13    1    3    3    0    0  0.26197037900E+02  0.36977476134E+02 -0.34939140693E+01  0.45451481114E+02  0.10566000000E+00 0. -1.
         23    2    1    0    0    0 -0.18853429789E+02  0.24232635597E+02  0.71737759461E+01  0.93470085567E+02  0.87991598416E+02 0.  0.
         13    1    3    3    0    0 -0.45050467689E+02 -0.12744840536E+02  0.10667690015E+02  0.48018604453E+02  0.10566000000E+00 0.  1.
         22    1    1    0    0    0  0.18853429789E+02 -0.24232635597E+02 -0.71737759461E+01  0.31529914433E+02  0.00000000000E+00 0. -1.
</event>
<event>
 5    1  0.1709463E-003  0.9118800E+02  0.7818608E-02  0.1130116E+00
         25   -1    0    0    0    0  0.00000000000E+00  0.00000000000E+00  0.99999998245E-14  0.12500000000E+03  0.12500000000E+03 0.  0.
        -13    1    3    3    0    0  0.37972226642E+02 -0.40105774656E+02 -0.14245275631E+01  0.55248561970E+02  0.10566000000E+00 0. -1.
         23    2    1    0    0    0  0.13236555767E+01 -0.25965857216E+02  0.11456167189E+02  0.96588354999E+02  0.92315159912E+02 0.  0.
         13    1    3    3    0    0 -0.36648571066E+02  0.14139917440E+02  0.12880694752E+02  0.41339793029E+02  0.10566000000E+00 0.  1.
         22    1    1    0    0    0 -0.13236555767E+01  0.25965857216E+02 -0.11456167189E+02  0.28411645001E+02  0.00000000000E+00 0. -1.
</event>
<event>
 5    1  0.1709463E-003  0.9118800E+02  0.7818608E-02  0.1130116E+00
         25   -1    0    0    0    0  0.00000000000E+00  0.00000000000E+00  0.99999998245E-14  0.12500000000E+03  0.12500000000E+03 0.  0.
        -13    1    3    3    0    0 -0.18518109040E+02 -0.23453238041E+02 -0.53477287019E+02  0.61260151224E+02  0.10566000000E+00 0. -1.
         23    2    1    0    0    0 -0.17245468395E+02 -0.10329055280E+02 -0.23087147077E+02  0.94387716138E+02  0.89285659735E+02 0.  0.
         13    1    3    3    0    0  0.12726406455E+01  0.13124182761E+02  0.30390139942E+02  0.33127564914E+02  0.10566000000E+00 0.  1.
         22    1    1    0    0    0  0.17245468395E+02  0.10329055280E+02  0.23087147077E+02  0.30612283862E+02  0.00000000000E+00 0. -1.
</event>
<event>
 5    1  0.1709463E-003  0.9118800E+02  0.7818608E-02  0.1130116E+00
         25   -1    0    0    0    0  0.00000000000E+00  0.00000000000E+00  0.99999998245E-14  0.12500000000E+03  0.12500000000E+03 0.  0.
        -13    1    3    3    0    0  0.44978872895E+02  0.30335868328E+02 -0.12605911858E+02  0.55698151602E+02  0.10566000000E+00 0. -1.
         23    2    1    0    0    0  0.90646317896E+01  0.28313486789E+02  0.34140745914E+01  0.95075478468E+02  0.90243390988E+02 0.  0.
         13    1    3    3    0    0 -0.35914241105E+02 -0.20223815392E+01  0.16019986449E+02  0.39377326866E+02  0.10566000000E+00 0.  1.
         22    1    1    0    0    0 -0.90646317896E+01 -0.28313486789E+02 -0.34140745914E+01  0.29924521532E+02  0.00000000000E+00 0. -1.
</event>
<event>
 5    1  0.1709463E-003  0.9118800E+02  0.7818608E-02  0.1130116E+00
         25   -1    0    0    0    0  0.00000000000E+00  0.00000000000E+00  0.99999998245E-14  0.12500000000E+03  0.12500000000E+03 0.  0.
        -13    1    3    3    0    0  0.33380422374E+02 -0.30800281313E+02  0.38095140912E+02  0.59280358062E+02  0.10566000000E+00 0. -1.
         23    2    1    0    0    0  0.16956258587E+01 -0.16624124119E+02  0.21541028359E+02  0.97737341426E+02  0.93858059624E+02 0.  0.
         13    1    3    3    0    0 -0.31684796515E+02  0.14176157194E+02 -0.16554112553E+02  0.38456983364E+02  0.10566000000E+00 0.  1.
         22    1    1    0    0    0 -0.16956258587E+01  0.16624124119E+02 -0.21541028359E+02  0.27262658574E+02  0.00000000000E+00 0. -1.
</event>
<event>
 5    1  0.1709463E-003  0.9118800E+02  0.7818608E-02  0.1130116E+00
         25   -1    0    0    0    0  0.00000000000E+00  0.00000000000E+00  0.99999998245E-14  0.12500000000E+03  0.12500000000E+03 0.  0.
        -13    1    3    3    0    0 -0.68152050772E+01 -0.35429806933E+02 -0.38718971220E+02  0.52923417651E+02  0.10566000000E+00 0.  1.
         23    2    1    0    0    0 -0.10061577076E+02 -0.28127490796E+02  0.26055434051E+01  0.95013670978E+02  0.90157738129E+02 0.  0.
         13    1    3    3    0    0 -0.32463719990E+01  0.73023161368E+01  0.41324514625E+02  0.42090253327E+02  0.10566000000E+00 0. -1.
         22    1    1    0    0    0  0.10061577076E+02  0.28127490796E+02 -0.26055434051E+01  0.29986329022E+02  0.00000000000E+00 0.  1.
</event>
<event>
 5    1  0.1709463E-003  0.9118800E+02  0.7818608E-02  0.1130116E+00
         25   -1    0    0    0    0  0.00000000000E+00  0.00000000000E+00  0.99999998245E-14  0.12500000000E+03  0.12500000000E+03 0.  0.
        -13    1    3    3    0    0 -0.33708426986E+02 -0.33129563271E+02  0.28121952672E+02  0.54997103547E+02  0.10566000000E+00 0. -1.
         23    2    1    0    0    0 -0.64137836105E+01 -0.31147859854E+02  0.15202825266E+01  0.93162332801E+02  0.87553316329E+02 0.  0.
         13    1    3    3    0    0  0.27294643376E+02  0.19817034165E+01 -0.26601670146E+02  0.38165229254E+02  0.10566000000E+00 0.  1.
         22    1    1    0    0    0  0.64137836105E+01  0.31147859854E+02 -0.15202825266E+01  0.31837667199E+02  0.00000000000E+00 0. -1.
</event>
<event>
 5    1  0.1709463E-003  0.9118800E+02  0.7818608E-02  0.1130116E+00
         25   -1    0    0    0    0  0.00000000000E+00  0.00000000000E+00  0.99999998245E-14  0.12500000000E+03  0.12500000000E+03 0.  0.
        -13    1    3    3    0    0 -0.35789751759E+02  0.15590933011E+02  0.14444600707E+02  0.41625006627E+02  0.10566000000E+00 0. -1.
         23    2    1    0    0    0  0.15281972190E+02  0.24766170543E+02 -0.13560303267E+01  0.95866845423E+02  0.91332969709E+02 0.  0.
         13    1    3    3    0    0  0.51071723949E+02  0.91752375317E+01 -0.15800631034E+02  0.54241838796E+02  0.10566000000E+00 0.  1.
         22    1    1    0    0    0 -0.15281972190E+02 -0.24766170543E+02  0.13560303267E+01  0.29133154577E+02  0.00000000000E+00 0.  1.
</event>
<event>
 5    1  0.1709463E-003  0.9118800E+02  0.7818608E-02  0.1130116E+00
         25   -1    0    0    0    0  0.00000000000E+00  0.00000000000E+00  0.99999998245E-14  0.12500000000E+03  0.12500000000E+03 0.  0.
        -13    1    3    3    0    0  0.29944618458E+02  0.23213568633E+02 -0.40491390754E+02  0.55453708916E+02  0.10566000000E+00 0. -1.
         23    2    1    0    0    0  0.10974117175E+02 -0.94741803267E+01 -0.24585125251E+02  0.96458456169E+02  0.92139101593E+02 0.  0.
         13    1    3    3    0    0 -0.18970501284E+02 -0.32687748960E+02  0.15906265503E+02  0.41004747253E+02  0.10566000000E+00 0.  1.
         22    1    1    0    0    0 -0.10974117175E+02  0.94741803267E+01  0.24585125251E+02  0.28541543831E+02  0.00000000000E+00 0.  1.
</event>
<event>
 5    1  0.1709463E-003  0.9118800E+02  0.7818608E-02  0.1130116E+00
         25   -1    0    0    0    0  0.00000000000E+00  0.00000000000E+00  0.99999998245E-14  0.12500000000E+03  0.12500000000E+03 0.  0.
        -13    1    3    3    0    0 -0.14980041395E+02  0.41327774430E+01 -0.35011124126E+02  0.38304979652E+02  0.10566000000E+00 0.  1.
         23    2    1    0    0    0  0.25374395889E+02 -0.15513953733E+02  0.49394708871E-01  0.95258695943E+02  0.90496817545E+02 0.  0.
         13    1    3    3    0    0  0.40354437284E+02 -0.19646731176E+02  0.35060518834E+02  0.56953716291E+02  0.10566000000E+00 0. -1.
         22    1    1    0    0    0 -0.25374395889E+02  0.15513953733E+02 -0.49394708871E-01  0.29741304057E+02  0.00000000000E+00 0. -1.
</event>
<event>
 5    1  0.1709463E-003  0.9118800E+02  0.7818608E-02  0.1130116E+00
         25   -1    0    0    0    0  0.00000000000E+00  0.00000000000E+00  0.99999998245E-14  0.12500000000E+03  0.12500000000E+03 0.  0.
        -13    1    3    3    0    0  0.21195488674E+02  0.27323763400E+02  0.16708989669E+02  0.38406227180E+02  0.10566000000E+00 0. -1.
         23    2    1    0    0    0 -0.13971366730E+02  0.97918560665E+01 -0.24368909893E+02  0.95252339539E+02  0.90488037246E+02 0.  0.
         13    1    3    3    0    0 -0.35166855404E+02 -0.17531907333E+02 -0.41077899562E+02  0.56846112358E+02  0.10566000000E+00 0.  1.
         22    1    1    0    0    0  0.13971366730E+02 -0.97918560665E+01  0.24368909893E+02  0.29747660461E+02  0.00000000000E+00 0.  1.
</event>
<event>
 5    1  0.1709463E-003  0.9118800E+02  0.7818608E-02  0.1130116E+00
         25   -1    0    0    0    0  0.00000000000E+00  0.00000000000E+00  0.99999998245E-14  0.12500000000E+03  0.12500000000E+03 0.  0.
        -13    1    3    3    0    0  0.43232244674E+02  0.37166140934E+02 -0.17948678211E+02  0.59770521371E+02  0.10566000000E+00 0. -1.
         23    2    1    0    0    0  0.18470327827E+02  0.82890815299E+01 -0.18148623592E+02  0.97811134247E+02  0.93956285376E+02 0.  0.
         13    1    3    3    0    0 -0.24761916846E+02 -0.28877059404E+02 -0.19994538097E+00  0.38040612875E+02  0.10566000000E+00 0.  1.
         22    1    1    0    0    0 -0.18470327827E+02 -0.82890815299E+01  0.18148623592E+02  0.27188865753E+02  0.00000000000E+00 0. -1.
</event>
<event>
 5    1  0.1709463E-003  0.9118800E+02  0.7818608E-02  0.1130116E+00
         25   -1    0    0    0    0  0.00000000000E+00  0.00000000000E+00  0.99999998245E-14  0.12500000000E+03  0.12500000000E+03 0.  0.
        -13    1    3    3    0    0 -0.15035708298E+02 -0.46415862322E+02 -0.81813136161E+01  0.49471707629E+02  0.10566000000E+00 0.  1.
         23    2    1    0    0    0  0.21936771187E+02 -0.19446981396E+02 -0.36093962618E+01  0.95462993434E+02  0.90778567726E+02 0.  0.
         13    1    3    3    0    0  0.36972479485E+02  0.26968880926E+02  0.45719173543E+01  0.45991285805E+02  0.10566000000E+00 0. -1.
         22    1    1    0    0    0 -0.21936771187E+02  0.19446981396E+02  0.36093962618E+01  0.29537006566E+02  0.00000000000E+00 0. -1.
</event>
<event>
 5    1  0.1709463E-003  0.9118800E+02  0.7818608E-02  0.1130116E+00
         25   -1    0    0    0    0  0.00000000000E+00  0.00000000000E+00  0.99999998245E-14  0.12500000000E+03  0.12500000000E+03 0.  0.
        -13    1    3    3    0    0 -0.24588116098E+02  0.50236193370E+01  0.22899953502E+02  0.33973978851E+02  0.10566000000E+00 0. -1.
         23    2    1    0    0    0  0.25059783702E+02 -0.83640863641E+00 -0.14159228259E+02  0.96204582249E+02  0.91794038816E+02 0.  0.
         13    1    3    3    0    0  0.49647899800E+02 -0.58600279734E+01 -0.37059181761E+02  0.62230603398E+02  0.10566000000E+00 0.  1.
         22    1    1    0    0    0 -0.25059783702E+02  0.83640863641E+00  0.14159228259E+02  0.28795417751E+02  0.00000000000E+00 0.  1.
</event>
<event>
 5    1  0.1709463E-003  0.9118800E+02  0.7818608E-02  0.1130116E+00
         25   -1    0    0    0    0  0.00000000000E+00  0.00000000000E+00  0.99999998245E-14  0.12500000000E+03  0.12500000000E+03 0.  0.
        -13    1    3    3    0    0 -0.15121368535E+02  0.40491988340E+02  0.17351523253E+02  0.46576210981E+02  0.10566000000E+00 0. -1.
         23    2    1    0    0    0 -0.77911551039E+01  0.15925113256E+02 -0.23958635378E+02  0.95195175907E+02  0.90409037030E+02 0.  0.
         13    1    3    3    0    0  0.73302134308E+01 -0.24566875084E+02 -0.41310158630E+02  0.48618964926E+02  0.10566000000E+00 0.  1.
         22    1    1    0    0    0  0.77911551039E+01 -0.15925113256E+02  0.23958635378E+02  0.29804824093E+02  0.00000000000E+00 0. -1.
</event>
<event>
 5    1  0.1709463E-003  0.9118800E+02  0.7818608E-02  0.1130116E+00
         25   -1    0    0    0    0  0.00000000000E+00  0.00000000000E+00  0.99999998245E-14  0.12500000000E+03  0.12500000000E+03 0.  0.
        -13    1    3    3    0    0 -0.24873505184E+02 -0.11085722445E+02  0.17986724302E+02  0.32636144341E+02  0.10566000000E+00 0.  1.
         23    2    1    0    0    0  0.28972761920E+02  0.11216229302E+02 -0.94965467228E+00  0.93917423256E+02  0.88624803605E+02 0.  0.
         13    1    3    3    0    0  0.53846267104E+02  0.22301951748E+02 -0.18936378975E+02  0.61281278915E+02  0.10566000000E+00 0. -1.
         22    1    1    0    0    0 -0.28972761920E+02 -0.11216229302E+02  0.94965467228E+00  0.31082576744E+02  0.00000000000E+00 0. -1.
</event>
<event>
 5    1  0.1709463E-003  0.9118800E+02  0.7818608E-02  0.1130116E+00
         25   -1    0    0    0    0  0.00000000000E+00  0.00000000000E+00  0.99999998245E-14  0.12500000000E+03  0.12500000000E+03 0.  0.
        -13    1    3    3    0    0 -0.58226807572E+01 -0.17216806811E+02 -0.52469490042E+02  0.55528196416E+02  0.10566000000E+00 0.  1.
         23    2    1    0    0    0  0.77374594096E+01  0.10143999067E+02 -0.26397795859E+02  0.95680848897E+02  0.91078055668E+02 0.  0.
         13    1    3    3    0    0  0.13560140167E+02  0.27360805878E+02  0.26071694183E+02  0.40152652481E+02  0.10566000000E+00 0. -1.
         22    1    1    0    0    0 -0.77374594096E+01 -0.10143999067E+02  0.26397795859E+02  0.29319151103E+02  0.00000000000E+00 0.  1.
</event>
<event>
 5    1  0.1709463E-003  0.9118800E+02  0.7818608E-02  0.1130116E+00
         25   -1    0    0    0    0  0.00000000000E+00  0.00000000000E+00  0.99999998245E-14  0.12500000000E+03  0.12500000000E+03 0.  0.
        -13    1    3    3    0    0  0.32376220344E+02  0.62249164052E+01  0.14742749536E+02  0.36115496063E+02  0.10566000000E+00 0.  1.
         23    2    1    0    0    0 -0.26926581144E+02  0.71896197287E+01  0.90440557805E+01  0.95699379718E+02  0.91103484727E+02 0.  0.
         13    1    3    3    0    0 -0.59302801488E+02  0.96470332353E+00 -0.56986937557E+01  0.59583883654E+02  0.10566000000E+00 0. -1.
         22    1    1    0    0    0  0.26926581144E+02 -0.71896197287E+01 -0.90440557805E+01  0.29300620282E+02  0.00000000000E+00 0. -1.
</event>
<event>
 5    1  0.1709463E-003  0.9118800E+02  0.7818608E-02  0.1130116E+00
         25   -1    0    0    0    0  0.00000000000E+00  0.00000000000E+00  0.99999998245E-14  0.12500000000E+03  0.12500000000E+03 0.  0.
        -13    1    3    3    0    0 -0.58029112124E+01 -0.60035352570E+02  0.15802132531E+02  0.62350909322E+02  0.10566000000E+00 0. -1.
         23    2    1    0    0    0 -0.38425535775E+01 -0.26870444143E+02  0.99770507544E+01  0.96080672065E+02  0.91625149475E+02 0.  0.
         13    1    3    3    0    0  0.19603576349E+01  0.33164908426E+02 -0.58250817762E+01  0.33729762743E+02  0.10566000000E+00 0.  1.
         22    1    1    0    0    0  0.38425535775E+01  0.26870444143E+02 -0.99770507544E+01  0.28919327935E+02  0.00000000000E+00 0. -1.
</event>
<event>
 5    1  0.1709463E-003  0.9118800E+02  0.7818608E-02  0.1130116E+00
         25   -1    0    0    0    0  0.00000000000E+00  0.00000000000E+00  0.99999998245E-14  0.12500000000E+03  0.12500000000E+03 0.  0.
        -13    1    3    3    0    0  0.44086846839E+02 -0.37264307109E+02 -0.44111691775E+01  0.57894284917E+02  0.10566000000E+00 0. -1.
         23    2    1    0    0    0  0.28283117482E+02 -0.30347474091E+01  0.32589294429E+01  0.96368460617E+02  0.92016928628E+02 0.  0.
         13    1    3    3    0    0 -0.15803729357E+02  0.34229559700E+02  0.76700986204E+01  0.38474175699E+02  0.10566000000E+00 0.  1.
         22    1    1    0    0    0 -0.28283117482E+02  0.30347474091E+01 -0.32589294429E+01  0.28631539383E+02  0.00000000000E+00 0. -1.
</event>
<event>
 5    1  0.1709463E-003  0.9118800E+02  0.7818608E-02  0.1130116E+00
         25   -1    0    0    0    0  0.00000000000E+00  0.00000000000E+00  0.99999998245E-14  0.12500000000E+03  0.12500000000E+03 0.  0.
        -13    1    3    3    0    0 -0.34987940628E+02 -0.10305977094E+02  0.16118142136E+01  0.36509974833E+02  0.10566000000E+00 0.  1.
         23    2    1    0    0    0  0.16888783237E+02  0.35834292358E+01 -0.23536288788E+02  0.95810466701E+02  0.91255776120E+02 0.  0.
         13    1    3    3    0    0  0.51876723865E+02  0.13889406330E+02 -0.25148103001E+02  0.59300491868E+02  0.10566000000E+00 0. -1.
         22    1    1    0    0    0 -0.16888783237E+02 -0.35834292358E+01  0.23536288788E+02  0.29189533299E+02  0.00000000000E+00 0. -1.
</event>
<event>
 5    1  0.1709463E-003  0.9118800E+02  0.7818608E-02  0.1130116E+00
         25   -1    0    0    0    0  0.00000000000E+00  0.00000000000E+00  0.99999998245E-14  0.12500000000E+03  0.12500000000E+03 0.  0.
        -13    1    3    3    0    0  0.31044675530E+02 -0.15725582872E+02  0.77241563050E+01  0.35647434551E+02  0.10566000000E+00 0.  1.
         23    2    1    0    0    0 -0.11988528767E+02  0.18781852290E+02 -0.17852182848E+02  0.96448586202E+02  0.92125710583E+02 0.  0.
         13    1    3    3    0    0 -0.43033204297E+02  0.34507435161E+02 -0.25576339153E+02  0.60801151650E+02  0.10566000000E+00 0. -1.
         22    1    1    0    0    0  0.11988528767E+02 -0.18781852290E+02  0.17852182848E+02  0.28551413798E+02  0.00000000000E+00 0. -1.
</event>
<event>
 5    1  0.1709463E-003  0.9118800E+02  0.7818608E-02  0.1130116E+00
         25   -1    0    0    0    0  0.00000000000E+00  0.00000000000E+00  0.99999998245E-14  0.12500000000E+03  0.12500000000E+03 0.  0.
        -13    1    3    3    0    0 -0.20768863172E+02  0.28107923133E+02 -0.17356213331E+00  0.34949138876E+02  0.10566000000E+00 0. -1.
         23    2    1    0    0    0  0.34085026703E+01 -0.26294488863E+02 -0.12407305163E+02  0.95726133558E+02  0.91140185372E+02 0.  0.
         13    1    3    3    0    0  0.24177365843E+02 -0.54402411996E+02 -0.12233743029E+02  0.60776994683E+02  0.10566000000E+00 0.  1.
         22    1    1    0    0    0 -0.34085026703E+01  0.26294488863E+02  0.12407305163E+02  0.29273866442E+02  0.00000000000E+00 0.  1.
</event>
<event>
 5    1  0.1709463E-003  0.9118800E+02  0.7818608E-02  0.1130116E+00
         25   -1    0    0    0    0  0.00000000000E+00  0.00000000000E+00  0.99999998245E-14  0.12500000000E+03  0.12500000000E+03 0.  0.
        -13    1    3    3    0    0 -0.61124056758E+01  0.55747125885E+02  0.20738162704E+01  0.56119652756E+02  0.10566000000E+00 0. -1.
         23    2    1    0    0    0  0.64838100085E+01  0.20315068819E+02 -0.16477252980E+02  0.98051128426E+02  0.94275034375E+02 0.  0.
         13    1    3    3    0    0  0.12596215684E+02 -0.35432057065E+02 -0.18551069250E+02  0.41931475669E+02  0.10566000000E+00 0.  1.
         22    1    1    0    0    0 -0.64838100085E+01 -0.20315068819E+02  0.16477252980E+02  0.26948871574E+02  0.00000000000E+00 0. -1.
</event>
<event>
 5    1  0.1709463E-003  0.9118800E+02  0.7818608E-02  0.1130116E+00
         25   -1    0    0    0    0  0.00000000000E+00  0.00000000000E+00  0.99999998245E-14  0.12500000000E+03  0.12500000000E+03 0.  0.
        -13    1    3    3    0    0 -0.57533890255E+02  0.10610303398E+02  0.64420622651E+01  0.58857781103E+02  0.10566000000E+00 0.  1.
         23    2    1    0    0    0 -0.26442909725E+02 -0.51673015370E+01 -0.84392325982E+01  0.96766170526E+02  0.92555619124E+02 0.  0.
         13    1    3    3    0    0  0.31090980530E+02 -0.15777604935E+02 -0.14881294863E+02  0.37908389423E+02  0.10566000000E+00 0. -1.
         22    1    1    0    0    0  0.26442909725E+02  0.51673015370E+01  0.84392325982E+01  0.28233829474E+02  0.00000000000E+00 0.  1.
</event>
<event>
 5    1  0.1709463E-003  0.9118800E+02  0.7818608E-02  0.1130116E+00
         25   -1    0    0    0    0  0.00000000000E+00  0.00000000000E+00  0.99999998245E-14  0.12500000000E+03  0.12500000000E+03 0.  0.
        -13    1    3    3    0    0 -0.14460601259E+02  0.29249238446E+02  0.35991726118E+01  0.32826698676E+02  0.10566000000E+00 0. -1.
         23    2    1    0    0    0  0.18263864165E+02 -0.22403207157E+02 -0.78785404909E+01  0.95040964211E+02  0.90195571137E+02 0.  0.
         13    1    3    3    0    0  0.32724465424E+02 -0.51652445602E+02 -0.11477713103E+02  0.62214265535E+02  0.10566000000E+00 0.  1.
         22    1    1    0    0    0 -0.18263864165E+02  0.22403207157E+02  0.78785404909E+01  0.29959035789E+02  0.00000000000E+00 0.  1.
</event>
<event>
 5    1  0.1709463E-003  0.9118800E+02  0.7818608E-02  0.1130116E+00
         25   -1    0    0    0    0  0.00000000000E+00  0.00000000000E+00  0.99999998245E-14  0.12500000000E+03  0.12500000000E+03 0.  0.
        -13    1    3    3    0    0  0.35674590401E+02 -0.23649444412E+00  0.79890297891E+01  0.36559104077E+02  0.10566000000E+00 0. -1.
         23    2    1    0    0    0 -0.23252152796E+02  0.76901013157E+01 -0.98006482080E+01  0.98620974749E+02  0.95027594346E+02 0.  0.
         13    1    3    3    0    0 -0.58926743197E+02  0.79265957598E+01 -0.17789677997E+02  0.62061870673E+02  0.10566000000E+00 0.  1.
         22    1    1    0    0    0  0.23252152796E+02 -0.76901013157E+01  0.98006482080E+01  0.26379025251E+02  0.00000000000E+00 0.  1.
</event>
<event>
 5    1  0.1709463E-003  0.9118800E+02  0.7818608E-02  0.1130116E+00
         25   -1    0    0    0    0  0.00000000000E+00  0.00000000000E+00  0.99999998245E-14  0.12500000000E+03  0.12500000000E+03 0.  0.
        -13    1    3    3    0    0  0.17977563158E+02 -0.30273585433E+02  0.17313970067E+02  0.39236048165E+02  0.10566000000E+00 0. -1.
         23    2    1    0    0    0  0.18330797130E+02  0.22377135295E+02 -0.35195186070E+01  0.95859970511E+02  0.91323560091E+02 0.  0.
         13    1    3    3    0    0  0.35323397182E+00  0.52650720728E+02 -0.20833488674E+02  0.56623922346E+02  0.10566000000E+00 0.  1.
         22    1    1    0    0    0 -0.18330797130E+02 -0.22377135295E+02  0.35195186070E+01  0.29140029489E+02  0.00000000000E+00 0.  1.
</event>
<event>
 5    1  0.1709463E-003  0.9118800E+02  0.7818608E-02  0.1130116E+00
         25   -1    0    0    0    0  0.00000000000E+00  0.00000000000E+00  0.99999998245E-14  0.12500000000E+03  0.12500000000E+03 0.  0.
        -13    1    3    3    0    0 -0.38804804572E+02  0.38317366450E+02 -0.28781564183E+02  0.61663790269E+02  0.10566000000E+00 0.  1.
         23    2    1    0    0    0 -0.19769141535E+02  0.97693644162E+01 -0.12631253811E+02  0.99587247081E+02  0.96290247534E+02 0.  0.
         13    1    3    3    0    0  0.19035663037E+02 -0.28548002034E+02  0.16150310372E+02  0.37923456811E+02  0.10566000000E+00 0. -1.
         22    1    1    0    0    0  0.19769141535E+02 -0.97693644162E+01  0.12631253811E+02  0.25412752919E+02  0.00000000000E+00 0.  1.
</event>
<event>
 5    1  0.1709463E-003  0.9118800E+02  0.7818608E-02  0.1130116E+00
         25   -1    0    0    0    0  0.00000000000E+00  0.00000000000E+00  0.99999998245E-14  0.12500000000E+03  0.12500000000E+03 0.  0.
        -13    1    3    3    0    0  0.12787881886E+02 -0.50986694203E+02  0.23215152269E+02  0.57464139842E+02  0.10566000000E+00 0. -1.
         23    2    1    0    0    0 -0.98976459924E+01 -0.24130948519E+02  0.18698121376E+02  0.92908165904E+02  0.87189686753E+02 0.  0.
         13    1    3    3    0    0 -0.22685527878E+02  0.26855745684E+02 -0.45170308931E+01  0.35444026062E+02  0.10566000000E+00 0.  1.
         22    1    1    0    0    0  0.98976459924E+01  0.24130948519E+02 -0.18698121376E+02  0.32091834096E+02  0.00000000000E+00 0. -1.
</event>
<event>
 5    1  0.1709463E-003  0.9118800E+02  0.7818608E-02  0.1130116E+00
         25   -1    0    0    0    0  0.00000000000E+00  0.00000000000E+00  0.99999998245E-14  0.12500000000E+03  0.12500000000E+03 0.  0.
        -13    1    3    3    0    0 -0.16063023434E+02 -0.17880003882E+02 -0.19281224206E+02  0.30813828577E+02  0.10566000000E+00 0.  1.
         23    2    1    0    0    0  0.17891221094E+02  0.13830653259E+02  0.22356226629E+02  0.93200886319E+02  0.87608341953E+02 0.  0.
         13    1    3    3    0    0  0.33954244528E+02  0.31710657141E+02  0.41637450835E+02  0.62387057743E+02  0.10566000000E+00 0. -1.
         22    1    1    0    0    0 -0.17891221094E+02 -0.13830653259E+02 -0.22356226629E+02  0.31799113681E+02  0.00000000000E+00 0. -1.
</event>
<event>
 5    1  0.1709463E-003  0.9118800E+02  0.7818608E-02  0.1130116E+00
         25   -1    0    0    0    0  0.00000000000E+00  0.00000000000E+00  0.99999998245E-14  0.12500000000E+03  0.12500000000E+03 0.  0.
        -13    1    3    3    0    0 -0.15093117850E+02  0.18556131338E+02 -0.40604487888E+02  0.47126084257E+02  0.10566000000E+00 0.  1.
         23    2    1    0    0    0 -0.81032640807E+01 -0.16951777784E+02 -0.37010149019E+02  0.83493653627E+02  0.72445934371E+02 0.  0.
         13    1    3    3    0    0  0.69898537695E+01 -0.35507909122E+02  0.35943388697E+01  0.36367569370E+02  0.10566000000E+00 0. -1.
         22    1    1    0    0    0  0.81032640807E+01  0.16951777784E+02  0.37010149019E+02  0.41506346373E+02  0.00000000000E+00 0.  1.
</event>
<event>
 5    1  0.1709463E-003  0.9118800E+02  0.7818608E-02  0.1130116E+00
         25   -1    0    0    0    0  0.00000000000E+00  0.00000000000E+00  0.99999998245E-14  0.12500000000E+03  0.12500000000E+03 0.  0.
        -13    1    3    3    0    0 -0.12476287401E+02  0.32850248707E+02  0.82418129249E+01  0.36093423663E+02  0.10566000000E+00 0.  1.
         23    2    1    0    0    0 -0.34549698605E+00 -0.25134198648E+02 -0.98013125944E+01  0.98020136427E+02  0.94233932883E+02 0.  0.
         13    1    3    3    0    0  0.12130790415E+02 -0.57984447355E+02 -0.18043125519E+02  0.61926712764E+02  0.10566000000E+00 0. -1.
         22    1    1    0    0    0  0.34549698605E+00  0.25134198648E+02  0.98013125944E+01  0.26979863573E+02  0.00000000000E+00 0. -1.
</event>
<event>
 5    1  0.1709463E-003  0.9118800E+02  0.7818608E-02  0.1130116E+00
         25   -1    0    0    0    0  0.00000000000E+00  0.00000000000E+00  0.99999998245E-14  0.12500000000E+03  0.12500000000E+03 0.  0.
        -13    1    3    3    0    0  0.55889284958E+02 -0.13753819042E+02 -0.16976670266E+02  0.60008317829E+02  0.10566000000E+00 0.  1.
         23    2    1    0    0    0  0.28917002891E+02  0.25591906981E+01  0.32874125152E+00  0.95968110912E+02  0.91471458543E+02 0.  0.
         13    1    3    3    0    0 -0.26972282067E+02  0.16313009740E+02  0.17305411518E+02  0.35959793082E+02  0.10566000000E+00 0. -1.
         22    1    1    0    0    0 -0.28917002891E+02 -0.25591906981E+01 -0.32874125152E+00  0.29031889088E+02  0.00000000000E+00 0.  1.
</event>
<event>
 5    1  0.1709463E-003  0.9118800E+02  0.7818608E-02  0.1130116E+00
         25   -1    0    0    0    0  0.00000000000E+00  0.00000000000E+00  0.99999998245E-14  0.12500000000E+03  0.12500000000E+03 0.  0.
        -13    1    3    3    0    0 -0.10894609815E+00  0.24387928044E+02  0.29105820748E+02  0.37972922840E+02  0.10566000000E+00 0.  1.
         23    2    1    0    0    0  0.26927029592E+02 -0.52459737341E+01 -0.11683754595E+02  0.95182299141E+02  0.90391231794E+02 0.  0.
         13    1    3    3    0    0  0.27035975690E+02 -0.29633901778E+02 -0.40789575343E+02  0.57209376301E+02  0.10566000000E+00 0. -1.
         22    1    1    0    0    0 -0.26927029592E+02  0.52459737341E+01  0.11683754595E+02  0.29817700859E+02  0.00000000000E+00 0. -1.
</event>
<event>
 5    1  0.1709463E-003  0.9118800E+02  0.7818608E-02  0.1130116E+00
         25   -1    0    0    0    0  0.00000000000E+00  0.00000000000E+00  0.99999998245E-14  0.12500000000E+03  0.12500000000E+03 0.  0.
        -13    1    3    3    0    0 -0.15609028268E+02  0.58373001314E+02  0.42386993377E+01  0.60572491958E+02  0.10566000000E+00 0. -1.
         23    2    1    0    0    0 -0.12091620230E+02  0.26071780448E+02 -0.77962361251E+01  0.95222049882E+02  0.90446185494E+02 0.  0.
         13    1    3    3    0    0  0.35174080381E+01 -0.32301220866E+02 -0.12034935463E+02  0.34649557924E+02  0.10566000000E+00 0.  1.
         22    1    1    0    0    0  0.12091620230E+02 -0.26071780448E+02  0.77962361251E+01  0.29777950118E+02  0.00000000000E+00 0. -1.
</event>
<event>
 5    1  0.1709463E-003  0.9118800E+02  0.7818608E-02  0.1130116E+00
         25   -1    0    0    0    0  0.00000000000E+00  0.00000000000E+00  0.99999998245E-14  0.12500000000E+03  0.12500000000E+03 0.  0.
        -13    1    3    3    0    0 -0.21908575198E+02  0.36410042772E+02 -0.55872311628E+01  0.42859132025E+02  0.10566000000E+00 0. -1.
         23    2    1    0    0    0 -0.29234510300E+02 -0.16232449096E+01  0.20233615406E+02  0.89409401397E+02  0.82020426414E+02 0.  0.
         13    1    3    3    0    0 -0.73259351022E+01 -0.38033287681E+02  0.25820846569E+02  0.46550269371E+02  0.10566000000E+00 0.  1.
         22    1    1    0    0    0  0.29234510300E+02  0.16232449096E+01 -0.20233615406E+02  0.35590598603E+02  0.00000000000E+00 0.  1.
</event>
<event>
 5    1  0.1709463E-003  0.9118800E+02  0.7818608E-02  0.1130116E+00
         25   -1    0    0    0    0  0.00000000000E+00  0.00000000000E+00  0.99999998245E-14  0.12500000000E+03  0.12500000000E+03 0.  0.
        -13    1    3    3    0    0 -0.30554809115E+02 -0.31748195536E+02 -0.22711660615E+02  0.49571917169E+02  0.10566000000E+00 0. -1.
         23    2    1    0    0    0 -0.21118189797E+02  0.13917753995E+02 -0.84011676279E+01  0.98349269540E+02  0.94669516661E+02 0.  0.
         13    1    3    3    0    0  0.94366193188E+01  0.45665949531E+02  0.14310492987E+02  0.48777352371E+02  0.10566000000E+00 0.  1.
         22    1    1    0    0    0  0.21118189797E+02 -0.13917753995E+02  0.84011676279E+01  0.26650730460E+02  0.00000000000E+00 0.  1.
</event>
<event>
 5    1  0.1709463E-003  0.9118800E+02  0.7818608E-02  0.1130116E+00
         25   -1    0    0    0    0  0.00000000000E+00  0.00000000000E+00  0.99999998245E-14  0.12500000000E+03  0.12500000000E+03 0.  0.
        -13    1    3    3    0    0 -0.11406232587E+02 -0.35703301256E+02 -0.27510508948E+02  0.46493732147E+02  0.10566000000E+00 0. -1.
         23    2    1    0    0    0 -0.20122478909E+02 -0.12461160034E+02  0.15890527664E+02  0.96492044333E+02  0.92184657527E+02 0.  0.
         13    1    3    3    0    0 -0.87162463222E+01  0.23242141221E+02  0.43401036611E+02  0.49998312186E+02  0.10566000000E+00 0.  1.
         22    1    1    0    0    0  0.20122478909E+02  0.12461160034E+02 -0.15890527664E+02  0.28507955667E+02  0.00000000000E+00 0.  1.
</event>
<event>
 5    1  0.1709463E-003  0.9118800E+02  0.7818608E-02  0.1130116E+00
         25   -1    0    0    0    0  0.00000000000E+00  0.00000000000E+00  0.99999998245E-14  0.12500000000E+03  0.12500000000E+03 0.  0.
        -13    1    3    3    0    0  0.26069848087E+02 -0.30827954106E+02 -0.23484246010E+01  0.40441636908E+02  0.10566000000E+00 0.  1.
         23    2    1    0    0    0 -0.10290452618E+02  0.76725208815E+01 -0.24102978771E+02  0.97692224965E+02  0.93797954355E+02 0.  0.
         13    1    3    3    0    0 -0.36360300705E+02  0.38500474988E+02 -0.21754554170E+02  0.57250588056E+02  0.10566000000E+00 0. -1.
         22    1    1    0    0    0  0.10290452618E+02 -0.76725208815E+01  0.24102978771E+02  0.27307775035E+02  0.00000000000E+00 0. -1.
</event>
<event>
 5    1  0.1709463E-003  0.9118800E+02  0.7818608E-02  0.1130116E+00
         25   -1    0    0    0    0  0.00000000000E+00  0.00000000000E+00  0.99999998245E-14  0.12500000000E+03  0.12500000000E+03 0.  0.
        -13    1    3    3    0    0 -0.10092521417E+02 -0.46080177853E+02  0.32254640116E+01  0.47282730057E+02  0.10566000000E+00 0.  1.
         23    2    1    0    0    0 -0.23675991977E+02 -0.35784597226E+01 -0.16347795671E+02  0.96006752625E+02  0.91524249007E+02 0.  0.
         13    1    3    3    0    0 -0.13583470560E+02  0.42501718131E+02 -0.19573259682E+02  0.48724022568E+02  0.10566000000E+00 0. -1.
         22    1    1    0    0    0  0.23675991977E+02  0.35784597226E+01  0.16347795671E+02  0.28993247375E+02  0.00000000000E+00 0. -1.
</event>
<event>
 5    1  0.1709463E-003  0.9118800E+02  0.7818608E-02  0.1130116E+00
         25   -1    0    0    0    0  0.00000000000E+00  0.00000000000E+00  0.99999998245E-14  0.12500000000E+03  0.12500000000E+03 0.  0.
        -13    1    3    3    0    0  0.54713719747E+02 -0.18160067316E+02  0.47080946164E+01  0.57840785717E+02  0.10566000000E+00 0. -1.
         23    2    1    0    0    0  0.19438902762E+02 -0.13815197510E+02  0.17290031784E+02  0.95543662449E+02  0.90889579228E+02 0.  0.
         13    1    3    3    0    0 -0.35274816985E+02  0.43448698064E+01  0.12581937167E+02  0.37702876732E+02  0.10566000000E+00 0.  1.
         22    1    1    0    0    0 -0.19438902762E+02  0.13815197510E+02 -0.17290031784E+02  0.29456337551E+02  0.00000000000E+00 0. -1.
</event>
<event>
 5    1  0.1709463E-003  0.9118800E+02  0.7818608E-02  0.1130116E+00
         25   -1    0    0    0    0  0.00000000000E+00  0.00000000000E+00  0.99999998245E-14  0.12500000000E+03  0.12500000000E+03 0.  0.
        -13    1    3    3    0    0  0.95737957355E+01  0.26852217686E+02  0.44241768035E+02  0.52631210915E+02  0.10566000000E+00 0.  1.
         23    2    1    0    0    0 -0.39699892798E+01 -0.99847678043E+01  0.27821386749E+02  0.95175748734E+02  0.90382172929E+02 0.  0.
         13    1    3    3    0    0 -0.13543785015E+02 -0.36836985490E+02 -0.16420381287E+02  0.42544537819E+02  0.10566000000E+00 0. -1.
         22    1    1    0    0    0  0.39699892798E+01  0.99847678043E+01 -0.27821386749E+02  0.29824251266E+02  0.00000000000E+00 0.  1.
</event>
<event>
 5    1  0.1709463E-003  0.9118800E+02  0.7818608E-02  0.1130116E+00
         25   -1    0    0    0    0  0.00000000000E+00  0.00000000000E+00  0.99999998245E-14  0.12500000000E+03  0.12500000000E+03 0.  0.
        -13    1    3    3    0    0  0.46463983636E+02  0.18156657772E+02 -0.24586169200E+02  0.55615257589E+02  0.10566000000E+00 0. -1.
         23    2    1    0    0    0  0.55328677063E+01  0.18733308966E+02 -0.20387406728E+02  0.96765343229E+02  0.92554501821E+02 0.  0.
         13    1    3    3    0    0 -0.40931115930E+02  0.57665119429E+00  0.41987624719E+01  0.41150085640E+02  0.10566000000E+00 0.  1.
         22    1    1    0    0    0 -0.55328677063E+01 -0.18733308966E+02  0.20387406728E+02  0.28234656771E+02  0.00000000000E+00 0.  1.
</event>
<event>
 5    1  0.1709463E-003  0.9118800E+02  0.7818608E-02  0.1130116E+00
         25   -1    0    0    0    0  0.00000000000E+00  0.00000000000E+00  0.99999998245E-14  0.12500000000E+03  0.12500000000E+03 0.  0.
        -13    1    3    3    0    0 -0.17654561256E+02  0.25306897947E+02 -0.30760148379E+02  0.43569720095E+02  0.10566000000E+00 0.  1.
         23    2    1    0    0    0  0.20466294539E+02 -0.94773441544E+01 -0.27730939169E+01  0.10227601896E+03  0.99719630666E+02 0.  0.
         13    1    3    3    0    0  0.38120855795E+02 -0.34784242101E+02  0.27987054462E+02  0.58706298866E+02  0.10566000000E+00 0. -1.
         22    1    1    0    0    0 -0.20466294539E+02  0.94773441544E+01  0.27730939169E+01  0.22723981039E+02  0.00000000000E+00 0. -1.
</event>
<event>
 5    1  0.1709463E-003  0.9118800E+02  0.7818608E-02  0.1130116E+00
         25   -1    0    0    0    0  0.00000000000E+00  0.00000000000E+00  0.99999998245E-14  0.12500000000E+03  0.12500000000E+03 0.  0.
        -13    1    3    3    0    0 -0.16363679718E+02  0.17573641089E+02  0.37771132290E+02  0.44757931962E+02  0.10566000000E+00 0.  1.
         23    2    1    0    0    0 -0.23354651463E+02  0.11079720093E+02 -0.12753309931E+02  0.96175585756E+02  0.91754544514E+02 0.  0.
         13    1    3    3    0    0 -0.69909717450E+01 -0.64939209964E+01 -0.50524442221E+02  0.51417653794E+02  0.10566000000E+00 0. -1.
         22    1    1    0    0    0  0.23354651463E+02 -0.11079720093E+02  0.12753309931E+02  0.28824414244E+02  0.00000000000E+00 0. -1.
</event>
<event>
 5    1  0.1709463E-003  0.9118800E+02  0.7818608E-02  0.1130116E+00
         25   -1    0    0    0    0  0.00000000000E+00  0.00000000000E+00  0.99999998245E-14  0.12500000000E+03  0.12500000000E+03 0.  0.
        -13    1    3    3    0    0 -0.27045312484E+02 -0.49155148271E+02  0.38707682249E+01  0.56237634548E+02  0.10566000000E+00 0.  1.
         23    2    1    0    0    0  0.34455843073E+01 -0.26886718936E+02  0.12780392077E+02  0.95031581156E+02  0.90182566436E+02 0.  0.
         13    1    3    3    0    0  0.30490896791E+02  0.22268429335E+02  0.89096238521E+01  0.38793946608E+02  0.10566000000E+00 0. -1.
         22    1    1    0    0    0 -0.34455843073E+01  0.26886718936E+02 -0.12780392077E+02  0.29968418844E+02  0.00000000000E+00 0.  1.
</event>
<event>
 5    1  0.1709463E-003  0.9118800E+02  0.7818608E-02  0.1130116E+00
         25   -1    0    0    0    0  0.00000000000E+00  0.00000000000E+00  0.99999998245E-14  0.12500000000E+03  0.12500000000E+03 0.  0.
        -13    1    3    3    0    0 -0.14861789224E+01  0.60315364640E+02 -0.30547435143E+01  0.60411046684E+02  0.10566000000E+00 0.  1.
         23    2    1    0    0    0 -0.37689902492E-01  0.28195904529E+02  0.99587084180E+01  0.95097051549E+02  0.90273267844E+02 0.  0.
         13    1    3    3    0    0  0.14484890199E+01 -0.32119460111E+02  0.13013451932E+02  0.34686004865E+02  0.10566000000E+00 0. -1.
         22    1    1    0    0    0  0.37689902492E-01 -0.28195904529E+02 -0.99587084180E+01  0.29902948451E+02  0.00000000000E+00 0.  1.
</event>
<event>
 5    1  0.1709463E-003  0.9118800E+02  0.7818608E-02  0.1130116E+00
         25   -1    0    0    0    0  0.00000000000E+00  0.00000000000E+00  0.99999998245E-14  0.12500000000E+03  0.12500000000E+03 0.  0.
        -13    1    3    3    0    0  0.34258201130E+02  0.84271026296E+01  0.14202947881E+02  0.38031241051E+02  0.10566000000E+00 0.  1.
         23    2    1    0    0    0 -0.21299346640E+02 -0.69306711167E+01  0.18663544595E+02  0.95844824366E+02  0.91302826306E+02 0.  0.
         13    1    3    3    0    0 -0.55557547769E+02 -0.15357773746E+02  0.44605967144E+01  0.57813583314E+02  0.10566000000E+00 0. -1.
         22    1    1    0    0    0  0.21299346640E+02  0.69306711167E+01 -0.18663544595E+02  0.29155175634E+02  0.00000000000E+00 0. -1.
</event>
<event>
 5    1  0.1709463E-003  0.9118800E+02  0.7818608E-02  0.1130116E+00
         25   -1    0    0    0    0  0.00000000000E+00  0.00000000000E+00  0.99999998245E-14  0.12500000000E+03  0.12500000000E+03 0.  0.
        -13    1    3    3    0    0  0.55151562754E+01 -0.30448790203E+02  0.16417722220E+02  0.35029966321E+02  0.10566000000E+00 0.  1.
         23    2    1    0    0    0 -0.97815396684E+01  0.27026614924E+02  0.22534169299E+01  0.96169559137E+02  0.91746333901E+02 0.  0.
         13    1    3    3    0    0 -0.15296695944E+02  0.57475405126E+02 -0.14164305290E+02  0.61139592815E+02  0.10566000000E+00 0. -1.
         22    1    1    0    0    0  0.97815396684E+01 -0.27026614924E+02 -0.22534169299E+01  0.28830440863E+02  0.00000000000E+00 0. -1.
</event>
<event>
 5    1  0.1709463E-003  0.9118800E+02  0.7818608E-02  0.1130116E+00
         25   -1    0    0    0    0  0.00000000000E+00  0.00000000000E+00  0.99999998245E-14  0.12500000000E+03  0.12500000000E+03 0.  0.
        -13    1    3    3    0    0  0.16155522669E+02  0.89970010613E+01  0.34017803275E+02  0.38719104387E+02  0.10566000000E+00 0. -1.
         23    2    1    0    0    0  0.24702260553E+02 -0.73898236646E+01 -0.17756539605E+02  0.93693357431E+02  0.88308206628E+02 0.  0.
         13    1    3    3    0    0  0.85467378835E+01 -0.16386824726E+02 -0.51774342880E+02  0.54974253044E+02  0.10566000000E+00 0.  1.
         22    1    1    0    0    0 -0.24702260553E+02  0.73898236646E+01  0.17756539605E+02  0.31306642569E+02  0.00000000000E+00 0.  1.
</event>
<event>
 5    1  0.1709463E-003  0.9118800E+02  0.7818608E-02  0.1130116E+00
         25   -1    0    0    0    0  0.00000000000E+00  0.00000000000E+00  0.99999998245E-14  0.12500000000E+03  0.12500000000E+03 0.  0.
        -13    1    3    3    0    0 -0.14398915987E+02  0.41460552260E+02 -0.93083770300E+01  0.44866058689E+02  0.10566000000E+00 0.  1.
         23    2    1    0    0    0 -0.12708402034E+02 -0.41565811024E+01 -0.27826525434E+02  0.94127744389E+02  0.88920954209E+02 0.  0.
         13    1    3    3    0    0  0.16905139530E+01 -0.45617133363E+02 -0.18518148404E+02  0.49261685700E+02  0.10566000000E+00 0. -1.
         22    1    1    0    0    0  0.12708402034E+02  0.41565811024E+01  0.27826525434E+02  0.30872255611E+02  0.00000000000E+00 0. -1.
</event>
<event>
 5    1  0.1709463E-003  0.9118800E+02  0.7818608E-02  0.1130116E+00
         25   -1    0    0    0    0  0.00000000000E+00  0.00000000000E+00  0.99999998245E-14  0.12500000000E+03  0.12500000000E+03 0.  0.
        -13    1    3    3    0    0  0.31895371813E+01  0.32192135443E+02 -0.25452754968E+02  0.41162612057E+02  0.10566000000E+00 0.  1.
         23    2    1    0    0    0 -0.24785712937E+02 -0.12029252962E+02 -0.90837093205E+01  0.95990548650E+02  0.91502115618E+02 0.  0.
         13    1    3    3    0    0 -0.27975250118E+02 -0.44221388405E+02  0.16369045648E+02  0.54827936593E+02  0.10566000000E+00 0. -1.
         22    1    1    0    0    0  0.24785712937E+02  0.12029252962E+02  0.90837093205E+01  0.29009451350E+02  0.00000000000E+00 0. -1.
</event>
<event>
 5    1  0.1709463E-003  0.9118800E+02  0.7818608E-02  0.1130116E+00
         25   -1    0    0    0    0  0.00000000000E+00  0.00000000000E+00  0.99999998245E-14  0.12500000000E+03  0.12500000000E+03 0.  0.
        -13    1    3    3    0    0  0.20392011633E+02  0.51425403328E+02 -0.47618523995E+01  0.55525603538E+02  0.10566000000E+00 0.  1.
         23    2    1    0    0    0 -0.28894624218E+01  0.30735006908E+02  0.13138517198E+02  0.91449884100E+02  0.85073327342E+02 0.  0.
         13    1    3    3    0    0 -0.23281474055E+02 -0.20690396420E+02  0.17900369597E+02  0.35924280563E+02  0.10566000000E+00 0. -1.
         22    1    1    0    0    0  0.28894624218E+01 -0.30735006908E+02 -0.13138517198E+02  0.33550115900E+02  0.00000000000E+00 0.  1.
</event>
<event>
 5    1  0.1709463E-003  0.9118800E+02  0.7818608E-02  0.1130116E+00
         25   -1    0    0    0    0  0.00000000000E+00  0.00000000000E+00  0.99999998245E-14  0.12500000000E+03  0.12500000000E+03 0.  0.
        -13    1    3    3    0    0 -0.28745304350E+02 -0.42853607201E+02 -0.13192799192E+02  0.53261480329E+02  0.10566000000E+00 0. -1.
         23    2    1    0    0    0 -0.23134239759E+01 -0.25018047247E+02  0.14926580734E+02  0.95775739000E+02  0.91208194534E+02 0.  0.
         13    1    3    3    0    0  0.26431880374E+02  0.17835559953E+02  0.28119379926E+02  0.42514258671E+02  0.10566000000E+00 0.  1.
         22    1    1    0    0    0  0.23134239759E+01  0.25018047247E+02 -0.14926580734E+02  0.29224261000E+02  0.00000000000E+00 0. -1.
</event>
<event>
 5    1  0.1709463E-003  0.9118800E+02  0.7818608E-02  0.1130116E+00
         25   -1    0    0    0    0  0.00000000000E+00  0.00000000000E+00  0.99999998245E-14  0.12500000000E+03  0.12500000000E+03 0.  0.
        -13    1    3    3    0    0  0.28590539678E+02 -0.16588441978E+02  0.37691313682E+02  0.50132241696E+02  0.10566000000E+00 0.  1.
         23    2    1    0    0    0  0.13333478660E+02 -0.26280436982E+02 -0.37010237771E+01  0.95299148191E+02  0.90552675542E+02 0.  0.
         13    1    3    3    0    0 -0.15257061018E+02 -0.96919950039E+01 -0.41392337459E+02  0.45166906496E+02  0.10566000000E+00 0. -1.
         22    1    1    0    0    0 -0.13333478660E+02  0.26280436982E+02  0.37010237771E+01  0.29700851809E+02  0.00000000000E+00 0. -1.
</event>
<event>
 5    1  0.1709463E-003  0.9118800E+02  0.7818608E-02  0.1130116E+00
         25   -1    0    0    0    0  0.00000000000E+00  0.00000000000E+00  0.99999998245E-14  0.12500000000E+03  0.12500000000E+03 0.  0.
        -13    1    3    3    0    0 -0.12582971831E+02  0.14538813602E+02 -0.47991045778E+02  0.51699709090E+02  0.10566000000E+00 0. -1.
         23    2    1    0    0    0  0.20162887903E+01 -0.18627198763E+02 -0.20811618953E+02  0.96997117333E+02  0.92866998084E+02 0.  0.
         13    1    3    3    0    0  0.14599260622E+02 -0.33166012366E+02  0.27179426825E+02  0.45297408243E+02  0.10566000000E+00 0.  1.
         22    1    1    0    0    0 -0.20162887903E+01  0.18627198763E+02  0.20811618953E+02  0.28002882667E+02  0.00000000000E+00 0. -1.
</event>
<event>
 5    1  0.1709463E-003  0.9118800E+02  0.7818608E-02  0.1130116E+00
         25   -1    0    0    0    0  0.00000000000E+00  0.00000000000E+00  0.99999998245E-14  0.12500000000E+03  0.12500000000E+03 0.  0.
        -13    1    3    3    0    0 -0.46721298356E+02 -0.26308873107E+02  0.22948903743E+02  0.58324093403E+02  0.10566000000E+00 0.  1.
         23    2    1    0    0    0 -0.13276461992E+02  0.73165233799E+01  0.62271648420E+01  0.10861178657E+03  0.10736827578E+03 0.  0.
         13    1    3    3    0    0  0.33444836364E+02  0.33625396487E+02 -0.16721738901E+02  0.50287693169E+02  0.10566000000E+00 0. -1.
         22    1    1    0    0    0  0.13276461992E+02 -0.73165233799E+01 -0.62271648420E+01  0.16388213428E+02  0.00000000000E+00 0. -1.
</event>
<event>
 5    1  0.1709463E-003  0.9118800E+02  0.7818608E-02  0.1130116E+00
         25   -1    0    0    0    0  0.00000000000E+00  0.00000000000E+00  0.99999998245E-14  0.12500000000E+03  0.12500000000E+03 0.  0.
        -13    1    3    3    0    0  0.29612343336E+02  0.42307855403E+01 -0.31383880942E+02  0.43356078826E+02  0.10566000000E+00 0. -1.
         23    2    1    0    0    0 -0.16883296274E+02  0.19880478685E+02 -0.78880582743E+01  0.97751136002E+02  0.93876429419E+02 0.  0.
         13    1    3    3    0    0 -0.46495639610E+02  0.15649693145E+02  0.23495822668E+02  0.54395057176E+02  0.10566000000E+00 0.  1.
         22    1    1    0    0    0  0.16883296274E+02 -0.19880478685E+02  0.78880582743E+01  0.27248863998E+02  0.00000000000E+00 0.  1.
</event>
<event>
 5    1  0.1709463E-003  0.9118800E+02  0.7818608E-02  0.1130116E+00
         25   -1    0    0    0    0  0.00000000000E+00  0.00000000000E+00  0.99999998245E-14  0.12500000000E+03  0.12500000000E+03 0.  0.
        -13    1    3    3    0    0 -0.10970092208E+01 -0.16484049891E+02  0.40118909889E+02  0.43387387854E+02  0.10566000000E+00 0.  1.
         23    2    1    0    0    0  0.30254487871E+02  0.78571240538E+01  0.20050183476E+02  0.87864056600E+02  0.79630485055E+02 0.  0.
         13    1    3    3    0    0  0.31351497092E+02  0.24341173945E+02 -0.20068726413E+02  0.44476668747E+02  0.10566000000E+00 0. -1.
         22    1    1    0    0    0 -0.30254487871E+02 -0.78571240538E+01 -0.20050183476E+02  0.37135943400E+02  0.00000000000E+00 0. -1.
</event>
<event>
 5    1  0.1709463E-003  0.9118800E+02  0.7818608E-02  0.1130116E+00
         25   -1    0    0    0    0  0.00000000000E+00  0.00000000000E+00  0.99999998245E-14  0.12500000000E+03  0.12500000000E+03 0.  0.
        -13    1    3    3    0    0  0.12700434323E+02  0.37876151388E+01  0.31388549532E+02  0.34071971857E+02  0.10566000000E+00 0. -1.
         23    2    1    0    0    0 -0.20606676070E+02  0.14935775031E+02 -0.17386856426E+02  0.94177682585E+02  0.88991126784E+02 0.  0.
         13    1    3    3    0    0 -0.33307110394E+02  0.11148159892E+02 -0.48775405958E+02  0.60105710728E+02  0.10566000000E+00 0.  1.
         22    1    1    0    0    0  0.20606676070E+02 -0.14935775031E+02  0.17386856426E+02  0.30822317415E+02  0.00000000000E+00 0.  1.
</event>
<event>
 5    1  0.1709463E-003  0.9118800E+02  0.7818608E-02  0.1130116E+00
         25   -1    0    0    0    0  0.00000000000E+00  0.00000000000E+00  0.99999998245E-14  0.12500000000E+03  0.12500000000E+03 0.  0.
        -13    1    3    3    0    0  0.19583601438E+02  0.40222551493E+02 -0.12493401384E+02  0.46448545037E+02  0.10566000000E+00 0. -1.
         23    2    1    0    0    0 -0.19891136613E+02  0.10590653857E+02 -0.18061009946E+02  0.96120606912E+02  0.91679614571E+02 0.  0.
         13    1    3    3    0    0 -0.39474738051E+02 -0.29631897636E+02 -0.55676085622E+01  0.49672061874E+02  0.10566000000E+00 0.  1.
         22    1    1    0    0    0  0.19891136613E+02 -0.10590653857E+02  0.18061009946E+02  0.28879393088E+02  0.00000000000E+00 0. -1.
</event>
<event>
 5    1  0.1709463E-003  0.9118800E+02  0.7818608E-02  0.1130116E+00
         25   -1    0    0    0    0  0.00000000000E+00  0.00000000000E+00  0.99999998245E-14  0.12500000000E+03  0.12500000000E+03 0.  0.
        -13    1    3    3    0    0  0.17952468032E+02  0.29901912625E+02  0.19069995474E+02  0.39750363249E+02  0.10566000000E+00 0. -1.
         23    2    1    0    0    0 -0.25925844579E+02 -0.25104577453E+01  0.16091434643E+02  0.94383238510E+02  0.89279390834E+02 0.  0.
         13    1    3    3    0    0 -0.43878312611E+02 -0.32412370370E+02 -0.29785608310E+01  0.54632875261E+02  0.10566000000E+00 0.  1.
         22    1    1    0    0    0  0.25925844579E+02  0.25104577453E+01 -0.16091434643E+02  0.30616761490E+02  0.00000000000E+00 0.  1.
</event>
<event>
 5    1  0.1709463E-003  0.9118800E+02  0.7818608E-02  0.1130116E+00
         25   -1    0    0    0    0  0.00000000000E+00  0.00000000000E+00  0.99999998245E-14  0.12500000000E+03  0.12500000000E+03 0.  0.
        -13    1    3    3    0    0 -0.11663217424E+02 -0.16909510658E+02  0.30179430448E+02  0.36507141460E+02  0.10566000000E+00 0.  1.
         23    2    1    0    0    0  0.34633892563E+02 -0.47662139213E+01  0.86743794132E+01  0.88979614557E+02  0.81362790263E+02 0.  0.
         13    1    3    3    0    0  0.46297109988E+02  0.12143296737E+02 -0.21505051035E+02  0.52472473097E+02  0.10566000000E+00 0. -1.
         22    1    1    0    0    0 -0.34633892563E+02  0.47662139213E+01 -0.86743794132E+01  0.36020385443E+02  0.00000000000E+00 0. -1.
</event>
<event>
 5    1  0.1709463E-003  0.9118800E+02  0.7818608E-02  0.1130116E+00
         25   -1    0    0    0    0  0.00000000000E+00  0.00000000000E+00  0.99999998245E-14  0.12500000000E+03  0.12500000000E+03 0.  0.
        -13    1    3    3    0    0 -0.19661555954E+02  0.27748746095E+02 -0.48508975341E+02  0.59242734112E+02  0.10566000000E+00 0. -1.
         23    2    1    0    0    0 -0.13965675786E+02  0.22080346344E+02 -0.12684968554E+02  0.95957096873E+02  0.91456406109E+02 0.  0.
         13    1    3    3    0    0  0.56958801679E+01 -0.56683997511E+01  0.35824006787E+02  0.36714362761E+02  0.10566000000E+00 0.  1.
         22    1    1    0    0    0  0.13965675786E+02 -0.22080346344E+02  0.12684968554E+02  0.29042903127E+02  0.00000000000E+00 0. -1.
</event>
<event>
 5    1  0.1709463E-003  0.9118800E+02  0.7818608E-02  0.1130116E+00
         25   -1    0    0    0    0  0.00000000000E+00  0.00000000000E+00  0.99999998245E-14  0.12500000000E+03  0.12500000000E+03 0.  0.
        -13    1    3    3    0    0 -0.52262437304E+02  0.21469117889E+02  0.72773588632E+01  0.56967152746E+02  0.10566000000E+00 0. -1.
         23    2    1    0    0    0 -0.98249344759E+01  0.20928884705E+02  0.10655471692E+02  0.99542454372E+02  0.96232081932E+02 0.  0.
         13    1    3    3    0    0  0.42437502828E+02 -0.54023318362E+00  0.33781128283E+01  0.42575301626E+02  0.10566000000E+00 0.  1.
         22    1    1    0    0    0  0.98249344759E+01 -0.20928884705E+02 -0.10655471692E+02  0.25457545628E+02  0.00000000000E+00 0. -1.
</event>
<event>
 5    1  0.1709463E-003  0.9118800E+02  0.7818608E-02  0.1130116E+00
         25   -1    0    0    0    0  0.00000000000E+00  0.00000000000E+00  0.99999998245E-14  0.12500000000E+03  0.12500000000E+03 0.  0.
        -13    1    3    3    0    0  0.99112283748E+00  0.18898459418E+02  0.29572097244E+02  0.35109175330E+02  0.10566000000E+00 0. -1.
         23    2    1    0    0    0  0.18773450438E+01 -0.27772090774E+02 -0.90875865531E+01  0.95718646210E+02  0.91129915794E+02 0.  0.
         13    1    3    3    0    0  0.88622220636E+00 -0.46670550193E+02 -0.38659683797E+02  0.60609470881E+02  0.10566000000E+00 0.  1.
         22    1    1    0    0    0 -0.18773450438E+01  0.27772090774E+02  0.90875865531E+01  0.29281353790E+02  0.00000000000E+00 0.  1.
</event>
<event>
 5    1  0.1709463E-003  0.9118800E+02  0.7818608E-02  0.1130116E+00
         25   -1    0    0    0    0  0.00000000000E+00  0.00000000000E+00  0.99999998245E-14  0.12500000000E+03  0.12500000000E+03 0.  0.
        -13    1    3    3    0    0  0.75848146182E+01 -0.36536394242E+02  0.26965706083E+02  0.46039091929E+02  0.10566000000E+00 0.  1.
         23    2    1    0    0    0  0.25625115916E+02  0.61222793391E+01  0.17663247538E+02  0.93280618171E+02  0.87722029974E+02 0.  0.
         13    1    3    3    0    0  0.18040301298E+02  0.42658673582E+02 -0.93024585450E+01  0.47241526242E+02  0.10566000000E+00 0. -1.
         22    1    1    0    0    0 -0.25625115916E+02 -0.61222793391E+01 -0.17663247538E+02  0.31719381829E+02  0.00000000000E+00 0.  1.
</event>
<event>
 5    1  0.1709463E-003  0.9118800E+02  0.7818608E-02  0.1130116E+00
         25   -1    0    0    0    0  0.00000000000E+00  0.00000000000E+00  0.99999998245E-14  0.12500000000E+03  0.12500000000E+03 0.  0.
        -13    1    3    3    0    0 -0.59686651492E+01 -0.24890676400E+02  0.46869207502E+02  0.53403225663E+02  0.10566000000E+00 0.  1.
         23    2    1    0    0    0 -0.24757095698E+02 -0.75440493284E+01  0.12455425760E+02  0.96277811738E+02  0.91893704543E+02 0.  0.
         13    1    3    3    0    0 -0.18788430549E+02  0.17346627072E+02 -0.34413781742E+02  0.42874586075E+02  0.10566000000E+00 0. -1.
         22    1    1    0    0    0  0.24757095698E+02  0.75440493284E+01 -0.12455425760E+02  0.28722188262E+02  0.00000000000E+00 0. -1.
</event>
<event>
 5    1  0.1709463E-003  0.9118800E+02  0.7818608E-02  0.1130116E+00
         25   -1    0    0    0    0  0.00000000000E+00  0.00000000000E+00  0.99999998245E-14  0.12500000000E+03  0.12500000000E+03 0.  0.
        -13    1    3    3    0    0 -0.20015883607E+01 -0.31959788962E+02  0.19070189647E+02  0.37270870176E+02  0.10566000000E+00 0. -1.
         23    2    1    0    0    0 -0.85220416994E+00  0.38197348470E+01 -0.28179400600E+02  0.96550127515E+02  0.92263383196E+02 0.  0.
         13    1    3    3    0    0  0.11493841908E+01  0.35779523809E+02 -0.47249590247E+02  0.59279257339E+02  0.10566000000E+00 0.  1.
         22    1    1    0    0    0  0.85220416994E+00 -0.38197348470E+01  0.28179400600E+02  0.28449872485E+02  0.00000000000E+00 0. -1.
</event>
<event>
 5    1  0.1709463E-003  0.9118800E+02  0.7818608E-02  0.1130116E+00
         25   -1    0    0    0    0  0.00000000000E+00  0.00000000000E+00  0.99999998245E-14  0.12500000000E+03  0.12500000000E+03 0.  0.
        -13    1    3    3    0    0 -0.13753558351E+02 -0.46400736801E+02 -0.12156880510E+02  0.49899796100E+02  0.10566000000E+00 0. -1.
         23    2    1    0    0    0 -0.20119670499E+02 -0.54579073691E+00 -0.19736268069E+02  0.96811007364E+02  0.92616153240E+02 0.  0.
         13    1    3    3    0    0 -0.63661121483E+01  0.45854946065E+02 -0.75793875594E+01  0.46911211264E+02  0.10566000000E+00 0.  1.
         22    1    1    0    0    0  0.20119670499E+02  0.54579073691E+00  0.19736268069E+02  0.28188992636E+02  0.00000000000E+00 0. -1.
</event>
<event>
 5    1  0.1709463E-003  0.9118800E+02  0.7818608E-02  0.1130116E+00
         25   -1    0    0    0    0  0.00000000000E+00  0.00000000000E+00  0.99999998245E-14  0.12500000000E+03  0.12500000000E+03 0.  0.
        -13    1    3    3    0    0 -0.14493260496E+02  0.22185890063E+02  0.25254913935E+02  0.36607241901E+02  0.10566000000E+00 0. -1.
         23    2    1    0    0    0 -0.77085890623E-01 -0.64494705168E+01 -0.26631144386E+02  0.97598914921E+02  0.93673522035E+02 0.  0.
         13    1    3    3    0    0  0.14416174606E+02 -0.28635360580E+02 -0.51886058320E+02  0.60991673021E+02  0.10566000000E+00 0.  1.
         22    1    1    0    0    0  0.77085890623E-01  0.64494705168E+01  0.26631144386E+02  0.27401085079E+02  0.00000000000E+00 0.  1.
</event>
<event>
 5    1  0.1709463E-003  0.9118800E+02  0.7818608E-02  0.1130116E+00
         25   -1    0    0    0    0  0.00000000000E+00  0.00000000000E+00  0.99999998245E-14  0.12500000000E+03  0.12500000000E+03 0.  0.
        -13    1    3    3    0    0  0.52390281221E+02  0.90474583438E+01  0.11062303069E+02  0.54304546606E+02  0.10566000000E+00 0.  1.
         23    2    1    0    0    0  0.11781620607E+02  0.20457588648E+02 -0.72714021654E+01  0.10029791898E+03  0.97208434532E+02 0.  0.
         13    1    3    3    0    0 -0.40608660614E+02  0.11410130304E+02 -0.18333705234E+02  0.45993372371E+02  0.10566000000E+00 0. -1.
         22    1    1    0    0    0 -0.11781620607E+02 -0.20457588648E+02  0.72714021654E+01  0.24702081023E+02  0.00000000000E+00 0. -1.
</event>
<event>
 5    1  0.1709463E-003  0.9118800E+02  0.7818608E-02  0.1130116E+00
         25   -1    0    0    0    0  0.00000000000E+00  0.00000000000E+00  0.99999998245E-14  0.12500000000E+03  0.12500000000E+03 0.  0.
        -13    1    3    3    0    0  0.31640551681E+02 -0.37460791831E+01  0.16074167563E+02  0.35686799335E+02  0.10566000000E+00 0. -1.
         23    2    1    0    0    0 -0.27074874455E+02 -0.96000031762E+01  0.74770411296E+01  0.95316418145E+02  0.90576512056E+02 0.  0.
         13    1    3    3    0    0 -0.58715426135E+02 -0.58539239931E+01 -0.85971264336E+01  0.59629618809E+02  0.10566000000E+00 0.  1.
         22    1    1    0    0    0  0.27074874455E+02  0.96000031762E+01 -0.74770411296E+01  0.29683581855E+02  0.00000000000E+00 0.  1.
</event>
<event>
 5    1  0.1709463E-003  0.9118800E+02  0.7818608E-02  0.1130116E+00
         25   -1    0    0    0    0  0.00000000000E+00  0.00000000000E+00  0.99999998245E-14  0.12500000000E+03  0.12500000000E+03 0.  0.
        -13    1    3    3    0    0  0.11135759226E+02  0.55833572910E+01 -0.37131867431E+02  0.39165874880E+02  0.10566000000E+00 0. -1.
         23    2    1    0    0    0 -0.18386554819E+02 -0.22388202773E+02  0.24612346453E+01  0.95925015951E+02  0.91412548305E+02 0.  0.
         13    1    3    3    0    0 -0.29522314045E+02 -0.27971560064E+02  0.39593102076E+02  0.56759141070E+02  0.10566000000E+00 0.  1.
         22    1    1    0    0    0  0.18386554819E+02  0.22388202773E+02 -0.24612346453E+01  0.29074984049E+02  0.00000000000E+00 0.  1.
</event>
<event>
 5    1  0.1709463E-003  0.9118800E+02  0.7818608E-02  0.1130116E+00
         25   -1    0    0    0    0  0.00000000000E+00  0.00000000000E+00  0.99999998245E-14  0.12500000000E+03  0.12500000000E+03 0.  0.
        -13    1    3    3    0    0 -0.46841219253E+02  0.22855042830E+02 -0.28369946640E+02  0.59340692954E+02  0.10566000000E+00 0.  1.
         23    2    1    0    0    0 -0.15467378147E+02  0.37982759054E+01 -0.23842726331E+02  0.96326976345E+02  0.91960557232E+02 0.  0.
         13    1    3    3    0    0  0.31373841106E+02 -0.19056766924E+02  0.45272203091E+01  0.36986283391E+02  0.10566000000E+00 0. -1.
         22    1    1    0    0    0  0.15467378147E+02 -0.37982759054E+01  0.23842726331E+02  0.28673023655E+02  0.00000000000E+00 0.  1.
</event>
<event>
 5    1  0.1709463E-003  0.9118800E+02  0.7818608E-02  0.1130116E+00
         25   -1    0    0    0    0  0.00000000000E+00  0.00000000000E+00  0.99999998245E-14  0.12500000000E+03  0.12500000000E+03 0.  0.
        -13    1    3    3    0    0 -0.27764406425E+02  0.83409879070E+01  0.12374133310E+02  0.31520861070E+02  0.10566000000E+00 0.  1.
         23    2    1    0    0    0  0.25226300903E+02 -0.95380407560E+01 -0.15378782955E+02  0.93954107456E+02  0.88676529386E+02 0.  0.
         13    1    3    3    0    0  0.52990707327E+02 -0.17879028663E+02 -0.27752916265E+02  0.62433246386E+02  0.10566000000E+00 0. -1.
         22    1    1    0    0    0 -0.25226300903E+02  0.95380407560E+01  0.15378782955E+02  0.31045892544E+02  0.00000000000E+00 0. -1.
</event>
<event>
 5    1  0.1709463E-003  0.9118800E+02  0.7818608E-02  0.1130116E+00
         25   -1    0    0    0    0  0.00000000000E+00  0.00000000000E+00  0.99999998245E-14  0.12500000000E+03  0.12500000000E+03 0.  0.
        -13    1    3    3    0    0  0.23338735182E+02 -0.19238779213E+02  0.21926853479E+02  0.37358068112E+02  0.10566000000E+00 0.  1.
         23    2    1    0    0    0 -0.25545139904E+02 -0.14097933111E+02 -0.77956864617E+01  0.94799360634E+02  0.89860114392E+02 0.  0.
         13    1    3    3    0    0 -0.48883875086E+02  0.51408461024E+01 -0.29722539941E+02  0.57441292522E+02  0.10566000000E+00 0. -1.
         22    1    1    0    0    0  0.25545139904E+02  0.14097933111E+02  0.77956864617E+01  0.30200639366E+02  0.00000000000E+00 0. -1.
</event>
<event>
 5    1  0.1709463E-003  0.9118800E+02  0.7818608E-02  0.1130116E+00
         25   -1    0    0    0    0  0.00000000000E+00  0.00000000000E+00  0.99999998245E-14  0.12500000000E+03  0.12500000000E+03 0.  0.
        -13    1    3    3    0    0  0.95746182503E+01 -0.25502649122E+02 -0.29352586310E+02  0.40045523020E+02  0.10566000000E+00 0. -1.
         23    2    1    0    0    0 -0.60250113713E+00 -0.22401880387E+02  0.22657082443E+02  0.93132294759E+02  0.87510420464E+02 0.  0.
         13    1    3    3    0    0 -0.10177119387E+02  0.31007687350E+01  0.52009668753E+02  0.53086771739E+02  0.10566000000E+00 0.  1.
         22    1    1    0    0    0  0.60250113713E+00  0.22401880387E+02 -0.22657082443E+02  0.31867705241E+02  0.00000000000E+00 0. -1.
</event>
<event>
 5    1  0.1709463E-003  0.9118800E+02  0.7818608E-02  0.1130116E+00
         25   -1    0    0    0    0  0.00000000000E+00  0.00000000000E+00  0.99999998245E-14  0.12500000000E+03  0.12500000000E+03 0.  0.
        -13    1    3    3    0    0  0.14209201266E+02 -0.93844218908E+00 -0.34962912492E+02  0.37751801127E+02  0.10566000000E+00 0.  1.
         23    2    1    0    0    0 -0.18249678571E+02  0.10034093591E+02  0.15703981344E+02  0.98916502685E+02  0.95415542085E+02 0.  0.
         13    1    3    3    0    0 -0.32458879837E+02  0.10972535780E+02  0.50666893836E+02  0.61164701558E+02  0.10566000000E+00 0. -1.
         22    1    1    0    0    0  0.18249678571E+02 -0.10034093591E+02 -0.15703981344E+02  0.26083497315E+02  0.00000000000E+00 0. -1.
</event>
<event>
 5    1  0.1709463E-003  0.9118800E+02  0.7818608E-02  0.1130116E+00
         25   -1    0    0    0    0  0.00000000000E+00  0.00000000000E+00  0.99999998245E-14  0.12500000000E+03  0.12500000000E+03 0.  0.
        -13    1    3    3    0    0 -0.18998030739E+02  0.12299680016E+02 -0.28339009941E+02  0.36267312403E+02  0.10566000000E+00 0.  1.
         23    2    1    0    0    0  0.35061438778E+01  0.66054715427E+01  0.27373918869E+02  0.96622954110E+02  0.92361997204E+02 0.  0.
         13    1    3    3    0    0  0.22504174617E+02 -0.56942084735E+01  0.55712928809E+02  0.60355641707E+02  0.10566000000E+00 0. -1.
         22    1    1    0    0    0 -0.35061438778E+01 -0.66054715427E+01 -0.27373918869E+02  0.28377045890E+02  0.00000000000E+00 0. -1.
</event>
<event>
 5    1  0.1709463E-003  0.9118800E+02  0.7818608E-02  0.1130116E+00
         25   -1    0    0    0    0  0.00000000000E+00  0.00000000000E+00  0.99999998245E-14  0.12500000000E+03  0.12500000000E+03 0.  0.
        -13    1    3    3    0    0 -0.35774103515E+02 -0.28882008812E+02  0.33935978595E+02  0.57145592329E+02  0.10566000000E+00 0. -1.
         23    2    1    0    0    0 -0.14927325522E+02 -0.25186066174E+02  0.17505984917E+01  0.95670363596E+02  0.91063663988E+02 0.  0.
         13    1    3    3    0    0  0.20846777994E+02  0.36959426384E+01 -0.32185380104E+02  0.38524771267E+02  0.10566000000E+00 0.  1.
         22    1    1    0    0    0  0.14927325522E+02  0.25186066174E+02 -0.17505984917E+01  0.29329636404E+02  0.00000000000E+00 0. -1.
</event>
<event>
 5    1  0.1709463E-003  0.9118800E+02  0.7818608E-02  0.1130116E+00
         25   -1    0    0    0    0  0.00000000000E+00  0.00000000000E+00  0.99999998245E-14  0.12500000000E+03  0.12500000000E+03 0.  0.
        -13    1    3    3    0    0  0.26590155262E+02 -0.17902771312E+00 -0.29568327524E+02  0.39766387369E+02  0.10566000000E+00 0.  1.
         23    2    1    0    0    0 -0.57347751159E+01 -0.30481285200E+02  0.16068919689E+01  0.93942335973E+02  0.88659934543E+02 0.  0.
         13    1    3    3    0    0 -0.32324930377E+02 -0.30302257486E+02  0.31175219493E+02  0.54175948604E+02  0.10566000000E+00 0. -1.
         22    1    1    0    0    0  0.57347751159E+01  0.30481285200E+02 -0.16068919689E+01  0.31057664027E+02  0.00000000000E+00 0. -1.
</event>
<event>
 5    1  0.1709463E-003  0.9118800E+02  0.7818608E-02  0.1130116E+00
         25   -1    0    0    0    0  0.00000000000E+00  0.00000000000E+00  0.99999998245E-14  0.12500000000E+03  0.12500000000E+03 0.  0.
        -13    1    3    3    0    0  0.41929991310E+02  0.99670916615E+01 -0.15723941124E+02  0.45877233744E+02  0.10566000000E+00 0. -1.
         23    2    1    0    0    0  0.59806562430E+01  0.64009769029E+01  0.23928341937E+02  0.99518510596E+02  0.96200975301E+02 0.  0.
         13    1    3    3    0    0 -0.35949335067E+02 -0.35661147586E+01  0.39652283061E+02  0.53641276852E+02  0.10566000000E+00 0.  1.
         22    1    1    0    0    0 -0.59806562430E+01 -0.64009769029E+01 -0.23928341937E+02  0.25481489404E+02  0.00000000000E+00 0.  1.
</event>
<event>
 5    1  0.1709463E-003  0.9118800E+02  0.7818608E-02  0.1130116E+00
         25   -1    0    0    0    0  0.00000000000E+00  0.00000000000E+00  0.99999998245E-14  0.12500000000E+03  0.12500000000E+03 0.  0.
        -13    1    3    3    0    0 -0.39048542492E+02  0.34394932413E+01 -0.15708415831E+02  0.42230134696E+02  0.10566000000E+00 0.  1.
         23    2    1    0    0    0  0.12788772396E+02  0.11736572600E+02 -0.24002705183E+02  0.95378560266E+02  0.90662230651E+02 0.  0.
         13    1    3    3    0    0  0.51837314888E+02  0.82970793586E+01 -0.82942893524E+01  0.53148425570E+02  0.10566000000E+00 0. -1.
         22    1    1    0    0    0 -0.12788772396E+02 -0.11736572600E+02  0.24002705183E+02  0.29621439734E+02  0.00000000000E+00 0. -1.
</event>
<event>
 5    1  0.1709463E-003  0.9118800E+02  0.7818608E-02  0.1130116E+00
         25   -1    0    0    0    0  0.00000000000E+00  0.00000000000E+00  0.99999998245E-14  0.12500000000E+03  0.12500000000E+03 0.  0.
        -13    1    3    3    0    0  0.20658798111E+02 -0.41342247053E+02  0.22283562800E+02  0.51308241696E+02  0.10566000000E+00 0.  1.
         23    2    1    0    0    0  0.19381260840E+02  0.12602517704E+01  0.24196246892E+02  0.93972917154E+02  0.88703039906E+02 0.  0.
         13    1    3    3    0    0 -0.12775372710E+01  0.42602498823E+02  0.19126840914E+01  0.42664675458E+02  0.10566000000E+00 0. -1.
         22    1    1    0    0    0 -0.19381260840E+02 -0.12602517704E+01 -0.24196246892E+02  0.31027082846E+02  0.00000000000E+00 0.  1.
</event>
<event>
 5    1  0.1709463E-003  0.9118800E+02  0.7818608E-02  0.1130116E+00
         25   -1    0    0    0    0  0.00000000000E+00  0.00000000000E+00  0.99999998245E-14  0.12500000000E+03  0.12500000000E+03 0.  0.
        -13    1    3    3    0    0 -0.24773108873E+02 -0.27805958578E+02 -0.60060829761E+01  0.37722174545E+02  0.10566000000E+00 0. -1.
         23    2    1    0    0    0 -0.35049792817E+01  0.14824311912E+02  0.25823789314E+02  0.95018118838E+02  0.90163904694E+02 0.  0.
         13    1    3    3    0    0  0.21268129592E+02  0.42630270490E+02  0.31829872290E+02  0.57295944293E+02  0.10566000000E+00 0.  1.
         22    1    1    0    0    0  0.35049792817E+01 -0.14824311912E+02 -0.25823789314E+02  0.29981881162E+02  0.00000000000E+00 0. -1.
</event>
<event>
 5    1  0.1709463E-003  0.9118800E+02  0.7818608E-02  0.1130116E+00
         25   -1    0    0    0    0  0.00000000000E+00  0.00000000000E+00  0.99999998245E-14  0.12500000000E+03  0.12500000000E+03 0.  0.
        -13    1    3    3    0    0  0.21753889962E+02 -0.36734915561E+02 -0.24436981286E+02  0.49192102701E+02  0.10566000000E+00 0.  1.
         23    2    1    0    0    0  0.27167958433E+02  0.18848917276E+01  0.40242253238E+01  0.97471012156E+02  0.93502690010E+02 0.  0.
         13    1    3    3    0    0  0.54140684707E+01  0.38619807289E+02  0.28461206610E+02  0.48278909455E+02  0.10566000000E+00 0. -1.
         22    1    1    0    0    0 -0.27167958433E+02 -0.18848917276E+01 -0.40242253238E+01  0.27528987844E+02  0.00000000000E+00 0. -1.
</event>
<event>
 5    1  0.1709463E-003  0.9118800E+02  0.7818608E-02  0.1130116E+00
         25   -1    0    0    0    0  0.00000000000E+00  0.00000000000E+00  0.99999998245E-14  0.12500000000E+03  0.12500000000E+03 0.  0.
        -13    1    3    3    0    0 -0.93476306085E+00  0.36608587917E+02  0.21920620017E+01  0.36686220725E+02  0.10566000000E+00 0. -1.
         23    2    1    0    0    0  0.14916181859E+00 -0.17833661089E+02  0.23791040047E+02  0.95266596165E+02  0.90507729179E+02 0.  0.
         13    1    3    3    0    0  0.10839248794E+01 -0.54442249006E+02  0.21598978046E+02  0.58580375439E+02  0.10566000000E+00 0.  1.
         22    1    1    0    0    0 -0.14916181859E+00  0.17833661089E+02 -0.23791040047E+02  0.29733403835E+02  0.00000000000E+00 0. -1.
</event>
<event>
 5    1  0.1709463E-003  0.9118800E+02  0.7818608E-02  0.1130116E+00
         25   -1    0    0    0    0  0.00000000000E+00  0.00000000000E+00  0.99999998245E-14  0.12500000000E+03  0.12500000000E+03 0.  0.
        -13    1    3    3    0    0 -0.51037058275E+02  0.11118626468E+02  0.15800714374E+02  0.54571777602E+02  0.10566000000E+00 0.  1.
         23    2    1    0    0    0 -0.16643863278E+02  0.22957881654E+02 -0.45949935900E+01  0.96273766677E+02  0.91888202013E+02 0.  0.
         13    1    3    3    0    0  0.34393194997E+02  0.11839255186E+02 -0.20395707964E+02  0.41701989075E+02  0.10566000000E+00 0. -1.
         22    1    1    0    0    0  0.16643863278E+02 -0.22957881654E+02  0.45949935900E+01  0.28726233323E+02  0.00000000000E+00 0.  1.
</event>
<event>
 5    1  0.1709463E-003  0.9118800E+02  0.7818608E-02  0.1130116E+00
         25   -1    0    0    0    0  0.00000000000E+00  0.00000000000E+00  0.99999998245E-14  0.12500000000E+03  0.12500000000E+03 0.  0.
        -13    1    3    3    0    0 -0.23128974756E+02 -0.27279613540E+02  0.29294990107E+02  0.46231314037E+02  0.10566000000E+00 0.  1.
         23    2    1    0    0    0  0.76018991328E+01  0.10613645751E+02  0.26924689548E+02  0.95077144959E+02  0.90245699286E+02 0.  0.
         13    1    3    3    0    0  0.30730873889E+02  0.37893259291E+02 -0.23703005585E+01  0.48845830922E+02  0.10566000000E+00 0. -1.
         22    1    1    0    0    0 -0.76018991328E+01 -0.10613645751E+02 -0.26924689548E+02  0.29922855041E+02  0.00000000000E+00 0.  1.
</event>
<event>
 5    1  0.1709463E-003  0.9118800E+02  0.7818608E-02  0.1130116E+00
         25   -1    0    0    0    0  0.00000000000E+00  0.00000000000E+00  0.99999998245E-14  0.12500000000E+03  0.12500000000E+03 0.  0.
        -13    1    3    3    0    0  0.20738701864E+02  0.96631189594E+01  0.24071827912E+02  0.33210445436E+02  0.10566000000E+00 0. -1.
         23    2    1    0    0    0 -0.86821256974E+01 -0.82193349376E+01 -0.27382614637E+02  0.95121172082E+02  0.90306660997E+02 0.  0.
         13    1    3    3    0    0 -0.29420827561E+02 -0.17882453897E+02 -0.51454442548E+02  0.61910726645E+02  0.10566000000E+00 0.  1.
         22    1    1    0    0    0  0.86821256974E+01  0.82193349376E+01  0.27382614637E+02  0.29878827918E+02  0.00000000000E+00 0.  1.
</event>
<event>
 5    1  0.1709463E-003  0.9118800E+02  0.7818608E-02  0.1130116E+00
         25   -1    0    0    0    0  0.00000000000E+00  0.00000000000E+00  0.99999998245E-14  0.12500000000E+03  0.12500000000E+03 0.  0.
        -13    1    3    3    0    0  0.22602130846E+02  0.13452120358E+01 -0.52088412434E+02  0.56796829032E+02  0.10566000000E+00 0.  1.
         23    2    1    0    0    0  0.21063169130E+01 -0.16387535087E+02 -0.15372766522E+02  0.10243210626E+03  0.99915096787E+02 0.  0.
         13    1    3    3    0    0 -0.20495813933E+02 -0.17732747123E+02  0.36715645912E+02  0.45635277232E+02  0.10566000000E+00 0. -1.
         22    1    1    0    0    0 -0.21063169130E+01  0.16387535087E+02  0.15372766522E+02  0.22567893736E+02  0.00000000000E+00 0.  1.
</event>
<event>
 5    1  0.1709463E-003  0.9118800E+02  0.7818608E-02  0.1130116E+00
         25   -1    0    0    0    0  0.00000000000E+00  0.00000000000E+00  0.99999998245E-14  0.12500000000E+03  0.12500000000E+03 0.  0.
        -13    1    3    3    0    0  0.84728335986E+01  0.58292236764E+02 -0.20299829900E+02  0.62304638946E+02  0.10566000000E+00 0. -1.
         23    2    1    0    0    0  0.72914988494E+01  0.28455292648E+02 -0.84107185401E+01  0.94444970602E+02  0.89365780087E+02 0.  0.
         13    1    3    3    0    0 -0.11813347491E+01 -0.29836944117E+02  0.11889111360E+02  0.32140331656E+02  0.10566000000E+00 0.  1.
         22    1    1    0    0    0 -0.72914988494E+01 -0.28455292648E+02  0.84107185401E+01  0.30555029398E+02  0.00000000000E+00 0. -1.
</event>
<event>
 5    1  0.1709463E-003  0.9118800E+02  0.7818608E-02  0.1130116E+00
         25   -1    0    0    0    0  0.00000000000E+00  0.00000000000E+00  0.99999998245E-14  0.12500000000E+03  0.12500000000E+03 0.  0.
        -13    1    3    3    0    0  0.33438078659E+02 -0.11701684694E+02 -0.24564951336E+02  0.43110120938E+02  0.10566000000E+00 0.  1.
         23    2    1    0    0    0 -0.16265890824E+02 -0.19904088574E+02 -0.17318854417E+02  0.94004925156E+02  0.88748134003E+02 0.  0.
         13    1    3    3    0    0 -0.49703969483E+02 -0.82024038806E+01  0.72460969188E+01  0.50894804218E+02  0.10566000000E+00 0. -1.
         22    1    1    0    0    0  0.16265890824E+02  0.19904088574E+02  0.17318854417E+02  0.30995074844E+02  0.00000000000E+00 0. -1.
</event>
<event>
 5    1  0.1709463E-003  0.9118800E+02  0.7818608E-02  0.1130116E+00
         25   -1    0    0    0    0  0.00000000000E+00  0.00000000000E+00  0.99999998245E-14  0.12500000000E+03  0.12500000000E+03 0.  0.
        -13    1    3    3    0    0 -0.90501047944E+01  0.56386755073E+01  0.56733720862E+02  0.57727162628E+02  0.10566000000E+00 0. -1.
         23    2    1    0    0    0  0.12608557646E+02  0.29831995662E+01  0.30578957325E+02  0.91789341520E+02  0.85570645551E+02 0.  0.
         13    1    3    3    0    0  0.21658662440E+02 -0.26554759411E+01 -0.26154763537E+02  0.34062178892E+02  0.10566000000E+00 0.  1.
         22    1    1    0    0    0 -0.12608557646E+02 -0.29831995662E+01 -0.30578957325E+02  0.33210658480E+02  0.00000000000E+00 0. -1.
</event>
<event>
 5    1  0.1709463E-003  0.9118800E+02  0.7818608E-02  0.1130116E+00
         25   -1    0    0    0    0  0.00000000000E+00  0.00000000000E+00  0.99999998245E-14  0.12500000000E+03  0.12500000000E+03 0.  0.
        -13    1    3    3    0    0 -0.25044128031E+02 -0.27823455100E+01 -0.30602264733E+02  0.39641639298E+02  0.10566000000E+00 0. -1.
         23    2    1    0    0    0  0.33059136000E+00  0.28143366737E+02  0.85178262279E+01  0.95594018541E+02  0.90958807354E+02 0.  0.
         13    1    3    3    0    0  0.25374719391E+02  0.30925712247E+02  0.39120090961E+02  0.55952379243E+02  0.10566000000E+00 0.  1.
         22    1    1    0    0    0 -0.33059136000E+00 -0.28143366737E+02 -0.85178262279E+01  0.29405981459E+02  0.00000000000E+00 0.  1.
</event>
<event>
 5    1  0.1709463E-003  0.9118800E+02  0.7818608E-02  0.1130116E+00
         25   -1    0    0    0    0  0.00000000000E+00  0.00000000000E+00  0.99999998245E-14  0.12500000000E+03  0.12500000000E+03 0.  0.
        -13    1    3    3    0    0 -0.19419300899E+02  0.47090204894E+02  0.34877918693E+02  0.61733921152E+02  0.10566000000E+00 0.  1.
         23    2    1    0    0    0 -0.26044860908E+01  0.24363501604E+02  0.15567321881E+02  0.95970617148E+02  0.91474883367E+02 0.  0.
         13    1    3    3    0    0  0.16814814809E+02 -0.22726703291E+02 -0.19310596811E+02  0.34236695996E+02  0.10566000000E+00 0. -1.
         22    1    1    0    0    0  0.26044860908E+01 -0.24363501604E+02 -0.15567321881E+02  0.29029382852E+02  0.00000000000E+00 0.  1.
</event>
<event>
 5    1  0.1709463E-003  0.9118800E+02  0.7818608E-02  0.1130116E+00
         25   -1    0    0    0    0  0.00000000000E+00  0.00000000000E+00  0.99999998245E-14  0.12500000000E+03  0.12500000000E+03 0.  0.
        -13    1    3    3    0    0  0.44124985470E+02  0.24002442337E+02 -0.80597541103E-01  0.50230958989E+02  0.10566000000E+00 0.  1.
         23    2    1    0    0    0 -0.25200010160E+01  0.26375485656E+02 -0.73621285190E+01  0.97500589369E+02  0.93542222244E+02 0.  0.
         13    1    3    3    0    0 -0.46644986486E+02  0.23730433184E+01 -0.72815309779E+01  0.47269630381E+02  0.10566000000E+00 0. -1.
         22    1    1    0    0    0  0.25200010160E+01 -0.26375485656E+02  0.73621285190E+01  0.27499410631E+02  0.00000000000E+00 0.  1.
</event>
<event>
 5    1  0.1709463E-003  0.9118800E+02  0.7818608E-02  0.1130116E+00
         25   -1    0    0    0    0  0.00000000000E+00  0.00000000000E+00  0.99999998245E-14  0.12500000000E+03  0.12500000000E+03 0.  0.
        -13    1    3    3    0    0 -0.48303973887E+01 -0.32879261399E+02  0.19732695240E+02  0.38649307814E+02  0.10566000000E+00 0.  1.
         23    2    1    0    0    0  0.18414574887E+02 -0.32086041972E+01 -0.22824539150E+02  0.95498283159E+02  0.90827147868E+02 0.  0.
         13    1    3    3    0    0  0.23244972276E+02  0.29670657201E+02 -0.42557234389E+02  0.56848975345E+02  0.10566000000E+00 0. -1.
         22    1    1    0    0    0 -0.18414574887E+02  0.32086041972E+01  0.22824539150E+02  0.29501716841E+02  0.00000000000E+00 0. -1.
</event>
<event>
 5    1  0.1709463E-003  0.9118800E+02  0.7818608E-02  0.1130116E+00
         25   -1    0    0    0    0  0.00000000000E+00  0.00000000000E+00  0.99999998245E-14  0.12500000000E+03  0.12500000000E+03 0.  0.
        -13    1    3    3    0    0  0.49053662086E+02  0.48282346196E+01  0.37995484288E+02  0.62235372610E+02  0.10566000000E+00 0.  1.
         23    2    1    0    0    0  0.25930121951E+02  0.48876197502E+01  0.16048614808E+02  0.94116054519E+02  0.88904519738E+02 0.  0.
         13    1    3    3    0    0 -0.23123540135E+02  0.59385130531E-01 -0.21946869480E+02  0.31880681909E+02  0.10566000000E+00 0. -1.
         22    1    1    0    0    0 -0.25930121951E+02 -0.48876197502E+01 -0.16048614808E+02  0.30883945481E+02  0.00000000000E+00 0.  1.
</event>
<event>
 5    1  0.1709463E-003  0.9118800E+02  0.7818608E-02  0.1130116E+00
         25   -1    0    0    0    0  0.00000000000E+00  0.00000000000E+00  0.99999998245E-14  0.12500000000E+03  0.12500000000E+03 0.  0.
        -13    1    3    3    0    0  0.47324217258E+02  0.93056547875E+01  0.32866103608E+02  0.58364104383E+02  0.10566000000E+00 0.  1.
         23    2    1    0    0    0  0.15578247002E+02  0.19050432926E+02  0.16369129441E+02  0.95444134711E+02  0.90752595984E+02 0.  0.
         13    1    3    3    0    0 -0.31745970256E+02  0.97447781382E+01 -0.16496974166E+02  0.37080030328E+02  0.10566000000E+00 0. -1.
         22    1    1    0    0    0 -0.15578247002E+02 -0.19050432926E+02 -0.16369129441E+02  0.29555865289E+02  0.00000000000E+00 0. -1.
</event>
<event>
 5    1  0.1709463E-003  0.9118800E+02  0.7818608E-02  0.1130116E+00
         25   -1    0    0    0    0  0.00000000000E+00  0.00000000000E+00  0.99999998245E-14  0.12500000000E+03  0.12500000000E+03 0.  0.
        -13    1    3    3    0    0 -0.23546687560E+02 -0.34137570214E+02 -0.42103923230E+02  0.59097983981E+02  0.10566000000E+00 0. -1.
         23    2    1    0    0    0 -0.32872880782E+01 -0.27120238024E+02 -0.14434181398E+02  0.94102440776E+02  0.88885376716E+02 0.  0.
         13    1    3    3    0    0  0.20259399482E+02  0.70173321904E+01  0.27669741832E+02  0.35004456795E+02  0.10566000000E+00 0.  1.
         22    1    1    0    0    0  0.32872880782E+01  0.27120238024E+02  0.14434181398E+02  0.30897559224E+02  0.00000000000E+00 0. -1.
</event>
<event>
 5    1  0.1709463E-003  0.9118800E+02  0.7818608E-02  0.1130116E+00
         25   -1    0    0    0    0  0.00000000000E+00  0.00000000000E+00  0.99999998245E-14  0.12500000000E+03  0.12500000000E+03 0.  0.
        -13    1    3    3    0    0  0.30207548330E+02 -0.13519751319E+02 -0.11020140733E+02  0.34881718960E+02  0.10566000000E+00 0. -1.
         23    2    1    0    0    0 -0.11242572484E+02  0.18277832506E+02  0.20022683139E+02  0.95650682508E+02  0.91036644418E+02 0.  0.
         13    1    3    3    0    0 -0.41450120814E+02  0.31797583825E+02  0.31042823872E+02  0.60768963547E+02  0.10566000000E+00 0.  1.
         22    1    1    0    0    0  0.11242572484E+02 -0.18277832506E+02 -0.20022683139E+02  0.29349317492E+02  0.00000000000E+00 0.  1.
</event>
<event>
 5    1  0.1709463E-003  0.9118800E+02  0.7818608E-02  0.1130116E+00
         25   -1    0    0    0    0  0.00000000000E+00  0.00000000000E+00  0.99999998245E-14  0.12500000000E+03  0.12500000000E+03 0.  0.
        -13    1    3    3    0    0  0.39870980136E+02  0.26450256730E+02  0.19016964103E+02  0.51487544375E+02  0.10566000000E+00 0. -1.
         23    2    1    0    0    0  0.20168694932E+02 -0.12221165333E+02  0.18721374084E+02  0.94889819247E+02  0.89985858955E+02 0.  0.
         13    1    3    3    0    0 -0.19702285203E+02 -0.38671422063E+02 -0.29559001853E+00  0.43402274872E+02  0.10566000000E+00 0.  1.
         22    1    1    0    0    0 -0.20168694932E+02  0.12221165333E+02 -0.18721374084E+02  0.30110180753E+02  0.00000000000E+00 0.  1.
</event>
<event>
 5    1  0.1709463E-003  0.9118800E+02  0.7818608E-02  0.1130116E+00
         25   -1    0    0    0    0  0.00000000000E+00  0.00000000000E+00  0.99999998245E-14  0.12500000000E+03  0.12500000000E+03 0.  0.
        -13    1    3    3    0    0  0.16290981404E+02  0.17052322266E+02 -0.28211999113E+02  0.36770991661E+02  0.10566000000E+00 0. -1.
         23    2    1    0    0    0 -0.71447791855E+01  0.20396058245E+01  0.26134535390E+02  0.97829762578E+02  0.93981065351E+02 0.  0.
         13    1    3    3    0    0 -0.23435760589E+02 -0.15012716442E+02  0.54346534503E+02  0.61058770917E+02  0.10566000000E+00 0.  1.
         22    1    1    0    0    0  0.71447791855E+01 -0.20396058245E+01 -0.26134535390E+02  0.27170237422E+02  0.00000000000E+00 0.  1.
</event>
<event>
 5    1  0.1709463E-003  0.9118800E+02  0.7818608E-02  0.1130116E+00
         25   -1    0    0    0    0  0.00000000000E+00  0.00000000000E+00  0.99999998245E-14  0.12500000000E+03  0.12500000000E+03 0.  0.
        -13    1    3    3    0    0 -0.21075499018E+02 -0.27112647272E+01 -0.35964395837E+02  0.41772916432E+02  0.10566000000E+00 0. -1.
         23    2    1    0    0    0  0.26356453739E+02  0.42916709466E+01 -0.87767803171E+01  0.96891051852E+02  0.92724122876E+02 0.  0.
         13    1    3    3    0    0  0.47431952758E+02  0.70029356738E+01  0.27187615520E+02  0.55118135420E+02  0.10566000000E+00 0.  1.
         22    1    1    0    0    0 -0.26356453739E+02 -0.42916709466E+01  0.87767803171E+01  0.28108948148E+02  0.00000000000E+00 0.  1.
</event>
<event>
 5    1  0.1709463E-003  0.9118800E+02  0.7818608E-02  0.1130116E+00
         25   -1    0    0    0    0  0.00000000000E+00  0.00000000000E+00  0.99999998245E-14  0.12500000000E+03  0.12500000000E+03 0.  0.
        -13    1    3    3    0    0  0.28956690175E+02 -0.21979528677E+02  0.27295725081E+01  0.36456156090E+02  0.10566000000E+00 0.  1.
         23    2    1    0    0    0 -0.21460954086E+02  0.86320718014E+01 -0.14245534953E+02  0.97833467649E+02  0.93985993170E+02 0.  0.
         13    1    3    3    0    0 -0.50417644262E+02  0.30611600479E+02 -0.16975107462E+02  0.61377311558E+02  0.10566000000E+00 0. -1.
         22    1    1    0    0    0  0.21460954086E+02 -0.86320718014E+01  0.14245534953E+02  0.27166532351E+02  0.00000000000E+00 0. -1.
</event>
<event>
 5    1  0.1709463E-003  0.9118800E+02  0.7818608E-02  0.1130116E+00
         25   -1    0    0    0    0  0.00000000000E+00  0.00000000000E+00  0.99999998245E-14  0.12500000000E+03  0.12500000000E+03 0.  0.
        -13    1    3    3    0    0  0.76468947252E+01  0.32267095520E+02 -0.27024587391E+01  0.33270931750E+02  0.10566000000E+00 0.  1.
         23    2    1    0    0    0 -0.17253400549E+01 -0.29229185986E+02  0.19779025692E+01  0.95653207837E+02  0.91040111814E+02 0.  0.
         13    1    3    3    0    0 -0.93722347800E+01 -0.61496281506E+02  0.46803613083E+01  0.62382276087E+02  0.10566000000E+00 0. -1.
         22    1    1    0    0    0  0.17253400549E+01  0.29229185986E+02 -0.19779025692E+01  0.29346792163E+02  0.00000000000E+00 0. -1.
</event>
<event>
 5    1  0.1709463E-003  0.9118800E+02  0.7818608E-02  0.1130116E+00
         25   -1    0    0    0    0  0.00000000000E+00  0.00000000000E+00  0.99999998245E-14  0.12500000000E+03  0.12500000000E+03 0.  0.
        -13    1    3    3    0    0 -0.12674137211E+02 -0.51618967305E+02 -0.94912184376E+01  0.53993017429E+02  0.10566000000E+00 0.  1.
         23    2    1    0    0    0  0.74005675514E+01 -0.14285890596E+02 -0.21590337478E+02  0.98074217883E+02  0.94305643896E+02 0.  0.
         13    1    3    3    0    0  0.20074704762E+02  0.37333076709E+02 -0.12099119041E+02  0.44081200454E+02  0.10566000000E+00 0. -1.
         22    1    1    0    0    0 -0.74005675514E+01  0.14285890596E+02  0.21590337478E+02  0.26925782117E+02  0.00000000000E+00 0.  1.
</event>
<event>
 5    1  0.1709463E-003  0.9118800E+02  0.7818608E-02  0.1130116E+00
         25   -1    0    0    0    0  0.00000000000E+00  0.00000000000E+00  0.99999998245E-14  0.12500000000E+03  0.12500000000E+03 0.  0.
        -13    1    3    3    0    0  0.55859462855E+02 -0.17265123730E+01  0.35603026517E+01  0.55999529948E+02  0.10566000000E+00 0.  1.
         23    2    1    0    0    0  0.22355210346E+02 -0.19348540738E+02 -0.55060177294E+01  0.94926129455E+02  0.90036283596E+02 0.  0.
         13    1    3    3    0    0 -0.33504252509E+02 -0.17622028365E+02 -0.90663203810E+01  0.38926599507E+02  0.10566000000E+00 0. -1.
         22    1    1    0    0    0 -0.22355210346E+02  0.19348540738E+02  0.55060177294E+01  0.30073870545E+02  0.00000000000E+00 0.  1.
</event>
<event>
 5    1  0.1709463E-003  0.9118800E+02  0.7818608E-02  0.1130116E+00
         25   -1    0    0    0    0  0.00000000000E+00  0.00000000000E+00  0.99999998245E-14  0.12500000000E+03  0.12500000000E+03 0.  0.
        -13    1    3    3    0    0  0.16942898236E+00  0.25141189112E+02 -0.22724515104E+02  0.33889863483E+02  0.10566000000E+00 0.  1.
         23    2    1    0    0    0 -0.13838067845E+02 -0.13143997239E+02  0.22975843155E+02  0.95131184259E+02  0.90320518514E+02 0.  0.
         13    1    3    3    0    0 -0.14007496828E+02 -0.38285186351E+02  0.45700358259E+02  0.61241320776E+02  0.10566000000E+00 0. -1.
         22    1    1    0    0    0  0.13838067845E+02  0.13143997239E+02 -0.22975843155E+02  0.29868815741E+02  0.00000000000E+00 0. -1.
</event>
<event>
 5    1  0.1709463E-003  0.9118800E+02  0.7818608E-02  0.1130116E+00
         25   -1    0    0    0    0  0.00000000000E+00  0.00000000000E+00  0.99999998245E-14  0.12500000000E+03  0.12500000000E+03 0.  0.
        -13    1    3    3    0    0 -0.26369821541E+02 -0.26287080182E+02  0.42336342312E+02  0.56380449776E+02  0.10566000000E+00 0. -1.
         23    2    1    0    0    0 -0.10286089850E+02 -0.23715006790E+02  0.29740139666E+01  0.98979816478E+02  0.95498450875E+02 0.  0.
         13    1    3    3    0    0  0.16083731690E+02  0.25720733921E+01 -0.39362328345E+02  0.42599366702E+02  0.10566000000E+00 0.  1.
         22    1    1    0    0    0  0.10286089850E+02  0.23715006790E+02 -0.29740139666E+01  0.26020183522E+02  0.00000000000E+00 0. -1.
</event>
<event>
 5    1  0.1709463E-003  0.9118800E+02  0.7818608E-02  0.1130116E+00
         25   -1    0    0    0    0  0.00000000000E+00  0.00000000000E+00  0.99999998245E-14  0.12500000000E+03  0.12500000000E+03 0.  0.
        -13    1    3    3    0    0  0.11841425544E+02 -0.30683438084E+02 -0.92940169600E+01  0.34177224096E+02  0.10566000000E+00 0. -1.
         23    2    1    0    0    0 -0.20315356016E+02  0.21060689033E+02 -0.55648074496E+01  0.95213536723E+02  0.90434419226E+02 0.  0.
         13    1    3    3    0    0 -0.32156781561E+02  0.51744127117E+02  0.37292095104E+01  0.61036312627E+02  0.10566000000E+00 0.  1.
         22    1    1    0    0    0  0.20315356016E+02 -0.21060689033E+02  0.55648074496E+01  0.29786463277E+02  0.00000000000E+00 0.  1.
</event>
<event>
 5    1  0.1709463E-003  0.9118800E+02  0.7818608E-02  0.1130116E+00
         25   -1    0    0    0    0  0.00000000000E+00  0.00000000000E+00  0.99999998245E-14  0.12500000000E+03  0.12500000000E+03 0.  0.
        -13    1    3    3    0    0 -0.66123611115E+01  0.50605461924E+02 -0.71981994404E+01  0.51540870532E+02  0.10566000000E+00 0.  1.
         23    2    1    0    0    0 -0.17248853463E+02  0.10344004209E+02 -0.21488423596E+02  0.95567471778E+02  0.90922318188E+02 0.  0.
         13    1    3    3    0    0 -0.10636492352E+02 -0.40261457715E+02 -0.14290224155E+02  0.44026601246E+02  0.10566000000E+00 0. -1.
         22    1    1    0    0    0  0.17248853463E+02 -0.10344004209E+02  0.21488423596E+02  0.29432528222E+02  0.00000000000E+00 0.  1.
</event>
<event>
 5    1  0.1709463E-003  0.9118800E+02  0.7818608E-02  0.1130116E+00
         25   -1    0    0    0    0  0.00000000000E+00  0.00000000000E+00  0.99999998245E-14  0.12500000000E+03  0.12500000000E+03 0.  0.
        -13    1    3    3    0    0  0.10004954418E+02 -0.55602548652E+02 -0.22368333501E+02  0.60762620394E+02  0.10566000000E+00 0.  1.
         23    2    1    0    0    0  0.10708011536E+02 -0.20974300474E+02 -0.17326485955E+02  0.95763209701E+02  0.91191021627E+02 0.  0.
         13    1    3    3    0    0  0.70305711735E+00  0.34628248178E+02  0.50418475463E+01  0.35000589307E+02  0.10566000000E+00 0. -1.
         22    1    1    0    0    0 -0.10708011536E+02  0.20974300474E+02  0.17326485955E+02  0.29236790299E+02  0.00000000000E+00 0.  1.
</event>
<event>
 5    1  0.1709463E-003  0.9118800E+02  0.7818608E-02  0.1130116E+00
         25   -1    0    0    0    0  0.00000000000E+00  0.00000000000E+00  0.99999998245E-14  0.12500000000E+03  0.12500000000E+03 0.  0.
        -13    1    3    3    0    0 -0.35139478533E+02  0.13057739986E+02 -0.12211466731E+02  0.39426115823E+02  0.10566000000E+00 0. -1.
         23    2    1    0    0    0  0.11130978514E+02 -0.80493683805E+01 -0.28941047568E+02  0.92964468971E+02  0.87270368641E+02 0.  0.
         13    1    3    3    0    0  0.46270457046E+02 -0.21107108367E+02 -0.16729580836E+02  0.53538353149E+02  0.10566000000E+00 0.  1.
         22    1    1    0    0    0 -0.11130978514E+02  0.80493683805E+01  0.28941047568E+02  0.32035531029E+02  0.00000000000E+00 0.  1.
</event>
<event>
 5    1  0.1709463E-003  0.9118800E+02  0.7818608E-02  0.1130116E+00
         25   -1    0    0    0    0  0.00000000000E+00  0.00000000000E+00  0.99999998245E-14  0.12500000000E+03  0.12500000000E+03 0.  0.
        -13    1    3    3    0    0 -0.17736284274E+02 -0.23556891660E+02 -0.32811020826E+02  0.44114364738E+02  0.10566000000E+00 0.  1.
         23    2    1    0    0    0  0.25629213278E+02 -0.12457373412E+02 -0.75216770310E+01  0.95527668044E+02  0.90867579537E+02 0.  0.
         13    1    3    3    0    0  0.43365497552E+02  0.11099518248E+02  0.25289343795E+02  0.51413303306E+02  0.10566000000E+00 0. -1.
         22    1    1    0    0    0 -0.25629213278E+02  0.12457373412E+02  0.75216770310E+01  0.29472331956E+02  0.00000000000E+00 0. -1.
</event>
<event>
 5    1  0.1709463E-003  0.9118800E+02  0.7818608E-02  0.1130116E+00
         25   -1    0    0    0    0  0.00000000000E+00  0.00000000000E+00  0.99999998245E-14  0.12500000000E+03  0.12500000000E+03 0.  0.
        -13    1    3    3    0    0 -0.19046613122E+02 -0.90902516574E+01 -0.48707580783E+02  0.53083384749E+02  0.10566000000E+00 0.  1.
         23    2    1    0    0    0  0.13705950063E+02  0.34982549582E+01 -0.27478954651E+02  0.94093951990E+02  0.88873438088E+02 0.  0.
         13    1    3    3    0    0  0.32752563185E+02  0.12588506616E+02  0.21228626132E+02  0.41010567242E+02  0.10566000000E+00 0. -1.
         22    1    1    0    0    0 -0.13705950063E+02 -0.34982549582E+01  0.27478954651E+02  0.30906048010E+02  0.00000000000E+00 0.  1.
</event>
<event>
 5    1  0.1709463E-003  0.9118800E+02  0.7818608E-02  0.1130116E+00
         25   -1    0    0    0    0  0.00000000000E+00  0.00000000000E+00  0.99999998245E-14  0.12500000000E+03  0.12500000000E+03 0.  0.
        -13    1    3    3    0    0 -0.28980388882E+02 -0.35246377712E+02 -0.11891254157E+02  0.47154884912E+02  0.10566000000E+00 0. -1.
         23    2    1    0    0    0 -0.20782159721E+02  0.27116815324E+00  0.20418291973E+02  0.95864483153E+02  0.91329736605E+02 0.  0.
         13    1    3    3    0    0  0.81982291605E+01  0.35517545865E+02  0.32309546130E+02  0.48709598241E+02  0.10566000000E+00 0.  1.
         22    1    1    0    0    0  0.20782159721E+02 -0.27116815324E+00 -0.20418291973E+02  0.29135516847E+02  0.00000000000E+00 0. -1.
</event>
<event>
 5    1  0.1709463E-003  0.9118800E+02  0.7818608E-02  0.1130116E+00
         25   -1    0    0    0    0  0.00000000000E+00  0.00000000000E+00  0.99999998245E-14  0.12500000000E+03  0.12500000000E+03 0.  0.
        -13    1    3    3    0    0 -0.79074955311E+01 -0.40698123987E+02 -0.38180843216E+02  0.56361810957E+02  0.10566000000E+00 0. -1.
         23    2    1    0    0    0  0.14964841187E+02 -0.11619791486E+02 -0.19517912564E+02  0.97798622520E+02  0.93939638226E+02 0.  0.
         13    1    3    3    0    0  0.22872336718E+02  0.29078332501E+02  0.18662930652E+02  0.41436811563E+02  0.10566000000E+00 0.  1.
         22    1    1    0    0    0 -0.14964841187E+02  0.11619791486E+02  0.19517912564E+02  0.27201377480E+02  0.00000000000E+00 0. -1.
</event>
<event>
 5    1  0.1709463E-003  0.9118800E+02  0.7818608E-02  0.1130116E+00
         25   -1    0    0    0    0  0.00000000000E+00  0.00000000000E+00  0.99999998245E-14  0.12500000000E+03  0.12500000000E+03 0.  0.
        -13    1    3    3    0    0 -0.16768761670E+02  0.12639080455E+02  0.26972304946E+02  0.34182658188E+02  0.10566000000E+00 0.  1.
         23    2    1    0    0    0 -0.20114616415E+01 -0.19751656665E+02 -0.22412810205E+02  0.95058256894E+02  0.90219533492E+02 0.  0.
         13    1    3    3    0    0  0.14757300028E+02 -0.32390737120E+02 -0.49385115151E+02  0.60875598706E+02  0.10566000000E+00 0. -1.
         22    1    1    0    0    0  0.20114616415E+01  0.19751656665E+02  0.22412810205E+02  0.29941743106E+02  0.00000000000E+00 0. -1.
</event>
<event>
 5    1  0.1709463E-003  0.9118800E+02  0.7818608E-02  0.1130116E+00
         25   -1    0    0    0    0  0.00000000000E+00  0.00000000000E+00  0.99999998245E-14  0.12500000000E+03  0.12500000000E+03 0.  0.
        -13    1    3    3    0    0  0.38325159668E+02  0.21188233177E+02 -0.27545127691E+02  0.51734942855E+02  0.10566000000E+00 0.  1.
         23    2    1    0    0    0  0.29135396268E+02  0.16153960458E+01  0.92290014425E+01  0.94395175418E+02  0.89296102123E+02 0.  0.
         13    1    3    3    0    0 -0.91897633993E+01 -0.19572837131E+02  0.36774129133E+02  0.42660232562E+02  0.10566000000E+00 0. -1.
         22    1    1    0    0    0 -0.29135396268E+02 -0.16153960458E+01 -0.92290014425E+01  0.30604824582E+02  0.00000000000E+00 0.  1.
</event>
<event>
 5    1  0.1709463E-003  0.9118800E+02  0.7818608E-02  0.1130116E+00
         25   -1    0    0    0    0  0.00000000000E+00  0.00000000000E+00  0.99999998245E-14  0.12500000000E+03  0.12500000000E+03 0.  0.
        -13    1    3    3    0    0 -0.46301670067E+02 -0.11911581674E+02 -0.36208178138E+01  0.47946344122E+02  0.10566000000E+00 0. -1.
         23    2    1    0    0    0 -0.13502778891E+02  0.20590879865E+02 -0.15853053444E+02  0.95714702069E+02  0.91124505581E+02 0.  0.
         13    1    3    3    0    0  0.32798891176E+02  0.32502461539E+02 -0.12232235630E+02  0.47768357948E+02  0.10566000000E+00 0.  1.
         22    1    1    0    0    0  0.13502778891E+02 -0.20590879865E+02  0.15853053444E+02  0.29285297931E+02  0.00000000000E+00 0.  1.
</event>
<event>
 5    1  0.1709463E-003  0.9118800E+02  0.7818608E-02  0.1130116E+00
         25   -1    0    0    0    0  0.00000000000E+00  0.00000000000E+00  0.99999998245E-14  0.12500000000E+03  0.12500000000E+03 0.  0.
        -13    1    3    3    0    0  0.33320667439E+02  0.20559257656E+02  0.14594135373E+02  0.41784565395E+02  0.10566000000E+00 0. -1.
         23    2    1    0    0    0  0.33878931567E+01  0.81259053640E+01 -0.28194128074E+02  0.95463293754E+02  0.90778981259E+02 0.  0.
         13    1    3    3    0    0 -0.29932774282E+02 -0.12433352292E+02 -0.42788263446E+02  0.53678728359E+02  0.10566000000E+00 0.  1.
         22    1    1    0    0    0 -0.33878931567E+01 -0.81259053640E+01  0.28194128074E+02  0.29536706246E+02  0.00000000000E+00 0.  1.
</event>
<event>
 5    1  0.1709463E-003  0.9118800E+02  0.7818608E-02  0.1130116E+00
         25   -1    0    0    0    0  0.00000000000E+00  0.00000000000E+00  0.99999998245E-14  0.12500000000E+03  0.12500000000E+03 0.  0.
        -13    1    3    3    0    0  0.49430540403E+02  0.20586518614E+02 -0.10603249316E+02  0.54585924315E+02  0.10566000000E+00 0.  1.
         23    2    1    0    0    0  0.10167508477E+02  0.27699830673E+02 -0.71616595565E+01  0.94636399826E+02  0.89633140949E+02 0.  0.
         13    1    3    3    0    0 -0.39263031927E+02  0.71133120595E+01  0.34415897600E+01  0.40050475511E+02  0.10566000000E+00 0. -1.
         22    1    1    0    0    0 -0.10167508477E+02 -0.27699830673E+02  0.71616595565E+01  0.30363600174E+02  0.00000000000E+00 0.  1.
</event>
<event>
 5    1  0.1709463E-003  0.9118800E+02  0.7818608E-02  0.1130116E+00
         25   -1    0    0    0    0  0.00000000000E+00  0.00000000000E+00  0.99999998245E-14  0.12500000000E+03  0.12500000000E+03 0.  0.
        -13    1    3    3    0    0 -0.33024308812E+02 -0.35033870894E+02  0.36069192340E+02  0.60157916208E+02  0.10566000000E+00 0.  1.
         23    2    1    0    0    0 -0.12445379069E+02 -0.50466347015E+01  0.22143569982E+02  0.99102245782E+02  0.95658567026E+02 0.  0.
         13    1    3    3    0    0  0.20578929743E+02  0.29987236193E+02 -0.13925622358E+02  0.38944329574E+02  0.10566000000E+00 0. -1.
         22    1    1    0    0    0  0.12445379069E+02  0.50466347015E+01 -0.22143569982E+02  0.25897754218E+02  0.00000000000E+00 0.  1.
</event>
<event>
 5    1  0.1709463E-003  0.9118800E+02  0.7818608E-02  0.1130116E+00
         25   -1    0    0    0    0  0.00000000000E+00  0.00000000000E+00  0.99999998245E-14  0.12500000000E+03  0.12500000000E+03 0.  0.
        -13    1    3    3    0    0 -0.11954240744E+02 -0.47142187294E+02  0.30932730822E+02  0.57637962271E+02  0.10566000000E+00 0.  1.
         23    2    1    0    0    0  0.73096935492E+01 -0.28011869007E+02  0.41863108960E+01  0.95748989351E+02  0.91171527012E+02 0.  0.
         13    1    3    3    0    0  0.19263934293E+02  0.19130318287E+02 -0.26746419926E+02  0.38111027080E+02  0.10566000000E+00 0. -1.
         22    1    1    0    0    0 -0.73096935492E+01  0.28011869007E+02 -0.41863108960E+01  0.29251010649E+02  0.00000000000E+00 0.  1.
</event>
<event>
 5    1  0.1709463E-003  0.9118800E+02  0.7818608E-02  0.1130116E+00
         25   -1    0    0    0    0  0.00000000000E+00  0.00000000000E+00  0.99999998245E-14  0.12500000000E+03  0.12500000000E+03 0.  0.
        -13    1    3    3    0    0 -0.35989539913E+01  0.27288517038E+02  0.46098812020E+02  0.53691035245E+02  0.10566000000E+00 0. -1.
         23    2    1    0    0    0 -0.23109616712E+02  0.44456322032E+01  0.14174206796E+02  0.97527719997E+02  0.93578469742E+02 0.  0.
         13    1    3    3    0    0 -0.19510662721E+02 -0.22842884835E+02 -0.31924605223E+02  0.43836684752E+02  0.10566000000E+00 0.  1.
         22    1    1    0    0    0  0.23109616712E+02 -0.44456322032E+01 -0.14174206796E+02  0.27472280003E+02  0.00000000000E+00 0. -1.
</event>
<event>
 5    1  0.1709463E-003  0.9118800E+02  0.7818608E-02  0.1130116E+00
         25   -1    0    0    0    0  0.00000000000E+00  0.00000000000E+00  0.99999998245E-14  0.12500000000E+03  0.12500000000E+03 0.  0.
        -13    1    3    3    0    0  0.32207758857E+02  0.19610456031E+02  0.37934507741E+01  0.37898695877E+02  0.10566000000E+00 0.  1.
         23    2    1    0    0    0 -0.23457526308E+02  0.18947437472E+02  0.82258118690E+01  0.93744202008E+02  0.88380147669E+02 0.  0.
         13    1    3    3    0    0 -0.55665285165E+02 -0.66301855967E+00  0.44323610949E+01  0.55845506131E+02  0.10566000000E+00 0. -1.
         22    1    1    0    0    0  0.23457526308E+02 -0.18947437472E+02 -0.82258118690E+01  0.31255797992E+02  0.00000000000E+00 0. -1.
</event>
<event>
 5    1  0.1709463E-003  0.9118800E+02  0.7818608E-02  0.1130116E+00
         25   -1    0    0    0    0  0.00000000000E+00  0.00000000000E+00  0.99999998245E-14  0.12500000000E+03  0.12500000000E+03 0.  0.
        -13    1    3    3    0    0 -0.71312111883E+01  0.14862787783E+01 -0.38908308451E+02  0.39584477112E+02  0.10566000000E+00 0.  1.
         23    2    1    0    0    0  0.29091253211E+02 -0.18800240419E+01  0.37045431446E+01  0.95613623161E+02  0.90985744984E+02 0.  0.
         13    1    3    3    0    0  0.36222464400E+02 -0.33663028201E+01  0.42612851596E+02  0.56029146049E+02  0.10566000000E+00 0. -1.
         22    1    1    0    0    0 -0.29091253211E+02  0.18800240419E+01 -0.37045431446E+01  0.29386376839E+02  0.00000000000E+00 0. -1.
</event>
<event>
 5    1  0.1709463E-003  0.9118800E+02  0.7818608E-02  0.1130116E+00
         25   -1    0    0    0    0  0.00000000000E+00  0.00000000000E+00  0.99999998245E-14  0.12500000000E+03  0.12500000000E+03 0.  0.
        -13    1    3    3    0    0  0.27327918336E+02 -0.12280333504E+02  0.33596176186E+02  0.45014841219E+02  0.10566000000E+00 0. -1.
         23    2    1    0    0    0 -0.15631474059E+01  0.25207399008E+02  0.11372769695E+02  0.97301691657E+02  0.93276057561E+02 0.  0.
         13    1    3    3    0    0 -0.28891065742E+02  0.37487732512E+02 -0.22223406491E+02  0.52286850438E+02  0.10566000000E+00 0.  1.
         22    1    1    0    0    0  0.15631474059E+01 -0.25207399008E+02 -0.11372769695E+02  0.27698308343E+02  0.00000000000E+00 0. -1.
</event>
<event>
 4    1  0.1709463E-003  0.9118800E+02  0.7818608E-02  0.1130116E+00
         25   -1    0    0    0    0  0.00000000000E+00  0.00000000000E+00  0.99999998245E-14  0.12500000000E+03  0.12500000000E+03 0.  0.
        -13    1    1    0    0    0 -0.47335627150E+02 -0.18258887387E+02 -0.23758843215E+02  0.56022695055E+02  0.10566000000E+00 0.  1.
         13    1    1    0    0    0  0.11704084740E+02 -0.11870529434E+02  0.12492207922E+00  0.16670987920E+02  0.10566000000E+00 0. -1.
         22    1    1    0    0    0  0.35631542410E+02  0.30129416821E+02  0.23633921136E+02  0.52306317025E+02  0.00000000000E+00 0.  1.
</event>
<event>
 5    1  0.1709463E-003  0.9118800E+02  0.7818608E-02  0.1130116E+00
         25   -1    0    0    0    0  0.00000000000E+00  0.00000000000E+00  0.99999998245E-14  0.12500000000E+03  0.12500000000E+03 0.  0.
        -13    1    3    3    0    0  0.45108676759E+02  0.24685193600E+02 -0.70687174810E+01  0.51905003930E+02  0.10566000000E+00 0.  1.
         23    2    1    0    0    0  0.53330835172E+01  0.11500895227E+02 -0.24597841725E+02  0.97327519295E+02  0.93310662970E+02 0.  0.
         13    1    3    3    0    0 -0.39775593242E+02 -0.13184298373E+02 -0.17529124244E+02  0.45422515366E+02  0.10566000000E+00 0. -1.
         22    1    1    0    0    0 -0.53330835172E+01 -0.11500895227E+02  0.24597841725E+02  0.27672480705E+02  0.00000000000E+00 0. -1.
</event>
<event>
 5    1  0.1709463E-003  0.9118800E+02  0.7818608E-02  0.1130116E+00
         25   -1    0    0    0    0  0.00000000000E+00  0.00000000000E+00  0.99999998245E-14  0.12500000000E+03  0.12500000000E+03 0.  0.
        -13    1    3    3    0    0 -0.27784387459E+02  0.15782621516E+02 -0.61730267675E+01  0.32545057257E+02  0.10566000000E+00 0. -1.
         23    2    1    0    0    0  0.16304692410E+02 -0.24654941976E+02  0.86930451560E+01  0.94189641474E+02  0.89007923066E+02 0.  0.
         13    1    3    3    0    0  0.44089079868E+02 -0.40437563492E+02  0.14866071924E+02  0.61644584217E+02  0.10566000000E+00 0.  1.
         22    1    1    0    0    0 -0.16304692410E+02  0.24654941976E+02 -0.86930451560E+01  0.30810358526E+02  0.00000000000E+00 0.  1.
</event>
<event>
 5    1  0.1709463E-003  0.9118800E+02  0.7818608E-02  0.1130116E+00
         25   -1    0    0    0    0  0.00000000000E+00  0.00000000000E+00  0.99999998245E-14  0.12500000000E+03  0.12500000000E+03 0.  0.
        -13    1    3    3    0    0  0.27024891028E+02  0.73903584668E+01 -0.29058733095E+02  0.40365619857E+02  0.10566000000E+00 0.  1.
         23    2    1    0    0    0 -0.20935296283E+02 -0.12170314757E+02 -0.21319826775E+02  0.92736426028E+02  0.86943122252E+02 0.  0.
         13    1    3    3    0    0 -0.47960187312E+02 -0.19560673224E+02  0.77389063199E+01  0.52370806171E+02  0.10566000000E+00 0. -1.
         22    1    1    0    0    0  0.20935296283E+02  0.12170314757E+02  0.21319826775E+02  0.32263573972E+02  0.00000000000E+00 0. -1.
</event>
<event>
 5    1  0.1709463E-003  0.9118800E+02  0.7818608E-02  0.1130116E+00
         25   -1    0    0    0    0  0.00000000000E+00  0.00000000000E+00  0.99999998245E-14  0.12500000000E+03  0.12500000000E+03 0.  0.
        -13    1    3    3    0    0 -0.94448207606E+00 -0.17806208065E+02  0.29153892049E+02  0.34174752050E+02  0.10566000000E+00 0.  1.
         23    2    1    0    0    0 -0.37223437251E+01  0.56169489946E+01 -0.28103285913E+02  0.96100161974E+02  0.91651734809E+02 0.  0.
         13    1    3    3    0    0 -0.27778616490E+01  0.23423157059E+02 -0.57257177962E+02  0.61925409924E+02  0.10566000000E+00 0. -1.
         22    1    1    0    0    0  0.37223437251E+01 -0.56169489946E+01  0.28103285913E+02  0.28899838026E+02  0.00000000000E+00 0. -1.
</event>
<event>
 5    1  0.1709463E-003  0.9118800E+02  0.7818608E-02  0.1130116E+00
         25   -1    0    0    0    0  0.00000000000E+00  0.00000000000E+00  0.99999998245E-14  0.12500000000E+03  0.12500000000E+03 0.  0.
        -13    1    3    3    0    0 -0.19882101771E+02 -0.42853082414E+02 -0.30889980460E+02  0.56443659521E+02  0.10566000000E+00 0. -1.
         23    2    1    0    0    0 -0.16415989474E+02 -0.48969934873E+01 -0.24523162166E+02  0.95085944136E+02  0.90257886271E+02 0.  0.
         13    1    3    3    0    0  0.34661122975E+01  0.37956088927E+02  0.63668182940E+01  0.38642284616E+02  0.10566000000E+00 0.  1.
         22    1    1    0    0    0  0.16415989474E+02  0.48969934873E+01  0.24523162166E+02  0.29914055864E+02  0.00000000000E+00 0. -1.
</event>
<event>
 5    1  0.1709463E-003  0.9118800E+02  0.7818608E-02  0.1130116E+00
         25   -1    0    0    0    0  0.00000000000E+00  0.00000000000E+00  0.99999998245E-14  0.12500000000E+03  0.12500000000E+03 0.  0.
        -13    1    3    3    0    0  0.35875378297E+02  0.38846422125E+02  0.12564491019E+02  0.54350389865E+02  0.10566000000E+00 0. -1.
         23    2    1    0    0    0  0.28578611480E+02 -0.13634061521E+01  0.64347812194E+01  0.95674203850E+02  0.91068935222E+02 0.  0.
         13    1    3    3    0    0 -0.72967668163E+01 -0.40209828277E+02 -0.61297097997E+01  0.41323813986E+02  0.10566000000E+00 0.  1.
         22    1    1    0    0    0 -0.28578611480E+02  0.13634061521E+01 -0.64347812194E+01  0.29325796150E+02  0.00000000000E+00 0. -1.
</event>
<event>
 5    1  0.1709463E-003  0.9118800E+02  0.7818608E-02  0.1130116E+00
         25   -1    0    0    0    0  0.00000000000E+00  0.00000000000E+00  0.99999998245E-14  0.12500000000E+03  0.12500000000E+03 0.  0.
        -13    1    3    3    0    0  0.43632654610E+02 -0.20546006441E+02 -0.30385901388E+02  0.57002290271E+02  0.10566000000E+00 0. -1.
         23    2    1    0    0    0  0.28325136874E+02 -0.76192328794E+01  0.25539645902E+01  0.95557024204E+02  0.90907953727E+02 0.  0.
         13    1    3    3    0    0 -0.15307517735E+02  0.12926773561E+02  0.32939865978E+02  0.38554733933E+02  0.10566000000E+00 0.  1.
         22    1    1    0    0    0 -0.28325136874E+02  0.76192328794E+01 -0.25539645902E+01  0.29442975796E+02  0.00000000000E+00 0. -1.
</event>
<event>
 5    1  0.1709463E-003  0.9118800E+02  0.7818608E-02  0.1130116E+00
         25   -1    0    0    0    0  0.00000000000E+00  0.00000000000E+00  0.99999998245E-14  0.12500000000E+03  0.12500000000E+03 0.  0.
        -13    1    3    3    0    0 -0.17363787567E+02 -0.79539313428E+01 -0.57712448803E+02  0.60790657616E+02  0.10566000000E+00 0. -1.
         23    2    1    0    0    0  0.47078294467E+00 -0.93244984108E+01 -0.28134987227E+02  0.95356359646E+02  0.90631616511E+02 0.  0.
         13    1    3    3    0    0  0.17834570512E+02 -0.13705670679E+01  0.29577461576E+02  0.34565702029E+02  0.10566000000E+00 0.  1.
         22    1    1    0    0    0 -0.47078294467E+00  0.93244984108E+01  0.28134987227E+02  0.29643640354E+02  0.00000000000E+00 0. -1.
</event>
<event>
 5    1  0.1709463E-003  0.9118800E+02  0.7818608E-02  0.1130116E+00
         25   -1    0    0    0    0  0.00000000000E+00  0.00000000000E+00  0.99999998245E-14  0.12500000000E+03  0.12500000000E+03 0.  0.
        -13    1    3    3    0    0 -0.20692030369E+02 -0.62620458651E+01 -0.48843835979E+02  0.53414462614E+02  0.10566000000E+00 0.  1.
         23    2    1    0    0    0 -0.25879539798E+02 -0.13511393811E+02 -0.86990196397E+01  0.94537214744E+02  0.89494713173E+02 0.  0.
         13    1    3    3    0    0 -0.51875094294E+01 -0.72493479457E+01  0.40144816339E+02  0.41122752129E+02  0.10566000000E+00 0. -1.
         22    1    1    0    0    0  0.25879539798E+02  0.13511393811E+02  0.86990196397E+01  0.30462785256E+02  0.00000000000E+00 0. -1.
</event>
<event>
 5    1  0.1709463E-003  0.9118800E+02  0.7818608E-02  0.1130116E+00
         25   -1    0    0    0    0  0.00000000000E+00  0.00000000000E+00  0.99999998245E-14  0.12500000000E+03  0.12500000000E+03 0.  0.
        -13    1    3    3    0    0  0.20330584949E+02  0.46191096637E+02  0.26891052746E+02  0.57184700530E+02  0.10566000000E+00 0. -1.
         23    2    1    0    0    0 -0.43381951860E+01  0.29119047865E+02  0.32494275728E+01  0.95380788910E+02  0.90665303328E+02 0.  0.
         13    1    3    3    0    0 -0.24668780135E+02 -0.17072048772E+02 -0.23641625174E+02  0.38196088380E+02  0.10566000000E+00 0.  1.
         22    1    1    0    0    0  0.43381951860E+01 -0.29119047865E+02 -0.32494275728E+01  0.29619211090E+02  0.00000000000E+00 0. -1.
</event>
<event>
 5    1  0.1709463E-003  0.9118800E+02  0.7818608E-02  0.1130116E+00
         25   -1    0    0    0    0  0.00000000000E+00  0.00000000000E+00  0.99999998245E-14  0.12500000000E+03  0.12500000000E+03 0.  0.
        -13    1    3    3    0    0 -0.18194791480E+02 -0.18912744581E+02  0.22446522322E+01  0.26339931136E+02  0.10566000000E+00 0.  1.
         23    2    1    0    0    0 -0.76990706563E+01  0.34177671294E+02  0.21631674727E+02  0.83825757377E+02  0.73016705926E+02 0.  0.
         13    1    3    3    0    0  0.10495720823E+02  0.53090415875E+02  0.19387022495E+02  0.57485826241E+02  0.10566000000E+00 0. -1.
         22    1    1    0    0    0  0.76990706563E+01 -0.34177671294E+02 -0.21631674727E+02  0.41174242623E+02  0.00000000000E+00 0. -1.
</event>
<event>
 5    1  0.1709463E-003  0.9118800E+02  0.7818608E-02  0.1130116E+00
         25   -1    0    0    0    0  0.00000000000E+00  0.00000000000E+00  0.99999998245E-14  0.12500000000E+03  0.12500000000E+03 0.  0.
        -13    1    3    3    0    0 -0.20368688153E+02  0.40836718102E+02  0.36912130088E+02  0.58694441935E+02  0.10566000000E+00 0. -1.
         23    2    1    0    0    0 -0.22327751256E+02  0.10959080696E+02  0.13520344317E+02  0.96690467395E+02  0.92453322541E+02 0.  0.
         13    1    3    3    0    0 -0.19590631036E+01 -0.29877637406E+02 -0.23391785771E+02  0.37996025461E+02  0.10566000000E+00 0.  1.
         22    1    1    0    0    0  0.22327751256E+02 -0.10959080696E+02 -0.13520344317E+02  0.28309532605E+02  0.00000000000E+00 0. -1.
</event>
<event>
 5    1  0.1709463E-003  0.9118800E+02  0.7818608E-02  0.1130116E+00
         25   -1    0    0    0    0  0.00000000000E+00  0.00000000000E+00  0.99999998245E-14  0.12500000000E+03  0.12500000000E+03 0.  0.
        -13    1    3    3    0    0 -0.73573647034E+01  0.23222462648E+02  0.22651828836E+02  0.33264547201E+02  0.10566000000E+00 0.  1.
         23    2    1    0    0    0  0.14761177529E+02 -0.11199241131E+02 -0.23586144757E+02  0.95006307522E+02  0.90147528422E+02 0.  0.
         13    1    3    3    0    0  0.22118542233E+02 -0.34421703780E+02 -0.46237973593E+02  0.61741760321E+02  0.10566000000E+00 0. -1.
         22    1    1    0    0    0 -0.14761177529E+02  0.11199241131E+02  0.23586144757E+02  0.29993692478E+02  0.00000000000E+00 0. -1.
</event>
<event>
 5    1  0.1709463E-003  0.9118800E+02  0.7818608E-02  0.1130116E+00
         25   -1    0    0    0    0  0.00000000000E+00  0.00000000000E+00  0.99999998245E-14  0.12500000000E+03  0.12500000000E+03 0.  0.
        -13    1    3    3    0    0  0.10987058663E+02 -0.36724727197E+02 -0.39863961410E+02  0.55304318358E+02  0.10566000000E+00 0.  1.
         23    2    1    0    0    0  0.23247971337E+02 -0.60062162160E+01 -0.18629999382E+02  0.94608888117E+02  0.89594765635E+02 0.  0.
         13    1    3    3    0    0  0.12260912674E+02  0.30718510981E+02  0.21233962028E+02  0.39304569759E+02  0.10566000000E+00 0. -1.
         22    1    1    0    0    0 -0.23247971337E+02  0.60062162160E+01  0.18629999382E+02  0.30391111883E+02  0.00000000000E+00 0.  1.
</event>
<event>
 5    1  0.1709463E-003  0.9118800E+02  0.7818608E-02  0.1130116E+00
         25   -1    0    0    0    0  0.00000000000E+00  0.00000000000E+00  0.99999998245E-14  0.12500000000E+03  0.12500000000E+03 0.  0.
        -13    1    3    3    0    0  0.78386831002E+00 -0.13597818559E+01 -0.33071911638E+02  0.33109303219E+02  0.10566000000E+00 0.  1.
         23    2    1    0    0    0  0.25442488969E+01 -0.61728195782E+01  0.28923313469E+02  0.95316082367E+02  0.90576048665E+02 0.  0.
         13    1    3    3    0    0  0.17603805869E+01 -0.48130377223E+01  0.61995225107E+02  0.62206779148E+02  0.10566000000E+00 0. -1.
         22    1    1    0    0    0 -0.25442488969E+01  0.61728195782E+01 -0.28923313469E+02  0.29683917633E+02  0.00000000000E+00 0. -1.
</event>
<event>
 5    1  0.1709463E-003  0.9118800E+02  0.7818608E-02  0.1130116E+00
         25   -1    0    0    0    0  0.00000000000E+00  0.00000000000E+00  0.99999998245E-14  0.12500000000E+03  0.12500000000E+03 0.  0.
        -13    1    3    3    0    0 -0.24316051467E+02  0.24468377357E+02 -0.88897405849E+01  0.35623173654E+02  0.10566000000E+00 0.  1.
         23    2    1    0    0    0  0.28245237866E+02 -0.44536784870E+01 -0.65672853009E+01  0.95661323302E+02  0.91051253838E+02 0.  0.
         13    1    3    3    0    0  0.52561289333E+02 -0.28922055844E+02  0.23224552841E+01  0.60038149648E+02  0.10566000000E+00 0. -1.
         22    1    1    0    0    0 -0.28245237866E+02  0.44536784870E+01  0.65672853009E+01  0.29338676698E+02  0.00000000000E+00 0. -1.
</event>
<event>
 5    1  0.1709463E-003  0.9118800E+02  0.7818608E-02  0.1130116E+00
         25   -1    0    0    0    0  0.00000000000E+00  0.00000000000E+00  0.99999998245E-14  0.12500000000E+03  0.12500000000E+03 0.  0.
        -13    1    3    3    0    0 -0.29896399483E+02 -0.11418657742E+02 -0.14849587846E+02  0.35280332621E+02  0.10566000000E+00 0.  1.
         23    2    1    0    0    0  0.23698479022E+02 -0.13723521703E+02  0.11801134842E+02  0.95180212284E+02  0.90388345880E+02 0.  0.
         13    1    3    3    0    0  0.53594878504E+02 -0.23048639602E+01  0.26650722688E+02  0.59899879662E+02  0.10566000000E+00 0. -1.
         22    1    1    0    0    0 -0.23698479022E+02  0.13723521703E+02 -0.11801134842E+02  0.29819787716E+02  0.00000000000E+00 0. -1.
</event>
<event>
 5    1  0.1709463E-003  0.9118800E+02  0.7818608E-02  0.1130116E+00
         25   -1    0    0    0    0  0.00000000000E+00  0.00000000000E+00  0.99999998245E-14  0.12500000000E+03  0.12500000000E+03 0.  0.
        -13    1    3    3    0    0 -0.13906691832E+02 -0.21221063579E+02 -0.25881619755E+02  0.36243606641E+02  0.10566000000E+00 0.  1.
         23    2    1    0    0    0  0.29689428514E+02  0.50032811017E+01  0.29951644295E+01  0.94743331359E+02  0.89782140985E+02 0.  0.
         13    1    3    3    0    0  0.43596120346E+02  0.26224344681E+02  0.28876784185E+02  0.58499724718E+02  0.10566000000E+00 0. -1.
         22    1    1    0    0    0 -0.29689428514E+02 -0.50032811017E+01 -0.29951644295E+01  0.30256668641E+02  0.00000000000E+00 0. -1.
</event>
<event>
 5    1  0.1709463E-003  0.9118800E+02  0.7818608E-02  0.1130116E+00
         25   -1    0    0    0    0  0.00000000000E+00  0.00000000000E+00  0.99999998245E-14  0.12500000000E+03  0.12500000000E+03 0.  0.
        -13    1    3    3    0    0  0.12572955350E+01 -0.80140335230E+00  0.40082164348E+02  0.40110024959E+02  0.10566000000E+00 0. -1.
         23    2    1    0    0    0 -0.12438550130E+02  0.27856824926E+02 -0.37734811095E+01  0.94259808329E+02  0.89106408761E+02 0.  0.
         13    1    3    3    0    0 -0.13695845665E+02  0.28658228278E+02 -0.43855645457E+02  0.54149783370E+02  0.10566000000E+00 0.  1.
         22    1    1    0    0    0  0.12438550130E+02 -0.27856824926E+02  0.37734811095E+01  0.30740191671E+02  0.00000000000E+00 0.  1.
</event>
<event>
 5    1  0.1709463E-003  0.9118800E+02  0.7818608E-02  0.1130116E+00
         25   -1    0    0    0    0  0.00000000000E+00  0.00000000000E+00  0.99999998245E-14  0.12500000000E+03  0.12500000000E+03 0.  0.
        -13    1    3    3    0    0 -0.32513988987E+02 -0.36004393136E+01 -0.12287646109E+02  0.34944528242E+02  0.10566000000E+00 0.  1.
         23    2    1    0    0    0  0.20585427601E+02  0.10999477158E+02  0.15850421342E+02  0.96786808334E+02  0.92583487099E+02 0.  0.
         13    1    3    3    0    0  0.53099416588E+02  0.14599916472E+02  0.28138067451E+02  0.61842280092E+02  0.10566000000E+00 0. -1.
         22    1    1    0    0    0 -0.20585427601E+02 -0.10999477158E+02 -0.15850421342E+02  0.28213191666E+02  0.00000000000E+00 0. -1.
</event>
<event>
 5    1  0.1709463E-003  0.9118800E+02  0.7818608E-02  0.1130116E+00
         25   -1    0    0    0    0  0.00000000000E+00  0.00000000000E+00  0.99999998245E-14  0.12500000000E+03  0.12500000000E+03 0.  0.
        -13    1    3    3    0    0  0.86188777904E+01 -0.29189524874E+02  0.44649188145E+02  0.54035863856E+02  0.10566000000E+00 0.  1.
         23    2    1    0    0    0 -0.12325591699E+02  0.15345209604E+01  0.27174771189E+02  0.95121192218E+02  0.90306688869E+02 0.  0.
         13    1    3    3    0    0 -0.20944469489E+02  0.30724045834E+02 -0.17474416956E+02  0.41085328361E+02  0.10566000000E+00 0. -1.
         22    1    1    0    0    0  0.12325591699E+02 -0.15345209604E+01 -0.27174771189E+02  0.29878807782E+02  0.00000000000E+00 0.  1.
</event>
<event>
 5    1  0.1709463E-003  0.9118800E+02  0.7818608E-02  0.1130116E+00
         25   -1    0    0    0    0  0.00000000000E+00  0.00000000000E+00  0.99999998245E-14  0.12500000000E+03  0.12500000000E+03 0.  0.
        -13    1    3    3    0    0 -0.20860870589E+02 -0.22706197685E+02  0.14542353809E+02  0.34091619988E+02  0.10566000000E+00 0. -1.
         23    2    1    0    0    0  0.61952674956E+01  0.25597978574E+02 -0.12659324997E+02  0.95778494977E+02  0.91211971497E+02 0.  0.
         13    1    3    3    0    0  0.27056138085E+02  0.48304176259E+02 -0.27201678806E+02  0.61686874990E+02  0.10566000000E+00 0.  1.
         22    1    1    0    0    0 -0.61952674956E+01 -0.25597978574E+02  0.12659324997E+02  0.29221505023E+02  0.00000000000E+00 0.  1.
</event>
<event>
 5    1  0.1709463E-003  0.9118800E+02  0.7818608E-02  0.1130116E+00
         25   -1    0    0    0    0  0.00000000000E+00  0.00000000000E+00  0.99999998245E-14  0.12500000000E+03  0.12500000000E+03 0.  0.
        -13    1    3    3    0    0  0.26594299588E+02  0.42990857092E+02 -0.35542307010E+02  0.61795932841E+02  0.10566000000E+00 0.  1.
         23    2    1    0    0    0  0.67893712140E+01  0.22216361309E+02 -0.19452509523E+02  0.94700455482E+02  0.89722426798E+02 0.  0.
         13    1    3    3    0    0 -0.19804928374E+02 -0.20774495783E+02  0.16089797488E+02  0.32904522640E+02  0.10566000000E+00 0. -1.
         22    1    1    0    0    0 -0.67893712140E+01 -0.22216361309E+02  0.19452509523E+02  0.30299544518E+02  0.00000000000E+00 0.  1.
</event>
<event>
 5    1  0.1709463E-003  0.9118800E+02  0.7818608E-02  0.1130116E+00
         25   -1    0    0    0    0  0.00000000000E+00  0.00000000000E+00  0.99999998245E-14  0.12500000000E+03  0.12500000000E+03 0.  0.
        -13    1    3    3    0    0 -0.32857706840E+00 -0.50887883872E+01 -0.51867271417E+02  0.52117451380E+02  0.10566000000E+00 0. -1.
         23    2    1    0    0    0  0.20405804867E+02 -0.15532119649E+02 -0.16225884766E+02  0.94653287665E+02  0.89656689189E+02 0.  0.
         13    1    3    3    0    0  0.20734381936E+02 -0.10443331261E+02  0.35641386650E+02  0.42535836285E+02  0.10566000000E+00 0.  1.
         22    1    1    0    0    0 -0.20405804867E+02  0.15532119649E+02  0.16225884766E+02  0.30346712335E+02  0.00000000000E+00 0. -1.
</event>
<event>
 5    1  0.1709463E-003  0.9118800E+02  0.7818608E-02  0.1130116E+00
         25   -1    0    0    0    0  0.00000000000E+00  0.00000000000E+00  0.99999998245E-14  0.12500000000E+03  0.12500000000E+03 0.  0.
        -13    1    3    3    0    0  0.40780329555E+01 -0.19241734715E+02 -0.42777701547E+02  0.47083092733E+02  0.10566000000E+00 0. -1.
         23    2    1    0    0    0  0.20379189751E+02 -0.24680397655E+02 -0.20585784009E+00  0.92992566789E+02  0.87310604724E+02 0.  0.
         13    1    3    3    0    0  0.16301156795E+02 -0.54386629396E+01  0.42571843707E+02  0.45909474056E+02  0.10566000000E+00 0.  1.
         22    1    1    0    0    0 -0.20379189751E+02  0.24680397655E+02  0.20585784009E+00  0.32007433211E+02  0.00000000000E+00 0. -1.
</event>
<event>
 5    1  0.1709463E-003  0.9118800E+02  0.7818608E-02  0.1130116E+00
         25   -1    0    0    0    0  0.00000000000E+00  0.00000000000E+00  0.99999998245E-14  0.12500000000E+03  0.12500000000E+03 0.  0.
        -13    1    3    3    0    0  0.56194302560E+01  0.14207434960E+02 -0.48454250169E+02  0.50806050112E+02  0.10566000000E+00 0.  1.
         23    2    1    0    0    0 -0.23539935441E+02  0.15739421272E+01 -0.14518763433E+02  0.97298008267E+02  0.93271121290E+02 0.  0.
         13    1    3    3    0    0 -0.29159365697E+02 -0.12633492833E+02  0.33935486736E+02  0.46491958155E+02  0.10566000000E+00 0. -1.
         22    1    1    0    0    0  0.23539935441E+02 -0.15739421272E+01  0.14518763433E+02  0.27701991733E+02  0.00000000000E+00 0.  1.
</event>
<event>
 5    1  0.1709463E-003  0.9118800E+02  0.7818608E-02  0.1130116E+00
         25   -1    0    0    0    0  0.00000000000E+00  0.00000000000E+00  0.99999998245E-14  0.12500000000E+03  0.12500000000E+03 0.  0.
        -13    1    3    3    0    0  0.60360033907E+01  0.28177095927E+01  0.52257614968E+02  0.52680568623E+02  0.10566000000E+00 0. -1.
         23    2    1    0    0    0 -0.47205333509E+01 -0.21944493241E+02  0.18458269794E+02  0.95938824137E+02  0.91431428045E+02 0.  0.
         13    1    3    3    0    0 -0.10756536742E+02 -0.24762202834E+02 -0.33799345174E+02  0.43258255514E+02  0.10566000000E+00 0.  1.
         22    1    1    0    0    0  0.47205333509E+01  0.21944493241E+02 -0.18458269794E+02  0.29061175863E+02  0.00000000000E+00 0. -1.
</event>
<event>
 5    1  0.1709463E-003  0.9118800E+02  0.7818608E-02  0.1130116E+00
         25   -1    0    0    0    0  0.00000000000E+00  0.00000000000E+00  0.99999998245E-14  0.12500000000E+03  0.12500000000E+03 0.  0.
        -13    1    3    3    0    0 -0.34927875707E+02  0.29356931226E+01  0.59189066118E+01  0.35547424872E+02  0.10566000000E+00 0.  1.
         23    2    1    0    0    0  0.16728030806E+02 -0.41384875682E+01 -0.23842631687E+02  0.95581890275E+02  0.90942138576E+02 0.  0.
         13    1    3    3    0    0  0.51655906514E+02 -0.70741806907E+01 -0.29761538299E+02  0.60034465403E+02  0.10566000000E+00 0. -1.
         22    1    1    0    0    0 -0.16728030806E+02  0.41384875682E+01  0.23842631687E+02  0.29418109725E+02  0.00000000000E+00 0. -1.
</event>
<event>
 5    1  0.1709463E-003  0.9118800E+02  0.7818608E-02  0.1130116E+00
         25   -1    0    0    0    0  0.00000000000E+00  0.00000000000E+00  0.99999998245E-14  0.12500000000E+03  0.12500000000E+03 0.  0.
        -13    1    3    3    0    0 -0.25378816661E+02  0.21733382660E+02  0.15400667427E+02  0.36791520466E+02  0.10566000000E+00 0. -1.
         23    2    1    0    0    0  0.13689565275E+02 -0.61664315186E+01 -0.22495509379E+02  0.97954168208E+02  0.94146386293E+02 0.  0.
         13    1    3    3    0    0  0.39068381935E+02 -0.27899814179E+02 -0.37896176806E+02  0.61162647742E+02  0.10566000000E+00 0.  1.
         22    1    1    0    0    0 -0.13689565275E+02  0.61664315186E+01  0.22495509379E+02  0.27045831792E+02  0.00000000000E+00 0.  1.
</event>
<event>
 5    1  0.1709463E-003  0.9118800E+02  0.7818608E-02  0.1130116E+00
         25   -1    0    0    0    0  0.00000000000E+00  0.00000000000E+00  0.99999998245E-14  0.12500000000E+03  0.12500000000E+03 0.  0.
        -13    1    3    3    0    0  0.16960995041E+02  0.27752032773E+02 -0.37895323318E+02  0.49939136649E+02  0.10566000000E+00 0. -1.
         23    2    1    0    0    0  0.11361878734E+01  0.28648646824E+02  0.52037001844E+01  0.95860432684E+02  0.91324192693E+02 0.  0.
         13    1    3    3    0    0 -0.15824807168E+02  0.89661405088E+00  0.43099023503E+02  0.45921296035E+02  0.10566000000E+00 0.  1.
         22    1    1    0    0    0 -0.11361878734E+01 -0.28648646824E+02 -0.52037001844E+01  0.29139567316E+02  0.00000000000E+00 0. -1.
</event>
<event>
 5    1  0.1709463E-003  0.9118800E+02  0.7818608E-02  0.1130116E+00
         25   -1    0    0    0    0  0.00000000000E+00  0.00000000000E+00  0.99999998245E-14  0.12500000000E+03  0.12500000000E+03 0.  0.
        -13    1    3    3    0    0 -0.26206681216E+02 -0.28373622611E+02 -0.36276666932E+02  0.52989247288E+02  0.10566000000E+00 0. -1.
         23    2    1    0    0    0 -0.20525393879E+01  0.62234894882E+01 -0.28325168323E+02  0.95926646223E+02  0.91414777556E+02 0.  0.
         13    1    3    3    0    0  0.24154141829E+02  0.34597112099E+02  0.79514986091E+01  0.42937398934E+02  0.10566000000E+00 0.  1.
         22    1    1    0    0    0  0.20525393879E+01 -0.62234894882E+01  0.28325168323E+02  0.29073353777E+02  0.00000000000E+00 0.  1.
</event>
<event>
 5    1  0.1709463E-003  0.9118800E+02  0.7818608E-02  0.1130116E+00
         25   -1    0    0    0    0  0.00000000000E+00  0.00000000000E+00  0.99999998245E-14  0.12500000000E+03  0.12500000000E+03 0.  0.
        -13    1    3    3    0    0  0.12400563651E+02 -0.42117414756E+01 -0.41973004491E+02  0.43968818670E+02  0.10566000000E+00 0.  1.
         23    2    1    0    0    0 -0.16376502186E+02  0.21231114529E+02 -0.41666031630E+01  0.97864955686E+02  0.94027862475E+02 0.  0.
         13    1    3    3    0    0 -0.28777065838E+02  0.25442856004E+02  0.37806401328E+02  0.53896137017E+02  0.10566000000E+00 0. -1.
         22    1    1    0    0    0  0.16376502186E+02 -0.21231114529E+02  0.41666031630E+01  0.27135044314E+02  0.00000000000E+00 0.  1.
</event>
<event>
 5    1  0.1709463E-003  0.9118800E+02  0.7818608E-02  0.1130116E+00
         25   -1    0    0    0    0  0.00000000000E+00  0.00000000000E+00  0.99999998245E-14  0.12500000000E+03  0.12500000000E+03 0.  0.
        -13    1    3    3    0    0 -0.13273974960E+02  0.16368565820E+02  0.50078156643E+02  0.54331954640E+02  0.10566000000E+00 0. -1.
         23    2    1    0    0    0 -0.26569902238E+02  0.16987290191E+02  0.18896491453E+02  0.88235817400E+02  0.80211933963E+02 0.  0.
         13    1    3    3    0    0 -0.13295927279E+02  0.61872437130E+00 -0.31181665189E+02  0.33903862760E+02  0.10566000000E+00 0.  1.
         22    1    1    0    0    0  0.26569902238E+02 -0.16987290191E+02 -0.18896491453E+02  0.36764182600E+02  0.00000000000E+00 0. -1.
</event>
<event>
 5    1  0.1709463E-003  0.9118800E+02  0.7818608E-02  0.1130116E+00
         25   -1    0    0    0    0  0.00000000000E+00  0.00000000000E+00  0.99999998245E-14  0.12500000000E+03  0.12500000000E+03 0.  0.
        -13    1    3    3    0    0  0.77564108634E+01 -0.37810174961E+02 -0.17633801822E+01  0.38637959493E+02  0.10566000000E+00 0.  1.
         23    2    1    0    0    0 -0.24044268072E+02  0.11129532634E+01 -0.21586600736E+02  0.92668176305E+02  0.86844942721E+02 0.  0.
         13    1    3    3    0    0 -0.31800678936E+02  0.38923128225E+02 -0.19823220554E+02  0.54030216812E+02  0.10566000000E+00 0. -1.
         22    1    1    0    0    0  0.24044268072E+02 -0.11129532634E+01  0.21586600736E+02  0.32331823695E+02  0.00000000000E+00 0. -1.
</event>
<event>
 5    1  0.1709463E-003  0.9118800E+02  0.7818608E-02  0.1130116E+00
         25   -1    0    0    0    0  0.00000000000E+00  0.00000000000E+00  0.99999998245E-14  0.12500000000E+03  0.12500000000E+03 0.  0.
        -13    1    3    3    0    0  0.15474550024E+02 -0.17630657756E+02 -0.53585858469E+02  0.58495787739E+02  0.10566000000E+00 0. -1.
         23    2    1    0    0    0 -0.39377026143E+00 -0.20097021899E+02 -0.16204228312E+02  0.99180969046E+02  0.95761381890E+02 0.  0.
         13    1    3    3    0    0 -0.15868320286E+02 -0.24663641426E+01  0.37381630157E+02  0.40685181307E+02  0.10566000000E+00 0.  1.
         22    1    1    0    0    0  0.39377026143E+00  0.20097021899E+02  0.16204228312E+02  0.25819030954E+02  0.00000000000E+00 0. -1.
</event>
<event>
 5    1  0.1709463E-003  0.9118800E+02  0.7818608E-02  0.1130116E+00
         25   -1    0    0    0    0  0.00000000000E+00  0.00000000000E+00  0.99999998245E-14  0.12500000000E+03  0.12500000000E+03 0.  0.
        -13    1    3    3    0    0  0.20704273816E+02 -0.60007292377E+01  0.42579983000E+02  0.47725693520E+02  0.10566000000E+00 0. -1.
         23    2    1    0    0    0 -0.21169555482E+02 -0.37171856131E+01  0.21252458604E+02  0.94773611779E+02  0.89824289280E+02 0.  0.
         13    1    3    3    0    0 -0.41873829298E+02  0.22835436247E+01 -0.21327524396E+02  0.47047918258E+02  0.10566000000E+00 0.  1.
         22    1    1    0    0    0  0.21169555482E+02  0.37171856131E+01 -0.21252458604E+02  0.30226388221E+02  0.00000000000E+00 0. -1.
</event>
<event>
 5    1  0.1709463E-003  0.9118800E+02  0.7818608E-02  0.1130116E+00
         25   -1    0    0    0    0  0.00000000000E+00  0.00000000000E+00  0.99999998245E-14  0.12500000000E+03  0.12500000000E+03 0.  0.
        -13    1    3    3    0    0  0.16417083093E+02 -0.13622917763E+02 -0.56081224035E+02  0.60001827964E+02  0.10566000000E+00 0. -1.
         23    2    1    0    0    0 -0.40748617181E+01 -0.24293600396E+01 -0.28356436193E+02  0.96249456322E+02  0.91855125500E+02 0.  0.
         13    1    3    3    0    0 -0.20491944812E+02  0.11193557723E+02  0.27724787843E+02  0.36247628358E+02  0.10566000000E+00 0.  1.
         22    1    1    0    0    0  0.40748617181E+01  0.24293600396E+01  0.28356436193E+02  0.28750543678E+02  0.00000000000E+00 0. -1.
</event>
<event>
 5    1  0.1709463E-003  0.9118800E+02  0.7818608E-02  0.1130116E+00
         25   -1    0    0    0    0  0.00000000000E+00  0.00000000000E+00  0.99999998245E-14  0.12500000000E+03  0.12500000000E+03 0.  0.
        -13    1    3    3    0    0  0.11579803151E+02 -0.24274121885E+02  0.51994110414E+02  0.58538222693E+02  0.10566000000E+00 0. -1.
         23    2    1    0    0    0  0.23030941524E+01 -0.24765673488E+02  0.16683982557E+02  0.95050073457E+02  0.90208194551E+02 0.  0.
         13    1    3    3    0    0 -0.92767089988E+01 -0.49155160362E+00 -0.35310127857E+02  0.36511850763E+02  0.10566000000E+00 0.  1.
         22    1    1    0    0    0 -0.23030941524E+01  0.24765673488E+02 -0.16683982557E+02  0.29949926543E+02  0.00000000000E+00 0. -1.
</event>
<event>
 5    1  0.1709463E-003  0.9118800E+02  0.7818608E-02  0.1130116E+00
         25   -1    0    0    0    0  0.00000000000E+00  0.00000000000E+00  0.99999998245E-14  0.12500000000E+03  0.12500000000E+03 0.  0.
        -13    1    3    3    0    0  0.63857996523E+01  0.39129946632E+02  0.37037873533E+01  0.39820351146E+02  0.10566000000E+00 0. -1.
         23    2    1    0    0    0 -0.24499515328E+02 -0.24489946523E+01 -0.16439701056E+02  0.95394466785E+02  0.90684159016E+02 0.  0.
         13    1    3    3    0    0 -0.30885314980E+02 -0.41578941284E+02 -0.20143488409E+02  0.55574115639E+02  0.10566000000E+00 0.  1.
         22    1    1    0    0    0  0.24499515328E+02  0.24489946523E+01  0.16439701056E+02  0.29605533215E+02  0.00000000000E+00 0.  1.
</event>
<event>
 5    1  0.1709463E-003  0.9118800E+02  0.7818608E-02  0.1130116E+00
         25   -1    0    0    0    0  0.00000000000E+00  0.00000000000E+00  0.99999998245E-14  0.12500000000E+03  0.12500000000E+03 0.  0.
        -13    1    3    3    0    0 -0.42342741917E+02 -0.41615269627E+02  0.46149582871E+01  0.59548698249E+02  0.10566000000E+00 0.  1.
         23    2    1    0    0    0 -0.24985601266E+02 -0.10489854016E+02  0.10999900010E+02  0.95754229227E+02  0.91178710819E+02 0.  0.
         13    1    3    3    0    0  0.17357140651E+02  0.31125415611E+02  0.63849417225E+01  0.36205530977E+02  0.10566000000E+00 0. -1.
         22    1    1    0    0    0  0.24985601266E+02  0.10489854016E+02 -0.10999900010E+02  0.29245770773E+02  0.00000000000E+00 0.  1.
</event>
<event>
 5    1  0.1709463E-003  0.9118800E+02  0.7818608E-02  0.1130116E+00
         25   -1    0    0    0    0  0.00000000000E+00  0.00000000000E+00  0.99999998245E-14  0.12500000000E+03  0.12500000000E+03 0.  0.
        -13    1    3    3    0    0  0.16157857255E+02  0.28497958252E+02  0.12788256006E+02  0.35167607699E+02  0.10566000000E+00 0. -1.
         23    2    1    0    0    0 -0.18592217133E+02 -0.12877780348E+02 -0.16851348090E+02  0.96795821284E+02  0.92595654979E+02 0.  0.
         13    1    3    3    0    0 -0.34750074388E+02 -0.41375738600E+02 -0.29639604096E+02  0.61628213585E+02  0.10566000000E+00 0.  1.
         22    1    1    0    0    0  0.18592217133E+02  0.12877780348E+02  0.16851348090E+02  0.28204178716E+02  0.00000000000E+00 0.  1.
</event>
<event>
 5    1  0.1709463E-003  0.9118800E+02  0.7818608E-02  0.1130116E+00
         25   -1    0    0    0    0  0.00000000000E+00  0.00000000000E+00  0.99999998245E-14  0.12500000000E+03  0.12500000000E+03 0.  0.
        -13    1    3    3    0    0  0.23750533017E+01  0.10987602195E+02  0.50368727034E+02  0.51608023671E+02  0.10566000000E+00 0. -1.
         23    2    1    0    0    0  0.67538114729E+01 -0.20468684285E+02  0.22160692754E+02  0.94085969057E+02  0.88862209427E+02 0.  0.
         13    1    3    3    0    0  0.43787581711E+01 -0.31456286481E+02 -0.28208034280E+02  0.42477945386E+02  0.10566000000E+00 0.  1.
         22    1    1    0    0    0 -0.67538114729E+01  0.20468684285E+02 -0.22160692754E+02  0.30914030943E+02  0.00000000000E+00 0.  1.
</event>
<event>
 5    1  0.1709463E-003  0.9118800E+02  0.7818608E-02  0.1130116E+00
         25   -1    0    0    0    0  0.00000000000E+00  0.00000000000E+00  0.99999998245E-14  0.12500000000E+03  0.12500000000E+03 0.  0.
        -13    1    3    3    0    0  0.16600573548E+02  0.49407912964E+02 -0.10914164934E+02  0.53252709470E+02  0.10566000000E+00 0.  1.
         23    2    1    0    0    0  0.27341285530E+02  0.93760003541E+01 -0.89286003633E+01  0.94748137553E+02  0.89788832202E+02 0.  0.
         13    1    3    3    0    0  0.10740711982E+02 -0.40031912610E+02  0.19855645711E+01  0.41495428083E+02  0.10566000000E+00 0. -1.
         22    1    1    0    0    0 -0.27341285530E+02 -0.93760003541E+01  0.89286003633E+01  0.30251862447E+02  0.00000000000E+00 0.  1.
</event>
<event>
 5    1  0.1709463E-003  0.9118800E+02  0.7818608E-02  0.1130116E+00
         25   -1    0    0    0    0  0.00000000000E+00  0.00000000000E+00  0.99999998245E-14  0.12500000000E+03  0.12500000000E+03 0.  0.
        -13    1    3    3    0    0 -0.20939143006E+02 -0.51506264328E+02  0.73207189486E+01  0.56079827610E+02  0.10566000000E+00 0. -1.
         23    2    1    0    0    0  0.86058533505E+01 -0.24627757631E+02 -0.60851550796E+01  0.98211639278E+02  0.94487617281E+02 0.  0.
         13    1    3    3    0    0  0.29544996356E+02  0.26878506697E+02 -0.13405874028E+02  0.42131811668E+02  0.10566000000E+00 0.  1.
         22    1    1    0    0    0 -0.86058533505E+01  0.24627757631E+02  0.60851550796E+01  0.26788360722E+02  0.00000000000E+00 0. -1.
</event>
<event>
 5    1  0.1709463E-003  0.9118800E+02  0.7818608E-02  0.1130116E+00
         25   -1    0    0    0    0  0.00000000000E+00  0.00000000000E+00  0.99999998245E-14  0.12500000000E+03  0.12500000000E+03 0.  0.
        -13    1    3    3    0    0 -0.25632413724E+02  0.31254035466E+02  0.35530083749E+02  0.53816664532E+02  0.10566000000E+00 0. -1.
         23    2    1    0    0    0  0.11011275182E+02  0.18944687009E+02  0.19509843393E+02  0.95660890671E+02  0.91050659897E+02 0.  0.
         13    1    3    3    0    0  0.36643688905E+02 -0.12309348457E+02 -0.16020240355E+02  0.41844226138E+02  0.10566000000E+00 0.  1.
         22    1    1    0    0    0 -0.11011275182E+02 -0.18944687009E+02 -0.19509843393E+02  0.29339109329E+02  0.00000000000E+00 0. -1.
</event>
<event>
 5    1  0.1709463E-003  0.9118800E+02  0.7818608E-02  0.1130116E+00
         25   -1    0    0    0    0  0.00000000000E+00  0.00000000000E+00  0.99999998245E-14  0.12500000000E+03  0.12500000000E+03 0.  0.
        -13    1    3    3    0    0  0.47549256296E+01  0.51779469599E+02 -0.69086192026E+01  0.52454389454E+02  0.10566000000E+00 0.  1.
         23    2    1    0    0    0  0.83463855658E+01  0.13518129425E+02 -0.25352542457E+02  0.95080885972E+02  0.90250880844E+02 0.  0.
         13    1    3    3    0    0  0.35914599362E+01 -0.38261340174E+02 -0.18443923255E+02  0.42626496519E+02  0.10566000000E+00 0. -1.
         22    1    1    0    0    0 -0.83463855658E+01 -0.13518129425E+02  0.25352542457E+02  0.29919114028E+02  0.00000000000E+00 0.  1.
</event>
<event>
 5    1  0.1709463E-003  0.9118800E+02  0.7818608E-02  0.1130116E+00
         25   -1    0    0    0    0  0.00000000000E+00  0.00000000000E+00  0.99999998245E-14  0.12500000000E+03  0.12500000000E+03 0.  0.
        -13    1    3    3    0    0  0.18734594719E+02  0.20727224208E+02  0.36367703469E+02  0.45860918899E+02  0.10566000000E+00 0. -1.
         23    2    1    0    0    0 -0.20695973383E+02 -0.54040715562E+01  0.19421932428E+02  0.96108154041E+02  0.91662634210E+02 0.  0.
         13    1    3    3    0    0 -0.39430568103E+02 -0.26131295764E+02 -0.16945771041E+02  0.50247235142E+02  0.10566000000E+00 0.  1.
         22    1    1    0    0    0  0.20695973383E+02  0.54040715562E+01 -0.19421932428E+02  0.28891845959E+02  0.00000000000E+00 0. -1.
</event>
<event>
 5    1  0.1709463E-003  0.9118800E+02  0.7818608E-02  0.1130116E+00
         25   -1    0    0    0    0  0.00000000000E+00  0.00000000000E+00  0.99999998245E-14  0.12500000000E+03  0.12500000000E+03 0.  0.
        -13    1    3    3    0    0 -0.34116081800E+02 -0.23995145993E+02 -0.13222925571E+02  0.43755353881E+02  0.10566000000E+00 0. -1.
         23    2    1    0    0    0  0.16799359177E+02 -0.15602835807E+02 -0.18379735921E+02  0.95614941781E+02  0.90987556541E+02 0.  0.
         13    1    3    3    0    0  0.50915440977E+02  0.83923101852E+01 -0.51568103506E+01  0.51859587900E+02  0.10566000000E+00 0.  1.
         22    1    1    0    0    0 -0.16799359177E+02  0.15602835807E+02  0.18379735921E+02  0.29385058219E+02  0.00000000000E+00 0. -1.
</event>
<event>
 5    1  0.1709463E-003  0.9118800E+02  0.7818608E-02  0.1130116E+00
         25   -1    0    0    0    0  0.00000000000E+00  0.00000000000E+00  0.99999998245E-14  0.12500000000E+03  0.12500000000E+03 0.  0.
        -13    1    3    3    0    0 -0.31697385816E+02 -0.11556636891E+02  0.18786803859E+02  0.38616515729E+02  0.10566000000E+00 0. -1.
         23    2    1    0    0    0 -0.41547601161E+01  0.74691845516E+00 -0.29308394720E+02  0.95389158744E+02  0.90676842061E+02 0.  0.
         13    1    3    3    0    0  0.27542625700E+02  0.12303555346E+02 -0.48095198579E+02  0.56772643015E+02  0.10566000000E+00 0.  1.
         22    1    1    0    0    0  0.41547601161E+01 -0.74691845516E+00  0.29308394720E+02  0.29610841256E+02  0.00000000000E+00 0.  1.
</event>
<event>
 5    1  0.1709463E-003  0.9118800E+02  0.7818608E-02  0.1130116E+00
         25   -1    0    0    0    0  0.00000000000E+00  0.00000000000E+00  0.99999998245E-14  0.12500000000E+03  0.12500000000E+03 0.  0.
        -13    1    3    3    0    0  0.20671754134E+02 -0.20021675256E+01  0.33147353843E+02  0.39116343446E+02  0.10566000000E+00 0. -1.
         23    2    1    0    0    0  0.16788531128E+02  0.10753778521E+01 -0.23565775066E+02  0.96045605352E+02  0.91577297067E+02 0.  0.
         13    1    3    3    0    0 -0.38832230068E+01  0.30775453777E+01 -0.56713128909E+02  0.56929261906E+02  0.10566000000E+00 0.  1.
         22    1    1    0    0    0 -0.16788531128E+02 -0.10753778521E+01  0.23565775066E+02  0.28954394648E+02  0.00000000000E+00 0.  1.
</event>
<event>
 5    1  0.1709463E-003  0.9118800E+02  0.7818608E-02  0.1130116E+00
         25   -1    0    0    0    0  0.00000000000E+00  0.00000000000E+00  0.99999998245E-14  0.12500000000E+03  0.12500000000E+03 0.  0.
        -13    1    3    3    0    0 -0.25181613308E+01 -0.46153194951E+01 -0.44241395574E+02  0.44552828832E+02  0.10566000000E+00 0.  1.
         23    2    1    0    0    0  0.68297763289E+01  0.27699131794E+02 -0.53504326812E+01  0.95973893187E+02  0.91479359949E+02 0.  0.
         13    1    3    3    0    0  0.93479376598E+01  0.32314451290E+02  0.38890962893E+02  0.51421064355E+02  0.10566000000E+00 0. -1.
         22    1    1    0    0    0 -0.68297763289E+01 -0.27699131794E+02  0.53504326812E+01  0.29026106813E+02  0.00000000000E+00 0. -1.
</event>
<event>
 5    1  0.1709463E-003  0.9118800E+02  0.7818608E-02  0.1130116E+00
         25   -1    0    0    0    0  0.00000000000E+00  0.00000000000E+00  0.99999998245E-14  0.12500000000E+03  0.12500000000E+03 0.  0.
        -13    1    3    3    0    0  0.19486535832E+02  0.32308057182E+02  0.35111745204E+02  0.51540095585E+02  0.10566000000E+00 0. -1.
         23    2    1    0    0    0  0.14754342560E+02  0.24105548776E+02 -0.79578189477E+01  0.95638545871E+02  0.91019978399E+02 0.  0.
         13    1    3    3    0    0 -0.47321932717E+01 -0.82025084064E+01 -0.43069564152E+02  0.44098450286E+02  0.10566000000E+00 0.  1.
         22    1    1    0    0    0 -0.14754342560E+02 -0.24105548776E+02  0.79578189477E+01  0.29361454129E+02  0.00000000000E+00 0. -1.
</event>
<event>
 5    1  0.1709463E-003  0.9118800E+02  0.7818608E-02  0.1130116E+00
         25   -1    0    0    0    0  0.00000000000E+00  0.00000000000E+00  0.99999998245E-14  0.12500000000E+03  0.12500000000E+03 0.  0.
        -13    1    3    3    0    0  0.23311919225E+02 -0.16591271542E+02 -0.43687561751E+02  0.52223845943E+02  0.10566000000E+00 0.  1.
         23    2    1    0    0    0 -0.13905248336E+02 -0.75570182981E+01 -0.26347872594E+02  0.94264436770E+02  0.89112901380E+02 0.  0.
         13    1    3    3    0    0 -0.37217167561E+02  0.90342532442E+01  0.17339689157E+02  0.42040590826E+02  0.10566000000E+00 0. -1.
         22    1    1    0    0    0  0.13905248336E+02  0.75570182981E+01  0.26347872594E+02  0.30735563230E+02  0.00000000000E+00 0.  1.
</event>
<event>
 5    1  0.1709463E-003  0.9118800E+02  0.7818608E-02  0.1130116E+00
         25   -1    0    0    0    0  0.00000000000E+00  0.00000000000E+00  0.99999998245E-14  0.12500000000E+03  0.12500000000E+03 0.  0.
        -13    1    3    3    0    0  0.33129003040E+02  0.77815904018E+01  0.87513964663E+01  0.35138043425E+02  0.10566000000E+00 0.  1.
         23    2    1    0    0    0 -0.18442559534E+02 -0.19871472210E+02 -0.92377161725E+01  0.96358442605E+02  0.92003318697E+02 0.  0.
         13    1    3    3    0    0 -0.51571562574E+02 -0.27653062611E+02 -0.17989112639E+02  0.61220399179E+02  0.10566000000E+00 0. -1.
         22    1    1    0    0    0  0.18442559534E+02  0.19871472210E+02  0.92377161725E+01  0.28641557395E+02  0.00000000000E+00 0. -1.
</event>
<event>
 5    1  0.1709463E-003  0.9118800E+02  0.7818608E-02  0.1130116E+00
         25   -1    0    0    0    0  0.00000000000E+00  0.00000000000E+00  0.99999998245E-14  0.12500000000E+03  0.12500000000E+03 0.  0.
        -13    1    3    3    0    0 -0.30783600841E+02 -0.48134786336E+01  0.21949715588E+02  0.38113000876E+02  0.10566000000E+00 0. -1.
         23    2    1    0    0    0  0.22212292678E+01  0.22960827275E+02 -0.17088972099E+02  0.96291701270E+02  0.91912596076E+02 0.  0.
         13    1    3    3    0    0  0.33004830109E+02  0.27774305908E+02 -0.39038687687E+02  0.58178700394E+02  0.10566000000E+00 0.  1.
         22    1    1    0    0    0 -0.22212292678E+01 -0.22960827275E+02  0.17088972099E+02  0.28708298730E+02  0.00000000000E+00 0. -1.
</event>
<event>
 5    1  0.1709463E-003  0.9118800E+02  0.7818608E-02  0.1130116E+00
         25   -1    0    0    0    0  0.00000000000E+00  0.00000000000E+00  0.99999998245E-14  0.12500000000E+03  0.12500000000E+03 0.  0.
        -13    1    3    3    0    0  0.55778655262E+00  0.57616463139E+02 -0.17703657691E+02  0.60277679203E+02  0.10566000000E+00 0.  1.
         23    2    1    0    0    0  0.96250102929E+01  0.27079607668E+02 -0.10067747475E+01  0.96243095265E+02  0.91846468719E+02 0.  0.
         13    1    3    3    0    0  0.90672237402E+01 -0.30536855471E+02  0.16696882944E+02  0.35965416061E+02  0.10566000000E+00 0. -1.
         22    1    1    0    0    0 -0.96250102929E+01 -0.27079607668E+02  0.10067747475E+01  0.28756904735E+02  0.00000000000E+00 0.  1.
</event>
<event>
 5    1  0.1709463E-003  0.9118800E+02  0.7818608E-02  0.1130116E+00
         25   -1    0    0    0    0  0.00000000000E+00  0.00000000000E+00  0.99999998245E-14  0.12500000000E+03  0.12500000000E+03 0.  0.
        -13    1    3    3    0    0  0.44398558509E+02  0.23276041233E+02  0.12314380083E+02  0.51620356586E+02  0.10566000000E+00 0.  1.
         23    2    1    0    0    0  0.99850028057E+01 -0.72546224571E+00  0.27102926200E+02  0.96107177620E+02  0.91661302658E+02 0.  0.
         13    1    3    3    0    0 -0.34413555704E+02 -0.24001503479E+02  0.14788546117E+02  0.44486821034E+02  0.10566000000E+00 0. -1.
         22    1    1    0    0    0 -0.99850028057E+01  0.72546224571E+00 -0.27102926200E+02  0.28892822380E+02  0.00000000000E+00 0. -1.
</event>
<event>
 5    1  0.1709463E-003  0.9118800E+02  0.7818608E-02  0.1130116E+00
         25   -1    0    0    0    0  0.00000000000E+00  0.00000000000E+00  0.99999998245E-14  0.12500000000E+03  0.12500000000E+03 0.  0.
        -13    1    3    3    0    0 -0.13929561741E+02  0.31588949579E+02 -0.31158267410E+02  0.46505303115E+02  0.10566000000E+00 0.  1.
         23    2    1    0    0    0  0.24408586854E+02  0.19738924637E+02 -0.90019127093E+01  0.92343627108E+02  0.86376540663E+02 0.  0.
         13    1    3    3    0    0  0.38338148595E+02 -0.11850024942E+02  0.22156354700E+02  0.45838323993E+02  0.10566000000E+00 0. -1.
         22    1    1    0    0    0 -0.24408586854E+02 -0.19738924637E+02  0.90019127093E+01  0.32656372892E+02  0.00000000000E+00 0. -1.
</event>
<event>
 5    1  0.1709463E-003  0.9118800E+02  0.7818608E-02  0.1130116E+00
         25   -1    0    0    0    0  0.00000000000E+00  0.00000000000E+00  0.99999998245E-14  0.12500000000E+03  0.12500000000E+03 0.  0.
        -13    1    3    3    0    0  0.17531967999E+02  0.20615643119E+02  0.24079715586E+02  0.36224556724E+02  0.10566000000E+00 0. -1.
         23    2    1    0    0    0 -0.16083557447E+02 -0.24163924601E+02  0.40532643113E+01  0.95691212515E+02  0.91092278096E+02 0.  0.
         13    1    3    3    0    0 -0.33615525447E+02 -0.44779567720E+02 -0.20026451275E+02  0.59466655791E+02  0.10566000000E+00 0.  1.
         22    1    1    0    0    0  0.16083557447E+02  0.24163924601E+02 -0.40532643113E+01  0.29308787485E+02  0.00000000000E+00 0.  1.
</event>
<event>
 5    1  0.1709463E-003  0.9118800E+02  0.7818608E-02  0.1130116E+00
         25   -1    0    0    0    0  0.00000000000E+00  0.00000000000E+00  0.99999998245E-14  0.12500000000E+03  0.12500000000E+03 0.  0.
        -13    1    3    3    0    0 -0.62071575014E+01 -0.34540760355E+02 -0.35426984836E+02  0.49866575466E+02  0.10566000000E+00 0. -1.
         23    2    1    0    0    0  0.14227108555E+02 -0.51019132635E+01  0.93571922696E+01  0.10722369037E+03  0.10573988175E+03 0.  0.
         13    1    3    3    0    0  0.20434266057E+02  0.29438847091E+02  0.44784177105E+02  0.57357114906E+02  0.10566000000E+00 0.  1.
         22    1    1    0    0    0 -0.14227108555E+02  0.51019132635E+01 -0.93571922696E+01  0.17776309627E+02  0.00000000000E+00 0. -1.
</event>
<event>
 5    1  0.1709463E-003  0.9118800E+02  0.7818608E-02  0.1130116E+00
         25   -1    0    0    0    0  0.00000000000E+00  0.00000000000E+00  0.99999998245E-14  0.12500000000E+03  0.12500000000E+03 0.  0.
        -13    1    3    3    0    0  0.18108391543E+02  0.47177233044E+02 -0.16909145497E+02  0.53287292364E+02  0.10566000000E+00 0.  1.
         23    2    1    0    0    0  0.10333604711E+02  0.68608846789E+01 -0.26754105992E+02  0.95510386365E+02  0.90843803263E+02 0.  0.
         13    1    3    3    0    0 -0.77747868319E+01 -0.40316348366E+02 -0.98449604956E+01  0.42223094001E+02  0.10566000000E+00 0. -1.
         22    1    1    0    0    0 -0.10333604711E+02 -0.68608846789E+01  0.26754105992E+02  0.29489613635E+02  0.00000000000E+00 0.  1.
</event>
<event>
 5    1  0.1709463E-003  0.9118800E+02  0.7818608E-02  0.1130116E+00
         25   -1    0    0    0    0  0.00000000000E+00  0.00000000000E+00  0.99999998245E-14  0.12500000000E+03  0.12500000000E+03 0.  0.
        -13    1    3    3    0    0  0.40446979704E+02  0.16875809186E+02 -0.47861709082E+01  0.44087069520E+02  0.10566000000E+00 0.  1.
         23    2    1    0    0    0 -0.14364015082E+02  0.20555594347E+02 -0.66605253121E+01  0.99053516892E+02  0.95594870276E+02 0.  0.
         13    1    3    3    0    0 -0.54810994786E+02  0.36797851616E+01 -0.18743544039E+01  0.54966447372E+02  0.10566000000E+00 0. -1.
         22    1    1    0    0    0  0.14364015082E+02 -0.20555594347E+02  0.66605253121E+01  0.25946483108E+02  0.00000000000E+00 0. -1.
</event>
<event>
 5    1  0.1709463E-003  0.9118800E+02  0.7818608E-02  0.1130116E+00
         25   -1    0    0    0    0  0.00000000000E+00  0.00000000000E+00  0.99999998245E-14  0.12500000000E+03  0.12500000000E+03 0.  0.
        -13    1    3    3    0    0 -0.25396904434E+02  0.14444467637E+02  0.19078038836E+02  0.34894528654E+02  0.10566000000E+00 0.  1.
         23    2    1    0    0    0  0.88771154622E+01 -0.24447607623E+02 -0.13068341262E+02  0.95892093157E+02  0.91367517693E+02 0.  0.
         13    1    3    3    0    0  0.34274019896E+02 -0.38892075260E+02 -0.32146380098E+02  0.60997564503E+02  0.10566000000E+00 0. -1.
         22    1    1    0    0    0 -0.88771154622E+01  0.24447607623E+02  0.13068341262E+02  0.29107906843E+02  0.00000000000E+00 0. -1.
</event>
<event>
 5    1  0.1709463E-003  0.9118800E+02  0.7818608E-02  0.1130116E+00
         25   -1    0    0    0    0  0.00000000000E+00  0.00000000000E+00  0.99999998245E-14  0.12500000000E+03  0.12500000000E+03 0.  0.
        -13    1    3    3    0    0  0.23184490537E+01 -0.55663276672E+02  0.24468140270E+01  0.55765344425E+02  0.10566000000E+00 0. -1.
         23    2    1    0    0    0  0.12559940019E+02 -0.18698503497E+02  0.16988372727E+02  0.96786688705E+02  0.92583325584E+02 0.  0.
         13    1    3    3    0    0  0.10241490965E+02  0.36964773175E+02  0.14541558700E+02  0.41021344280E+02  0.10566000000E+00 0.  1.
         22    1    1    0    0    0 -0.12559940019E+02  0.18698503497E+02 -0.16988372727E+02  0.28213311295E+02  0.00000000000E+00 0. -1.
</event>
<event>
 5    1  0.1709463E-003  0.9118800E+02  0.7818608E-02  0.1130116E+00
         25   -1    0    0    0    0  0.00000000000E+00  0.00000000000E+00  0.99999998245E-14  0.12500000000E+03  0.12500000000E+03 0.  0.
        -13    1    3    3    0    0 -0.42911836042E+02 -0.19840231238E+02 -0.22506417136E+02  0.52360389842E+02  0.10566000000E+00 0. -1.
         23    2    1    0    0    0 -0.24197752024E+02  0.15156497984E+02 -0.39332150150E+01  0.96177772215E+02  0.91757523145E+02 0.  0.
         13    1    3    3    0    0  0.18714084018E+02  0.34996729222E+02  0.18573202121E+02  0.43817382372E+02  0.10566000000E+00 0.  1.
         22    1    1    0    0    0  0.24197752024E+02 -0.15156497984E+02  0.39332150150E+01  0.28822227785E+02  0.00000000000E+00 0. -1.
</event>
<event>
 5    1  0.1709463E-003  0.9118800E+02  0.7818608E-02  0.1130116E+00
         25   -1    0    0    0    0  0.00000000000E+00  0.00000000000E+00  0.99999998245E-14  0.12500000000E+03  0.12500000000E+03 0.  0.
        -13    1    3    3    0    0  0.26595478577E+02  0.49430563336E+02 -0.16824108287E+02  0.58598309329E+02  0.10566000000E+00 0. -1.
         23    2    1    0    0    0  0.25216099080E+02  0.14161176136E+02 -0.67938693602E+01  0.95292303636E+02  0.90543226743E+02 0.  0.
         13    1    3    3    0    0 -0.13793794972E+01 -0.35269387200E+02  0.10030238926E+02  0.36693994308E+02  0.10566000000E+00 0.  1.
         22    1    1    0    0    0 -0.25216099080E+02 -0.14161176136E+02  0.67938693602E+01  0.29707696364E+02  0.00000000000E+00 0. -1.
</event>
<event>
 5    1  0.1709463E-003  0.9118800E+02  0.7818608E-02  0.1130116E+00
         25   -1    0    0    0    0  0.00000000000E+00  0.00000000000E+00  0.99999998245E-14  0.12500000000E+03  0.12500000000E+03 0.  0.
        -13    1    3    3    0    0 -0.44843515238E+02  0.74598342673E+01 -0.32560288751E+02  0.55917560335E+02  0.10566000000E+00 0. -1.
         23    2    1    0    0    0 -0.12840847687E+02  0.22219956401E+02 -0.14634165334E+02  0.95457274554E+02  0.90770692619E+02 0.  0.
         13    1    3    3    0    0  0.32002667550E+02  0.14760122133E+02  0.17926123418E+02  0.39539714219E+02  0.10566000000E+00 0.  1.
         22    1    1    0    0    0  0.12840847687E+02 -0.22219956401E+02  0.14634165334E+02  0.29542725446E+02  0.00000000000E+00 0. -1.
</event>
<event>
 5    1  0.1709463E-003  0.9118800E+02  0.7818608E-02  0.1130116E+00
         25   -1    0    0    0    0  0.00000000000E+00  0.00000000000E+00  0.99999998245E-14  0.12500000000E+03  0.12500000000E+03 0.  0.
        -13    1    3    3    0    0 -0.30595469976E+01  0.35093690097E+02 -0.59722863469E+00  0.35232027454E+02  0.10566000000E+00 0.  1.
         23    2    1    0    0    0 -0.70458269663E+01 -0.23968636683E+02  0.14218208540E+02  0.96254623395E+02  0.91862156783E+02 0.  0.
         13    1    3    3    0    0 -0.39862799686E+01 -0.59062326780E+02  0.14815437174E+02  0.61022595941E+02  0.10566000000E+00 0. -1.
         22    1    1    0    0    0  0.70458269663E+01  0.23968636683E+02 -0.14218208540E+02  0.28745376605E+02  0.00000000000E+00 0. -1.
</event>
<event>
 5    1  0.1709463E-003  0.9118800E+02  0.7818608E-02  0.1130116E+00
         25   -1    0    0    0    0  0.00000000000E+00  0.00000000000E+00  0.99999998245E-14  0.12500000000E+03  0.12500000000E+03 0.  0.
        -13    1    3    3    0    0  0.33935749750E+02 -0.18308183537E+02 -0.19077403918E+02  0.43020729884E+02  0.10566000000E+00 0.  1.
         23    2    1    0    0    0 -0.12893426593E+02 -0.28361145826E+02 -0.23372258976E+01  0.93758078376E+02  0.88399771458E+02 0.  0.
         13    1    3    3    0    0 -0.46829176343E+02 -0.10052962289E+02  0.16740178021E+02  0.50737348491E+02  0.10566000000E+00 0. -1.
         22    1    1    0    0    0  0.12893426593E+02  0.28361145826E+02  0.23372258976E+01  0.31241921624E+02  0.00000000000E+00 0. -1.
</event>
<event>
 5    1  0.1709463E-003  0.9118800E+02  0.7818608E-02  0.1130116E+00
         25   -1    0    0    0    0  0.00000000000E+00  0.00000000000E+00  0.99999998245E-14  0.12500000000E+03  0.12500000000E+03 0.  0.
        -13    1    3    3    0    0  0.25737684979E+02 -0.38129834589E+02 -0.64428501499E+01  0.46452493969E+02  0.10566000000E+00 0. -1.
         23    2    1    0    0    0  0.24779613379E+02  0.79359417958E+01  0.12331314220E+02  0.96206429159E+02  0.91796553801E+02 0.  0.
         13    1    3    3    0    0 -0.95807160087E+00  0.46065776384E+02  0.18774164369E+02  0.49753935190E+02  0.10566000000E+00 0.  1.
         22    1    1    0    0    0 -0.24779613379E+02 -0.79359417958E+01 -0.12331314220E+02  0.28793570841E+02  0.00000000000E+00 0. -1.
</event>
<event>
 5    1  0.1709463E-003  0.9118800E+02  0.7818608E-02  0.1130116E+00
         25   -1    0    0    0    0  0.00000000000E+00  0.00000000000E+00  0.99999998245E-14  0.12500000000E+03  0.12500000000E+03 0.  0.
        -13    1    3    3    0    0  0.38060573985E+02 -0.10739452387E+01 -0.31629410509E+01  0.38207015201E+02  0.10566000000E+00 0. -1.
         23    2    1    0    0    0 -0.97359018330E+01  0.42835774973E+01 -0.29920547235E+02  0.93245063887E+02  0.87671352059E+02 0.  0.
         13    1    3    3    0    0 -0.47796475818E+02  0.53575227360E+01 -0.26757606184E+02  0.55038048686E+02  0.10566000000E+00 0.  1.
         22    1    1    0    0    0  0.97359018330E+01 -0.42835774973E+01  0.29920547235E+02  0.31754936113E+02  0.00000000000E+00 0.  1.
</event>
<event>
 5    1  0.1709463E-003  0.9118800E+02  0.7818608E-02  0.1130116E+00
         25   -1    0    0    0    0  0.00000000000E+00  0.00000000000E+00  0.99999998245E-14  0.12500000000E+03  0.12500000000E+03 0.  0.
        -13    1    3    3    0    0 -0.83371551330E+01 -0.53482540446E+02  0.30799889680E+02  0.62277882564E+02  0.10566000000E+00 0. -1.
         23    2    1    0    0    0 -0.51769396008E+01 -0.22384604932E+02  0.16851762186E+02  0.96506963476E+02  0.92204885277E+02 0.  0.
         13    1    3    3    0    0  0.31602155322E+01  0.31097935514E+02 -0.13948127494E+02  0.34229080912E+02  0.10566000000E+00 0.  1.
         22    1    1    0    0    0  0.51769396008E+01  0.22384604932E+02 -0.16851762186E+02  0.28493036524E+02  0.00000000000E+00 0. -1.
</event>
<event>
 5    1  0.1709463E-003  0.9118800E+02  0.7818608E-02  0.1130116E+00
         25   -1    0    0    0    0  0.00000000000E+00  0.00000000000E+00  0.99999998245E-14  0.12500000000E+03  0.12500000000E+03 0.  0.
        -13    1    3    3    0    0 -0.66764566252E+01 -0.11347207791E+02 -0.39642550403E+02  0.41771726852E+02  0.10566000000E+00 0.  1.
         23    2    1    0    0    0  0.22189417562E+02 -0.17401508579E+02  0.60525908431E+01  0.96158768950E+02  0.91731631608E+02 0.  0.
         13    1    3    3    0    0  0.28865874187E+02 -0.60543007882E+01  0.45695141246E+02  0.54387042098E+02  0.10566000000E+00 0. -1.
         22    1    1    0    0    0 -0.22189417562E+02  0.17401508579E+02 -0.60525908431E+01  0.28841231050E+02  0.00000000000E+00 0. -1.
</event>
<event>
 5    1  0.1709463E-003  0.9118800E+02  0.7818608E-02  0.1130116E+00
         25   -1    0    0    0    0  0.00000000000E+00  0.00000000000E+00  0.99999998245E-14  0.12500000000E+03  0.12500000000E+03 0.  0.
        -13    1    3    3    0    0  0.23743390958E+02 -0.26361263268E+02 -0.54114207181E+01  0.35888151993E+02  0.10566000000E+00 0.  1.
         23    2    1    0    0    0 -0.14730350189E+02 -0.21366772585E+02 -0.32650109092E+02  0.83292065370E+02  0.72097270007E+02 0.  0.
         13    1    3    3    0    0 -0.38473741147E+02  0.49944906829E+01 -0.27238688374E+02  0.47403913377E+02  0.10566000000E+00 0. -1.
         22    1    1    0    0    0  0.14730350189E+02  0.21366772585E+02  0.32650109092E+02  0.41707934630E+02  0.00000000000E+00 0. -1.
</event>
<event>
 5    1  0.1709463E-003  0.9118800E+02  0.7818608E-02  0.1130116E+00
         25   -1    0    0    0    0  0.00000000000E+00  0.00000000000E+00  0.99999998245E-14  0.12500000000E+03  0.12500000000E+03 0.  0.
        -13    1    3    3    0    0  0.65836066892E+00 -0.17707111585E+02 -0.56229595014E+02  0.58955523566E+02  0.10566000000E+00 0. -1.
         23    2    1    0    0    0 -0.59583895593E+01  0.53609653623E+01 -0.27322604020E+02  0.96526028619E+02  0.92230727823E+02 0.  0.
         13    1    3    3    0    0 -0.66167502282E+01  0.23068076948E+02  0.28906990994E+02  0.37570505054E+02  0.10566000000E+00 0.  1.
         22    1    1    0    0    0  0.59583895593E+01 -0.53609653623E+01  0.27322604020E+02  0.28473971381E+02  0.00000000000E+00 0. -1.
</event>
<event>
 5    1  0.1709463E-003  0.9118800E+02  0.7818608E-02  0.1130116E+00
         25   -1    0    0    0    0  0.00000000000E+00  0.00000000000E+00  0.99999998245E-14  0.12500000000E+03  0.12500000000E+03 0.  0.
        -13    1    3    3    0    0  0.10739232944E+02  0.95436636381E+00 -0.58667955283E+02  0.59650499415E+02  0.10566000000E+00 0. -1.
         23    2    1    0    0    0  0.52254144026E+00 -0.12153484841E+02 -0.24444574266E+02  0.97695834486E+02  0.93802764467E+02 0.  0.
         13    1    3    3    0    0 -0.10216691503E+02 -0.13107851205E+02  0.34223381016E+02  0.38045335072E+02  0.10566000000E+00 0.  1.
         22    1    1    0    0    0 -0.52254144026E+00  0.12153484841E+02  0.24444574266E+02  0.27304165514E+02  0.00000000000E+00 0. -1.
</event>
<event>
 5    1  0.1709463E-003  0.9118800E+02  0.7818608E-02  0.1130116E+00
         25   -1    0    0    0    0  0.00000000000E+00  0.00000000000E+00  0.99999998245E-14  0.12500000000E+03  0.12500000000E+03 0.  0.
        -13    1    3    3    0    0 -0.19422539438E+02 -0.10921695243E+02 -0.45468327588E+02  0.50634952779E+02  0.10566000000E+00 0.  1.
         23    2    1    0    0    0  0.11765484766E+02  0.13202814238E+02 -0.22899797621E+02  0.96066599462E+02  0.91605948855E+02 0.  0.
         13    1    3    3    0    0  0.31188024205E+02  0.24124509481E+02  0.22568529967E+02  0.45431646684E+02  0.10566000000E+00 0. -1.
         22    1    1    0    0    0 -0.11765484766E+02 -0.13202814238E+02  0.22899797621E+02  0.28933400538E+02  0.00000000000E+00 0. -1.
</event>
<event>
 5    1  0.1709463E-003  0.9118800E+02  0.7818608E-02  0.1130116E+00
         25   -1    0    0    0    0  0.00000000000E+00  0.00000000000E+00  0.99999998245E-14  0.12500000000E+03  0.12500000000E+03 0.  0.
        -13    1    3    3    0    0 -0.18657979417E+02  0.36659172118E+02  0.45504477143E+02  0.61340718128E+02  0.10566000000E+00 0.  1.
         23    2    1    0    0    0 -0.53864593455E+00  0.17731182086E+02  0.23491959685E+02  0.95562657602E+02  0.90915699417E+02 0.  0.
         13    1    3    3    0    0  0.18119333482E+02 -0.18927990033E+02 -0.22012517458E+02  0.34221939474E+02  0.10566000000E+00 0. -1.
         22    1    1    0    0    0  0.53864593455E+00 -0.17731182086E+02 -0.23491959685E+02  0.29437342398E+02  0.00000000000E+00 0.  1.
</event>
<event>
 5    1  0.1709463E-003  0.9118800E+02  0.7818608E-02  0.1130116E+00
         25   -1    0    0    0    0  0.00000000000E+00  0.00000000000E+00  0.99999998245E-14  0.12500000000E+03  0.12500000000E+03 0.  0.
        -13    1    3    3    0    0  0.17642150808E+02  0.16754945392E+02  0.23395969718E+02  0.33754351472E+02  0.10566000000E+00 0.  1.
         23    2    1    0    0    0 -0.18534667393E+02 -0.16570918156E+02 -0.14831654072E+02  0.96049919060E+02  0.91583184947E+02 0.  0.
         13    1    3    3    0    0 -0.36176818202E+02 -0.33325863547E+02 -0.38227623790E+02  0.62295567588E+02  0.10566000000E+00 0. -1.
         22    1    1    0    0    0  0.18534667393E+02  0.16570918156E+02  0.14831654072E+02  0.28950080940E+02  0.00000000000E+00 0. -1.
</event>
<event>
 5    1  0.1709463E-003  0.9118800E+02  0.7818608E-02  0.1130116E+00
         25   -1    0    0    0    0  0.00000000000E+00  0.00000000000E+00  0.99999998245E-14  0.12500000000E+03  0.12500000000E+03 0.  0.
        -13    1    3    3    0    0  0.84849697776E+01 -0.10251370422E+02 -0.60037305077E+02  0.61494507662E+02  0.10566000000E+00 0.  1.
         23    2    1    0    0    0  0.88929484580E+01  0.14080643271E+01 -0.27819998003E+02  0.95759284100E+02  0.91185640454E+02 0.  0.
         13    1    3    3    0    0  0.40797868045E+00  0.11659434749E+02  0.32217307073E+02  0.34264776438E+02  0.10566000000E+00 0. -1.
         22    1    1    0    0    0 -0.88929484580E+01 -0.14080643271E+01  0.27819998003E+02  0.29240715900E+02  0.00000000000E+00 0.  1.
</event>
<event>
 5    1  0.1709463E-003  0.9118800E+02  0.7818608E-02  0.1130116E+00
         25   -1    0    0    0    0  0.00000000000E+00  0.00000000000E+00  0.99999998245E-14  0.12500000000E+03  0.12500000000E+03 0.  0.
        -13    1    3    3    0    0 -0.40011433992E+02  0.20289640695E+02  0.38032213422E+02  0.58813644603E+02  0.10566000000E+00 0.  1.
         23    2    1    0    0    0 -0.23280905123E+02  0.15527586010E+02  0.44082446149E+01  0.96670879095E+02  0.92426834706E+02 0.  0.
         13    1    3    3    0    0  0.16730528869E+02 -0.47620546854E+01 -0.33623968807E+02  0.37857234493E+02  0.10566000000E+00 0. -1.
         22    1    1    0    0    0  0.23280905123E+02 -0.15527586010E+02 -0.44082446149E+01  0.28329120905E+02  0.00000000000E+00 0.  1.
</event>
<event>
 5    1  0.1709463E-003  0.9118800E+02  0.7818608E-02  0.1130116E+00
         25   -1    0    0    0    0  0.00000000000E+00  0.00000000000E+00  0.99999998245E-14  0.12500000000E+03  0.12500000000E+03 0.  0.
        -13    1    3    3    0    0 -0.35814800703E+02 -0.22419048818E+01 -0.17349265658E+02  0.39858929611E+02  0.10566000000E+00 0.  1.
         23    2    1    0    0    0 -0.28503658558E+01  0.83949652622E+00  0.28462851096E+02  0.96382466345E+02  0.92035952683E+02 0.  0.
         13    1    3    3    0    0  0.32964434847E+02  0.30814014081E+01  0.45812116754E+02  0.56523536734E+02  0.10566000000E+00 0. -1.
         22    1    1    0    0    0  0.28503658558E+01 -0.83949652622E+00 -0.28462851096E+02  0.28617533655E+02  0.00000000000E+00 0. -1.
</event>
<event>
 5    1  0.1709463E-003  0.9118800E+02  0.7818608E-02  0.1130116E+00
         25   -1    0    0    0    0  0.00000000000E+00  0.00000000000E+00  0.99999998245E-14  0.12500000000E+03  0.12500000000E+03 0.  0.
        -13    1    3    3    0    0 -0.14900502742E+02 -0.17130251174E+02  0.41339762871E+02  0.47164156364E+02  0.10566000000E+00 0. -1.
         23    2    1    0    0    0  0.17146034616E+02 -0.25404439246E+02  0.99590879215E+01  0.92773373297E+02  0.86996225919E+02 0.  0.
         13    1    3    3    0    0  0.32046537358E+02 -0.82741880718E+01 -0.31380674950E+02  0.45609216933E+02  0.10566000000E+00 0.  1.
         22    1    1    0    0    0 -0.17146034616E+02  0.25404439246E+02 -0.99590879215E+01  0.32226626703E+02  0.00000000000E+00 0. -1.
</event>
<event>
 5    1  0.1709463E-003  0.9118800E+02  0.7818608E-02  0.1130116E+00
         25   -1    0    0    0    0  0.00000000000E+00  0.00000000000E+00  0.99999998245E-14  0.12500000000E+03  0.12500000000E+03 0.  0.
        -13    1    3    3    0    0  0.15245099223E+02 -0.20755854192E+02 -0.19416227460E+02  0.32252435356E+02  0.10566000000E+00 0. -1.
         23    2    1    0    0    0 -0.25347722201E+01  0.24219251336E+02  0.19078694040E+02  0.94064684069E+02  0.88832263381E+02 0.  0.
         13    1    3    3    0    0 -0.17779871443E+02  0.44975105527E+02  0.38494921500E+02  0.61812248714E+02  0.10566000000E+00 0.  1.
         22    1    1    0    0    0  0.25347722201E+01 -0.24219251336E+02 -0.19078694040E+02  0.30935315931E+02  0.00000000000E+00 0.  1.
</event>
<event>
 5    1  0.1709463E-003  0.9118800E+02  0.7818608E-02  0.1130116E+00
         25   -1    0    0    0    0  0.00000000000E+00  0.00000000000E+00  0.99999998245E-14  0.12500000000E+03  0.12500000000E+03 0.  0.
        -13    1    3    3    0    0 -0.34205064303E+02  0.22905433914E+02 -0.24974810854E+01  0.41241894993E+02  0.10566000000E+00 0.  1.
         23    2    1    0    0    0 -0.80412042332E+01  0.17568346154E+01 -0.35612853285E+02  0.88448354996E+02  0.80542465501E+02 0.  0.
         13    1    3    3    0    0  0.26163860070E+02 -0.21148599299E+02 -0.33115372200E+02  0.47206460003E+02  0.10566000000E+00 0. -1.
         22    1    1    0    0    0  0.80412042332E+01 -0.17568346154E+01  0.35612853285E+02  0.36551645004E+02  0.00000000000E+00 0. -1.
</event>
<event>
 5    1  0.1709463E-003  0.9118800E+02  0.7818608E-02  0.1130116E+00
         25   -1    0    0    0    0  0.00000000000E+00  0.00000000000E+00  0.99999998245E-14  0.12500000000E+03  0.12500000000E+03 0.  0.
        -13    1    3    3    0    0  0.42608536463E+02  0.24954381095E+02  0.11090095708E+02  0.50608397546E+02  0.10566000000E+00 0.  1.
         23    2    1    0    0    0 -0.38313609517E+01  0.22190224877E+02  0.15981014224E+02  0.97386991789E+02  0.93390299000E+02 0.  0.
         13    1    3    3    0    0 -0.46439897414E+02 -0.27641562177E+01  0.48909185153E+01  0.46778594244E+02  0.10566000000E+00 0. -1.
         22    1    1    0    0    0  0.38313609517E+01 -0.22190224877E+02 -0.15981014224E+02  0.27613008211E+02  0.00000000000E+00 0.  1.
</event>
<event>
 5    1  0.1709463E-003  0.9118800E+02  0.7818608E-02  0.1130116E+00
         25   -1    0    0    0    0  0.00000000000E+00  0.00000000000E+00  0.99999998245E-14  0.12500000000E+03  0.12500000000E+03 0.  0.
        -13    1    3    3    0    0 -0.62937433981E+01  0.40562632824E+02 -0.38757462442E+02  0.56454321771E+02  0.10566000000E+00 0.  1.
         23    2    1    0    0    0 -0.16042838740E+01  0.26297700136E+01 -0.28912783566E+02  0.95923575347E+02  0.91410578363E+02 0.  0.
         13    1    3    3    0    0  0.46894595240E+01 -0.37932862811E+02  0.98446788763E+01  0.39469253576E+02  0.10566000000E+00 0. -1.
         22    1    1    0    0    0  0.16042838740E+01 -0.26297700136E+01  0.28912783566E+02  0.29076424653E+02  0.00000000000E+00 0.  1.
</event>
<event>
 5    1  0.1709463E-003  0.9118800E+02  0.7818608E-02  0.1130116E+00
         25   -1    0    0    0    0  0.00000000000E+00  0.00000000000E+00  0.99999998245E-14  0.12500000000E+03  0.12500000000E+03 0.  0.
        -13    1    3    3    0    0 -0.58484789821E+01  0.13250927132E+02  0.32590677437E+02  0.35664480876E+02  0.10566000000E+00 0.  1.
         23    2    1    0    0    0 -0.29351108818E+01 -0.23244362136E+02 -0.16091550379E+02  0.96577240800E+02  0.92300109425E+02 0.  0.
         13    1    3    3    0    0  0.29133681003E+01 -0.36495289267E+02 -0.48682227816E+02  0.60912759924E+02  0.10566000000E+00 0. -1.
         22    1    1    0    0    0  0.29351108818E+01  0.23244362136E+02  0.16091550379E+02  0.28422759200E+02  0.00000000000E+00 0. -1.
</event>
<event>
 5    1  0.1709463E-003  0.9118800E+02  0.7818608E-02  0.1130116E+00
         25   -1    0    0    0    0  0.00000000000E+00  0.00000000000E+00  0.99999998245E-14  0.12500000000E+03  0.12500000000E+03 0.  0.
        -13    1    3    3    0    0  0.38130334666E+02  0.31859386796E+02  0.30127583696E+02  0.58108737830E+02  0.10566000000E+00 0.  1.
         23    2    1    0    0    0  0.11725462168E+02  0.68276602690E+01  0.27191349770E+02  0.94611302921E+02  0.89598134637E+02 0.  0.
         13    1    3    3    0    0 -0.26404872498E+02 -0.25031726527E+02 -0.29362339254E+01  0.36502565092E+02  0.10566000000E+00 0. -1.
         22    1    1    0    0    0 -0.11725462168E+02 -0.68276602690E+01 -0.27191349770E+02  0.30388697079E+02  0.00000000000E+00 0.  1.
</event>
<event>
 5    1  0.1709463E-003  0.9118800E+02  0.7818608E-02  0.1130116E+00
         25   -1    0    0    0    0  0.00000000000E+00  0.00000000000E+00  0.99999998245E-14  0.12500000000E+03  0.12500000000E+03 0.  0.
        -13    1    3    3    0    0 -0.29736100459E+02 -0.15482677152E+02 -0.50881814951E+01  0.33909434045E+02  0.10566000000E+00 0.  1.
         23    2    1    0    0    0  0.14951729560E+02  0.22796645315E+02  0.12046016208E+02  0.95194836673E+02  0.90408568002E+02 0.  0.
         13    1    3    3    0    0  0.44687830018E+02  0.38279322467E+02  0.17134197704E+02  0.61285402628E+02  0.10566000000E+00 0. -1.
         22    1    1    0    0    0 -0.14951729560E+02 -0.22796645315E+02 -0.12046016208E+02  0.29805163327E+02  0.00000000000E+00 0. -1.
</event>
<event>
 5    1  0.1709463E-003  0.9118800E+02  0.7818608E-02  0.1130116E+00
         25   -1    0    0    0    0  0.00000000000E+00  0.00000000000E+00  0.99999998245E-14  0.12500000000E+03  0.12500000000E+03 0.  0.
        -13    1    3    3    0    0 -0.32560639056E+02 -0.42153046203E+02  0.21723381500E+02  0.57523829738E+02  0.10566000000E+00 0.  1.
         23    2    1    0    0    0 -0.24427114512E+02 -0.57037579698E+01  0.15847478104E+02  0.95329149985E+02  0.90594080912E+02 0.  0.
         13    1    3    3    0    0  0.81335245440E+01  0.36449288233E+02 -0.58759033957E+01  0.37805320247E+02  0.10566000000E+00 0. -1.
         22    1    1    0    0    0  0.24427114512E+02  0.57037579698E+01 -0.15847478104E+02  0.29670850015E+02  0.00000000000E+00 0.  1.
</event>
<event>
 5    1  0.1709463E-003  0.9118800E+02  0.7818608E-02  0.1130116E+00
         25   -1    0    0    0    0  0.00000000000E+00  0.00000000000E+00  0.99999998245E-14  0.12500000000E+03  0.12500000000E+03 0.  0.
        -13    1    3    3    0    0 -0.15362712689E+01  0.13307884030E+02  0.42656113785E+02  0.44710346835E+02  0.10566000000E+00 0.  1.
         23    2    1    0    0    0  0.21561658235E+02 -0.17352698939E+02  0.86261888981E+01  0.96009787838E+02  0.91528394280E+02 0.  0.
         13    1    3    3    0    0  0.23097929504E+02 -0.30660582969E+02 -0.34029924887E+02  0.51299441003E+02  0.10566000000E+00 0. -1.
         22    1    1    0    0    0 -0.21561658235E+02  0.17352698939E+02 -0.86261888981E+01  0.28990212162E+02  0.00000000000E+00 0. -1.
</event>
<event>
 5    1  0.1709463E-003  0.9118800E+02  0.7818608E-02  0.1130116E+00
         25   -1    0    0    0    0  0.00000000000E+00  0.00000000000E+00  0.99999998245E-14  0.12500000000E+03  0.12500000000E+03 0.  0.
        -13    1    3    3    0    0 -0.87857011146E+01 -0.27922295787E+02 -0.24871842760E+02  0.38411754352E+02  0.10566000000E+00 0.  1.
         23    2    1    0    0    0 -0.10829167603E+02  0.26212024961E+02 -0.45218012834E+01  0.96280880752E+02  0.91897879127E+02 0.  0.
         13    1    3    3    0    0 -0.20434664883E+01  0.54134320748E+02  0.20350041476E+02  0.57869126400E+02  0.10566000000E+00 0. -1.
         22    1    1    0    0    0  0.10829167603E+02 -0.26212024961E+02  0.45218012834E+01  0.28719119248E+02  0.00000000000E+00 0. -1.
</event>
<event>
 5    1  0.1709463E-003  0.9118800E+02  0.7818608E-02  0.1130116E+00
         25   -1    0    0    0    0  0.00000000000E+00  0.00000000000E+00  0.99999998245E-14  0.12500000000E+03  0.12500000000E+03 0.  0.
        -13    1    3    3    0    0  0.10946377937E+02  0.34869895633E+02 -0.41302858783E+02  0.55151338326E+02  0.10566000000E+00 0.  1.
         23    2    1    0    0    0 -0.14092875861E+02  0.22288662621E+02 -0.10993516674E+02  0.96429892540E+02  0.92100342751E+02 0.  0.
         13    1    3    3    0    0 -0.25039253798E+02 -0.12581233013E+02  0.30309342110E+02  0.41278554214E+02  0.10566000000E+00 0. -1.
         22    1    1    0    0    0  0.14092875861E+02 -0.22288662621E+02  0.10993516674E+02  0.28570107460E+02  0.00000000000E+00 0.  1.
</event>
<event>
 5    1  0.1709463E-003  0.9118800E+02  0.7818608E-02  0.1130116E+00
         25   -1    0    0    0    0  0.00000000000E+00  0.00000000000E+00  0.99999998245E-14  0.12500000000E+03  0.12500000000E+03 0.  0.
        -13    1    3    3    0    0  0.24999115689E+02 -0.23531243303E+02  0.13952921430E+01  0.34360343433E+02  0.10566000000E+00 0. -1.
         23    2    1    0    0    0 -0.21585373085E+02  0.17954521161E+02 -0.21559550948E+01  0.96840786521E+02  0.92656336159E+02 0.  0.
         13    1    3    3    0    0 -0.46584488774E+02  0.41485764465E+02 -0.35512472378E+01  0.62480443089E+02  0.10566000000E+00 0.  1.
         22    1    1    0    0    0  0.21585373085E+02 -0.17954521161E+02  0.21559550948E+01  0.28159213479E+02  0.00000000000E+00 0.  1.
</event>
<event>
 5    1  0.1709463E-003  0.9118800E+02  0.7818608E-02  0.1130116E+00
         25   -1    0    0    0    0  0.00000000000E+00  0.00000000000E+00  0.99999998245E-14  0.12500000000E+03  0.12500000000E+03 0.  0.
        -13    1    3    3    0    0  0.31511557574E+02  0.10014568272E+02 -0.31194283799E+02  0.45457280431E+02  0.10566000000E+00 0.  1.
         23    2    1    0    0    0 -0.15210406436E+02 -0.92240635676E+01 -0.21820321597E+02  0.96847446879E+02  0.92665321020E+02 0.  0.
         13    1    3    3    0    0 -0.46721964011E+02 -0.19238631840E+02  0.93739622025E+01  0.51390166447E+02  0.10566000000E+00 0. -1.
         22    1    1    0    0    0  0.15210406436E+02  0.92240635676E+01  0.21820321597E+02  0.28152553121E+02  0.00000000000E+00 0.  1.
</event>
<event>
 5    1  0.1709463E-003  0.9118800E+02  0.7818608E-02  0.1130116E+00
         25   -1    0    0    0    0  0.00000000000E+00  0.00000000000E+00  0.99999998245E-14  0.12500000000E+03  0.12500000000E+03 0.  0.
        -13    1    3    3    0    0  0.15495015581E+02  0.25629218734E+02 -0.68338382786E+01  0.30719128738E+02  0.10566000000E+00 0.  1.
         23    2    1    0    0    0 -0.27656380416E+02 -0.11587592806E+02  0.14660827053E+02  0.91622050173E+02  0.85325919528E+02 0.  0.
         13    1    3    3    0    0 -0.43151395997E+02 -0.37216811539E+02  0.21494665332E+02  0.60902921436E+02  0.10566000000E+00 0. -1.
         22    1    1    0    0    0  0.27656380416E+02  0.11587592806E+02 -0.14660827053E+02  0.33377949827E+02  0.00000000000E+00 0. -1.
</event>
<event>
 5    1  0.1709463E-003  0.9118800E+02  0.7818608E-02  0.1130116E+00
         25   -1    0    0    0    0  0.00000000000E+00  0.00000000000E+00  0.99999998245E-14  0.12500000000E+03  0.12500000000E+03 0.  0.
        -13    1    3    3    0    0  0.29678333312E+02  0.38261370689E+02 -0.24432345514E+00  0.48423205317E+02  0.10566000000E+00 0.  1.
         23    2    1    0    0    0 -0.14723382090E+02  0.26325783720E+02  0.38905908662E+01  0.94586819208E+02  0.89563970445E+02 0.  0.
         13    1    3    3    0    0 -0.44401715402E+02 -0.11935586969E+02  0.41349143214E+01  0.46163613891E+02  0.10566000000E+00 0. -1.
         22    1    1    0    0    0  0.14723382090E+02 -0.26325783720E+02 -0.38905908662E+01  0.30413180792E+02  0.00000000000E+00 0.  1.
</event>
<event>
 5    1  0.1709463E-003  0.9118800E+02  0.7818608E-02  0.1130116E+00
         25   -1    0    0    0    0  0.00000000000E+00  0.00000000000E+00  0.99999998245E-14  0.12500000000E+03  0.12500000000E+03 0.  0.
        -13    1    3    3    0    0  0.10083243120E+02  0.26598540016E+02  0.16398540935E+02  0.32834089475E+02  0.10566000000E+00 0.  1.
         23    2    1    0    0    0 -0.38308525221E+01 -0.26768331724E+02 -0.12626197006E+02  0.95156409982E+02  0.90355423166E+02 0.  0.
         13    1    3    3    0    0 -0.13914095642E+02 -0.53366871740E+02 -0.29024737941E+02  0.62322320507E+02  0.10566000000E+00 0. -1.
         22    1    1    0    0    0  0.38308525221E+01  0.26768331724E+02  0.12626197006E+02  0.29843590018E+02  0.00000000000E+00 0. -1.
</event>
<event>
 5    1  0.1709463E-003  0.9118800E+02  0.7818608E-02  0.1130116E+00
         25   -1    0    0    0    0  0.00000000000E+00  0.00000000000E+00  0.99999998245E-14  0.12500000000E+03  0.12500000000E+03 0.  0.
        -13    1    3    3    0    0  0.75011377975E+01 -0.59242318584E+02 -0.13512661281E+02  0.61225179121E+02  0.10566000000E+00 0.  1.
         23    2    1    0    0    0 -0.51828654536E+01 -0.28661998618E+02 -0.45845020140E+01  0.95514581268E+02  0.90849575216E+02 0.  0.
         13    1    3    3    0    0 -0.12684003251E+02  0.30580319965E+02  0.89281592671E+01  0.34289402147E+02  0.10566000000E+00 0. -1.
         22    1    1    0    0    0  0.51828654536E+01  0.28661998618E+02  0.45845020140E+01  0.29485418732E+02  0.00000000000E+00 0.  1.
</event>
<event>
 5    1  0.1709463E-003  0.9118800E+02  0.7818608E-02  0.1130116E+00
         25   -1    0    0    0    0  0.00000000000E+00  0.00000000000E+00  0.99999998245E-14  0.12500000000E+03  0.12500000000E+03 0.  0.
        -13    1    3    3    0    0 -0.42814950819E+02  0.23574727665E+02  0.40103506694E+01  0.49040614542E+02  0.10566000000E+00 0.  1.
         23    2    1    0    0    0 -0.10341501129E+02  0.13499240478E+02 -0.25693391478E+02  0.94188857458E+02  0.89006822012E+02 0.  0.
         13    1    3    3    0    0  0.32473449690E+02 -0.10075487187E+02 -0.29703742147E+02  0.45148242916E+02  0.10566000000E+00 0. -1.
         22    1    1    0    0    0  0.10341501129E+02 -0.13499240478E+02  0.25693391478E+02  0.30811142542E+02  0.00000000000E+00 0. -1.
</event>
<event>
 5    1  0.1709463E-003  0.9118800E+02  0.7818608E-02  0.1130116E+00
         25   -1    0    0    0    0  0.00000000000E+00  0.00000000000E+00  0.99999998245E-14  0.12500000000E+03  0.12500000000E+03 0.  0.
        -13    1    3    3    0    0 -0.19540456541E+02  0.36105593284E+02  0.43304735625E+02  0.59672058787E+02  0.10566000000E+00 0. -1.
         23    2    1    0    0    0 -0.13207620806E+02  0.54088010708E+01  0.25652642653E+02  0.95644345495E+02  0.91027942818E+02 0.  0.
         13    1    3    3    0    0  0.63328357350E+01 -0.30696792214E+02 -0.17652092973E+02  0.35972286708E+02  0.10566000000E+00 0.  1.
         22    1    1    0    0    0  0.13207620806E+02 -0.54088010708E+01 -0.25652642653E+02  0.29355654505E+02  0.00000000000E+00 0. -1.
</event>
<event>
 5    1  0.1709463E-003  0.9118800E+02  0.7818608E-02  0.1130116E+00
         25   -1    0    0    0    0  0.00000000000E+00  0.00000000000E+00  0.99999998245E-14  0.12500000000E+03  0.12500000000E+03 0.  0.
        -13    1    3    3    0    0  0.30127051132E+02 -0.35322144986E+02 -0.63593908649E+01  0.46858789491E+02  0.10566000000E+00 0. -1.
         23    2    1    0    0    0 -0.17324069130E+02 -0.21123454208E+02 -0.83640737005E+01  0.96429360914E+02  0.92099621218E+02 0.  0.
         13    1    3    3    0    0 -0.47451120262E+02  0.14198690778E+02 -0.20046828357E+01  0.49570571424E+02  0.10566000000E+00 0.  1.
         22    1    1    0    0    0  0.17324069130E+02  0.21123454208E+02  0.83640737005E+01  0.28570639086E+02  0.00000000000E+00 0. -1.
</event>
<event>
 5    1  0.1709463E-003  0.9118800E+02  0.7818608E-02  0.1130116E+00
         25   -1    0    0    0    0  0.00000000000E+00  0.00000000000E+00  0.99999998245E-14  0.12500000000E+03  0.12500000000E+03 0.  0.
        -13    1    3    3    0    0  0.35444479600E+02 -0.87073647197E+01 -0.11765649392E+02  0.38348024775E+02  0.10566000000E+00 0.  1.
         23    2    1    0    0    0 -0.15513093443E+02 -0.27122544422E+02 -0.84475216501E+01  0.92632591915E+02  0.86793709327E+02 0.  0.
         13    1    3    3    0    0 -0.50957573043E+02 -0.18415179703E+02  0.33181277422E+01  0.54284567140E+02  0.10566000000E+00 0. -1.
         22    1    1    0    0    0  0.15513093443E+02  0.27122544422E+02  0.84475216501E+01  0.32367408085E+02  0.00000000000E+00 0. -1.
</event>
<event>
 5    1  0.1709463E-003  0.9118800E+02  0.7818608E-02  0.1130116E+00
         25   -1    0    0    0    0  0.00000000000E+00  0.00000000000E+00  0.99999998245E-14  0.12500000000E+03  0.12500000000E+03 0.  0.
        -13    1    3    3    0    0  0.27398097090E+01 -0.53559387221E+01  0.47871927297E+02  0.48248577430E+02  0.10566000000E+00 0. -1.
         23    2    1    0    0    0 -0.17744109551E+02  0.19355136238E+02  0.12808433594E+02  0.95784752377E+02  0.91220546448E+02 0.  0.
         13    1    3    3    0    0 -0.20483919260E+02  0.24711074960E+02 -0.35063493703E+02  0.47536174947E+02  0.10566000000E+00 0.  1.
         22    1    1    0    0    0  0.17744109551E+02 -0.19355136238E+02 -0.12808433594E+02  0.29215247623E+02  0.00000000000E+00 0.  1.
</event>
<event>
 5    1  0.1709463E-003  0.9118800E+02  0.7818608E-02  0.1130116E+00
         25   -1    0    0    0    0  0.00000000000E+00  0.00000000000E+00  0.99999998245E-14  0.12500000000E+03  0.12500000000E+03 0.  0.
        -13    1    3    3    0    0  0.54286306595E+01  0.25821070648E+02  0.55521554023E+02  0.61472366519E+02  0.10566000000E+00 0. -1.
         23    2    1    0    0    0  0.63301816476E+01  0.18952976602E+02  0.23884321493E+02  0.93859233552E+02  0.88542692460E+02 0.  0.
         13    1    3    3    0    0  0.90155098810E+00 -0.68680940459E+01 -0.31637232530E+02  0.32386867033E+02  0.10566000000E+00 0.  1.
         22    1    1    0    0    0 -0.63301816476E+01 -0.18952976602E+02 -0.23884321493E+02  0.31140766448E+02  0.00000000000E+00 0. -1.
</event>
<event>
 5    1  0.1709463E-003  0.9118800E+02  0.7818608E-02  0.1130116E+00
         25   -1    0    0    0    0  0.00000000000E+00  0.00000000000E+00  0.99999998245E-14  0.12500000000E+03  0.12500000000E+03 0.  0.
        -13    1    3    3    0    0 -0.22863054428E+02 -0.27168389624E+02 -0.42999469300E+02  0.55765636162E+02  0.10566000000E+00 0. -1.
         23    2    1    0    0    0 -0.19855642942E+01 -0.27803309294E+02 -0.89261804073E+01  0.95731532840E+02  0.91147590259E+02 0.  0.
         13    1    3    3    0    0  0.20877490133E+02 -0.63491966986E+00  0.34073288892E+02  0.39965896677E+02  0.10566000000E+00 0.  1.
         22    1    1    0    0    0  0.19855642942E+01  0.27803309294E+02  0.89261804073E+01  0.29268467160E+02  0.00000000000E+00 0. -1.
</event>
<event>
 5    1  0.1709463E-003  0.9118800E+02  0.7818608E-02  0.1130116E+00
         25   -1    0    0    0    0  0.00000000000E+00  0.00000000000E+00  0.99999998245E-14  0.12500000000E+03  0.12500000000E+03 0.  0.
        -13    1    3    3    0    0  0.40038392891E+01 -0.47904128009E+01  0.61749819790E+02  0.62064725827E+02  0.10566000000E+00 0.  1.
         23    2    1    0    0    0  0.21060835507E+01  0.29574885827E+01  0.29067973344E+02  0.95706154213E+02  0.91112779308E+02 0.  0.
         13    1    3    3    0    0 -0.18977557384E+01  0.77479013836E+01 -0.32681846446E+02  0.33641428386E+02  0.10566000000E+00 0. -1.
         22    1    1    0    0    0 -0.21060835507E+01 -0.29574885827E+01 -0.29067973344E+02  0.29293845787E+02  0.00000000000E+00 0.  1.
</event>
<event>
 5    1  0.1709463E-003  0.9118800E+02  0.7818608E-02  0.1130116E+00
         25   -1    0    0    0    0  0.00000000000E+00  0.00000000000E+00  0.99999998245E-14  0.12500000000E+03  0.12500000000E+03 0.  0.
        -13    1    3    3    0    0 -0.58478884352E+01 -0.47033211076E+02 -0.14711053990E+02  0.49626071946E+02  0.10566000000E+00 0.  1.
         23    2    1    0    0    0  0.17173471407E+02 -0.75073158238E+01 -0.22167012325E+02  0.95971318554E+02  0.91475841830E+02 0.  0.
         13    1    3    3    0    0  0.23021359842E+02  0.39525895252E+02 -0.74559583359E+01  0.46345246608E+02  0.10566000000E+00 0. -1.
         22    1    1    0    0    0 -0.17173471407E+02  0.75073158238E+01  0.22167012325E+02  0.29028681446E+02  0.00000000000E+00 0.  1.
</event>
<event>
 5    1  0.1709463E-003  0.9118800E+02  0.7818608E-02  0.1130116E+00
         25   -1    0    0    0    0  0.00000000000E+00  0.00000000000E+00  0.99999998245E-14  0.12500000000E+03  0.12500000000E+03 0.  0.
        -13    1    3    3    0    0  0.31142094796E+02  0.93287008167E+01  0.97397924026E+01  0.33937139645E+02  0.10566000000E+00 0.  1.
         23    2    1    0    0    0 -0.27756084703E+02 -0.33759256350E+01 -0.64041101841E+01  0.96315339654E+02  0.91944738367E+02 0.  0.
         13    1    3    3    0    0 -0.58898179499E+02 -0.12704626452E+02 -0.16143902587E+02  0.62378200009E+02  0.10566000000E+00 0. -1.
         22    1    1    0    0    0  0.27756084703E+02  0.33759256350E+01  0.64041101841E+01  0.28684660346E+02  0.00000000000E+00 0. -1.
</event>
<event>
 5    1  0.1709463E-003  0.9118800E+02  0.7818608E-02  0.1130116E+00
         25   -1    0    0    0    0  0.00000000000E+00  0.00000000000E+00  0.99999998245E-14  0.12500000000E+03  0.12500000000E+03 0.  0.
        -13    1    3    3    0    0 -0.29852893172E+02  0.15137576538E+02  0.12384500017E+02  0.35689332564E+02  0.10566000000E+00 0.  1.
         23    2    1    0    0    0  0.25293080921E+02  0.42055901311E+01 -0.11658038636E+02  0.96833764971E+02  0.92646863103E+02 0.  0.
         13    1    3    3    0    0  0.55145974093E+02 -0.10931986407E+02 -0.24042538652E+02  0.61144432407E+02  0.10566000000E+00 0. -1.
         22    1    1    0    0    0 -0.25293080921E+02 -0.42055901311E+01  0.11658038636E+02  0.28166235029E+02  0.00000000000E+00 0. -1.
</event>
<event>
 5    1  0.1709463E-003  0.9118800E+02  0.7818608E-02  0.1130116E+00
         25   -1    0    0    0    0  0.00000000000E+00  0.00000000000E+00  0.99999998245E-14  0.12500000000E+03  0.12500000000E+03 0.  0.
        -13    1    3    3    0    0 -0.53173584454E+01 -0.34851913337E+02  0.32013924094E+01  0.35400427137E+02  0.10566000000E+00 0.  1.
         23    2    1    0    0    0 -0.13456380798E+02  0.25145901409E+02  0.53343225890E+01  0.95985425398E+02  0.91495116534E+02 0.  0.
         13    1    3    3    0    0 -0.81390223527E+01  0.59997814746E+02  0.21329301797E+01  0.60584998261E+02  0.10566000000E+00 0. -1.
         22    1    1    0    0    0  0.13456380798E+02 -0.25145901409E+02 -0.53343225890E+01  0.29014574602E+02  0.00000000000E+00 0. -1.
</event>
<event>
 5    1  0.1709463E-003  0.9118800E+02  0.7818608E-02  0.1130116E+00
         25   -1    0    0    0    0  0.00000000000E+00  0.00000000000E+00  0.99999998245E-14  0.12500000000E+03  0.12500000000E+03 0.  0.
        -13    1    3    3    0    0 -0.17448881538E+02  0.22901112606E+02  0.42414060523E+02  0.51262931242E+02  0.10566000000E+00 0. -1.
         23    2    1    0    0    0 -0.95955287822E+01 -0.16115972239E+02  0.22313610526E+02  0.95850455432E+02  0.91310535307E+02 0.  0.
         13    1    3    3    0    0  0.78533527562E+01 -0.39017084844E+02 -0.20100449996E+02  0.44587524189E+02  0.10566000000E+00 0.  1.
         22    1    1    0    0    0  0.95955287822E+01  0.16115972239E+02 -0.22313610526E+02  0.29149544568E+02  0.00000000000E+00 0.  1.
</event>
<event>
 5    1  0.1709463E-003  0.9118800E+02  0.7818608E-02  0.1130116E+00
         25   -1    0    0    0    0  0.00000000000E+00  0.00000000000E+00  0.99999998245E-14  0.12500000000E+03  0.12500000000E+03 0.  0.
        -13    1    3    3    0    0 -0.32214643715E+02 -0.89549865424E+01  0.15684019077E+02  0.36932027728E+02  0.10566000000E+00 0.  1.
         23    2    1    0    0    0  0.23229265602E+02 -0.19271657669E+02  0.36494494192E+01  0.94597466376E+02  0.89578828938E+02 0.  0.
         13    1    3    3    0    0  0.55443909317E+02 -0.10316671126E+02 -0.12034569658E+02  0.57665438647E+02  0.10566000000E+00 0. -1.
         22    1    1    0    0    0 -0.23229265602E+02  0.19271657669E+02 -0.36494494192E+01  0.30402533624E+02  0.00000000000E+00 0. -1.
</event>
<event>
 5    1  0.1709463E-003  0.9118800E+02  0.7818608E-02  0.1130116E+00
         25   -1    0    0    0    0  0.00000000000E+00  0.00000000000E+00  0.99999998245E-14  0.12500000000E+03  0.12500000000E+03 0.  0.
        -13    1    3    3    0    0  0.27372116660E+02 -0.12129075509E+02 -0.49279894841E+02  0.57661654873E+02  0.10566000000E+00 0. -1.
         23    2    1    0    0    0  0.26112117854E+02  0.52545523673E+01 -0.20175641411E+02  0.91585788566E+02  0.85272780777E+02 0.  0.
         13    1    3    3    0    0 -0.12599988056E+01  0.17383627876E+02  0.29104253429E+02  0.33924133693E+02  0.10566000000E+00 0.  1.
         22    1    1    0    0    0 -0.26112117854E+02 -0.52545523673E+01  0.20175641411E+02  0.33414211434E+02  0.00000000000E+00 0. -1.
</event>
<event>
 5    1  0.1709463E-003  0.9118800E+02  0.7818608E-02  0.1130116E+00
         25   -1    0    0    0    0  0.00000000000E+00  0.00000000000E+00  0.99999998245E-14  0.12500000000E+03  0.12500000000E+03 0.  0.
        -13    1    3    3    0    0  0.25225338038E+02 -0.36327137560E+02  0.27844321073E+02  0.52261802327E+02  0.10566000000E+00 0.  1.
         23    2    1    0    0    0 -0.10675062026E+02 -0.13544500630E+02  0.24670439262E+02  0.94899484722E+02  0.89999284334E+02 0.  0.
         13    1    3    3    0    0 -0.35900400064E+02  0.22782636930E+02 -0.31738818105E+01  0.42637682395E+02  0.10566000000E+00 0. -1.
         22    1    1    0    0    0  0.10675062026E+02  0.13544500630E+02 -0.24670439262E+02  0.30100515278E+02  0.00000000000E+00 0.  1.
</event>
<event>
 5    1  0.1709463E-003  0.9118800E+02  0.7818608E-02  0.1130116E+00
         25   -1    0    0    0    0  0.00000000000E+00  0.00000000000E+00  0.99999998245E-14  0.12500000000E+03  0.12500000000E+03 0.  0.
        -13    1    3    3    0    0 -0.86569337643E+01 -0.53392697015E+02 -0.16556829946E+02  0.56567326069E+02  0.10566000000E+00 0.  1.
         23    2    1    0    0    0  0.97433138141E+00 -0.16111774840E+02 -0.24284832806E+02  0.95840238091E+02  0.91296547157E+02 0.  0.
         13    1    3    3    0    0  0.96312651457E+01  0.37280922174E+02 -0.77280028604E+01  0.39272912022E+02  0.10566000000E+00 0. -1.
         22    1    1    0    0    0 -0.97433138141E+00  0.16111774840E+02  0.24284832806E+02  0.29159761909E+02  0.00000000000E+00 0.  1.
</event>
<event>
 5    1  0.1709463E-003  0.9118800E+02  0.7818608E-02  0.1130116E+00
         25   -1    0    0    0    0  0.00000000000E+00  0.00000000000E+00  0.99999998245E-14  0.12500000000E+03  0.12500000000E+03 0.  0.
        -13    1    3    3    0    0  0.34002066383E+02 -0.35933879873E+02  0.27488979969E+02  0.56595401092E+02  0.10566000000E+00 0. -1.
         23    2    1    0    0    0  0.19755305373E+02 -0.10336442457E+01  0.23163082651E+02  0.94539059294E+02  0.89497289476E+02 0.  0.
         13    1    3    3    0    0 -0.14246761010E+02  0.34900235627E+02 -0.43258973182E+01  0.37943658202E+02  0.10566000000E+00 0.  1.
         22    1    1    0    0    0 -0.19755305373E+02  0.10336442457E+01 -0.23163082651E+02  0.30460940706E+02  0.00000000000E+00 0. -1.
</event>
<event>
 5    1  0.1709463E-003  0.9118800E+02  0.7818608E-02  0.1130116E+00
         25   -1    0    0    0    0  0.00000000000E+00  0.00000000000E+00  0.99999998245E-14  0.12500000000E+03  0.12500000000E+03 0.  0.
        -13    1    3    3    0    0  0.41909254401E+02 -0.47190028976E+01 -0.35859057915E+02  0.55358267597E+02  0.10566000000E+00 0. -1.
         23    2    1    0    0    0  0.19667600328E+02 -0.20167168388E+02 -0.50427783872E+01  0.96382543835E+02  0.92036057928E+02 0.  0.
         13    1    3    3    0    0 -0.22241654073E+02 -0.15448165490E+02  0.30816279528E+02  0.41024276238E+02  0.10566000000E+00 0.  1.
         22    1    1    0    0    0 -0.19667600328E+02  0.20167168388E+02  0.50427783872E+01  0.28617456165E+02  0.00000000000E+00 0. -1.
</event>
<event>
 5    1  0.1709463E-003  0.9118800E+02  0.7818608E-02  0.1130116E+00
         25   -1    0    0    0    0  0.00000000000E+00  0.00000000000E+00  0.99999998245E-14  0.12500000000E+03  0.12500000000E+03 0.  0.
        -13    1    3    3    0    0 -0.37783068820E+02  0.28390659345E+02 -0.21334982505E+02  0.51853471147E+02  0.10566000000E+00 0. -1.
         23    2    1    0    0    0 -0.29086793066E+02 -0.78241369687E+01  0.20592176180E+00  0.94878561556E+02  0.89970219456E+02 0.  0.
         13    1    3    3    0    0  0.86962757537E+01 -0.36214796314E+02  0.21540904267E+02  0.43025090409E+02  0.10566000000E+00 0.  1.
         22    1    1    0    0    0  0.29086793066E+02  0.78241369687E+01 -0.20592176180E+00  0.30121438444E+02  0.00000000000E+00 0. -1.
</event>
<event>
 5    1  0.1709463E-003  0.9118800E+02  0.7818608E-02  0.1130116E+00
         25   -1    0    0    0    0  0.00000000000E+00  0.00000000000E+00  0.99999998245E-14  0.12500000000E+03  0.12500000000E+03 0.  0.
        -13    1    3    3    0    0 -0.10793949144E+02  0.32249573239E+02  0.42238554473E+02  0.54227769272E+02  0.10566000000E+00 0. -1.
         23    2    1    0    0    0  0.15327703639E+02  0.14184650755E+02  0.30390176406E+02  0.88125813393E+02  0.80040323265E+02 0.  0.
         13    1    3    3    0    0  0.26121652783E+02 -0.18064922484E+02 -0.11848378066E+02  0.33898044122E+02  0.10566000000E+00 0.  1.
         22    1    1    0    0    0 -0.15327703639E+02 -0.14184650755E+02 -0.30390176406E+02  0.36874186607E+02  0.00000000000E+00 0. -1.
</event>
<event>
 5    1  0.1709463E-003  0.9118800E+02  0.7818608E-02  0.1130116E+00
         25   -1    0    0    0    0  0.00000000000E+00  0.00000000000E+00  0.99999998245E-14  0.12500000000E+03  0.12500000000E+03 0.  0.
        -13    1    3    3    0    0 -0.21575146095E+02 -0.37324940087E+02 -0.41973999571E+02  0.60170307341E+02  0.10566000000E+00 0. -1.
         23    2    1    0    0    0 -0.11147511570E+01 -0.13312866112E+02 -0.26532897384E+02  0.95293608131E+02  0.90545027653E+02 0.  0.
         13    1    3    3    0    0  0.20460394938E+02  0.24012073975E+02  0.15441102187E+02  0.35123300790E+02  0.10566000000E+00 0.  1.
         22    1    1    0    0    0  0.11147511570E+01  0.13312866112E+02  0.26532897384E+02  0.29706391869E+02  0.00000000000E+00 0. -1.
</event>
<event>
 5    1  0.1709463E-003  0.9118800E+02  0.7818608E-02  0.1130116E+00
         25   -1    0    0    0    0  0.00000000000E+00  0.00000000000E+00  0.99999998245E-14  0.12500000000E+03  0.12500000000E+03 0.  0.
        -13    1    3    3    0    0  0.11407078154E+01 -0.19592573282E+02  0.35739268444E+02  0.40773479310E+02  0.10566000000E+00 0. -1.
         23    2    1    0    0    0 -0.18857351758E+02 -0.16072395440E+02 -0.15420610211E+02  0.95815811990E+02  0.91263097676E+02 0.  0.
         13    1    3    3    0    0 -0.19998059573E+02  0.35201778413E+01 -0.51159878655E+02  0.55042332680E+02  0.10566000000E+00 0.  1.
         22    1    1    0    0    0  0.18857351758E+02  0.16072395440E+02  0.15420610211E+02  0.29184188010E+02  0.00000000000E+00 0.  1.
</event>
<event>
 5    1  0.1709463E-003  0.9118800E+02  0.7818608E-02  0.1130116E+00
         25   -1    0    0    0    0  0.00000000000E+00  0.00000000000E+00  0.99999998245E-14  0.12500000000E+03  0.12500000000E+03 0.  0.
        -13    1    3    3    0    0  0.18935455693E+02  0.44142266042E+02  0.32821333712E+02  0.58175099865E+02  0.10566000000E+00 0.  1.
         23    2    1    0    0    0 -0.57407563243E+01  0.26263521219E+02  0.97248659411E+01  0.96411508477E+02  0.92075388239E+02 0.  0.
         13    1    3    3    0    0 -0.24676212017E+02 -0.17878744824E+02 -0.23096467771E+02  0.38236408612E+02  0.10566000000E+00 0. -1.
         22    1    1    0    0    0  0.57407563243E+01 -0.26263521219E+02 -0.97248659411E+01  0.28588491523E+02  0.00000000000E+00 0.  1.
</event>
<event>
 5    1  0.1709463E-003  0.9118800E+02  0.7818608E-02  0.1130116E+00
         25   -1    0    0    0    0  0.00000000000E+00  0.00000000000E+00  0.99999998245E-14  0.12500000000E+03  0.12500000000E+03 0.  0.
        -13    1    3    3    0    0  0.22588509629E+02  0.10778037094E+02  0.55168606219E+02  0.60580468197E+02  0.10566000000E+00 0.  1.
         23    2    1    0    0    0  0.23745238536E+00  0.31565773445E+01  0.28994764424E+02  0.95832951329E+02  0.91286569835E+02 0.  0.
         13    1    3    3    0    0 -0.22351057243E+02 -0.76214597497E+01 -0.26173841794E+02  0.35252483131E+02  0.10566000000E+00 0. -1.
         22    1    1    0    0    0 -0.23745238536E+00 -0.31565773445E+01 -0.28994764424E+02  0.29167048671E+02  0.00000000000E+00 0.  1.
</event>
<event>
 5    1  0.1709463E-003  0.9118800E+02  0.7818608E-02  0.1130116E+00
         25   -1    0    0    0    0  0.00000000000E+00  0.00000000000E+00  0.99999998245E-14  0.12500000000E+03  0.12500000000E+03 0.  0.
        -13    1    3    3    0    0 -0.23231874431E+02  0.18761747327E+02  0.13779698442E+02  0.32887906676E+02  0.10566000000E+00 0. -1.
         23    2    1    0    0    0  0.45408919917E+01 -0.32119834347E+02  0.10319352979E+02  0.90958958528E+02  0.84348916010E+02 0.  0.
         13    1    3    3    0    0  0.27772766422E+02 -0.50881581675E+02 -0.34603454628E+01  0.58071051852E+02  0.10566000000E+00 0.  1.
         22    1    1    0    0    0 -0.45408919917E+01  0.32119834347E+02 -0.10319352979E+02  0.34041041472E+02  0.00000000000E+00 0.  1.
</event>
<event>
 5    1  0.1709463E-003  0.9118800E+02  0.7818608E-02  0.1130116E+00
         25   -1    0    0    0    0  0.00000000000E+00  0.00000000000E+00  0.99999998245E-14  0.12500000000E+03  0.12500000000E+03 0.  0.
        -13    1    3    3    0    0  0.14505902465E+02 -0.23745102296E+02 -0.14084750598E+02  0.31187216176E+02  0.10566000000E+00 0.  1.
         23    2    1    0    0    0 -0.26276409157E+02  0.19088304056E+02  0.19443287540E+01  0.92463966986E+02  0.86550515577E+02 0.  0.
         13    1    3    3    0    0 -0.40782311622E+02  0.42833406352E+02  0.16029079352E+02  0.61276750811E+02  0.10566000000E+00 0. -1.
         22    1    1    0    0    0  0.26276409157E+02 -0.19088304056E+02 -0.19443287540E+01  0.32536033014E+02  0.00000000000E+00 0. -1.
</event>
<event>
 5    1  0.1709463E-003  0.9118800E+02  0.7818608E-02  0.1130116E+00
         25   -1    0    0    0    0  0.00000000000E+00  0.00000000000E+00  0.99999998245E-14  0.12500000000E+03  0.12500000000E+03 0.  0.
        -13    1    3    3    0    0 -0.24865313086E+02 -0.21924239706E+02 -0.27906677014E+02  0.43333011291E+02  0.10566000000E+00 0.  1.
         23    2    1    0    0    0  0.11922287398E+01  0.22318513817E+02 -0.19451461910E+02  0.95370676032E+02  0.90651359659E+02 0.  0.
         13    1    3    3    0    0  0.26057541826E+02  0.44242753523E+02  0.84552151035E+01  0.52037664741E+02  0.10566000000E+00 0. -1.
         22    1    1    0    0    0 -0.11922287398E+01 -0.22318513817E+02  0.19451461910E+02  0.29629323968E+02  0.00000000000E+00 0. -1.
</event>
<event>
 5    1  0.1709463E-003  0.9118800E+02  0.7818608E-02  0.1130116E+00
         25   -1    0    0    0    0  0.00000000000E+00  0.00000000000E+00  0.99999998245E-14  0.12500000000E+03  0.12500000000E+03 0.  0.
        -13    1    3    3    0    0  0.56954982251E+02  0.15131373845E+02  0.90974006945E+01  0.59628871707E+02  0.10566000000E+00 0.  1.
         23    2    1    0    0    0  0.21296352523E+02  0.19341939385E+02  0.26530943394E+01  0.96109099018E+02  0.91663922863E+02 0.  0.
         13    1    3    3    0    0 -0.35658629728E+02  0.42105655399E+01 -0.64443063550E+01  0.36480227311E+02  0.10566000000E+00 0. -1.
         22    1    1    0    0    0 -0.21296352523E+02 -0.19341939385E+02 -0.26530943394E+01  0.28890900982E+02  0.00000000000E+00 0.  1.
</event>
<event>
 5    1  0.1709463E-003  0.9118800E+02  0.7818608E-02  0.1130116E+00
         25   -1    0    0    0    0  0.00000000000E+00  0.00000000000E+00  0.99999998245E-14  0.12500000000E+03  0.12500000000E+03 0.  0.
        -13    1    3    3    0    0 -0.43746461845E+02 -0.20907228923E+02  0.97856456427E+01  0.49463473088E+02  0.10566000000E+00 0. -1.
         23    2    1    0    0    0 -0.75244722475E+01 -0.33705378316E+02  0.13192663615E+02  0.88030869860E+02  0.79891911137E+02 0.  0.
         13    1    3    3    0    0  0.36221989598E+02 -0.12798149393E+02  0.34070179720E+01  0.38567396772E+02  0.10566000000E+00 0.  1.
         22    1    1    0    0    0  0.75244722475E+01  0.33705378316E+02 -0.13192663615E+02  0.36969130140E+02  0.00000000000E+00 0. -1.
</event>
<event>
 5    1  0.1709463E-003  0.9118800E+02  0.7818608E-02  0.1130116E+00
         25   -1    0    0    0    0  0.00000000000E+00  0.00000000000E+00  0.99999998245E-14  0.12500000000E+03  0.12500000000E+03 0.  0.
        -13    1    3    3    0    0 -0.10879691148E+02  0.55721772145E+02  0.22851414985E+02  0.61200342330E+02  0.10566000000E+00 0.  1.
         23    2    1    0    0    0 -0.64695955788E+01  0.22417025760E+02  0.18794090969E+02  0.95040084009E+02  0.90194351276E+02 0.  0.
         13    1    3    3    0    0  0.44100955696E+01 -0.33304746385E+02 -0.40573240164E+01  0.33839741679E+02  0.10566000000E+00 0. -1.
         22    1    1    0    0    0  0.64695955788E+01 -0.22417025760E+02 -0.18794090969E+02  0.29959915991E+02  0.00000000000E+00 0.  1.
</event>
<event>
 5    1  0.1709463E-003  0.9118800E+02  0.7818608E-02  0.1130116E+00
         25   -1    0    0    0    0  0.00000000000E+00  0.00000000000E+00  0.99999998245E-14  0.12500000000E+03  0.12500000000E+03 0.  0.
        -13    1    3    3    0    0  0.11363369365E+02 -0.49310052649E+02 -0.12832149477E+02  0.52204240055E+02  0.10566000000E+00 0.  1.
         23    2    1    0    0    0  0.18993940152E+02 -0.10512112854E+02  0.13244452586E+02  0.99569903589E+02  0.96267730301E+02 0.  0.
         13    1    3    3    0    0  0.76305707877E+01  0.38797939795E+02  0.26076602063E+02  0.47365663534E+02  0.10566000000E+00 0. -1.
         22    1    1    0    0    0 -0.18993940152E+02  0.10512112854E+02 -0.13244452586E+02  0.25430096411E+02  0.00000000000E+00 0.  1.
</event>
<event>
 5    1  0.1709463E-003  0.9118800E+02  0.7818608E-02  0.1130116E+00
         25   -1    0    0    0    0  0.00000000000E+00  0.00000000000E+00  0.99999998245E-14  0.12500000000E+03  0.12500000000E+03 0.  0.
        -13    1    3    3    0    0 -0.46641426895E+02  0.99411382027E+01 -0.38391243728E+02  0.61222117659E+02  0.10566000000E+00 0.  1.
         23    2    1    0    0    0 -0.25530158514E+02 -0.25926293158E+01 -0.14283068995E+02  0.95631364001E+02  0.91010114824E+02 0.  0.
         13    1    3    3    0    0  0.21111268381E+02 -0.12533767519E+02  0.24108174733E+02  0.34409246343E+02  0.10566000000E+00 0. -1.
         22    1    1    0    0    0  0.25530158514E+02  0.25926293158E+01  0.14283068995E+02  0.29368635999E+02  0.00000000000E+00 0.  1.
</event>
<event>
 5    1  0.1709463E-003  0.9118800E+02  0.7818608E-02  0.1130116E+00
         25   -1    0    0    0    0  0.00000000000E+00  0.00000000000E+00  0.99999998245E-14  0.12500000000E+03  0.12500000000E+03 0.  0.
        -13    1    3    3    0    0  0.12545952094E+02  0.13784365769E+01 -0.23845391321E+02  0.26979897194E+02  0.10566000000E+00 0.  1.
         23    2    1    0    0    0 -0.78829019615E+01  0.31982145533E+01  0.34834964596E+02  0.89141340264E+02  0.81610875905E+02 0.  0.
         13    1    3    3    0    0 -0.20428854055E+02  0.18197779764E+01  0.58680355917E+02  0.62161443069E+02  0.10566000000E+00 0. -1.
         22    1    1    0    0    0  0.78829019615E+01 -0.31982145533E+01 -0.34834964596E+02  0.35858659736E+02  0.00000000000E+00 0. -1.
</event>
<event>
 5    1  0.1709463E-003  0.9118800E+02  0.7818608E-02  0.1130116E+00
         25   -1    0    0    0    0  0.00000000000E+00  0.00000000000E+00  0.99999998245E-14  0.12500000000E+03  0.12500000000E+03 0.  0.
        -13    1    3    3    0    0  0.18834781036E+02  0.37491283549E+02  0.18754439062E+02  0.45957431036E+02  0.10566000000E+00 0.  1.
         23    2    1    0    0    0  0.11571034592E+02 -0.15815876603E+02  0.15780459723E+02  0.99839441514E+02  0.96617081194E+02 0.  0.
         13    1    3    3    0    0 -0.72637464443E+01 -0.53307160153E+02 -0.29739793395E+01  0.53882010478E+02  0.10566000000E+00 0. -1.
         22    1    1    0    0    0 -0.11571034592E+02  0.15815876603E+02 -0.15780459723E+02  0.25160558486E+02  0.00000000000E+00 0. -1.
</event>
<event>
 5    1  0.1709463E-003  0.9118800E+02  0.7818608E-02  0.1130116E+00
         25   -1    0    0    0    0  0.00000000000E+00  0.00000000000E+00  0.99999998245E-14  0.12500000000E+03  0.12500000000E+03 0.  0.
        -13    1    3    3    0    0  0.65371368623E+01  0.71116479018E+01  0.37708154948E+02  0.38925901503E+02  0.10566000000E+00 0. -1.
         23    2    1    0    0    0 -0.25555088564E+02 -0.66364686501E+01 -0.88796306679E+01  0.97144065113E+02  0.93064581223E+02 0.  0.
         13    1    3    3    0    0 -0.32092225426E+02 -0.13748116552E+02 -0.46587785615E+02  0.58218163610E+02  0.10566000000E+00 0.  1.
         22    1    1    0    0    0  0.25555088564E+02  0.66364686501E+01  0.88796306679E+01  0.27855934887E+02  0.00000000000E+00 0.  1.
</event>
<event>
 5    1  0.1709463E-003  0.9118800E+02  0.7818608E-02  0.1130116E+00
         25   -1    0    0    0    0  0.00000000000E+00  0.00000000000E+00  0.99999998245E-14  0.12500000000E+03  0.12500000000E+03 0.  0.
        -13    1    3    3    0    0 -0.51922033224E+01  0.30373871468E+02 -0.14001527195E+02  0.33846491267E+02  0.10566000000E+00 0. -1.
         23    2    1    0    0    0  0.99761521587E+01 -0.27927204784E+02 -0.72923175821E+01  0.94461004033E+02  0.89388203966E+02 0.  0.
         13    1    3    3    0    0  0.15168355481E+02 -0.58301076252E+02  0.67092096132E+01  0.60614512766E+02  0.10566000000E+00 0.  1.
         22    1    1    0    0    0 -0.99761521587E+01  0.27927204784E+02  0.72923175821E+01  0.30538995967E+02  0.00000000000E+00 0.  1.
</event>
<event>
 5    1  0.1709463E-003  0.9118800E+02  0.7818608E-02  0.1130116E+00
         25   -1    0    0    0    0  0.00000000000E+00  0.00000000000E+00  0.99999998245E-14  0.12500000000E+03  0.12500000000E+03 0.  0.
        -13    1    3    3    0    0  0.15066402293E+02  0.24725426358E+02  0.26545823401E+02  0.39281485343E+02  0.10566000000E+00 0.  1.
         23    2    1    0    0    0  0.22869070407E+02 -0.82230975586E+01 -0.17655330769E+02  0.94961284660E+02  0.90085077371E+02 0.  0.
         13    1    3    3    0    0  0.78026681141E+01 -0.32948523917E+02 -0.44201154170E+02  0.55679799317E+02  0.10566000000E+00 0. -1.
         22    1    1    0    0    0 -0.22869070407E+02  0.82230975586E+01  0.17655330769E+02  0.30038715340E+02  0.00000000000E+00 0. -1.
</event>
<event>
 5    1  0.1709463E-003  0.9118800E+02  0.7818608E-02  0.1130116E+00
         25   -1    0    0    0    0  0.00000000000E+00  0.00000000000E+00  0.99999998245E-14  0.12500000000E+03  0.12500000000E+03 0.  0.
        -13    1    3    3    0    0 -0.23077865961E+02 -0.29386922125E+02  0.27746380953E+01  0.37468505040E+02  0.10566000000E+00 0. -1.
         23    2    1    0    0    0  0.18101548580E+02  0.84843432755E+01 -0.18921221966E+02  0.97474325031E+02  0.93507118754E+02 0.  0.
         13    1    3    3    0    0  0.41179414541E+02  0.37871265401E+02 -0.21695860061E+02  0.60005819991E+02  0.10566000000E+00 0.  1.
         22    1    1    0    0    0 -0.18101548580E+02 -0.84843432755E+01  0.18921221966E+02  0.27525674969E+02  0.00000000000E+00 0.  1.
</event>
<event>
 5    1  0.1709463E-003  0.9118800E+02  0.7818608E-02  0.1130116E+00
         25   -1    0    0    0    0  0.00000000000E+00  0.00000000000E+00  0.99999998245E-14  0.12500000000E+03  0.12500000000E+03 0.  0.
        -13    1    3    3    0    0  0.41605307206E+02  0.21464875245E+02 -0.22656216988E+02  0.52010170056E+02  0.10566000000E+00 0.  1.
         23    2    1    0    0    0  0.88995603633E+01  0.27448363042E+02  0.55555111019E+01  0.95614995117E+02  0.90987629815E+02 0.  0.
         13    1    3    3    0    0 -0.32705746843E+02  0.59834877977E+01  0.28211728089E+02  0.43604825061E+02  0.10566000000E+00 0. -1.
         22    1    1    0    0    0 -0.88995603633E+01 -0.27448363042E+02 -0.55555111019E+01  0.29385004883E+02  0.00000000000E+00 0.  1.
</event>
<event>
 5    1  0.1709463E-003  0.9118800E+02  0.7818608E-02  0.1130116E+00
         25   -1    0    0    0    0  0.00000000000E+00  0.00000000000E+00  0.99999998245E-14  0.12500000000E+03  0.12500000000E+03 0.  0.
        -13    1    3    3    0    0 -0.28723157308E+02  0.35314388500E+02  0.11392076844E+01  0.45534983903E+02  0.10566000000E+00 0. -1.
         23    2    1    0    0    0 -0.14160168755E+02 -0.75644011546E+01  0.23892954914E+02  0.96214520353E+02  0.91807570975E+02 0.  0.
         13    1    3    3    0    0  0.14562988553E+02 -0.42878789654E+02  0.22753747229E+02  0.50679536450E+02  0.10566000000E+00 0.  1.
         22    1    1    0    0    0  0.14160168755E+02  0.75644011546E+01 -0.23892954914E+02  0.28785479647E+02  0.00000000000E+00 0. -1.
</event>
<event>
 5    1  0.1709463E-003  0.9118800E+02  0.7818608E-02  0.1130116E+00
         25   -1    0    0    0    0  0.00000000000E+00  0.00000000000E+00  0.99999998245E-14  0.12500000000E+03  0.12500000000E+03 0.  0.
        -13    1    3    3    0    0 -0.50894857073E+02 -0.36916119821E+01  0.20591509375E+02  0.55026683508E+02  0.10566000000E+00 0. -1.
         23    2    1    0    0    0 -0.16995551721E+02  0.18125534077E+02  0.15633541206E+02  0.95643716609E+02  0.91027079225E+02 0.  0.
         13    1    3    3    0    0  0.33899305352E+02  0.21817146060E+02 -0.49579681693E+01  0.40617033101E+02  0.10566000000E+00 0.  1.
         22    1    1    0    0    0  0.16995551721E+02 -0.18125534077E+02 -0.15633541206E+02  0.29356283391E+02  0.00000000000E+00 0.  1.
</event>
<event>
 5    1  0.1709463E-003  0.9118800E+02  0.7818608E-02  0.1130116E+00
         25   -1    0    0    0    0  0.00000000000E+00  0.00000000000E+00  0.99999998245E-14  0.12500000000E+03  0.12500000000E+03 0.  0.
        -13    1    3    3    0    0 -0.45398881108E+01 -0.34365198621E+02 -0.49128836904E+02  0.60126793029E+02  0.10566000000E+00 0.  1.
         23    2    1    0    0    0  0.93165741035E+01 -0.14037911866E+02 -0.26765019976E+02  0.93373621502E+02  0.87854455638E+02 0.  0.
         13    1    3    3    0    0  0.13856462214E+02  0.20327286755E+02  0.22363816928E+02  0.33246828473E+02  0.10566000000E+00 0. -1.
         22    1    1    0    0    0 -0.93165741035E+01  0.14037911866E+02  0.26765019976E+02  0.31626378498E+02  0.00000000000E+00 0.  1.
</event>
<event>
 5    1  0.1709463E-003  0.9118800E+02  0.7818608E-02  0.1130116E+00
         25   -1    0    0    0    0  0.00000000000E+00  0.00000000000E+00  0.99999998245E-14  0.12500000000E+03  0.12500000000E+03 0.  0.
        -13    1    3    3    0    0 -0.36464419219E+02 -0.21532715303E+02  0.24948374330E+02  0.49150221190E+02  0.10566000000E+00 0.  1.
         23    2    1    0    0    0  0.82133374968E+01 -0.25219067637E+02  0.12518899035E+02  0.95671121427E+02  0.91064704231E+02 0.  0.
         13    1    3    3    0    0  0.44677756716E+02 -0.36863523339E+01 -0.12429475295E+02  0.46520900237E+02  0.10566000000E+00 0. -1.
         22    1    1    0    0    0 -0.82133374968E+01  0.25219067637E+02 -0.12518899035E+02  0.29328878573E+02  0.00000000000E+00 0. -1.
</event>
<event>
 5    1  0.1709463E-003  0.9118800E+02  0.7818608E-02  0.1130116E+00
         25   -1    0    0    0    0  0.00000000000E+00  0.00000000000E+00  0.99999998245E-14  0.12500000000E+03  0.12500000000E+03 0.  0.
        -13    1    3    3    0    0 -0.39836707595E+02 -0.27661966827E+02  0.19823205931E+02  0.52393876915E+02  0.10566000000E+00 0.  1.
         23    2    1    0    0    0 -0.17933708335E+02  0.65198468860E+01  0.25248013280E+02  0.93352117406E+02  0.87823854115E+02 0.  0.
         13    1    3    3    0    0  0.21902999260E+02  0.34181813713E+02  0.54248073488E+01  0.40958240491E+02  0.10566000000E+00 0. -1.
         22    1    1    0    0    0  0.17933708335E+02 -0.65198468860E+01 -0.25248013280E+02  0.31647882594E+02  0.00000000000E+00 0.  1.
</event>
<event>
 5    1  0.1709463E-003  0.9118800E+02  0.7818608E-02  0.1130116E+00
         25   -1    0    0    0    0  0.00000000000E+00  0.00000000000E+00  0.99999998245E-14  0.12500000000E+03  0.12500000000E+03 0.  0.
        -13    1    3    3    0    0  0.32313522831E+02 -0.26380068367E+02 -0.43121035391E+01  0.41936585051E+02  0.10566000000E+00 0.  1.
         23    2    1    0    0    0 -0.15531607581E+02 -0.87275786846E+01 -0.22695971874E+02  0.96146774824E+02  0.91715286109E+02 0.  0.
         13    1    3    3    0    0 -0.47845130413E+02  0.17652489682E+02 -0.18383868335E+02  0.54210189773E+02  0.10566000000E+00 0. -1.
         22    1    1    0    0    0  0.15531607581E+02  0.87275786846E+01  0.22695971874E+02  0.28853225176E+02  0.00000000000E+00 0. -1.
</event>
<event>
 5    1  0.1709463E-003  0.9118800E+02  0.7818608E-02  0.1130116E+00
         25   -1    0    0    0    0  0.00000000000E+00  0.00000000000E+00  0.99999998245E-14  0.12500000000E+03  0.12500000000E+03 0.  0.
        -13    1    3    3    0    0  0.86473232703E+01  0.42097301106E+02  0.18453432380E+02  0.46770709753E+02  0.10566000000E+00 0.  1.
         23    2    1    0    0    0 -0.22783006879E+02  0.50791870217E+01  0.18311278620E+02  0.95332400368E+02  0.90598565617E+02 0.  0.
         13    1    3    3    0    0 -0.31430330149E+02 -0.37018114084E+02 -0.14215376063E+00  0.48561690615E+02  0.10566000000E+00 0. -1.
         22    1    1    0    0    0  0.22783006879E+02 -0.50791870217E+01 -0.18311278620E+02  0.29667599632E+02  0.00000000000E+00 0. -1.
</event>
<event>
 5    1  0.1709463E-003  0.9118800E+02  0.7818608E-02  0.1130116E+00
         25   -1    0    0    0    0  0.00000000000E+00  0.00000000000E+00  0.99999998245E-14  0.12500000000E+03  0.12500000000E+03 0.  0.
        -13    1    3    3    0    0 -0.36137176346E+01  0.21973184954E+02  0.39180525696E+02  0.45066668060E+02  0.10566000000E+00 0.  1.
         23    2    1    0    0    0 -0.34596812324E+01 -0.23568899026E+02  0.17078482911E+02  0.95688961566E+02  0.91089189213E+02 0.  0.
         13    1    3    3    0    0  0.15403640213E+00 -0.45542083980E+02 -0.22102042786E+02  0.50622293506E+02  0.10566000000E+00 0. -1.
         22    1    1    0    0    0  0.34596812324E+01  0.23568899026E+02 -0.17078482911E+02  0.29311038434E+02  0.00000000000E+00 0. -1.
</event>
<event>
 5    1  0.1709463E-003  0.9118800E+02  0.7818608E-02  0.1130116E+00
         25   -1    0    0    0    0  0.00000000000E+00  0.00000000000E+00  0.99999998245E-14  0.12500000000E+03  0.12500000000E+03 0.  0.
        -13    1    3    3    0    0 -0.38645227570E+02 -0.74768849187E+01  0.20398829341E+02  0.44333743634E+02  0.10566000000E+00 0.  1.
         23    2    1    0    0    0 -0.10844873047E+02  0.10727825426E+02 -0.22015763594E+02  0.98215837582E+02  0.94493171158E+02 0.  0.
         13    1    3    3    0    0  0.27800354523E+02  0.18204710345E+02 -0.42414592935E+02  0.53882093948E+02  0.10566000000E+00 0. -1.
         22    1    1    0    0    0  0.10844873047E+02 -0.10727825426E+02  0.22015763594E+02  0.26784162418E+02  0.00000000000E+00 0. -1.
</event>
<event>
 5    1  0.1709463E-003  0.9118800E+02  0.7818608E-02  0.1130116E+00
         25   -1    0    0    0    0  0.00000000000E+00  0.00000000000E+00  0.99999998245E-14  0.12500000000E+03  0.12500000000E+03 0.  0.
        -13    1    3    3    0    0  0.27267970635E+02  0.21682903060E+02 -0.13469233560E+02  0.37351330959E+02  0.10566000000E+00 0. -1.
         23    2    1    0    0    0 -0.27561746437E+02  0.25376927699E-01 -0.61951172210E+01  0.96750575439E+02  0.92534554950E+02 0.  0.
         13    1    3    3    0    0 -0.54829717072E+02 -0.21657526132E+02  0.72741163391E+01  0.59399244481E+02  0.10566000000E+00 0.  1.
         22    1    1    0    0    0  0.27561746437E+02 -0.25376927699E-01  0.61951172210E+01  0.28249424561E+02  0.00000000000E+00 0.  1.
</event>
<event>
 5    1  0.1709463E-003  0.9118800E+02  0.7818608E-02  0.1130116E+00
         25   -1    0    0    0    0  0.00000000000E+00  0.00000000000E+00  0.99999998245E-14  0.12500000000E+03  0.12500000000E+03 0.  0.
        -13    1    3    3    0    0 -0.21484099640E+02  0.53707739492E+01  0.30864851368E+02  0.37987655418E+02  0.10566000000E+00 0.  1.
         23    2    1    0    0    0  0.19891210789E+02  0.18500686091E+02 -0.84473640643E+01  0.96551913735E+02  0.92265803165E+02 0.  0.
         13    1    3    3    0    0  0.41375310429E+02  0.13129912142E+02 -0.39312215432E+02  0.58564258317E+02  0.10566000000E+00 0. -1.
         22    1    1    0    0    0 -0.19891210789E+02 -0.18500686091E+02  0.84473640643E+01  0.28448086265E+02  0.00000000000E+00 0. -1.
</event>
<event>
 5    1  0.1709463E-003  0.9118800E+02  0.7818608E-02  0.1130116E+00
         25   -1    0    0    0    0  0.00000000000E+00  0.00000000000E+00  0.99999998245E-14  0.12500000000E+03  0.12500000000E+03 0.  0.
        -13    1    3    3    0    0  0.32214098585E+02  0.27133819945E+01  0.53001396493E+02  0.62082765593E+02  0.10566000000E+00 0. -1.
         23    2    1    0    0    0  0.17961230309E+02  0.48146277511E+01  0.22539764613E+02  0.95779674481E+02  0.91213587915E+02 0.  0.
         13    1    3    3    0    0 -0.14252868276E+02  0.21012457566E+01 -0.30461631880E+02  0.33696908888E+02  0.10566000000E+00 0.  1.
         22    1    1    0    0    0 -0.17961230309E+02 -0.48146277511E+01 -0.22539764613E+02  0.29220325519E+02  0.00000000000E+00 0. -1.
</event>
<event>
 5    1  0.1709463E-003  0.9118800E+02  0.7818608E-02  0.1130116E+00
         25   -1    0    0    0    0  0.00000000000E+00  0.00000000000E+00  0.99999998245E-14  0.12500000000E+03  0.12500000000E+03 0.  0.
        -13    1    3    3    0    0 -0.34967980824E+02 -0.43803380251E+02 -0.82883408304E+01  0.56658658316E+02  0.10566000000E+00 0.  1.
         23    2    1    0    0    0 -0.26662945864E+02 -0.63470562183E+01 -0.11747683562E+02  0.95180444774E+02  0.90388667395E+02 0.  0.
         13    1    3    3    0    0  0.83050349602E+01  0.37456324033E+02 -0.34593427320E+01  0.38521786458E+02  0.10566000000E+00 0. -1.
         22    1    1    0    0    0  0.26662945864E+02  0.63470562183E+01  0.11747683562E+02  0.29819555226E+02  0.00000000000E+00 0.  1.
</event>
<event>
 5    1  0.1709463E-003  0.9118800E+02  0.7818608E-02  0.1130116E+00
         25   -1    0    0    0    0  0.00000000000E+00  0.00000000000E+00  0.99999998245E-14  0.12500000000E+03  0.12500000000E+03 0.  0.
        -13    1    3    3    0    0  0.40979367639E+02 -0.33215722843E+02 -0.43628263101E+01  0.52930503809E+02  0.10566000000E+00 0. -1.
         23    2    1    0    0    0  0.28894239828E+02  0.71788847751E+01 -0.19757645078E+01  0.95161817628E+02  0.90362903932E+02 0.  0.
         13    1    3    3    0    0 -0.12085127811E+02  0.40394607618E+02  0.23870618023E+01  0.42231313819E+02  0.10566000000E+00 0.  1.
         22    1    1    0    0    0 -0.28894239828E+02 -0.71788847751E+01  0.19757645078E+01  0.29838182372E+02  0.00000000000E+00 0. -1.
</event>
<event>
 5    1  0.1709463E-003  0.9118800E+02  0.7818608E-02  0.1130116E+00
         25   -1    0    0    0    0  0.00000000000E+00  0.00000000000E+00  0.99999998245E-14  0.12500000000E+03  0.12500000000E+03 0.  0.
        -13    1    3    3    0    0  0.45464462234E+02 -0.69670902016E+00  0.13531838567E+02  0.47440747768E+02  0.10566000000E+00 0.  1.
         23    2    1    0    0    0  0.14700354198E+02 -0.35680997591E+00 -0.24541037307E+02  0.96390731589E+02  0.92047177562E+02 0.  0.
         13    1    3    3    0    0 -0.30764108036E+02  0.33989904425E+00 -0.38072875875E+02  0.48949983821E+02  0.10566000000E+00 0. -1.
         22    1    1    0    0    0 -0.14700354198E+02  0.35680997591E+00  0.24541037307E+02  0.28609268411E+02  0.00000000000E+00 0. -1.
</event>
<event>
 5    1  0.1709463E-003  0.9118800E+02  0.7818608E-02  0.1130116E+00
         25   -1    0    0    0    0  0.00000000000E+00  0.00000000000E+00  0.99999998245E-14  0.12500000000E+03  0.12500000000E+03 0.  0.
        -13    1    3    3    0    0 -0.32614874664E+02 -0.98435266686E+01 -0.42118673293E+02  0.54172122633E+02  0.10566000000E+00 0. -1.
         23    2    1    0    0    0 -0.25534517167E+01  0.13248967251E+02 -0.26678959046E+02  0.95103142228E+02  0.90281701119E+02 0.  0.
         13    1    3    3    0    0  0.30061422947E+02  0.23092493919E+02  0.15439714247E+02  0.40931019595E+02  0.10566000000E+00 0.  1.
         22    1    1    0    0    0  0.25534517167E+01 -0.13248967251E+02  0.26678959046E+02  0.29896857772E+02  0.00000000000E+00 0. -1.
</event>
<event>
 5    1  0.1709463E-003  0.9118800E+02  0.7818608E-02  0.1130116E+00
         25   -1    0    0    0    0  0.00000000000E+00  0.00000000000E+00  0.99999998245E-14  0.12500000000E+03  0.12500000000E+03 0.  0.
        -13    1    3    3    0    0  0.11313283307E+02 -0.25552421784E+02  0.20716686897E+02  0.34786619817E+02  0.10566000000E+00 0.  1.
         23    2    1    0    0    0  0.45128692578E+01  0.29006003963E+02 -0.45488334646E+01  0.95294678242E+02  0.90546504961E+02 0.  0.
         13    1    3    3    0    0 -0.68004140497E+01  0.54558425747E+02 -0.25265520362E+02  0.60508058426E+02  0.10566000000E+00 0. -1.
         22    1    1    0    0    0 -0.45128692578E+01 -0.29006003963E+02  0.45488334646E+01  0.29705321758E+02  0.00000000000E+00 0. -1.
</event>
<event>
 5    1  0.1709463E-003  0.9118800E+02  0.7818608E-02  0.1130116E+00
         25   -1    0    0    0    0  0.00000000000E+00  0.00000000000E+00  0.99999998245E-14  0.12500000000E+03  0.12500000000E+03 0.  0.
        -13    1    3    3    0    0  0.15011153998E+02 -0.36995709631E+02 -0.42603816715E+02  0.58387615452E+02  0.10566000000E+00 0. -1.
         23    2    1    0    0    0  0.21732245784E+02 -0.11753843972E+02 -0.16680130896E+02  0.95189429364E+02  0.90401091481E+02 0.  0.
         13    1    3    3    0    0  0.67210917861E+01  0.25241865659E+02  0.25923685819E+02  0.36801813912E+02  0.10566000000E+00 0.  1.
         22    1    1    0    0    0 -0.21732245784E+02  0.11753843972E+02  0.16680130896E+02  0.29810570636E+02  0.00000000000E+00 0.  1.
</event>
<event>
 5    1  0.1709463E-003  0.9118800E+02  0.7818608E-02  0.1130116E+00
         25   -1    0    0    0    0  0.00000000000E+00  0.00000000000E+00  0.99999998245E-14  0.12500000000E+03  0.12500000000E+03 0.  0.
        -13    1    3    3    0    0  0.30408280441E+02  0.35744949646E+01  0.34495210336E+02  0.46123434758E+02  0.10566000000E+00 0.  1.
         23    2    1    0    0    0  0.20301440095E+02 -0.15388682303E+02 -0.11620588360E+02  0.97000034165E+02  0.92870924090E+02 0.  0.
         13    1    3    3    0    0 -0.10106840347E+02 -0.18963177267E+02 -0.46115798696E+02  0.50876599407E+02  0.10566000000E+00 0. -1.
         22    1    1    0    0    0 -0.20301440095E+02  0.15388682303E+02  0.11620588360E+02  0.27999965835E+02  0.00000000000E+00 0.  1.
</event>
<event>
 5    1  0.1709463E-003  0.9118800E+02  0.7818608E-02  0.1130116E+00
         25   -1    0    0    0    0  0.00000000000E+00  0.00000000000E+00  0.99999998245E-14  0.12500000000E+03  0.12500000000E+03 0.  0.
        -13    1    3    3    0    0 -0.10104320289E+01  0.27178410626E+01 -0.58664301070E+02  0.58736011246E+02  0.10566000000E+00 0. -1.
         23    2    1    0    0    0  0.18813102339E+01  0.16268472844E+02 -0.25312310021E+02  0.94851773261E+02  0.89932993475E+02 0.  0.
         13    1    3    3    0    0  0.28917422627E+01  0.13550631782E+02  0.33351991049E+02  0.36115762016E+02  0.10566000000E+00 0.  1.
         22    1    1    0    0    0 -0.18813102339E+01 -0.16268472844E+02  0.25312310021E+02  0.30148226739E+02  0.00000000000E+00 0. -1.
</event>
<event>
 5    1  0.1709463E-003  0.9118800E+02  0.7818608E-02  0.1130116E+00
         25   -1    0    0    0    0  0.00000000000E+00  0.00000000000E+00  0.99999998245E-14  0.12500000000E+03  0.12500000000E+03 0.  0.
        -13    1    3    3    0    0 -0.20395298072E+02 -0.57741603480E+02  0.42242232813E+01  0.61383354276E+02  0.10566000000E+00 0. -1.
         23    2    1    0    0    0 -0.33315412797E+01 -0.28635663803E+02  0.72963106502E+01  0.95262203211E+02  0.90501661878E+02 0.  0.
         13    1    3    3    0    0  0.17063756792E+02  0.29105939676E+02  0.30720873689E+01  0.33878848935E+02  0.10566000000E+00 0.  1.
         22    1    1    0    0    0  0.33315412797E+01  0.28635663803E+02 -0.72963106502E+01  0.29737796789E+02  0.00000000000E+00 0. -1.
</event>
<event>
 5    1  0.1709463E-003  0.9118800E+02  0.7818608E-02  0.1130116E+00
         25   -1    0    0    0    0  0.00000000000E+00  0.00000000000E+00  0.99999998245E-14  0.12500000000E+03  0.12500000000E+03 0.  0.
        -13    1    3    3    0    0  0.30617219582E+02 -0.40432236986E+02 -0.17663168282E+02  0.53704549160E+02  0.10566000000E+00 0. -1.
         23    2    1    0    0    0  0.11482771516E+02 -0.37467630133E+01 -0.26377861336E+02  0.95988211992E+02  0.91498923480E+02 0.  0.
         13    1    3    3    0    0 -0.19134448067E+02  0.36685473973E+02 -0.87146930546E+01  0.42283662832E+02  0.10566000000E+00 0.  1.
         22    1    1    0    0    0 -0.11482771516E+02  0.37467630133E+01  0.26377861336E+02  0.29011788008E+02  0.00000000000E+00 0.  1.
</event>
<event>
 5    1  0.1709463E-003  0.9118800E+02  0.7818608E-02  0.1130116E+00
         25   -1    0    0    0    0  0.00000000000E+00  0.00000000000E+00  0.99999998245E-14  0.12500000000E+03  0.12500000000E+03 0.  0.
        -13    1    3    3    0    0 -0.16235981981E+02  0.26891572948E+02  0.12480122126E+02  0.33801307946E+02  0.10566000000E+00 0.  1.
         23    2    1    0    0    0  0.79301871635E+01 -0.19532267283E+02 -0.20444736559E+02  0.95633614682E+02  0.91013206023E+02 0.  0.
         13    1    3    3    0    0  0.24166169145E+02 -0.46423840231E+02 -0.32924858685E+02  0.61832306737E+02  0.10566000000E+00 0. -1.
         22    1    1    0    0    0 -0.79301871635E+01  0.19532267283E+02  0.20444736559E+02  0.29366385318E+02  0.00000000000E+00 0. -1.
</event>
<event>
 5    1  0.1709463E-003  0.9118800E+02  0.7818608E-02  0.1130116E+00
         25   -1    0    0    0    0  0.00000000000E+00  0.00000000000E+00  0.99999998245E-14  0.12500000000E+03  0.12500000000E+03 0.  0.
        -13    1    3    3    0    0 -0.36170927753E+02  0.17095239598E+02 -0.80727078517E+01  0.40813760026E+02  0.10566000000E+00 0.  1.
         23    2    1    0    0    0 -0.27521900819E+02 -0.18565787476E+02  0.19304974687E+02  0.86596542643E+02  0.77615305583E+02 0.  0.
         13    1    3    3    0    0  0.86490269334E+01 -0.35661027074E+02  0.27377682539E+02  0.45782782617E+02  0.10566000000E+00 0. -1.
         22    1    1    0    0    0  0.27521900819E+02  0.18565787476E+02 -0.19304974687E+02  0.38403457357E+02  0.00000000000E+00 0.  1.
</event>
<event>
 5    1  0.1709463E-003  0.9118800E+02  0.7818608E-02  0.1130116E+00
         25   -1    0    0    0    0  0.00000000000E+00  0.00000000000E+00  0.99999998245E-14  0.12500000000E+03  0.12500000000E+03 0.  0.
        -13    1    3    3    0    0 -0.20556272745E+02 -0.28610862923E+02 -0.24548295741E+02  0.42939164107E+02  0.10566000000E+00 0. -1.
         23    2    1    0    0    0  0.16744827514E+02 -0.20340764898E+02  0.12213762063E+02  0.95960166171E+02  0.91460601040E+02 0.  0.
         13    1    3    3    0    0  0.37301100259E+02  0.82700980247E+01  0.36762057804E+02  0.53021002064E+02  0.10566000000E+00 0.  1.
         22    1    1    0    0    0 -0.16744827514E+02  0.20340764898E+02 -0.12213762063E+02  0.29039833829E+02  0.00000000000E+00 0.  1.
</event>
<event>
 5    1  0.1709463E-003  0.9118800E+02  0.7818608E-02  0.1130116E+00
         25   -1    0    0    0    0  0.00000000000E+00  0.00000000000E+00  0.99999998245E-14  0.12500000000E+03  0.12500000000E+03 0.  0.
        -13    1    3    3    0    0 -0.47781858284E+02  0.15906732194E+02 -0.17512798404E+02  0.53318283751E+02  0.10566000000E+00 0. -1.
         23    2    1    0    0    0 -0.22702259410E+02 -0.10684912603E+02  0.88585166787E+01  0.98391105671E+02  0.94724740263E+02 0.  0.
         13    1    3    3    0    0  0.25079598874E+02 -0.26591644797E+02  0.26371315083E+02  0.45072821921E+02  0.10566000000E+00 0.  1.
         22    1    1    0    0    0  0.22702259410E+02  0.10684912603E+02 -0.88585166787E+01  0.26608894329E+02  0.00000000000E+00 0. -1.
</event>
<event>
 5    1  0.1709463E-003  0.9118800E+02  0.7818608E-02  0.1130116E+00
         25   -1    0    0    0    0  0.00000000000E+00  0.00000000000E+00  0.99999998245E-14  0.12500000000E+03  0.12500000000E+03 0.  0.
        -13    1    3    3    0    0 -0.18813532197E+02  0.30158787556E+02 -0.34454328683E+02  0.49503670466E+02  0.10566000000E+00 0. -1.
         23    2    1    0    0    0  0.51116367680E+01  0.28114499941E+02  0.52903119098E+01  0.95939006599E+02  0.91431677496E+02 0.  0.
         13    1    3    3    0    0  0.23925168965E+02 -0.20442876158E+01  0.39744640593E+02  0.46435336133E+02  0.10566000000E+00 0.  1.
         22    1    1    0    0    0 -0.51116367680E+01 -0.28114499941E+02 -0.52903119098E+01  0.29060993401E+02  0.00000000000E+00 0. -1.
</event>
<event>
 5    1  0.1709463E-003  0.9118800E+02  0.7818608E-02  0.1130116E+00
         25   -1    0    0    0    0  0.00000000000E+00  0.00000000000E+00  0.99999998245E-14  0.12500000000E+03  0.12500000000E+03 0.  0.
        -13    1    3    3    0    0  0.72984336694E+01 -0.22965929750E+02  0.22848274681E+02  0.33207768417E+02  0.10566000000E+00 0.  1.
         23    2    1    0    0    0 -0.14676595489E+02  0.19248566912E+02 -0.17116474283E+02  0.95354031046E+02  0.90628404828E+02 0.  0.
         13    1    3    3    0    0 -0.21975029159E+02  0.42214496662E+02 -0.39964748964E+02  0.62146262629E+02  0.10566000000E+00 0. -1.
         22    1    1    0    0    0  0.14676595489E+02 -0.19248566912E+02  0.17116474283E+02  0.29645968954E+02  0.00000000000E+00 0. -1.
</event>
<event>
 5    1  0.1709463E-003  0.9118800E+02  0.7818608E-02  0.1130116E+00
         25   -1    0    0    0    0  0.00000000000E+00  0.00000000000E+00  0.99999998245E-14  0.12500000000E+03  0.12500000000E+03 0.  0.
        -13    1    3    3    0    0 -0.68987633969E+01 -0.59583222161E+02  0.53512641091E+00  0.59983754666E+02  0.10566000000E+00 0.  1.
         23    2    1    0    0    0 -0.15253576642E+02 -0.24759803447E+02 -0.17317891972E+01  0.95867225314E+02  0.91333489633E+02 0.  0.
         13    1    3    3    0    0 -0.83548132448E+01  0.34823418715E+02 -0.22669156081E+01  0.35883470648E+02  0.10566000000E+00 0. -1.
         22    1    1    0    0    0  0.15253576642E+02  0.24759803447E+02  0.17317891972E+01  0.29132774686E+02  0.00000000000E+00 0.  1.
</event>
<event>
 5    1  0.1709463E-003  0.9118800E+02  0.7818608E-02  0.1130116E+00
         25   -1    0    0    0    0  0.00000000000E+00  0.00000000000E+00  0.99999998245E-14  0.12500000000E+03  0.12500000000E+03 0.  0.
        -13    1    3    3    0    0  0.25090776849E+02  0.25326408895E+02  0.16392212219E+02  0.39238881939E+02  0.10566000000E+00 0. -1.
         23    2    1    0    0    0 -0.85089129147E+01  0.53642741655E+01 -0.26134490950E+02  0.96996631390E+02  0.92866343998E+02 0.  0.
         13    1    3    3    0    0 -0.33599689764E+02 -0.19962134729E+02 -0.42526703169E+02  0.57757749451E+02  0.10566000000E+00 0.  1.
         22    1    1    0    0    0  0.85089129147E+01 -0.53642741655E+01  0.26134490950E+02  0.28003368610E+02  0.00000000000E+00 0.  1.
</event>
<event>
 5    1  0.1709463E-003  0.9118800E+02  0.7818608E-02  0.1130116E+00
         25   -1    0    0    0    0  0.00000000000E+00  0.00000000000E+00  0.99999998245E-14  0.12500000000E+03  0.12500000000E+03 0.  0.
        -13    1    3    3    0    0 -0.12319474416E+02 -0.80911217439E+01 -0.37290458545E+02  0.40097695239E+02  0.10566000000E+00 0.  1.
         23    2    1    0    0    0  0.29814561469E+02  0.50771459777E+01 -0.61045746091E+01  0.94146291665E+02  0.88947023088E+02 0.  0.
         13    1    3    3    0    0  0.42134035885E+02  0.13168267722E+02  0.31185883935E+02  0.54048596426E+02  0.10566000000E+00 0. -1.
         22    1    1    0    0    0 -0.29814561469E+02 -0.50771459777E+01  0.61045746091E+01  0.30853708335E+02  0.00000000000E+00 0. -1.
</event>
<event>
 5    1  0.1709463E-003  0.9118800E+02  0.7818608E-02  0.1130116E+00
         25   -1    0    0    0    0  0.00000000000E+00  0.00000000000E+00  0.99999998245E-14  0.12500000000E+03  0.12500000000E+03 0.  0.
        -13    1    3    3    0    0  0.54235094593E+02  0.64756477913E+01  0.28978062043E+02  0.61831373457E+02  0.10566000000E+00 0. -1.
         23    2    1    0    0    0  0.27754452000E+02  0.88990775102E+01  0.11421561286E+02  0.93695763090E+02  0.88311611764E+02 0.  0.
         13    1    3    3    0    0 -0.26480642593E+02  0.24234297190E+01 -0.17556500757E+02  0.31864389632E+02  0.10566000000E+00 0.  1.
         22    1    1    0    0    0 -0.27754452000E+02 -0.88990775102E+01 -0.11421561286E+02  0.31304236910E+02  0.00000000000E+00 0. -1.
</event>
<event>
 5    1  0.1709463E-003  0.9118800E+02  0.7818608E-02  0.1130116E+00
         25   -1    0    0    0    0  0.00000000000E+00  0.00000000000E+00  0.99999998245E-14  0.12500000000E+03  0.12500000000E+03 0.  0.
        -13    1    3    3    0    0 -0.34568868227E+02  0.24105025062E+02  0.23591982734E+01  0.42209428618E+02  0.10566000000E+00 0.  1.
         23    2    1    0    0    0 -0.21045848041E+02 -0.22650929010E+02 -0.10139090613E+02  0.92460893325E+02  0.86546076348E+02 0.  0.
         13    1    3    3    0    0  0.13523020186E+02 -0.46755954072E+02 -0.12498288886E+02  0.50251464707E+02  0.10566000000E+00 0. -1.
         22    1    1    0    0    0  0.21045848041E+02  0.22650929010E+02  0.10139090613E+02  0.32539106675E+02  0.00000000000E+00 0. -1.
</event>
<event>
 5    1  0.1709463E-003  0.9118800E+02  0.7818608E-02  0.1130116E+00
         25   -1    0    0    0    0  0.00000000000E+00  0.00000000000E+00  0.99999998245E-14  0.12500000000E+03  0.12500000000E+03 0.  0.
        -13    1    3    3    0    0 -0.21648677183E+02  0.41429927804E+01 -0.30296522228E+02  0.37466251962E+02  0.10566000000E+00 0.  1.
         23    2    1    0    0    0 -0.26677184053E+02  0.29732782893E+02  0.84477803454E+01  0.84170163846E+02  0.73603946644E+02 0.  0.
         13    1    3    3    0    0 -0.50285068701E+01  0.25589790113E+02  0.38744302573E+02  0.46703911884E+02  0.10566000000E+00 0. -1.
         22    1    1    0    0    0  0.26677184053E+02 -0.29732782893E+02 -0.84477803454E+01  0.40829836154E+02  0.00000000000E+00 0. -1.
</event>
<event>
 5    1  0.1709463E-003  0.9118800E+02  0.7818608E-02  0.1130116E+00
         25   -1    0    0    0    0  0.00000000000E+00  0.00000000000E+00  0.99999998245E-14  0.12500000000E+03  0.12500000000E+03 0.  0.
        -13    1    3    3    0    0 -0.94207849683E+01  0.24400111388E+02  0.53622352761E+02  0.59661415545E+02  0.10566000000E+00 0. -1.
         23    2    1    0    0    0  0.76773365942E+01  0.43983162826E+01  0.24700499444E+02  0.98762596240E+02  0.95213702060E+02 0.  0.
         13    1    3    3    0    0  0.17098121563E+02 -0.20001795105E+02 -0.28921853317E+02  0.39101180695E+02  0.10566000000E+00 0.  1.
         22    1    1    0    0    0 -0.76773365942E+01 -0.43983162826E+01 -0.24700499444E+02  0.26237403760E+02  0.00000000000E+00 0. -1.
</event>
<event>
 5    1  0.1709463E-003  0.9118800E+02  0.7818608E-02  0.1130116E+00
         25   -1    0    0    0    0  0.00000000000E+00  0.00000000000E+00  0.99999998245E-14  0.12500000000E+03  0.12500000000E+03 0.  0.
        -13    1    3    3    0    0  0.29960321814E+02  0.15628960507E+02  0.41480074516E+02  0.53502271313E+02  0.10566000000E+00 0.  1.
         23    2    1    0    0    0  0.28343092527E+02  0.95734048737E+01  0.37620903467E+00  0.95081401970E+02  0.90251595512E+02 0.  0.
         13    1    3    3    0    0 -0.16172292874E+01 -0.60555556334E+01 -0.41103865482E+02  0.41579130657E+02  0.10566000000E+00 0. -1.
         22    1    1    0    0    0 -0.28343092527E+02 -0.95734048737E+01 -0.37620903467E+00  0.29918598030E+02  0.00000000000E+00 0.  1.
</event>
<event>
 5    1  0.1709463E-003  0.9118800E+02  0.7818608E-02  0.1130116E+00
         25   -1    0    0    0    0  0.00000000000E+00  0.00000000000E+00  0.99999998245E-14  0.12500000000E+03  0.12500000000E+03 0.  0.
        -13    1    3    3    0    0  0.14778114656E+02  0.38364680033E+02 -0.64666371387E+01  0.41618143961E+02  0.10566000000E+00 0.  1.
         23    2    1    0    0    0 -0.28863544081E+02  0.84923248204E+01  0.11823354374E+00  0.94912831025E+02  0.90017819104E+02 0.  0.
         13    1    3    3    0    0 -0.43641658738E+02 -0.29872355213E+02  0.65848706825E+01  0.53294687064E+02  0.10566000000E+00 0. -1.
         22    1    1    0    0    0  0.28863544081E+02 -0.84923248204E+01 -0.11823354374E+00  0.30087168975E+02  0.00000000000E+00 0. -1.
</event>
<event>
 5    1  0.1709463E-003  0.9118800E+02  0.7818608E-02  0.1130116E+00
         25   -1    0    0    0    0  0.00000000000E+00  0.00000000000E+00  0.99999998245E-14  0.12500000000E+03  0.12500000000E+03 0.  0.
        -13    1    3    3    0    0 -0.26170428549E+02  0.41688931146E+02  0.43584548482E+01  0.49415236549E+02  0.10566000000E+00 0.  1.
         23    2    1    0    0    0 -0.17415099316E+02 -0.39193330573E+01  0.19785866644E+02  0.98351784776E+02  0.94672837677E+02 0.  0.
         13    1    3    3    0    0  0.87553292328E+01 -0.45608264203E+02  0.15427411796E+02  0.48936548227E+02  0.10566000000E+00 0. -1.
         22    1    1    0    0    0  0.17415099316E+02  0.39193330573E+01 -0.19785866644E+02  0.26648215224E+02  0.00000000000E+00 0.  1.
</event>
<event>
 5    1  0.1709463E-003  0.9118800E+02  0.7818608E-02  0.1130116E+00
         25   -1    0    0    0    0  0.00000000000E+00  0.00000000000E+00  0.99999998245E-14  0.12500000000E+03  0.12500000000E+03 0.  0.
        -13    1    3    3    0    0  0.12928421732E+02  0.39229466241E+02 -0.68078705916E+01  0.41862314509E+02  0.10566000000E+00 0. -1.
         23    2    1    0    0    0  0.83453859026E+01  0.15764247486E+02  0.32532717753E+02  0.87898319592E+02  0.79684251255E+02 0.  0.
         13    1    3    3    0    0 -0.45830358292E+01 -0.23465218756E+02  0.39340588345E+02  0.46036005083E+02  0.10566000000E+00 0.  1.
         22    1    1    0    0    0 -0.83453859026E+01 -0.15764247486E+02 -0.32532717753E+02  0.37101680408E+02  0.00000000000E+00 0.  1.
</event>
<event>
 5    1  0.1709463E-003  0.9118800E+02  0.7818608E-02  0.1130116E+00
         25   -1    0    0    0    0  0.00000000000E+00  0.00000000000E+00  0.99999998245E-14  0.12500000000E+03  0.12500000000E+03 0.  0.
        -13    1    3    3    0    0  0.17093499149E+01  0.36491642995E+02 -0.13065264728E+02  0.38797863241E+02  0.10566000000E+00 0.  1.
         23    2    1    0    0    0 -0.21856174365E+02 -0.16045401206E+02 -0.86185833228E+01  0.96549565272E+02  0.92262621456E+02 0.  0.
         13    1    3    3    0    0 -0.23565524280E+02 -0.52537044201E+02  0.44466814053E+01  0.57751702031E+02  0.10566000000E+00 0. -1.
         22    1    1    0    0    0  0.21856174365E+02  0.16045401206E+02  0.86185833228E+01  0.28450434728E+02  0.00000000000E+00 0. -1.
</event>
<event>
 5    1  0.1709463E-003  0.9118800E+02  0.7818608E-02  0.1130116E+00
         25   -1    0    0    0    0  0.00000000000E+00  0.00000000000E+00  0.99999998245E-14  0.12500000000E+03  0.12500000000E+03 0.  0.
        -13    1    3    3    0    0 -0.45112759206E+02  0.37986396151E+02 -0.33549567113E+01  0.59071094744E+02  0.10566000000E+00 0. -1.
         23    2    1    0    0    0 -0.29668859884E+02  0.74020704404E+01 -0.73067503682E+01  0.93560844563E+02  0.88120435432E+02 0.  0.
         13    1    3    3    0    0  0.15443899321E+02 -0.30584325711E+02 -0.39517936569E+01  0.34489749819E+02  0.10566000000E+00 0.  1.
         22    1    1    0    0    0  0.29668859884E+02 -0.74020704404E+01  0.73067503682E+01  0.31439155437E+02  0.00000000000E+00 0. -1.
</event>
<event>
 5    1  0.1709463E-003  0.9118800E+02  0.7818608E-02  0.1130116E+00
         25   -1    0    0    0    0  0.00000000000E+00  0.00000000000E+00  0.99999998245E-14  0.12500000000E+03  0.12500000000E+03 0.  0.
        -13    1    3    3    0    0  0.27015127884E+02  0.12150463457E+02  0.36059943702E+02  0.46666707626E+02  0.10566000000E+00 0.  1.
         23    2    1    0    0    0 -0.80169743778E+01 -0.19246621173E+02  0.19249951675E+02  0.96622809437E+02  0.92361801407E+02 0.  0.
         13    1    3    3    0    0 -0.35032102262E+02 -0.31397084630E+02 -0.16809992026E+02  0.49956101811E+02  0.10566000000E+00 0. -1.
         22    1    1    0    0    0  0.80169743778E+01  0.19246621173E+02 -0.19249951675E+02  0.28377190563E+02  0.00000000000E+00 0. -1.
</event>
<event>
 5    1  0.1709463E-003  0.9118800E+02  0.7818608E-02  0.1130116E+00
         25   -1    0    0    0    0  0.00000000000E+00  0.00000000000E+00  0.99999998245E-14  0.12500000000E+03  0.12500000000E+03 0.  0.
        -13    1    3    3    0    0 -0.79466563130E+01  0.58688820013E+02 -0.43267112658E+00  0.59226052624E+02  0.10566000000E+00 0.  1.
         23    2    1    0    0    0 -0.32977920473E+01  0.33579650752E+02  0.13898108994E+02  0.88508551541E+02  0.80635834994E+02 0.  0.
         13    1    3    3    0    0  0.46488642657E+01 -0.25109169261E+02  0.14330780120E+02  0.29282498917E+02  0.10566000000E+00 0. -1.
         22    1    1    0    0    0  0.32977920473E+01 -0.33579650752E+02 -0.13898108994E+02  0.36491448459E+02  0.00000000000E+00 0.  1.
</event>
<event>
 5    1  0.1709463E-003  0.9118800E+02  0.7818608E-02  0.1130116E+00
         25   -1    0    0    0    0  0.00000000000E+00  0.00000000000E+00  0.99999998245E-14  0.12500000000E+03  0.12500000000E+03 0.  0.
        -13    1    3    3    0    0  0.81572137563E+01  0.21090889869E+02  0.25329188350E+02  0.33955039659E+02  0.10566000000E+00 0. -1.
         23    2    1    0    0    0 -0.20814853209E+02 -0.10403991437E+02 -0.18545461050E+02  0.95243735491E+02  0.90476150851E+02 0.  0.
         13    1    3    3    0    0 -0.28972066966E+02 -0.31494881306E+02 -0.43874649401E+02  0.61288695832E+02  0.10566000000E+00 0.  1.
         22    1    1    0    0    0  0.20814853209E+02  0.10403991437E+02  0.18545461050E+02  0.29756264509E+02  0.00000000000E+00 0.  1.
</event>
<event>
 5    1  0.1709463E-003  0.9118800E+02  0.7818608E-02  0.1130116E+00
         25   -1    0    0    0    0  0.00000000000E+00  0.00000000000E+00  0.99999998245E-14  0.12500000000E+03  0.12500000000E+03 0.  0.
        -13    1    3    3    0    0  0.52677467158E+02 -0.15213352793E+02  0.88389294784E+01  0.55538270478E+02  0.10566000000E+00 0. -1.
         23    2    1    0    0    0  0.20648036981E+02 -0.92316160428E+01  0.24471001449E+02  0.91677423901E+02  0.85407001910E+02 0.  0.
         13    1    3    3    0    0 -0.32029430177E+02  0.59817367499E+01  0.15632071971E+02  0.36139153423E+02  0.10566000000E+00 0.  1.
         22    1    1    0    0    0 -0.20648036981E+02  0.92316160428E+01 -0.24471001449E+02  0.33322576099E+02  0.00000000000E+00 0. -1.
</event>
<event>
 5    1  0.1709463E-003  0.9118800E+02  0.7818608E-02  0.1130116E+00
         25   -1    0    0    0    0  0.00000000000E+00  0.00000000000E+00  0.99999998245E-14  0.12500000000E+03  0.12500000000E+03 0.  0.
        -13    1    3    3    0    0 -0.33502989680E+02  0.36431452567E+02 -0.35673025611E+02  0.61010466102E+02  0.10566000000E+00 0. -1.
         23    2    1    0    0    0 -0.92629098034E+01  0.23926178644E+02 -0.14586388247E+02  0.95486846244E+02  0.90811406558E+02 0.  0.
         13    1    3    3    0    0  0.24240079877E+02 -0.12505273923E+02  0.21086637364E+02  0.34476380142E+02  0.10566000000E+00 0.  1.
         22    1    1    0    0    0  0.92629098034E+01 -0.23926178644E+02  0.14586388247E+02  0.29513153756E+02  0.00000000000E+00 0. -1.
</event>
<event>
 5    1  0.1709463E-003  0.9118800E+02  0.7818608E-02  0.1130116E+00
         25   -1    0    0    0    0  0.00000000000E+00  0.00000000000E+00  0.99999998245E-14  0.12500000000E+03  0.12500000000E+03 0.  0.
        -13    1    3    3    0    0 -0.18488751857E+02 -0.19343741729E+02 -0.22874232718E+02  0.35203067704E+02  0.10566000000E+00 0.  1.
         23    2    1    0    0    0 -0.13765494747E+02  0.24735001814E+02  0.14507622172E+02  0.93191506457E+02  0.87594957699E+02 0.  0.
         13    1    3    3    0    0  0.47232571097E+01  0.44078743543E+02  0.37381854890E+02  0.57988438754E+02  0.10566000000E+00 0. -1.
         22    1    1    0    0    0  0.13765494747E+02 -0.24735001814E+02 -0.14507622172E+02  0.31808493543E+02  0.00000000000E+00 0. -1.
</event>
<event>
 5    1  0.1709463E-003  0.9118800E+02  0.7818608E-02  0.1130116E+00
         25   -1    0    0    0    0  0.00000000000E+00  0.00000000000E+00  0.99999998245E-14  0.12500000000E+03  0.12500000000E+03 0.  0.
        -13    1    3    3    0    0  0.20237700053E+02 -0.44916114326E+02  0.21008461537E+02  0.53557337963E+02  0.10566000000E+00 0.  1.
         23    2    1    0    0    0  0.23755005304E+02 -0.15773941433E+02 -0.85657098504E+01  0.95226036701E+02  0.90451695259E+02 0.  0.
         13    1    3    3    0    0  0.35173052510E+01  0.29142172893E+02 -0.29574171387E+02  0.41668698737E+02  0.10566000000E+00 0. -1.
         22    1    1    0    0    0 -0.23755005304E+02  0.15773941433E+02  0.85657098504E+01  0.29773963299E+02  0.00000000000E+00 0.  1.
</event>
<event>
 5    1  0.1709463E-003  0.9118800E+02  0.7818608E-02  0.1130116E+00
         25   -1    0    0    0    0  0.00000000000E+00  0.00000000000E+00  0.99999998245E-14  0.12500000000E+03  0.12500000000E+03 0.  0.
        -13    1    3    3    0    0 -0.32966576691E+02 -0.83240470241E+01  0.50081457175E+02  0.60533036058E+02  0.10566000000E+00 0. -1.
         23    2    1    0    0    0 -0.14161878704E+02 -0.14382037087E+02  0.19543647345E+02  0.96904520813E+02  0.92742278402E+02 0.  0.
         13    1    3    3    0    0  0.18804697987E+02 -0.60579900631E+01 -0.30537809830E+02  0.36371484755E+02  0.10566000000E+00 0.  1.
         22    1    1    0    0    0  0.14161878704E+02  0.14382037087E+02 -0.19543647345E+02  0.28095479187E+02  0.00000000000E+00 0. -1.
</event>
<event>
 5    1  0.1709463E-003  0.9118800E+02  0.7818608E-02  0.1130116E+00
         25   -1    0    0    0    0  0.00000000000E+00  0.00000000000E+00  0.99999998245E-14  0.12500000000E+03  0.12500000000E+03 0.  0.
        -13    1    3    3    0    0 -0.23297390888E+02  0.49541205356E+02 -0.20404376742E+02  0.58424731104E+02  0.10566000000E+00 0.  1.
         23    2    1    0    0    0 -0.19137169224E+02  0.10773173425E+02 -0.16340253921E+02  0.97626720881E+02  0.93710619570E+02 0.  0.
         13    1    3    3    0    0  0.41602216646E+01 -0.38768031931E+02  0.40641228210E+01  0.39201989777E+02  0.10566000000E+00 0. -1.
         22    1    1    0    0    0  0.19137169224E+02 -0.10773173425E+02  0.16340253921E+02  0.27373279119E+02  0.00000000000E+00 0.  1.
</event>
<event>
 5    1  0.1709463E-003  0.9118800E+02  0.7818608E-02  0.1130116E+00
         25   -1    0    0    0    0  0.00000000000E+00  0.00000000000E+00  0.99999998245E-14  0.12500000000E+03  0.12500000000E+03 0.  0.
        -13    1    3    3    0    0  0.15648838202E+02 -0.43376430004E+02  0.16926457075E+02  0.49121450814E+02  0.10566000000E+00 0.  1.
         23    2    1    0    0    0  0.26814327781E+02  0.46301024755E+00  0.14704212072E+02  0.94415095137E+02  0.89323982133E+02 0.  0.
         13    1    3    3    0    0  0.11165489579E+02  0.43839440251E+02 -0.22222450034E+01  0.45293644322E+02  0.10566000000E+00 0. -1.
         22    1    1    0    0    0 -0.26814327781E+02 -0.46301024755E+00 -0.14704212072E+02  0.30584904863E+02  0.00000000000E+00 0.  1.
</event>
<event>
 5    1  0.1709463E-003  0.9118800E+02  0.7818608E-02  0.1130116E+00
         25   -1    0    0    0    0  0.00000000000E+00  0.00000000000E+00  0.99999998245E-14  0.12500000000E+03  0.12500000000E+03 0.  0.
        -13    1    3    3    0    0 -0.43272994960E+02 -0.14629209068E+02 -0.39094548788E+02  0.60124543738E+02  0.10566000000E+00 0.  1.
         23    2    1    0    0    0 -0.15180205925E+02  0.34984650117E+01 -0.22975267128E+02  0.97241383158E+02  0.93195202610E+02 0.  0.
         13    1    3    3    0    0  0.28092789035E+02  0.18127674079E+02  0.16119281659E+02  0.37116839420E+02  0.10566000000E+00 0. -1.
         22    1    1    0    0    0  0.15180205925E+02 -0.34984650117E+01  0.22975267128E+02  0.27758616842E+02  0.00000000000E+00 0.  1.
</event>
<event>
 5    1  0.1709463E-003  0.9118800E+02  0.7818608E-02  0.1130116E+00
         25   -1    0    0    0    0  0.00000000000E+00  0.00000000000E+00  0.99999998245E-14  0.12500000000E+03  0.12500000000E+03 0.  0.
        -13    1    3    3    0    0  0.28618639750E+02 -0.39716821051E+01 -0.30154370366E+02  0.41762399549E+02  0.10566000000E+00 0.  1.
         23    2    1    0    0    0 -0.11438842913E+01  0.29382024942E+02 -0.15952584226E+00  0.95595284231E+02  0.90960546710E+02 0.  0.
         13    1    3    3    0    0 -0.29762524041E+02  0.33353707047E+02  0.29994844524E+02  0.53832884682E+02  0.10566000000E+00 0. -1.
         22    1    1    0    0    0  0.11438842913E+01 -0.29382024942E+02  0.15952584226E+00  0.29404715769E+02  0.00000000000E+00 0. -1.
</event>
<event>
 5    1  0.1709463E-003  0.9118800E+02  0.7818608E-02  0.1130116E+00
         25   -1    0    0    0    0  0.00000000000E+00  0.00000000000E+00  0.99999998245E-14  0.12500000000E+03  0.12500000000E+03 0.  0.
        -13    1    3    3    0    0 -0.38978013602E+02 -0.10221327877E+02  0.41584816217E+02  0.57905692223E+02  0.10566000000E+00 0.  1.
         23    2    1    0    0    0 -0.34239594103E+02  0.32673293790E+01  0.16333296328E+02  0.86923736862E+02  0.78140477446E+02 0.  0.
         13    1    3    3    0    0  0.47384194995E+01  0.13488657256E+02 -0.25251519890E+02  0.29018044639E+02  0.10566000000E+00 0. -1.
         22    1    1    0    0    0  0.34239594103E+02 -0.32673293790E+01 -0.16333296328E+02  0.38076263138E+02  0.00000000000E+00 0.  1.
</event>
<event>
 5    1  0.1709463E-003  0.9118800E+02  0.7818608E-02  0.1130116E+00
         25   -1    0    0    0    0  0.00000000000E+00  0.00000000000E+00  0.99999998245E-14  0.12500000000E+03  0.12500000000E+03 0.  0.
        -13    1    3    3    0    0 -0.28164760647E+02  0.21259518778E+02 -0.36453314355E+02  0.50735354266E+02  0.10566000000E+00 0.  1.
         23    2    1    0    0    0  0.16672984029E+01 -0.16625087198E+01 -0.36567182251E+02  0.88357092951E+02  0.80400704213E+02 0.  0.
         13    1    3    3    0    0  0.29832059050E+02 -0.22922027498E+02 -0.11386789533E+00  0.37621738685E+02  0.10566000000E+00 0. -1.
         22    1    1    0    0    0 -0.16672984029E+01  0.16625087198E+01  0.36567182251E+02  0.36642907049E+02  0.00000000000E+00 0.  1.
</event>
<event>
 5    1  0.1709463E-003  0.9118800E+02  0.7818608E-02  0.1130116E+00
         25   -1    0    0    0    0  0.00000000000E+00  0.00000000000E+00  0.99999998245E-14  0.12500000000E+03  0.12500000000E+03 0.  0.
        -13    1    3    3    0    0 -0.51415420497E+01 -0.52380552464E+02  0.60797339697E+01  0.52982374996E+02  0.10566000000E+00 0.  1.
         23    2    1    0    0    0 -0.67637728498E+01 -0.17877895442E+02 -0.20800791436E+02  0.96750385969E+02  0.92534299004E+02 0.  0.
         13    1    3    3    0    0 -0.16222308001E+01  0.34502657022E+02 -0.26880525405E+02  0.43768010972E+02  0.10566000000E+00 0. -1.
         22    1    1    0    0    0  0.67637728498E+01  0.17877895442E+02  0.20800791436E+02  0.28249614031E+02  0.00000000000E+00 0.  1.
</event>
<event>
 5    1  0.1709463E-003  0.9118800E+02  0.7818608E-02  0.1130116E+00
         25   -1    0    0    0    0  0.00000000000E+00  0.00000000000E+00  0.99999998245E-14  0.12500000000E+03  0.12500000000E+03 0.  0.
        -13    1    3    3    0    0 -0.20017367959E+02  0.13241213717E+02  0.57129075917E+02  0.61965855436E+02  0.10566000000E+00 0.  1.
         23    2    1    0    0    0 -0.51848601821E+01  0.10224486031E+02  0.26282406159E+02  0.96326183316E+02  0.91959479278E+02 0.  0.
         13    1    3    3    0    0  0.14832507777E+02 -0.30167276858E+01 -0.30846669758E+02  0.34360327881E+02  0.10566000000E+00 0. -1.
         22    1    1    0    0    0  0.51848601821E+01 -0.10224486031E+02 -0.26282406159E+02  0.28673816684E+02  0.00000000000E+00 0.  1.
</event>
<event>
 5    1  0.1709463E-003  0.9118800E+02  0.7818608E-02  0.1130116E+00
         25   -1    0    0    0    0  0.00000000000E+00  0.00000000000E+00  0.99999998245E-14  0.12500000000E+03  0.12500000000E+03 0.  0.
        -13    1    3    3    0    0  0.29063516804E+02  0.12093155122E+02 -0.43820858095E+02  0.53955640836E+02  0.10566000000E+00 0.  1.
         23    2    1    0    0    0  0.21685163140E+02  0.19980985871E+02 -0.39669718875E+01  0.95247303270E+02  0.90481079886E+02 0.  0.
         13    1    3    3    0    0 -0.73783536643E+01  0.78878307485E+01  0.39853886207E+02  0.41291662434E+02  0.10566000000E+00 0. -1.
         22    1    1    0    0    0 -0.21685163140E+02 -0.19980985871E+02  0.39669718875E+01  0.29752696730E+02  0.00000000000E+00 0.  1.
</event>
<event>
 5    1  0.1709463E-003  0.9118800E+02  0.7818608E-02  0.1130116E+00
         25   -1    0    0    0    0  0.00000000000E+00  0.00000000000E+00  0.99999998245E-14  0.12500000000E+03  0.12500000000E+03 0.  0.
        -13    1    3    3    0    0 -0.36211761560E+02  0.12337515340E+02  0.91330258902E+01  0.39331021930E+02  0.10566000000E+00 0.  1.
         23    2    1    0    0    0  0.31519770217E+01 -0.28260116564E+02  0.58137179104E+01  0.95976415395E+02  0.91482806302E+02 0.  0.
         13    1    3    3    0    0  0.39363738582E+02 -0.40597631904E+02 -0.33193079797E+01  0.56645393466E+02  0.10566000000E+00 0. -1.
         22    1    1    0    0    0 -0.31519770217E+01  0.28260116564E+02 -0.58137179104E+01  0.29023584605E+02  0.00000000000E+00 0. -1.
</event>
<event>
 5    1  0.1709463E-003  0.9118800E+02  0.7818608E-02  0.1130116E+00
         25   -1    0    0    0    0  0.00000000000E+00  0.00000000000E+00  0.99999998245E-14  0.12500000000E+03  0.12500000000E+03 0.  0.
        -13    1    3    3    0    0  0.74411297524E+00 -0.48026404191E+02 -0.10061596554E+02  0.49074800997E+02  0.10566000000E+00 0.  1.
         23    2    1    0    0    0 -0.95151740087E+01 -0.15705619008E+02  0.22411760171E+02  0.96026011687E+02  0.91550548451E+02 0.  0.
         13    1    3    3    0    0 -0.10259286984E+02  0.32320785183E+02  0.32473356725E+02  0.46951210690E+02  0.10566000000E+00 0. -1.
         22    1    1    0    0    0  0.95151740087E+01  0.15705619008E+02 -0.22411760171E+02  0.28973988313E+02  0.00000000000E+00 0.  1.
</event>
<event>
 5    1  0.1709463E-003  0.9118800E+02  0.7818608E-02  0.1130116E+00
         25   -1    0    0    0    0  0.00000000000E+00  0.00000000000E+00  0.99999998245E-14  0.12500000000E+03  0.12500000000E+03 0.  0.
        -13    1    3    3    0    0 -0.33824288016E+02  0.20635617716E+02  0.26678542780E+02  0.47766797958E+02  0.10566000000E+00 0.  1.
         23    2    1    0    0    0  0.10116449212E+02  0.11486939485E+02  0.28459599531E+02  0.92685279997E+02  0.86869557380E+02 0.  0.
         13    1    3    3    0    0  0.43940737228E+02 -0.91486782307E+01  0.17810567514E+01  0.44918482039E+02  0.10566000000E+00 0. -1.
         22    1    1    0    0    0 -0.10116449212E+02 -0.11486939485E+02 -0.28459599531E+02  0.32314720003E+02  0.00000000000E+00 0.  1.
</event>
<event>
 5    1  0.1709463E-003  0.9118800E+02  0.7818608E-02  0.1130116E+00
         25   -1    0    0    0    0  0.00000000000E+00  0.00000000000E+00  0.99999998245E-14  0.12500000000E+03  0.12500000000E+03 0.  0.
        -13    1    3    3    0    0 -0.27074426545E+02 -0.25334901424E+02 -0.98146283064E+01  0.38356484403E+02  0.10566000000E+00 0.  1.
         23    2    1    0    0    0  0.18189548377E+02 -0.75734263550E+01  0.21221932235E+02  0.96041635670E+02  0.91571878420E+02 0.  0.
         13    1    3    3    0    0  0.45263974922E+02  0.17761475069E+02  0.31036560541E+02  0.57685151267E+02  0.10566000000E+00 0. -1.
         22    1    1    0    0    0 -0.18189548377E+02  0.75734263550E+01 -0.21221932235E+02  0.28958364330E+02  0.00000000000E+00 0. -1.
</event>
<event>
 5    1  0.1709463E-003  0.9118800E+02  0.7818608E-02  0.1130116E+00
         25   -1    0    0    0    0  0.00000000000E+00  0.00000000000E+00  0.99999998245E-14  0.12500000000E+03  0.12500000000E+03 0.  0.
        -13    1    3    3    0    0  0.36138478827E+01 -0.21042516682E+02  0.25837706849E+02  0.33517840982E+02  0.10566000000E+00 0. -1.
         23    2    1    0    0    0  0.37740184446E+01  0.27379633617E+02 -0.11899505852E+02  0.94908709038E+02  0.90012095074E+02 0.  0.
         13    1    3    3    0    0  0.16017056187E+00  0.48422150299E+02 -0.37737212701E+02  0.61390868056E+02  0.10566000000E+00 0.  1.
         22    1    1    0    0    0 -0.37740184446E+01 -0.27379633617E+02  0.11899505852E+02  0.30091290962E+02  0.00000000000E+00 0.  1.
</event>
<event>
 5    1  0.1709463E-003  0.9118800E+02  0.7818608E-02  0.1130116E+00
         25   -1    0    0    0    0  0.00000000000E+00  0.00000000000E+00  0.99999998245E-14  0.12500000000E+03  0.12500000000E+03 0.  0.
        -13    1    3    3    0    0 -0.11147383558E+02  0.55847100452E+02 -0.14590775329E+02  0.58788303920E+02  0.10566000000E+00 0.  1.
         23    2    1    0    0    0 -0.10076260382E+02  0.27112999565E+02  0.75812277118E+01  0.95098147510E+02  0.90274785392E+02 0.  0.
         13    1    3    3    0    0  0.10711231760E+01 -0.28734100887E+02  0.22172003041E+02  0.36309843590E+02  0.10566000000E+00 0. -1.
         22    1    1    0    0    0  0.10076260382E+02 -0.27112999565E+02 -0.75812277118E+01  0.29901852490E+02  0.00000000000E+00 0.  1.
</event>
<event>
 5    1  0.1709463E-003  0.9118800E+02  0.7818608E-02  0.1130116E+00
         25   -1    0    0    0    0  0.00000000000E+00  0.00000000000E+00  0.99999998245E-14  0.12500000000E+03  0.12500000000E+03 0.  0.
        -13    1    3    3    0    0  0.66351361052E+01 -0.69950361935E+01 -0.43961455616E+02  0.45006402949E+02  0.10566000000E+00 0. -1.
         23    2    1    0    0    0  0.26198981238E+02 -0.63364335739E+01  0.48644832715E+01  0.97610217127E+02  0.93688602731E+02 0.  0.
         13    1    3    3    0    0  0.19563845133E+02  0.65860261964E+00  0.48825938887E+02  0.52603814178E+02  0.10566000000E+00 0.  1.
         22    1    1    0    0    0 -0.26198981238E+02  0.63364335739E+01 -0.48644832715E+01  0.27389782873E+02  0.00000000000E+00 0. -1.
</event>
<event>
 5    1  0.1709463E-003  0.9118800E+02  0.7818608E-02  0.1130116E+00
         25   -1    0    0    0    0  0.00000000000E+00  0.00000000000E+00  0.99999998245E-14  0.12500000000E+03  0.12500000000E+03 0.  0.
        -13    1    3    3    0    0 -0.25726870599E+02 -0.82612916900E+01 -0.23372442368E+02  0.35726783195E+02  0.10566000000E+00 0.  1.
         23    2    1    0    0    0  0.59114850498E+01  0.25312552550E+02  0.14340842679E+02  0.95312784892E+02  0.90571497852E+02 0.  0.
         13    1    3    3    0    0  0.31638355649E+02  0.33573844240E+02  0.37713285047E+02  0.59586001697E+02  0.10566000000E+00 0. -1.
         22    1    1    0    0    0 -0.59114850498E+01 -0.25312552550E+02 -0.14340842679E+02  0.29687215108E+02  0.00000000000E+00 0. -1.
</event>
<event>
 5    1  0.1709463E-003  0.9118800E+02  0.7818608E-02  0.1130116E+00
         25   -1    0    0    0    0  0.00000000000E+00  0.00000000000E+00  0.99999998245E-14  0.12500000000E+03  0.12500000000E+03 0.  0.
        -13    1    3    3    0    0  0.33344998155E+02  0.33432741191E+02  0.35673818202E+02  0.59179975960E+02  0.10566000000E+00 0. -1.
         23    2    1    0    0    0  0.11257139811E+02  0.24418741897E+02  0.56565170838E+01  0.97522839702E+02  0.93571950527E+02 0.  0.
         13    1    3    3    0    0 -0.22087858344E+02 -0.90139992937E+01 -0.30017301118E+02  0.38342863742E+02  0.10566000000E+00 0.  1.
         22    1    1    0    0    0 -0.11257139811E+02 -0.24418741897E+02 -0.56565170838E+01  0.27477160298E+02  0.00000000000E+00 0. -1.
</event>
<event>
 5    1  0.1709463E-003  0.9118800E+02  0.7818608E-02  0.1130116E+00
         25   -1    0    0    0    0  0.00000000000E+00  0.00000000000E+00  0.99999998245E-14  0.12500000000E+03  0.12500000000E+03 0.  0.
        -13    1    3    3    0    0 -0.19479468033E+02  0.40337259832E+02 -0.23141559096E+02  0.50419114699E+02  0.10566000000E+00 0.  1.
         23    2    1    0    0    0  0.14135252809E+02  0.12222296365E+02 -0.24408247784E+02  0.94259920945E+02  0.89106566741E+02 0.  0.
         13    1    3    3    0    0  0.33614720842E+02 -0.28114963467E+02 -0.12666886876E+01  0.43840806246E+02  0.10566000000E+00 0. -1.
         22    1    1    0    0    0 -0.14135252809E+02 -0.12222296365E+02  0.24408247784E+02  0.30740079055E+02  0.00000000000E+00 0.  1.
</event>
<event>
 5    1  0.1709463E-003  0.9118800E+02  0.7818608E-02  0.1130116E+00
         25   -1    0    0    0    0  0.00000000000E+00  0.00000000000E+00  0.99999998245E-14  0.12500000000E+03  0.12500000000E+03 0.  0.
        -13    1    3    3    0    0 -0.11350034088E+02 -0.21559298897E+02 -0.39174459646E+02  0.46133242845E+02  0.10566000000E+00 0. -1.
         23    2    1    0    0    0  0.19295269612E+02 -0.14679172351E+02  0.49115043262E+01  0.10026321757E+03  0.97163801861E+02 0.  0.
         13    1    3    3    0    0  0.30645303700E+02  0.68801265462E+01  0.44085963972E+02  0.54129974724E+02  0.10566000000E+00 0.  1.
         22    1    1    0    0    0 -0.19295269612E+02  0.14679172351E+02 -0.49115043262E+01  0.24736782431E+02  0.00000000000E+00 0.  1.
</event>
<event>
 5    1  0.1709463E-003  0.9118800E+02  0.7818608E-02  0.1130116E+00
         25   -1    0    0    0    0  0.00000000000E+00  0.00000000000E+00  0.99999998245E-14  0.12500000000E+03  0.12500000000E+03 0.  0.
        -13    1    3    3    0    0 -0.16106669540E+02 -0.12689729671E+02  0.59040467063E+02  0.62499935663E+02  0.10566000000E+00 0. -1.
         23    2    1    0    0    0 -0.77825465495E+01 -0.61387739947E+01  0.28426796781E+02  0.94894595964E+02  0.89992494082E+02 0.  0.
         13    1    3    3    0    0  0.83241229907E+01  0.65509556762E+01 -0.30613670283E+02  0.32394660301E+02  0.10566000000E+00 0.  1.
         22    1    1    0    0    0  0.77825465495E+01  0.61387739947E+01 -0.28426796781E+02  0.30105404036E+02  0.00000000000E+00 0. -1.
</event>
<event>
 5    1  0.1709463E-003  0.9118800E+02  0.7818608E-02  0.1130116E+00
         25   -1    0    0    0    0  0.00000000000E+00  0.00000000000E+00  0.99999998245E-14  0.12500000000E+03  0.12500000000E+03 0.  0.
        -13    1    3    3    0    0 -0.32719694024E+02 -0.54100848650E+01 -0.14961823873E+02  0.36382890662E+02  0.10566000000E+00 0. -1.
         23    2    1    0    0    0  0.24862908445E+02  0.67253701212E+01 -0.14927492565E+02  0.95230471050E+02  0.90457823114E+02 0.  0.
         13    1    3    3    0    0  0.57582602469E+02  0.12135454986E+02  0.34331308752E-01  0.58847580388E+02  0.10566000000E+00 0.  1.
         22    1    1    0    0    0 -0.24862908445E+02 -0.67253701212E+01  0.14927492565E+02  0.29769528950E+02  0.00000000000E+00 0.  1.
</event>
<event>
 5    1  0.1709463E-003  0.9118800E+02  0.7818608E-02  0.1130116E+00
         25   -1    0    0    0    0  0.00000000000E+00  0.00000000000E+00  0.99999998245E-14  0.12500000000E+03  0.12500000000E+03 0.  0.
        -13    1    3    3    0    0 -0.45969114070E+02  0.46281817583E+00  0.14878096812E+02  0.48319174019E+02  0.10566000000E+00 0. -1.
         23    2    1    0    0    0 -0.18296772165E+02 -0.16873793431E+02 -0.17709876548E+02  0.94452716917E+02  0.89376614554E+02 0.  0.
         13    1    3    3    0    0  0.27672341905E+02 -0.17336611607E+02 -0.32587973361E+02  0.46133542898E+02  0.10566000000E+00 0.  1.
         22    1    1    0    0    0  0.18296772165E+02  0.16873793431E+02  0.17709876548E+02  0.30547283083E+02  0.00000000000E+00 0. -1.
</event>
<event>
 5    1  0.1709463E-003  0.9118800E+02  0.7818608E-02  0.1130116E+00
         25   -1    0    0    0    0  0.00000000000E+00  0.00000000000E+00  0.99999998245E-14  0.12500000000E+03  0.12500000000E+03 0.  0.
        -13    1    3    3    0    0 -0.27294086477E+02 -0.19151505089E+02  0.36056718397E+02  0.49110542751E+02  0.10566000000E+00 0.  1.
         23    2    1    0    0    0 -0.26574245836E+02  0.12262672499E+02  0.16797692047E+01  0.95684725770E+02  0.91083376324E+02 0.  0.
         13    1    3    3    0    0  0.71984064078E+00  0.31414177588E+02 -0.34376949192E+02  0.46574183019E+02  0.10566000000E+00 0. -1.
         22    1    1    0    0    0  0.26574245836E+02 -0.12262672499E+02 -0.16797692047E+01  0.29315274230E+02  0.00000000000E+00 0.  1.
</event>
<event>
 5    1  0.1709463E-003  0.9118800E+02  0.7818608E-02  0.1130116E+00
         25   -1    0    0    0    0  0.00000000000E+00  0.00000000000E+00  0.99999998245E-14  0.12500000000E+03  0.12500000000E+03 0.  0.
        -13    1    3    3    0    0  0.12656106290E+02  0.34068886078E+02 -0.13073759876E+02  0.38623831845E+02  0.10566000000E+00 0. -1.
         23    2    1    0    0    0 -0.28815557138E+02  0.11549442598E+01 -0.16667393686E+02  0.91691258780E+02  0.85427247965E+02 0.  0.
         13    1    3    3    0    0 -0.41471663428E+02 -0.32913941818E+02 -0.35936338103E+01  0.53067426935E+02  0.10566000000E+00 0.  1.
         22    1    1    0    0    0  0.28815557138E+02 -0.11549442598E+01  0.16667393686E+02  0.33308741220E+02  0.00000000000E+00 0.  1.
</event>
<event>
 5    1  0.1709463E-003  0.9118800E+02  0.7818608E-02  0.1130116E+00
         25   -1    0    0    0    0  0.00000000000E+00  0.00000000000E+00  0.99999998245E-14  0.12500000000E+03  0.12500000000E+03 0.  0.
        -13    1    3    3    0    0 -0.28179977038E+02 -0.43334265980E+02  0.31155114765E+02  0.60354138664E+02  0.10566000000E+00 0. -1.
         23    2    1    0    0    0 -0.44875731096E+01 -0.18308430246E+02  0.22034084250E+02  0.96002796700E+02  0.91518846010E+02 0.  0.
         13    1    3    3    0    0  0.23692403928E+02  0.25025835734E+02 -0.91210305145E+01  0.35648658036E+02  0.10566000000E+00 0.  1.
         22    1    1    0    0    0  0.44875731096E+01  0.18308430246E+02 -0.22034084250E+02  0.28997203300E+02  0.00000000000E+00 0. -1.
</event>
<event>
 5    1  0.1709463E-003  0.9118800E+02  0.7818608E-02  0.1130116E+00
         25   -1    0    0    0    0  0.00000000000E+00  0.00000000000E+00  0.99999998245E-14  0.12500000000E+03  0.12500000000E+03 0.  0.
        -13    1    3    3    0    0  0.32829784425E+02  0.18214972562E+02 -0.21399948437E+02  0.43215146974E+02  0.10566000000E+00 0. -1.
         23    2    1    0    0    0 -0.10395268897E+02 -0.12076920337E+02 -0.24146886694E+02  0.96069293868E+02  0.91609625406E+02 0.  0.
         13    1    3    3    0    0 -0.43225053322E+02 -0.30291892899E+02 -0.27469382571E+01  0.52854146895E+02  0.10566000000E+00 0.  1.
         22    1    1    0    0    0  0.10395268897E+02  0.12076920337E+02  0.24146886694E+02  0.28930706132E+02  0.00000000000E+00 0. -1.
</event>
<event>
 5    1  0.1709463E-003  0.9118800E+02  0.7818608E-02  0.1130116E+00
         25   -1    0    0    0    0  0.00000000000E+00  0.00000000000E+00  0.99999998245E-14  0.12500000000E+03  0.12500000000E+03 0.  0.
        -13    1    3    3    0    0 -0.18455236076E+02  0.23691486078E+02 -0.24442392832E+02  0.38721105132E+02  0.10566000000E+00 0. -1.
         23    2    1    0    0    0  0.29972456893E+02  0.31879152663E+01 -0.96515817707E+01  0.93350924079E+02  0.87822155632E+02 0.  0.
         13    1    3    3    0    0  0.48427692969E+02 -0.20503570812E+02  0.14790811062E+02  0.54629818948E+02  0.10566000000E+00 0.  1.
         22    1    1    0    0    0 -0.29972456893E+02 -0.31879152663E+01  0.96515817707E+01  0.31649075921E+02  0.00000000000E+00 0.  1.
</event>
<event>
 5    1  0.1709463E-003  0.9118800E+02  0.7818608E-02  0.1130116E+00
         25   -1    0    0    0    0  0.00000000000E+00  0.00000000000E+00  0.99999998245E-14  0.12500000000E+03  0.12500000000E+03 0.  0.
        -13    1    3    3    0    0  0.51269638482E+02  0.20479612053E+01 -0.26497344548E+02  0.57748510001E+02  0.10566000000E+00 0. -1.
         23    2    1    0    0    0  0.19407527416E+02  0.16347507666E+02 -0.18556243286E+02  0.93563917353E+02  0.88124794118E+02 0.  0.
         13    1    3    3    0    0 -0.31862111066E+02  0.14299546461E+02  0.79411012619E+01  0.35815407352E+02  0.10566000000E+00 0.  1.
         22    1    1    0    0    0 -0.19407527416E+02 -0.16347507666E+02  0.18556243286E+02  0.31436082647E+02  0.00000000000E+00 0. -1.
</event>
<event>
 5    1  0.1709463E-003  0.9118800E+02  0.7818608E-02  0.1130116E+00
         25   -1    0    0    0    0  0.00000000000E+00  0.00000000000E+00  0.99999998245E-14  0.12500000000E+03  0.12500000000E+03 0.  0.
        -13    1    3    3    0    0  0.27586203644E+02 -0.30356683191E+02 -0.40092672091E+02  0.57358176098E+02  0.10566000000E+00 0.  1.
         23    2    1    0    0    0 -0.35044607963E+01 -0.19874962794E+02 -0.23161999821E+02  0.94279101133E+02  0.89133468928E+02 0.  0.
         13    1    3    3    0    0 -0.31090664440E+02  0.10481720398E+02  0.16930672270E+02  0.36920925034E+02  0.10566000000E+00 0. -1.
         22    1    1    0    0    0  0.35044607963E+01  0.19874962794E+02  0.23161999821E+02  0.30720898867E+02  0.00000000000E+00 0.  1.
</event>
<event>
 5    1  0.1709463E-003  0.9118800E+02  0.7818608E-02  0.1130116E+00
         25   -1    0    0    0    0  0.00000000000E+00  0.00000000000E+00  0.99999998245E-14  0.12500000000E+03  0.12500000000E+03 0.  0.
        -13    1    3    3    0    0 -0.42781150888E+01 -0.53445117674E+02 -0.17546505502E+02  0.56414305732E+02  0.10566000000E+00 0.  1.
         23    2    1    0    0    0  0.17292787264E+02 -0.19345682762E+02 -0.64279231546E+01  0.98267732439E+02  0.94561795191E+02 0.  0.
         13    1    3    3    0    0  0.21570902353E+02  0.34099434912E+02  0.11118582348E+02  0.41853426707E+02  0.10566000000E+00 0. -1.
         22    1    1    0    0    0 -0.17292787264E+02  0.19345682762E+02  0.64279231546E+01  0.26732267561E+02  0.00000000000E+00 0.  1.
</event>
<event>
 5    1  0.1709463E-003  0.9118800E+02  0.7818608E-02  0.1130116E+00
         25   -1    0    0    0    0  0.00000000000E+00  0.00000000000E+00  0.99999998245E-14  0.12500000000E+03  0.12500000000E+03 0.  0.
        -13    1    3    3    0    0 -0.44763968842E+01  0.37748043021E+02 -0.28003276443E+02  0.47213848991E+02  0.10566000000E+00 0.  1.
         23    2    1    0    0    0  0.12783154366E+02  0.24262338894E+02  0.13718848612E+02  0.94336064646E+02  0.89213318296E+02 0.  0.
         13    1    3    3    0    0  0.17259551250E+02 -0.13485704126E+02  0.41722125055E+02  0.47122215655E+02  0.10566000000E+00 0. -1.
         22    1    1    0    0    0 -0.12783154366E+02 -0.24262338894E+02 -0.13718848612E+02  0.30663935354E+02  0.00000000000E+00 0.  1.
</event>
<event>
 5    1  0.1709463E-003  0.9118800E+02  0.7818608E-02  0.1130116E+00
         25   -1    0    0    0    0  0.00000000000E+00  0.00000000000E+00  0.99999998245E-14  0.12500000000E+03  0.12500000000E+03 0.  0.
        -13    1    3    3    0    0  0.32701955817E+02  0.43144744729E+01 -0.15070289350E+02  0.36265098778E+02  0.10566000000E+00 0. -1.
         23    2    1    0    0    0 -0.25850630161E+02  0.11606958586E+02 -0.28707180951E+01  0.96518118221E+02  0.92220006263E+02 0.  0.
         13    1    3    3    0    0 -0.58552585977E+02  0.72924841133E+01  0.12199571255E+02  0.60253019443E+02  0.10566000000E+00 0.  1.
         22    1    1    0    0    0  0.25850630161E+02 -0.11606958586E+02  0.28707180951E+01  0.28481881779E+02  0.00000000000E+00 0.  1.
</event>
<event>
 5    1  0.1709463E-003  0.9118800E+02  0.7818608E-02  0.1130116E+00
         25   -1    0    0    0    0  0.00000000000E+00  0.00000000000E+00  0.99999998245E-14  0.12500000000E+03  0.12500000000E+03 0.  0.
        -13    1    3    3    0    0  0.47779381701E+02  0.23356017291E+02 -0.27532056548E+01  0.53253771367E+02  0.10566000000E+00 0. -1.
         23    2    1    0    0    0  0.35173549188E+01  0.25175497886E+02 -0.90886816605E+01  0.98004044492E+02  0.94212584738E+02 0.  0.
         13    1    3    3    0    0 -0.44262026782E+02  0.18194805956E+01 -0.63354760057E+01  0.44750273125E+02  0.10566000000E+00 0.  1.
         22    1    1    0    0    0 -0.35173549188E+01 -0.25175497886E+02  0.90886816605E+01  0.26995955508E+02  0.00000000000E+00 0. -1.
</event>
<event>
 5    1  0.1709463E-003  0.9118800E+02  0.7818608E-02  0.1130116E+00
         25   -1    0    0    0    0  0.00000000000E+00  0.00000000000E+00  0.99999998245E-14  0.12500000000E+03  0.12500000000E+03 0.  0.
        -13    1    3    3    0    0 -0.44734320769E+02  0.58478006152E+01  0.30005907416E+02  0.54182302190E+02  0.10566000000E+00 0.  1.
         23    2    1    0    0    0 -0.50330785390E+01  0.18575832611E+02  0.20376263546E+02  0.96971700857E+02  0.92832780925E+02 0.  0.
         13    1    3    3    0    0  0.39701242230E+02  0.12728031996E+02 -0.96296438705E+01  0.42789398666E+02  0.10566000000E+00 0. -1.
         22    1    1    0    0    0  0.50330785390E+01 -0.18575832611E+02 -0.20376263546E+02  0.28028299143E+02  0.00000000000E+00 0.  1.
</event>
<event>
 5    1  0.1709463E-003  0.9118800E+02  0.7818608E-02  0.1130116E+00
         25   -1    0    0    0    0  0.00000000000E+00  0.00000000000E+00  0.99999998245E-14  0.12500000000E+03  0.12500000000E+03 0.  0.
        -13    1    3    3    0    0 -0.20521871101E+02 -0.28139166368E+02  0.47632092642E+02  0.59006671579E+02  0.10566000000E+00 0. -1.
         23    2    1    0    0    0  0.29432653149E+01 -0.76037823422E+01  0.27959574984E+02  0.95875815035E+02  0.91345244861E+02 0.  0.
         13    1    3    3    0    0  0.23465136416E+02  0.20535384026E+02 -0.19672517658E+02  0.36869143456E+02  0.10566000000E+00 0.  1.
         22    1    1    0    0    0 -0.29432653149E+01  0.76037823422E+01 -0.27959574984E+02  0.29124184965E+02  0.00000000000E+00 0. -1.
</event>
<event>
 5    1  0.1709463E-003  0.9118800E+02  0.7818608E-02  0.1130116E+00
         25   -1    0    0    0    0  0.00000000000E+00  0.00000000000E+00  0.99999998245E-14  0.12500000000E+03  0.12500000000E+03 0.  0.
        -13    1    3    3    0    0  0.24055453647E+02  0.28123848446E+02  0.24045568973E+02  0.44134071338E+02  0.10566000000E+00 0.  1.
         23    2    1    0    0    0 -0.11126385998E+02  0.20567592829E+02 -0.14988993801E+02  0.97224250230E+02  0.93172219880E+02 0.  0.
         13    1    3    3    0    0 -0.35181839645E+02 -0.75562556174E+01 -0.39034562774E+02  0.53090178892E+02  0.10566000000E+00 0. -1.
         22    1    1    0    0    0  0.11126385998E+02 -0.20567592829E+02  0.14988993801E+02  0.27775749770E+02  0.00000000000E+00 0. -1.
</event>
<event>
 5    1  0.1709463E-003  0.9118800E+02  0.7818608E-02  0.1130116E+00
         25   -1    0    0    0    0  0.00000000000E+00  0.00000000000E+00  0.99999998245E-14  0.12500000000E+03  0.12500000000E+03 0.  0.
        -13    1    3    3    0    0  0.17990645315E+02 -0.15760158403E+02  0.45569035739E+02  0.51464493527E+02  0.10566000000E+00 0.  1.
         23    2    1    0    0    0  0.15948548706E+02  0.16481402422E+02  0.29750261880E+02  0.87435776148E+02  0.78955329377E+02 0.  0.
         13    1    3    3    0    0 -0.20420966090E+01  0.32241560825E+02 -0.15818773859E+02  0.35971282622E+02  0.10566000000E+00 0. -1.
         22    1    1    0    0    0 -0.15948548706E+02 -0.16481402422E+02 -0.29750261880E+02  0.37564223852E+02  0.00000000000E+00 0.  1.
</event>
<event>
 5    1  0.1709463E-003  0.9118800E+02  0.7818608E-02  0.1130116E+00
         25   -1    0    0    0    0  0.00000000000E+00  0.00000000000E+00  0.99999998245E-14  0.12500000000E+03  0.12500000000E+03 0.  0.
        -13    1    3    3    0    0 -0.11857326896E+01  0.12066052389E+02 -0.32339590265E+02  0.34537745219E+02  0.10566000000E+00 0. -1.
         23    2    1    0    0    0  0.13580247825E+02 -0.13281615245E+02  0.21782328606E+02  0.96098542009E+02  0.91649525379E+02 0.  0.
         13    1    3    3    0    0  0.14765980515E+02 -0.25347667635E+02  0.54121918871E+02  0.61560796790E+02  0.10566000000E+00 0.  1.
         22    1    1    0    0    0 -0.13580247825E+02  0.13281615245E+02 -0.21782328606E+02  0.28901457991E+02  0.00000000000E+00 0.  1.
</event>
<event>
 5    1  0.1709463E-003  0.9118800E+02  0.7818608E-02  0.1130116E+00
         25   -1    0    0    0    0  0.00000000000E+00  0.00000000000E+00  0.99999998245E-14  0.12500000000E+03  0.12500000000E+03 0.  0.
        -13    1    3    3    0    0 -0.32976402960E+02  0.53924281564E+01  0.95579164713E+01  0.34754659614E+02  0.10566000000E+00 0.  1.
         23    2    1    0    0    0  0.22378902905E+02  0.63912563575E+01 -0.17018941680E+02  0.96167590650E+02  0.91743651892E+02 0.  0.
         13    1    3    3    0    0  0.55355305865E+02  0.99882820113E+00 -0.26576858151E+02  0.61412931035E+02  0.10566000000E+00 0. -1.
         22    1    1    0    0    0 -0.22378902905E+02 -0.63912563575E+01  0.17018941680E+02  0.28832409350E+02  0.00000000000E+00 0. -1.
</event>
<event>
 5    1  0.1709463E-003  0.9118800E+02  0.7818608E-02  0.1130116E+00
         25   -1    0    0    0    0  0.00000000000E+00  0.00000000000E+00  0.99999998245E-14  0.12500000000E+03  0.12500000000E+03 0.  0.
        -13    1    3    3    0    0 -0.14190855799E+02  0.30669618893E+02 -0.24290501811E+02  0.41617851381E+02  0.10566000000E+00 0. -1.
         23    2    1    0    0    0  0.27014830449E+02 -0.14506424754E+01 -0.40622342021E+01  0.97642968463E+02  0.93732289612E+02 0.  0.
         13    1    3    3    0    0  0.41205686248E+02 -0.32120261369E+02  0.20228267609E+02  0.56025117082E+02  0.10566000000E+00 0.  1.
         22    1    1    0    0    0 -0.27014830449E+02  0.14506424754E+01  0.40622342021E+01  0.27357031537E+02  0.00000000000E+00 0.  1.
</event>
<event>
 5    1  0.1709463E-003  0.9118800E+02  0.7818608E-02  0.1130116E+00
         25   -1    0    0    0    0  0.00000000000E+00  0.00000000000E+00  0.99999998245E-14  0.12500000000E+03  0.12500000000E+03 0.  0.
        -13    1    3    3    0    0  0.30861457539E+02  0.50513519932E+02 -0.13691229274E+01  0.59210902028E+02  0.10566000000E+00 0.  1.
         23    2    1    0    0    0  0.11507642949E+01  0.28390406441E+02 -0.37996590598E+01  0.96333349597E+02  0.91969219847E+02 0.  0.
         13    1    3    3    0    0 -0.29710693244E+02 -0.22123113491E+02 -0.24305361325E+01  0.37122447569E+02  0.10566000000E+00 0. -1.
         22    1    1    0    0    0 -0.11507642949E+01 -0.28390406441E+02  0.37996590598E+01  0.28666650403E+02  0.00000000000E+00 0.  1.
</event>
<event>
 5    1  0.1709463E-003  0.9118800E+02  0.7818608E-02  0.1130116E+00
         25   -1    0    0    0    0  0.00000000000E+00  0.00000000000E+00  0.99999998245E-14  0.12500000000E+03  0.12500000000E+03 0.  0.
        -13    1    3    3    0    0  0.30063793079E+02 -0.23658386896E+02  0.26089709255E+02  0.46305885348E+02  0.10566000000E+00 0. -1.
         23    2    1    0    0    0  0.20760237982E+02  0.20179781269E+02  0.59256624746E+01  0.95447935286E+02  0.90757830634E+02 0.  0.
         13    1    3    3    0    0 -0.93035550972E+01  0.43838168165E+02 -0.20164046780E+02  0.49142049938E+02  0.10566000000E+00 0.  1.
         22    1    1    0    0    0 -0.20760237982E+02 -0.20179781269E+02 -0.59256624746E+01  0.29552064714E+02  0.00000000000E+00 0. -1.
</event>
<event>
 5    1  0.1709463E-003  0.9118800E+02  0.7818608E-02  0.1130116E+00
         25   -1    0    0    0    0  0.00000000000E+00  0.00000000000E+00  0.99999998245E-14  0.12500000000E+03  0.12500000000E+03 0.  0.
        -13    1    3    3    0    0  0.29408017357E+02  0.44054534528E+02 -0.12380346268E+02  0.54395933994E+02  0.10566000000E+00 0.  1.
         23    2    1    0    0    0 -0.71035845708E+01  0.26644431707E+02 -0.12200157917E+02  0.94846550646E+02  0.89925734144E+02 0.  0.
         13    1    3    3    0    0 -0.36511601928E+02 -0.17410102821E+02  0.18018835032E+00  0.40450616651E+02  0.10566000000E+00 0. -1.
         22    1    1    0    0    0  0.71035845708E+01 -0.26644431707E+02  0.12200157917E+02  0.30153449354E+02  0.00000000000E+00 0.  1.
</event>
<event>
 5    1  0.1709463E-003  0.9118800E+02  0.7818608E-02  0.1130116E+00
         25   -1    0    0    0    0  0.00000000000E+00  0.00000000000E+00  0.99999998245E-14  0.12500000000E+03  0.12500000000E+03 0.  0.
        -13    1    3    3    0    0 -0.19832937480E+02  0.16667099045E+02 -0.39528004697E+02  0.47261103659E+02  0.10566000000E+00 0. -1.
         23    2    1    0    0    0 -0.30692757289E+02  0.37665943002E+01  0.38846594922E+01  0.93833942148E+02  0.88506980160E+02 0.  0.
         13    1    3    3    0    0 -0.10859819809E+02 -0.12900504745E+02  0.43412664189E+02  0.46572838490E+02  0.10566000000E+00 0.  1.
         22    1    1    0    0    0  0.30692757289E+02 -0.37665943002E+01 -0.38846594922E+01  0.31166057852E+02  0.00000000000E+00 0.  1.
</event>
<event>
 5    1  0.1709463E-003  0.9118800E+02  0.7818608E-02  0.1130116E+00
         25   -1    0    0    0    0  0.00000000000E+00  0.00000000000E+00  0.99999998245E-14  0.12500000000E+03  0.12500000000E+03 0.  0.
        -13    1    3    3    0    0 -0.19115745930E+02  0.19200279399E+01 -0.10873933862E+02  0.22076047006E+02  0.10566000000E+00 0. -1.
         23    2    1    0    0    0  0.18925641257E+02  0.15269508551E+02  0.34511377386E+02  0.82781840904E+02  0.71207164148E+02 0.  0.
         13    1    3    3    0    0  0.38041387187E+02  0.13349480612E+02  0.45385311247E+02  0.60705793898E+02  0.10566000000E+00 0.  1.
         22    1    1    0    0    0 -0.18925641257E+02 -0.15269508551E+02 -0.34511377386E+02  0.42218159096E+02  0.00000000000E+00 0.  1.
</event>
<event>
 5    1  0.1709463E-003  0.9118800E+02  0.7818608E-02  0.1130116E+00
         25   -1    0    0    0    0  0.00000000000E+00  0.00000000000E+00  0.99999998245E-14  0.12500000000E+03  0.12500000000E+03 0.  0.
        -13    1    3    3    0    0  0.37240914640E+02 -0.19819974239E+02  0.23457703558E+02  0.48269991945E+02  0.10566000000E+00 0.  1.
         23    2    1    0    0    0  0.61077935477E+01 -0.29440265144E+02 -0.83381403097E+01  0.93798094007E+02  0.88456336696E+02 0.  0.
         13    1    3    3    0    0 -0.31133121093E+02 -0.96202909055E+01 -0.31795843868E+02  0.45528102062E+02  0.10566000000E+00 0. -1.
         22    1    1    0    0    0 -0.61077935477E+01  0.29440265144E+02  0.83381403097E+01  0.31201905993E+02  0.00000000000E+00 0. -1.
</event>
<event>
 5    1  0.1709463E-003  0.9118800E+02  0.7818608E-02  0.1130116E+00
         25   -1    0    0    0    0  0.00000000000E+00  0.00000000000E+00  0.99999998245E-14  0.12500000000E+03  0.12500000000E+03 0.  0.
        -13    1    3    3    0    0 -0.29395527471E+02 -0.18031494964E+02 -0.27295844605E+01  0.34593260056E+02  0.10566000000E+00 0. -1.
         23    2    1    0    0    0  0.15836171422E+02  0.23638102001E+02  0.31490788856E+01  0.96373772702E+02  0.92024144524E+02 0.  0.
         13    1    3    3    0    0  0.45231698893E+02  0.41669596965E+02  0.58786633461E+01  0.61780512646E+02  0.10566000000E+00 0.  1.
         22    1    1    0    0    0 -0.15836171422E+02 -0.23638102001E+02 -0.31490788856E+01  0.28626227298E+02  0.00000000000E+00 0.  1.
</event>
<event>
 5    1  0.1709463E-003  0.9118800E+02  0.7818608E-02  0.1130116E+00
         25   -1    0    0    0    0  0.00000000000E+00  0.00000000000E+00  0.99999998245E-14  0.12500000000E+03  0.12500000000E+03 0.  0.
        -13    1    3    3    0    0  0.33736855825E+02 -0.25278756992E+02  0.19659563217E+02  0.46515595083E+02  0.10566000000E+00 0. -1.
         23    2    1    0    0    0  0.18945687476E+02 -0.62044705298E+01 -0.22402648295E+02  0.95011449200E+02  0.90154657672E+02 0.  0.
         13    1    3    3    0    0 -0.14791168350E+02  0.19074286462E+02 -0.42062211512E+02  0.48495854116E+02  0.10566000000E+00 0.  1.
         22    1    1    0    0    0 -0.18945687476E+02  0.62044705298E+01  0.22402648295E+02  0.29988550800E+02  0.00000000000E+00 0.  1.
</event>
<event>
 5    1  0.1709463E-003  0.9118800E+02  0.7818608E-02  0.1130116E+00
         25   -1    0    0    0    0  0.00000000000E+00  0.00000000000E+00  0.99999998245E-14  0.12500000000E+03  0.12500000000E+03 0.  0.
        -13    1    3    3    0    0  0.30721275200E+02  0.39082401558E+02 -0.73529548404E+01  0.50252442432E+02  0.10566000000E+00 0.  1.
         23    2    1    0    0    0  0.27080685220E+02 -0.58777863573E+01 -0.10252468388E+02  0.95453003664E+02  0.90764811001E+02 0.  0.
         13    1    3    3    0    0 -0.36405899804E+01 -0.44960187916E+02 -0.28995135478E+01  0.45200561232E+02  0.10566000000E+00 0. -1.
         22    1    1    0    0    0 -0.27080685220E+02  0.58777863573E+01  0.10252468388E+02  0.29546996336E+02  0.00000000000E+00 0.  1.
</event>
<event>
 5    1  0.1709463E-003  0.9118800E+02  0.7818608E-02  0.1130116E+00
         25   -1    0    0    0    0  0.00000000000E+00  0.00000000000E+00  0.99999998245E-14  0.12500000000E+03  0.12500000000E+03 0.  0.
        -13    1    3    3    0    0  0.57230452793E+01  0.21976212490E+02  0.34538550610E+02  0.41335575537E+02  0.10566000000E+00 0. -1.
         23    2    1    0    0    0 -0.69830546158E+01  0.20743134758E+02 -0.18779463274E+02  0.96160635718E+02  0.91734175362E+02 0.  0.
         13    1    3    3    0    0 -0.12706099895E+02 -0.12330777326E+01 -0.53318013884E+02  0.54825060181E+02  0.10566000000E+00 0.  1.
         22    1    1    0    0    0  0.69830546158E+01 -0.20743134758E+02  0.18779463274E+02  0.28839364282E+02  0.00000000000E+00 0.  1.
</event>
<event>
 5    1  0.1709463E-003  0.9118800E+02  0.7818608E-02  0.1130116E+00
         25   -1    0    0    0    0  0.00000000000E+00  0.00000000000E+00  0.99999998245E-14  0.12500000000E+03  0.12500000000E+03 0.  0.
        -13    1    3    3    0    0 -0.23340647165E+02  0.41106719179E+02 -0.27404618115E+02  0.54640391926E+02  0.10566000000E+00 0.  1.
         23    2    1    0    0    0  0.84183074006E+01  0.26895345779E+02 -0.40913794764E+01  0.96522519246E+02  0.92225971458E+02 0.  0.
         13    1    3    3    0    0  0.31758954565E+02 -0.14211373400E+02  0.23313238639E+02  0.41882127320E+02  0.10566000000E+00 0. -1.
         22    1    1    0    0    0 -0.84183074006E+01 -0.26895345779E+02  0.40913794764E+01  0.28477480754E+02  0.00000000000E+00 0. -1.
</event>
<event>
 5    1  0.1709463E-003  0.9118800E+02  0.7818608E-02  0.1130116E+00
         25   -1    0    0    0    0  0.00000000000E+00  0.00000000000E+00  0.99999998245E-14  0.12500000000E+03  0.12500000000E+03 0.  0.
        -13    1    3    3    0    0 -0.36830366710E+02 -0.37679044336E+02  0.20517669054E+02  0.56543542526E+02  0.10566000000E+00 0. -1.
         23    2    1    0    0    0 -0.45978983225E+01 -0.15622290701E+02  0.24261888051E+02  0.95779530333E+02  0.91213390373E+02 0.  0.
         13    1    3    3    0    0  0.32232468387E+02  0.22056753635E+02  0.37442189980E+01  0.39235987807E+02  0.10566000000E+00 0.  1.
         22    1    1    0    0    0  0.45978983225E+01  0.15622290701E+02 -0.24261888051E+02  0.29220469667E+02  0.00000000000E+00 0. -1.
</event>
<event>
 5    1  0.1709463E-003  0.9118800E+02  0.7818608E-02  0.1130116E+00
         25   -1    0    0    0    0  0.00000000000E+00  0.00000000000E+00  0.99999998245E-14  0.12500000000E+03  0.12500000000E+03 0.  0.
        -13    1    3    3    0    0 -0.53222671910E+02 -0.10942947450E+02 -0.31127968233E+01  0.54425192441E+02  0.10566000000E+00 0. -1.
         23    2    1    0    0    0 -0.22351716730E+02  0.53673055987E+01 -0.21184644382E+02  0.93739859761E+02  0.88374006021E+02 0.  0.
         13    1    3    3    0    0  0.30870955180E+02  0.16310253049E+02 -0.18071847558E+02  0.39314667320E+02  0.10566000000E+00 0.  1.
         22    1    1    0    0    0  0.22351716730E+02 -0.53673055987E+01  0.21184644382E+02  0.31260140239E+02  0.00000000000E+00 0. -1.
</event>
<event>
 5    1  0.1709463E-003  0.9118800E+02  0.7818608E-02  0.1130116E+00
         25   -1    0    0    0    0  0.00000000000E+00  0.00000000000E+00  0.99999998245E-14  0.12500000000E+03  0.12500000000E+03 0.  0.
        -13    1    3    3    0    0 -0.17748762761E+02  0.14523534763E+02  0.54849999081E+02  0.59451536606E+02  0.10566000000E+00 0. -1.
         23    2    1    0    0    0 -0.20246047831E+02  0.89649437371E+00  0.22082072851E+02  0.95027944742E+02  0.90177525945E+02 0.  0.
         13    1    3    3    0    0 -0.24972850704E+01 -0.13627040389E+02 -0.32767926230E+02  0.35576408137E+02  0.10566000000E+00 0.  1.
         22    1    1    0    0    0  0.20246047831E+02 -0.89649437371E+00 -0.22082072851E+02  0.29972055258E+02  0.00000000000E+00 0. -1.
</event>
<event>
 5    1  0.1709463E-003  0.9118800E+02  0.7818608E-02  0.1130116E+00
         25   -1    0    0    0    0  0.00000000000E+00  0.00000000000E+00  0.99999998245E-14  0.12500000000E+03  0.12500000000E+03 0.  0.
        -13    1    3    3    0    0  0.20892504408E+02 -0.30497767625E+02  0.23408296520E+02  0.43755800536E+02  0.10566000000E+00 0.  1.
         23    2    1    0    0    0  0.34481309639E+02  0.83161884270E+01  0.17969354938E+02  0.85237990226E+02  0.75395607011E+02 0.  0.
         13    1    3    3    0    0  0.13588805231E+02  0.38813956052E+02 -0.54389415819E+01  0.41482189691E+02  0.10566000000E+00 0. -1.
         22    1    1    0    0    0 -0.34481309639E+02 -0.83161884270E+01 -0.17969354938E+02  0.39762009774E+02  0.00000000000E+00 0. -1.
</event>
<event>
 5    1  0.1709463E-003  0.9118800E+02  0.7818608E-02  0.1130116E+00
         25   -1    0    0    0    0  0.00000000000E+00  0.00000000000E+00  0.99999998245E-14  0.12500000000E+03  0.12500000000E+03 0.  0.
        -13    1    3    3    0    0  0.35639383142E+02 -0.11521080617E+02  0.34724167244E+02  0.51075237485E+02  0.10566000000E+00 0. -1.
         23    2    1    0    0    0 -0.83579051625E+01 -0.10855581138E+02  0.25527434313E+02  0.96028494634E+02  0.91553938520E+02 0.  0.
         13    1    3    3    0    0 -0.43997288304E+02  0.66549947963E+00 -0.91967329311E+01  0.44953257149E+02  0.10566000000E+00 0.  1.
         22    1    1    0    0    0  0.83579051625E+01  0.10855581138E+02 -0.25527434313E+02  0.28971505366E+02  0.00000000000E+00 0. -1.
</event>
<event>
 5    1  0.1709463E-003  0.9118800E+02  0.7818608E-02  0.1130116E+00
         25   -1    0    0    0    0  0.00000000000E+00  0.00000000000E+00  0.99999998245E-14  0.12500000000E+03  0.12500000000E+03 0.  0.
        -13    1    3    3    0    0 -0.40966300416E+02  0.25952485882E+02  0.29202903010E+02  0.56609098222E+02  0.10566000000E+00 0.  1.
         23    2    1    0    0    0 -0.30890019782E+02  0.43015121681E+01  0.68658286416E+00  0.93804363685E+02  0.88465196101E+02 0.  0.
         13    1    3    3    0    0  0.10076280634E+02 -0.21650973713E+02 -0.28516320146E+02  0.37195265463E+02  0.10566000000E+00 0. -1.
         22    1    1    0    0    0  0.30890019782E+02 -0.43015121681E+01 -0.68658286416E+00  0.31195636315E+02  0.00000000000E+00 0.  1.
</event>
<event>
 4    1  0.1709463E-003  0.9118800E+02  0.7818608E-02  0.1130116E+00
         25   -1    0    0    0    0  0.00000000000E+00  0.00000000000E+00  0.99999998245E-14  0.12500000000E+03  0.12500000000E+03 0.  0.
        -13    1    1    0    0    0 -0.26246614279E+02  0.29331110269E+01 -0.91471945939E+01  0.27949422792E+02  0.10566000000E+00 0. -1.
         13    1    1    0    0    0 -0.26191169808E+02 -0.26779982501E+02 -0.48431750493E+01  0.37770522200E+02  0.10566000000E+00 0.  1.
         22    1    1    0    0    0  0.52437784087E+02  0.23846871474E+02  0.13990369643E+02  0.59280055008E+02  0.00000000000E+00 0.  1.
</event>
<event>
 5    1  0.1709463E-003  0.9118800E+02  0.7818608E-02  0.1130116E+00
         25   -1    0    0    0    0  0.00000000000E+00  0.00000000000E+00  0.99999998245E-14  0.12500000000E+03  0.12500000000E+03 0.  0.
        -13    1    3    3    0    0  0.39094416514E+01 -0.28375836481E+02  0.40116237226E+02  0.49292955716E+02  0.10566000000E+00 0. -1.
         23    2    1    0    0    0  0.26751294370E+02 -0.66644687222E+01  0.41369396709E+01  0.97122389563E+02  0.93035463082E+02 0.  0.
         13    1    3    3    0    0  0.22841852719E+02  0.21711367759E+02 -0.35979297555E+02  0.47829433847E+02  0.10566000000E+00 0.  1.
         22    1    1    0    0    0 -0.26751294370E+02  0.66644687222E+01 -0.41369396709E+01  0.27877610437E+02  0.00000000000E+00 0. -1.
</event>
<event>
 5    1  0.1709463E-003  0.9118800E+02  0.7818608E-02  0.1130116E+00
         25   -1    0    0    0    0  0.00000000000E+00  0.00000000000E+00  0.99999998245E-14  0.12500000000E+03  0.12500000000E+03 0.  0.
        -13    1    3    3    0    0 -0.32597881022E+02 -0.14993689845E+01 -0.24223288932E+02  0.40640482837E+02  0.10566000000E+00 0.  1.
         23    2    1    0    0    0  0.19013847908E+01  0.29862403078E+02  0.34827626668E+01  0.94875126265E+02  0.89965446513E+02 0.  0.
         13    1    3    3    0    0  0.34499265813E+02  0.31361772063E+02  0.27706051599E+02  0.54234643428E+02  0.10566000000E+00 0. -1.
         22    1    1    0    0    0 -0.19013847908E+01 -0.29862403078E+02 -0.34827626668E+01  0.30124873735E+02  0.00000000000E+00 0.  1.
</event>
<event>
 5    1  0.1709463E-003  0.9118800E+02  0.7818608E-02  0.1130116E+00
         25   -1    0    0    0    0  0.00000000000E+00  0.00000000000E+00  0.99999998245E-14  0.12500000000E+03  0.12500000000E+03 0.  0.
        -13    1    3    3    0    0 -0.36038030468E+02 -0.29233556275E+02 -0.10496303883E+02  0.47576506931E+02  0.10566000000E+00 0.  1.
         23    2    1    0    0    0 -0.28521878741E+02  0.85172106666E+01  0.12831688885E+02  0.92585609923E+02  0.86726019629E+02 0.  0.
         13    1    3    3    0    0  0.75161517277E+01  0.37750766942E+02  0.23327992768E+02  0.45009102991E+02  0.10566000000E+00 0. -1.
         22    1    1    0    0    0  0.28521878741E+02 -0.85172106666E+01 -0.12831688885E+02  0.32414390077E+02  0.00000000000E+00 0. -1.
</event>
<event>
 5    1  0.1709463E-003  0.9118800E+02  0.7818608E-02  0.1130116E+00
         25   -1    0    0    0    0  0.00000000000E+00  0.00000000000E+00  0.99999998245E-14  0.12500000000E+03  0.12500000000E+03 0.  0.
        -13    1    3    3    0    0  0.40469887074E+01 -0.16445285672E+02  0.37473879764E+02  0.41123331176E+02  0.10566000000E+00 0.  1.
         23    2    1    0    0    0  0.53342410530E+01 -0.23491935059E+02 -0.16647951127E+02  0.95717250519E+02  0.91128001348E+02 0.  0.
         13    1    3    3    0    0  0.12872523457E+01 -0.70466493869E+01 -0.54121830891E+02  0.54593919343E+02  0.10566000000E+00 0. -1.
         22    1    1    0    0    0 -0.53342410530E+01  0.23491935059E+02  0.16647951127E+02  0.29282749481E+02  0.00000000000E+00 0.  1.
</event>
<event>
 5    1  0.1709463E-003  0.9118800E+02  0.7818608E-02  0.1130116E+00
         25   -1    0    0    0    0  0.00000000000E+00  0.00000000000E+00  0.99999998245E-14  0.12500000000E+03  0.12500000000E+03 0.  0.
        -13    1    3    3    0    0  0.12277907325E+02  0.37135777708E+02 -0.24687372554E+02  0.46252465036E+02  0.10566000000E+00 0. -1.
         23    2    1    0    0    0 -0.18521427581E+02  0.19723276682E+02  0.10336085322E+02  0.96036478417E+02  0.91564838252E+02 0.  0.
         13    1    3    3    0    0 -0.30799334906E+02 -0.17412501025E+02  0.35023457876E+02  0.49784013381E+02  0.10566000000E+00 0.  1.
         22    1    1    0    0    0  0.18521427581E+02 -0.19723276682E+02 -0.10336085322E+02  0.28963521583E+02  0.00000000000E+00 0.  1.
</event>
<event>
 5    1  0.1709463E-003  0.9118800E+02  0.7818608E-02  0.1130116E+00
         25   -1    0    0    0    0  0.00000000000E+00  0.00000000000E+00  0.99999998245E-14  0.12500000000E+03  0.12500000000E+03 0.  0.
        -13    1    3    3    0    0 -0.26189283625E+02  0.19331589792E+02 -0.22856375147E+02  0.39774539464E+02  0.10566000000E+00 0.  1.
         23    2    1    0    0    0  0.25723209768E+02  0.13368294527E+02 -0.23250326579E+01  0.95917348880E+02  0.91402063543E+02 0.  0.
         13    1    3    3    0    0  0.51912493393E+02 -0.59632952651E+01  0.20531342489E+02  0.56142809416E+02  0.10566000000E+00 0. -1.
         22    1    1    0    0    0 -0.25723209768E+02 -0.13368294527E+02  0.23250326579E+01  0.29082651120E+02  0.00000000000E+00 0.  1.
</event>
<event>
 5    1  0.1709463E-003  0.9118800E+02  0.7818608E-02  0.1130116E+00
         25   -1    0    0    0    0  0.00000000000E+00  0.00000000000E+00  0.99999998245E-14  0.12500000000E+03  0.12500000000E+03 0.  0.
        -13    1    3    3    0    0  0.12429045943E+02  0.26780578333E+02 -0.26675880368E+02  0.39790631012E+02  0.10566000000E+00 0. -1.
         23    2    1    0    0    0 -0.31428021177E+02  0.62428571198E+01 -0.62284507132E+01  0.92358195846E+02  0.86397621272E+02 0.  0.
         13    1    3    3    0    0 -0.43857067121E+02 -0.20537721213E+02  0.20447429655E+02  0.52567564834E+02  0.10566000000E+00 0.  1.
         22    1    1    0    0    0  0.31428021177E+02 -0.62428571198E+01  0.62284507132E+01  0.32641804154E+02  0.00000000000E+00 0.  1.
</event>
<event>
 5    1  0.1709463E-003  0.9118800E+02  0.7818608E-02  0.1130116E+00
         25   -1    0    0    0    0  0.00000000000E+00  0.00000000000E+00  0.99999998245E-14  0.12500000000E+03  0.12500000000E+03 0.  0.
        -13    1    3    3    0    0 -0.35612184578E+02  0.19377837491E+01 -0.20674923998E+02  0.41224341628E+02  0.10566000000E+00 0.  1.
         23    2    1    0    0    0 -0.68248597679E+01  0.21411594541E+02  0.20133481735E+02  0.94827294149E+02  0.89898962937E+02 0.  0.
         13    1    3    3    0    0  0.28787324810E+02  0.19473810792E+02  0.40808405733E+02  0.53602952521E+02  0.10566000000E+00 0. -1.
         22    1    1    0    0    0  0.68248597679E+01 -0.21411594541E+02 -0.20133481735E+02  0.30172705851E+02  0.00000000000E+00 0. -1.
</event>
<event>
 5    1  0.1709463E-003  0.9118800E+02  0.7818608E-02  0.1130116E+00
         25   -1    0    0    0    0  0.00000000000E+00  0.00000000000E+00  0.99999998245E-14  0.12500000000E+03  0.12500000000E+03 0.  0.
        -13    1    3    3    0    0 -0.28465653476E+02  0.33553719960E+02  0.40644858528E+02  0.59901262422E+02  0.10566000000E+00 0. -1.
         23    2    1    0    0    0 -0.17318059591E+02  0.55162741448E+01  0.25565915087E+02  0.93631855607E+02  0.88221108028E+02 0.  0.
         13    1    3    3    0    0  0.11147593885E+02 -0.28037445815E+02 -0.15078943441E+02  0.33730593185E+02  0.10566000000E+00 0.  1.
         22    1    1    0    0    0  0.17318059591E+02 -0.55162741448E+01 -0.25565915087E+02  0.31368144393E+02  0.00000000000E+00 0. -1.
</event>
<event>
 5    1  0.1709463E-003  0.9118800E+02  0.7818608E-02  0.1130116E+00
         25   -1    0    0    0    0  0.00000000000E+00  0.00000000000E+00  0.99999998245E-14  0.12500000000E+03  0.12500000000E+03 0.  0.
        -13    1    3    3    0    0 -0.50899371273E+02  0.23194788812E+02  0.22693569248E+02  0.60363511108E+02  0.10566000000E+00 0.  1.
         23    2    1    0    0    0 -0.22956530315E+02  0.55809675785E+01  0.20922418739E+02  0.93442162795E+02  0.87951922655E+02 0.  0.
         13    1    3    3    0    0  0.27942840958E+02 -0.17613821234E+02 -0.17711505099E+01  0.33078651687E+02  0.10566000000E+00 0. -1.
         22    1    1    0    0    0  0.22956530315E+02 -0.55809675785E+01 -0.20922418739E+02  0.31557837205E+02  0.00000000000E+00 0.  1.
</event>
<event>
 5    1  0.1709463E-003  0.9118800E+02  0.7818608E-02  0.1130116E+00
         25   -1    0    0    0    0  0.00000000000E+00  0.00000000000E+00  0.99999998245E-14  0.12500000000E+03  0.12500000000E+03 0.  0.
        -13    1    3    3    0    0  0.22389230978E+02 -0.22519123974E+02 -0.12319803406E+02  0.34061375902E+02  0.10566000000E+00 0.  1.
         23    2    1    0    0    0 -0.11417631343E+02  0.13810929446E+02  0.23632231079E+02  0.95342177702E+02  0.90612054527E+02 0.  0.
         13    1    3    3    0    0 -0.33806862321E+02  0.36330053421E+02  0.35952034486E+02  0.61280801800E+02  0.10566000000E+00 0. -1.
         22    1    1    0    0    0  0.11417631343E+02 -0.13810929446E+02 -0.23632231079E+02  0.29657822298E+02  0.00000000000E+00 0. -1.
</event>
<event>
 5    1  0.1709463E-003  0.9118800E+02  0.7818608E-02  0.1130116E+00
         25   -1    0    0    0    0  0.00000000000E+00  0.00000000000E+00  0.99999998245E-14  0.12500000000E+03  0.12500000000E+03 0.  0.
        -13    1    3    3    0    0  0.54560120339E+02  0.27419172596E+02 -0.15050890269E+01  0.61081046277E+02  0.10566000000E+00 0. -1.
         23    2    1    0    0    0  0.24329432918E+02  0.12553113872E+02  0.86876246307E+01  0.96277590705E+02  0.91893403877E+02 0.  0.
         13    1    3    3    0    0 -0.30230687421E+02 -0.14866058724E+02  0.10192713658E+02  0.35196544428E+02  0.10566000000E+00 0.  1.
         22    1    1    0    0    0 -0.24329432918E+02 -0.12553113872E+02 -0.86876246307E+01  0.28722409295E+02  0.00000000000E+00 0. -1.
</event>
<event>
 5    1  0.1709463E-003  0.9118800E+02  0.7818608E-02  0.1130116E+00
         25   -1    0    0    0    0  0.00000000000E+00  0.00000000000E+00  0.99999998245E-14  0.12500000000E+03  0.12500000000E+03 0.  0.
        -13    1    3    3    0    0  0.13300360446E+02  0.31498937447E+02 -0.26563236002E+02  0.43297798087E+02  0.10566000000E+00 0.  1.
         23    2    1    0    0    0 -0.24221297816E+02 -0.44758297677E+01 -0.13567648501E+02  0.96879093083E+02  0.92708000036E+02 0.  0.
         13    1    3    3    0    0 -0.37521658262E+02 -0.35974767214E+02  0.12995587501E+02  0.53581294996E+02  0.10566000000E+00 0. -1.
         22    1    1    0    0    0  0.24221297816E+02  0.44758297677E+01  0.13567648501E+02  0.28120906917E+02  0.00000000000E+00 0. -1.
</event>
<event>
 5    1  0.1709463E-003  0.9118800E+02  0.7818608E-02  0.1130116E+00
         25   -1    0    0    0    0  0.00000000000E+00  0.00000000000E+00  0.99999998245E-14  0.12500000000E+03  0.12500000000E+03 0.  0.
        -13    1    3    3    0    0 -0.30010205059E+02 -0.11501407208E+02 -0.21096425612E+02  0.38444311843E+02  0.10566000000E+00 0.  1.
         23    2    1    0    0    0  0.14367119550E+02  0.20722914276E+02  0.51800794561E+01  0.99257301551E+02  0.95860969053E+02 0.  0.
         13    1    3    3    0    0  0.44377324609E+02  0.32224321484E+02  0.26276505068E+02  0.60812989708E+02  0.10566000000E+00 0. -1.
         22    1    1    0    0    0 -0.14367119550E+02 -0.20722914276E+02 -0.51800794561E+01  0.25742698449E+02  0.00000000000E+00 0. -1.
</event>
<event>
 5    1  0.1709463E-003  0.9118800E+02  0.7818608E-02  0.1130116E+00
         25   -1    0    0    0    0  0.00000000000E+00  0.00000000000E+00  0.99999998245E-14  0.12500000000E+03  0.12500000000E+03 0.  0.
        -13    1    3    3    0    0  0.16503825340E+01 -0.17935861450E+02 -0.37894500783E+02  0.41957397942E+02  0.10566000000E+00 0.  1.
         23    2    1    0    0    0  0.18230845422E+02 -0.18010848012E+02  0.13552193166E+02  0.96010065359E+02  0.91528773288E+02 0.  0.
         13    1    3    3    0    0  0.16580462888E+02 -0.74986562322E-01  0.51446693949E+02  0.54052667416E+02  0.10566000000E+00 0. -1.
         22    1    1    0    0    0 -0.18230845422E+02  0.18010848012E+02 -0.13552193166E+02  0.28989934641E+02  0.00000000000E+00 0.  1.
</event>
<event>
 5    1  0.1709463E-003  0.9118800E+02  0.7818608E-02  0.1130116E+00
         25   -1    0    0    0    0  0.00000000000E+00  0.00000000000E+00  0.99999998245E-14  0.12500000000E+03  0.12500000000E+03 0.  0.
        -13    1    3    3    0    0 -0.25819913568E+02  0.11806522178E+02 -0.26977871826E+02  0.39164762669E+02  0.10566000000E+00 0.  1.
         23    2    1    0    0    0  0.80122568271E+01  0.20239744825E+02  0.18473515245E+02  0.96449793423E+02  0.92127348577E+02 0.  0.
         13    1    3    3    0    0  0.33832170395E+02  0.84332226470E+01  0.45451387071E+02  0.57285030755E+02  0.10566000000E+00 0. -1.
         22    1    1    0    0    0 -0.80122568271E+01 -0.20239744825E+02 -0.18473515245E+02  0.28550206577E+02  0.00000000000E+00 0. -1.
</event>
<event>
 5    1  0.1709463E-003  0.9118800E+02  0.7818608E-02  0.1130116E+00
         25   -1    0    0    0    0  0.00000000000E+00  0.00000000000E+00  0.99999998245E-14  0.12500000000E+03  0.12500000000E+03 0.  0.
        -13    1    3    3    0    0 -0.15646885614E+02 -0.25000636968E+02  0.27261012409E+02  0.40162555195E+02  0.10566000000E+00 0. -1.
         23    2    1    0    0    0 -0.15506484623E+02  0.25055070556E+02  0.43405194884E+01  0.95216653389E+02  0.90438727032E+02 0.  0.
         13    1    3    3    0    0  0.14040099111E+00  0.50055707523E+02 -0.22920492921E+02  0.55054098193E+02  0.10566000000E+00 0.  1.
         22    1    1    0    0    0  0.15506484623E+02 -0.25055070556E+02 -0.43405194884E+01  0.29783346611E+02  0.00000000000E+00 0.  1.
</event>
<event>
 5    1  0.1709463E-003  0.9118800E+02  0.7818608E-02  0.1130116E+00
         25   -1    0    0    0    0  0.00000000000E+00  0.00000000000E+00  0.99999998245E-14  0.12500000000E+03  0.12500000000E+03 0.  0.
        -13    1    3    3    0    0  0.57264749141E+01 -0.89773345827E+01  0.31671897335E+02  0.33414148141E+02  0.10566000000E+00 0.  1.
         23    2    1    0    0    0 -0.14232899779E+01 -0.84155947533E+00 -0.29457695936E+02  0.95495935423E+02  0.90823916761E+02 0.  0.
         13    1    3    3    0    0 -0.71497648920E+01  0.81357751074E+01 -0.61129593271E+02  0.62081787282E+02  0.10566000000E+00 0. -1.
         22    1    1    0    0    0  0.14232899779E+01  0.84155947533E+00  0.29457695936E+02  0.29504064577E+02  0.00000000000E+00 0. -1.
</event>
<event>
 5    1  0.1709463E-003  0.9118800E+02  0.7818608E-02  0.1130116E+00
         25   -1    0    0    0    0  0.00000000000E+00  0.00000000000E+00  0.99999998245E-14  0.12500000000E+03  0.12500000000E+03 0.  0.
        -13    1    3    3    0    0 -0.12904461480E+02  0.19375867448E+01 -0.51745821343E+02  0.53365911957E+02  0.10566000000E+00 0.  1.
         23    2    1    0    0    0  0.10218124230E+02  0.10403270271E+02 -0.43159216372E+02  0.79443924083E+02  0.65084414575E+02 0.  0.
         13    1    3    3    0    0  0.23122585710E+02  0.84656835259E+01  0.85866049705E+01  0.26078012126E+02  0.10566000000E+00 0. -1.
         22    1    1    0    0    0 -0.10218124230E+02 -0.10403270271E+02  0.43159216372E+02  0.45556075917E+02  0.00000000000E+00 0.  1.
</event>
<event>
 5    1  0.1709463E-003  0.9118800E+02  0.7818608E-02  0.1130116E+00
         25   -1    0    0    0    0  0.00000000000E+00  0.00000000000E+00  0.99999998245E-14  0.12500000000E+03  0.12500000000E+03 0.  0.
        -13    1    3    3    0    0  0.22699755630E+02  0.69117295575E+01  0.42569020963E+02  0.48735855599E+02  0.10566000000E+00 0. -1.
         23    2    1    0    0    0 -0.19073477973E+02  0.69437633173E+01  0.21169484596E+02  0.95671507215E+02  0.91065233781E+02 0.  0.
         13    1    3    3    0    0 -0.41773233603E+02  0.32033759763E-01 -0.21399536367E+02  0.46935651616E+02  0.10566000000E+00 0.  1.
         22    1    1    0    0    0  0.19073477973E+02 -0.69437633173E+01 -0.21169484596E+02  0.29328492785E+02  0.00000000000E+00 0. -1.
</event>
<event>
 5    1  0.1709463E-003  0.9118800E+02  0.7818608E-02  0.1130116E+00
         25   -1    0    0    0    0  0.00000000000E+00  0.00000000000E+00  0.99999998245E-14  0.12500000000E+03  0.12500000000E+03 0.  0.
        -13    1    3    3    0    0 -0.27843187850E+02 -0.54273041162E+02 -0.13734297946E+01  0.61013962173E+02  0.10566000000E+00 0. -1.
         23    2    1    0    0    0 -0.19615676209E+02 -0.21496688061E+02  0.51920656226E+01  0.95439216922E+02  0.90745822111E+02 0.  0.
         13    1    3    3    0    0  0.82275116406E+01  0.32776353101E+02  0.65654954172E+01  0.34425254749E+02  0.10566000000E+00 0.  1.
         22    1    1    0    0    0  0.19615676209E+02  0.21496688061E+02 -0.51920656226E+01  0.29560783078E+02  0.00000000000E+00 0. -1.
</event>
<event>
 5    1  0.1709463E-003  0.9118800E+02  0.7818608E-02  0.1130116E+00
         25   -1    0    0    0    0  0.00000000000E+00  0.00000000000E+00  0.99999998245E-14  0.12500000000E+03  0.12500000000E+03 0.  0.
        -13    1    3    3    0    0 -0.54101061323E+02 -0.78999163998E+01 -0.11908299947E+02  0.55956700109E+02  0.10566000000E+00 0.  1.
         23    2    1    0    0    0 -0.24647383910E+02  0.14527046538E+01  0.14292063760E+02  0.96471646193E+02  0.92156994028E+02 0.  0.
         13    1    3    3    0    0  0.29453677414E+02  0.93526210536E+01  0.26200363707E+02  0.40514946084E+02  0.10566000000E+00 0. -1.
         22    1    1    0    0    0  0.24647383910E+02 -0.14527046538E+01 -0.14292063760E+02  0.28528353807E+02  0.00000000000E+00 0.  1.
</event>
<event>
 5    1  0.1709463E-003  0.9118800E+02  0.7818608E-02  0.1130116E+00
         25   -1    0    0    0    0  0.00000000000E+00  0.00000000000E+00  0.99999998245E-14  0.12500000000E+03  0.12500000000E+03 0.  0.
        -13    1    3    3    0    0 -0.40116397513E+02  0.35481729540E+02  0.14400401637E+02  0.55458644159E+02  0.10566000000E+00 0.  1.
         23    2    1    0    0    0 -0.30836426660E+02  0.24271880885E+01 -0.29526439558E+01  0.93927591701E+02  0.88639144429E+02 0.  0.
         13    1    3    3    0    0  0.92799708530E+01 -0.33054541452E+02 -0.17353045593E+02  0.38468947542E+02  0.10566000000E+00 0. -1.
         22    1    1    0    0    0  0.30836426660E+02 -0.24271880885E+01  0.29526439558E+01  0.31072408299E+02  0.00000000000E+00 0. -1.
</event>
<event>
 5    1  0.1709463E-003  0.9118800E+02  0.7818608E-02  0.1130116E+00
         25   -1    0    0    0    0  0.00000000000E+00  0.00000000000E+00  0.99999998245E-14  0.12500000000E+03  0.12500000000E+03 0.  0.
        -13    1    3    3    0    0  0.38006000650E+02 -0.46512664528E+02 -0.11177974874E+02  0.61096991196E+02  0.10566000000E+00 0.  1.
         23    2    1    0    0    0  0.21581509459E+02 -0.11993951076E+02 -0.43078572431E+01  0.99936599453E+02  0.96742699277E+02 0.  0.
         13    1    3    3    0    0 -0.16424491191E+02  0.34518713452E+02  0.68701176308E+01  0.38839608257E+02  0.10566000000E+00 0. -1.
         22    1    1    0    0    0 -0.21581509459E+02  0.11993951076E+02  0.43078572431E+01  0.25063400547E+02  0.00000000000E+00 0.  1.
</event>
<event>
 5    1  0.1709463E-003  0.9118800E+02  0.7818608E-02  0.1130116E+00
         25   -1    0    0    0    0  0.00000000000E+00  0.00000000000E+00  0.99999998245E-14  0.12500000000E+03  0.12500000000E+03 0.  0.
        -13    1    3    3    0    0  0.32136709054E+02 -0.27047523849E+02 -0.26898571057E+02  0.49878661812E+02  0.10566000000E+00 0. -1.
         23    2    1    0    0    0  0.21473622771E+02  0.15367045566E+02 -0.10040268906E+02  0.96749874973E+02  0.92533608722E+02 0.  0.
         13    1    3    3    0    0 -0.10663086283E+02  0.42414569415E+02  0.16858302150E+02  0.46871213161E+02  0.10566000000E+00 0.  1.
         22    1    1    0    0    0 -0.21473622771E+02 -0.15367045566E+02  0.10040268906E+02  0.28250125027E+02  0.00000000000E+00 0. -1.
</event>
<event>
 5    1  0.1709463E-003  0.9118800E+02  0.7818608E-02  0.1130116E+00
         25   -1    0    0    0    0  0.00000000000E+00  0.00000000000E+00  0.99999998245E-14  0.12500000000E+03  0.12500000000E+03 0.  0.
        -13    1    3    3    0    0 -0.17766411022E+01  0.37730728659E+02  0.65290994802E+01  0.38332814178E+02  0.10566000000E+00 0.  1.
         23    2    1    0    0    0  0.25754000511E+02 -0.12682525244E+02  0.54267386501E+01  0.95784174130E+02  0.91219754069E+02 0.  0.
         13    1    3    3    0    0  0.27530641614E+02 -0.50413253904E+02 -0.11023608302E+01  0.57451359951E+02  0.10566000000E+00 0. -1.
         22    1    1    0    0    0 -0.25754000511E+02  0.12682525244E+02 -0.54267386501E+01  0.29215825870E+02  0.00000000000E+00 0. -1.
</event>
<event>
 5    1  0.1709463E-003  0.9118800E+02  0.7818608E-02  0.1130116E+00
         25   -1    0    0    0    0  0.00000000000E+00  0.00000000000E+00  0.99999998245E-14  0.12500000000E+03  0.12500000000E+03 0.  0.
        -13    1    3    3    0    0  0.36937566585E+02  0.20002836028E+02 -0.13272103131E+02  0.44052890483E+02  0.10566000000E+00 0. -1.
         23    2    1    0    0    0 -0.36084412762E+01 -0.59946818565E+01 -0.29347721659E+02  0.94829719498E+02  0.89902335200E+02 0.  0.
         13    1    3    3    0    0 -0.40546007862E+02 -0.25997517884E+02 -0.16075618528E+02  0.50776829014E+02  0.10566000000E+00 0.  1.
         22    1    1    0    0    0  0.36084412762E+01  0.59946818565E+01  0.29347721659E+02  0.30170280502E+02  0.00000000000E+00 0.  1.
</event>
<event>
 5    1  0.1709463E-003  0.9118800E+02  0.7818608E-02  0.1130116E+00
         25   -1    0    0    0    0  0.00000000000E+00  0.00000000000E+00  0.99999998245E-14  0.12500000000E+03  0.12500000000E+03 0.  0.
        -13    1    3    3    0    0 -0.48297134671E+01  0.55426127406E+02 -0.23853429264E+02  0.60534114209E+02  0.10566000000E+00 0.  1.
         23    2    1    0    0    0 -0.11524783685E+01  0.25887294799E+02 -0.23060754941E+02  0.90311692793E+02  0.83384190338E+02 0.  0.
         13    1    3    3    0    0  0.36772350986E+01 -0.29538832607E+02  0.79267432219E+00  0.29777578584E+02  0.10566000000E+00 0. -1.
         22    1    1    0    0    0  0.11524783685E+01 -0.25887294799E+02  0.23060754941E+02  0.34688307207E+02  0.00000000000E+00 0.  1.
</event>
<event>
 5    1  0.1709463E-003  0.9118800E+02  0.7818608E-02  0.1130116E+00
         25   -1    0    0    0    0  0.00000000000E+00  0.00000000000E+00  0.99999998245E-14  0.12500000000E+03  0.12500000000E+03 0.  0.
        -13    1    3    3    0    0  0.32558184907E+02  0.25187232438E+02  0.20499635825E+02  0.45985631618E+02  0.10566000000E+00 0.  1.
         23    2    1    0    0    0 -0.13995127164E+01  0.24855472405E+02 -0.15658074879E+02  0.95590334016E+02  0.90953743761E+02 0.  0.
         13    1    3    3    0    0 -0.33957697624E+02 -0.33176003228E+00 -0.36157710704E+02  0.49604702398E+02  0.10566000000E+00 0. -1.
         22    1    1    0    0    0  0.13995127164E+01 -0.24855472405E+02  0.15658074879E+02  0.29409665984E+02  0.00000000000E+00 0. -1.
</event>
<event>
 5    1  0.1709463E-003  0.9118800E+02  0.7818608E-02  0.1130116E+00
         25   -1    0    0    0    0  0.00000000000E+00  0.00000000000E+00  0.99999998245E-14  0.12500000000E+03  0.12500000000E+03 0.  0.
        -13    1    3    3    0    0  0.42527076927E+02 -0.20601896124E+02 -0.23149126875E+02  0.52620182772E+02  0.10566000000E+00 0. -1.
         23    2    1    0    0    0  0.28931793088E+02  0.69873295492E+01  0.55915571384E+01  0.94715731200E+02  0.89743706186E+02 0.  0.
         13    1    3    3    0    0 -0.13595283839E+02  0.27589225674E+02  0.28740684013E+02  0.42095548428E+02  0.10566000000E+00 0.  1.
         22    1    1    0    0    0 -0.28931793088E+02 -0.69873295492E+01 -0.55915571384E+01  0.30284268800E+02  0.00000000000E+00 0. -1.
</event>
<event>
 5    1  0.1709463E-003  0.9118800E+02  0.7818608E-02  0.1130116E+00
         25   -1    0    0    0    0  0.00000000000E+00  0.00000000000E+00  0.99999998245E-14  0.12500000000E+03  0.12500000000E+03 0.  0.
        -13    1    3    3    0    0  0.38027857518E+02 -0.21317806626E+01 -0.37291140528E+02  0.53303871924E+02  0.10566000000E+00 0.  1.
         23    2    1    0    0    0  0.29122976362E+02 -0.43115426417E+01  0.37183221441E+01  0.95325716998E+02  0.90589344017E+02 0.  0.
         13    1    3    3    0    0 -0.89048811564E+01 -0.21797619791E+01  0.41009462672E+02  0.42021845073E+02  0.10566000000E+00 0. -1.
         22    1    1    0    0    0 -0.29122976362E+02  0.43115426417E+01 -0.37183221441E+01  0.29674283002E+02  0.00000000000E+00 0. -1.
</event>
<event>
 5    1  0.1709463E-003  0.9118800E+02  0.7818608E-02  0.1130116E+00
         25   -1    0    0    0    0  0.00000000000E+00  0.00000000000E+00  0.99999998245E-14  0.12500000000E+03  0.12500000000E+03 0.  0.
        -13    1    3    3    0    0  0.36113139335E+02 -0.83513074527E+01  0.20534665841E+01  0.37123187604E+02  0.10566000000E+00 0.  1.
         23    2    1    0    0    0 -0.19553926584E+02 -0.21596083502E+02  0.83604800815E+01  0.94690851304E+02  0.89709045397E+02 0.  0.
         13    1    3    3    0    0 -0.55667065919E+02 -0.13244776049E+02  0.63070134974E+01  0.57567663700E+02  0.10566000000E+00 0. -1.
         22    1    1    0    0    0  0.19553926584E+02  0.21596083502E+02 -0.83604800815E+01  0.30309148696E+02  0.00000000000E+00 0. -1.
</event>
<event>
 5    1  0.1709463E-003  0.9118800E+02  0.7818608E-02  0.1130116E+00
         25   -1    0    0    0    0  0.00000000000E+00  0.00000000000E+00  0.99999998245E-14  0.12500000000E+03  0.12500000000E+03 0.  0.
        -13    1    3    3    0    0  0.37893407079E+02 -0.21850171375E+02  0.25010787574E+02  0.50387408628E+02  0.10566000000E+00 0. -1.
         23    2    1    0    0    0 -0.68619965742E+01 -0.23648361062E+02  0.14600783364E+02  0.96372830166E+02  0.92022864232E+02 0.  0.
         13    1    3    3    0    0 -0.44755403653E+02 -0.17981896871E+01 -0.10410004211E+02  0.45985421538E+02  0.10566000000E+00 0.  1.
         22    1    1    0    0    0  0.68619965742E+01  0.23648361062E+02 -0.14600783364E+02  0.28627169834E+02  0.00000000000E+00 0.  1.
</event>
<event>
 5    1  0.1709463E-003  0.9118800E+02  0.7818608E-02  0.1130116E+00
         25   -1    0    0    0    0  0.00000000000E+00  0.00000000000E+00  0.99999998245E-14  0.12500000000E+03  0.12500000000E+03 0.  0.
        -13    1    3    3    0    0 -0.33113218236E+02  0.19996031520E+02 -0.19466197689E+02  0.43304393715E+02  0.10566000000E+00 0. -1.
         23    2    1    0    0    0 -0.24093994337E+02 -0.24190184598E+02 -0.63305331523E+01  0.90275927025E+02  0.83330557158E+02 0.  0.
         13    1    3    3    0    0  0.90192238993E+01 -0.44186216119E+02  0.13135664537E+02  0.46971533310E+02  0.10566000000E+00 0.  1.
         22    1    1    0    0    0  0.24093994337E+02  0.24190184598E+02  0.63305331523E+01  0.34724072975E+02  0.00000000000E+00 0.  1.
</event>
<event>
 5    1  0.1709463E-003  0.9118800E+02  0.7818608E-02  0.1130116E+00
         25   -1    0    0    0    0  0.00000000000E+00  0.00000000000E+00  0.99999998245E-14  0.12500000000E+03  0.12500000000E+03 0.  0.
        -13    1    3    3    0    0 -0.22924539194E+02  0.56883267804E+02 -0.53556417921E+01  0.61562445666E+02  0.10566000000E+00 0.  1.
         23    2    1    0    0    0 -0.41287563707E+01  0.30354666874E+02 -0.11668885667E+01  0.94343613078E+02  0.89223894050E+02 0.  0.
         13    1    3    3    0    0  0.18795782823E+02 -0.26528600930E+02  0.41887532254E+01  0.32781167412E+02  0.10566000000E+00 0. -1.
         22    1    1    0    0    0  0.41287563707E+01 -0.30354666874E+02  0.11668885667E+01  0.30656386922E+02  0.00000000000E+00 0.  1.
</event>
<event>
 5    1  0.1709463E-003  0.9118800E+02  0.7818608E-02  0.1130116E+00
         25   -1    0    0    0    0  0.00000000000E+00  0.00000000000E+00  0.99999998245E-14  0.12500000000E+03  0.12500000000E+03 0.  0.
        -13    1    3    3    0    0 -0.12639145513E+02 -0.22724921193E+02 -0.29025921936E+02  0.38970313711E+02  0.10566000000E+00 0.  1.
         23    2    1    0    0    0  0.27462952145E+02  0.22932033868E+01  0.47111272350E+01  0.97041687424E+02  0.92926970552E+02 0.  0.
         13    1    3    3    0    0  0.40102097658E+02  0.25018124580E+02  0.33737049171E+02  0.58071373712E+02  0.10566000000E+00 0. -1.
         22    1    1    0    0    0 -0.27462952145E+02 -0.22932033868E+01 -0.47111272350E+01  0.27958312576E+02  0.00000000000E+00 0. -1.
</event>
<event>
 5    1  0.1709463E-003  0.9118800E+02  0.7818608E-02  0.1130116E+00
         25   -1    0    0    0    0  0.00000000000E+00  0.00000000000E+00  0.99999998245E-14  0.12500000000E+03  0.12500000000E+03 0.  0.
        -13    1    3    3    0    0 -0.29004387882E+02  0.19418843345E+02 -0.93089462650E+01  0.36124972497E+02  0.10566000000E+00 0. -1.
         23    2    1    0    0    0  0.23298368699E+02  0.12090267563E+02  0.15543990776E+02  0.94494193946E+02  0.89434604524E+02 0.  0.
         13    1    3    3    0    0  0.52302756581E+02 -0.73285757816E+01  0.24852937041E+02  0.58369221449E+02  0.10566000000E+00 0.  1.
         22    1    1    0    0    0 -0.23298368699E+02 -0.12090267563E+02 -0.15543990776E+02  0.30505806054E+02  0.00000000000E+00 0.  1.
</event>
<event>
 5    1  0.1709463E-003  0.9118800E+02  0.7818608E-02  0.1130116E+00
         25   -1    0    0    0    0  0.00000000000E+00  0.00000000000E+00  0.99999998245E-14  0.12500000000E+03  0.12500000000E+03 0.  0.
        -13    1    3    3    0    0  0.45228311981E+02 -0.25633341930E+02 -0.22697963384E+01  0.52036828906E+02  0.10566000000E+00 0.  1.
         23    2    1    0    0    0  0.65864013547E+01 -0.27321011724E+02  0.13518543004E+02  0.93813955535E+02  0.88478748204E+02 0.  0.
         13    1    3    3    0    0 -0.38641910626E+02 -0.16876697939E+01  0.15788339342E+02  0.41777126629E+02  0.10566000000E+00 0. -1.
         22    1    1    0    0    0 -0.65864013547E+01  0.27321011724E+02 -0.13518543004E+02  0.31186044465E+02  0.00000000000E+00 0.  1.
</event>
<event>
 5    1  0.1709463E-003  0.9118800E+02  0.7818608E-02  0.1130116E+00
         25   -1    0    0    0    0  0.00000000000E+00  0.00000000000E+00  0.99999998245E-14  0.12500000000E+03  0.12500000000E+03 0.  0.
        -13    1    3    3    0    0 -0.49300036390E+02  0.20741800937E+02  0.27085600856E+02  0.59952955156E+02  0.10566000000E+00 0.  1.
         23    2    1    0    0    0 -0.26939774412E+02  0.91547460767E+01  0.54302100190E+00  0.96542036389E+02  0.92252420549E+02 0.  0.
         13    1    3    3    0    0  0.22360261979E+02 -0.11587054861E+02 -0.26542579854E+02  0.36589081232E+02  0.10566000000E+00 0. -1.
         22    1    1    0    0    0  0.26939774412E+02 -0.91547460767E+01 -0.54302100190E+00  0.28457963611E+02  0.00000000000E+00 0.  1.
</event>
<event>
 5    1  0.1709463E-003  0.9118800E+02  0.7818608E-02  0.1130116E+00
         25   -1    0    0    0    0  0.00000000000E+00  0.00000000000E+00  0.99999998245E-14  0.12500000000E+03  0.12500000000E+03 0.  0.
        -13    1    3    3    0    0 -0.21537033167E+02 -0.20036765900E+02 -0.20279416962E+02  0.35729283532E+02  0.10566000000E+00 0. -1.
         23    2    1    0    0    0  0.20421183372E+02  0.20192597924E+02 -0.86208209539E+01  0.95015265632E+02  0.90159949024E+02 0.  0.
         13    1    3    3    0    0  0.41958216538E+02  0.40229363823E+02  0.11658596008E+02  0.59285982100E+02  0.10566000000E+00 0.  1.
         22    1    1    0    0    0 -0.20421183372E+02 -0.20192597924E+02  0.86208209539E+01  0.29984734368E+02  0.00000000000E+00 0.  1.
</event>
<event>
 5    1  0.1709463E-003  0.9118800E+02  0.7818608E-02  0.1130116E+00
         25   -1    0    0    0    0  0.00000000000E+00  0.00000000000E+00  0.99999998245E-14  0.12500000000E+03  0.12500000000E+03 0.  0.
        -13    1    3    3    0    0  0.83524316548E+00 -0.20851265487E+02  0.47802770726E+02  0.52159265300E+02  0.10566000000E+00 0. -1.
         23    2    1    0    0    0  0.24016669221E+02 -0.21423548554E+01  0.14402631200E+02  0.96913955952E+02  0.92754994410E+02 0.  0.
         13    1    3    3    0    0  0.23181426055E+02  0.18708910631E+02 -0.33400139526E+02  0.44754690652E+02  0.10566000000E+00 0.  1.
         22    1    1    0    0    0 -0.24016669221E+02  0.21423548554E+01 -0.14402631200E+02  0.28086044048E+02  0.00000000000E+00 0. -1.
</event>
<event>
 5    1  0.1709463E-003  0.9118800E+02  0.7818608E-02  0.1130116E+00
         25   -1    0    0    0    0  0.00000000000E+00  0.00000000000E+00  0.99999998245E-14  0.12500000000E+03  0.12500000000E+03 0.  0.
        -13    1    3    3    0    0 -0.70458548372E+01 -0.14502137810E+02  0.28499360461E+02  0.32744171729E+02  0.10566000000E+00 0.  1.
         23    2    1    0    0    0  0.75002895391E+00  0.11000636257E+02 -0.27828903628E+02  0.95066333024E+02  0.90230722352E+02 0.  0.
         13    1    3    3    0    0  0.77958837912E+01  0.25502774067E+02 -0.56328264089E+02  0.62322161296E+02  0.10566000000E+00 0. -1.
         22    1    1    0    0    0 -0.75002895391E+00 -0.11000636257E+02  0.27828903628E+02  0.29933666976E+02  0.00000000000E+00 0. -1.
</event>
<event>
 5    1  0.1709463E-003  0.9118800E+02  0.7818608E-02  0.1130116E+00
         25   -1    0    0    0    0  0.00000000000E+00  0.00000000000E+00  0.99999998245E-14  0.12500000000E+03  0.12500000000E+03 0.  0.
        -13    1    3    3    0    0 -0.15738821371E+02  0.50922906406E+02  0.52519089452E+01  0.53557880901E+02  0.10566000000E+00 0.  1.
         23    2    1    0    0    0 -0.13422292903E+02  0.15513965132E+02  0.23784498777E+02  0.93590710881E+02  0.88162791019E+02 0.  0.
         13    1    3    3    0    0  0.23165284684E+01 -0.35408941274E+02  0.18532589831E+02  0.40032829980E+02  0.10566000000E+00 0. -1.
         22    1    1    0    0    0  0.13422292903E+02 -0.15513965132E+02 -0.23784498777E+02  0.31409289119E+02  0.00000000000E+00 0.  1.
</event>
<event>
 5    1  0.1709463E-003  0.9118800E+02  0.7818608E-02  0.1130116E+00
         25   -1    0    0    0    0  0.00000000000E+00  0.00000000000E+00  0.99999998245E-14  0.12500000000E+03  0.12500000000E+03 0.  0.
        -13    1    3    3    0    0 -0.37817426098E+02 -0.48281392012E+02 -0.33043257231E+01  0.61418077663E+02  0.10566000000E+00 0.  1.
         23    2    1    0    0    0 -0.23821389244E+02 -0.19762874324E+02  0.33232349202E+01  0.93870051761E+02  0.88557963731E+02 0.  0.
         13    1    3    3    0    0  0.13996036854E+02  0.28518517688E+02  0.66275606432E+01  0.32451974098E+02  0.10566000000E+00 0. -1.
         22    1    1    0    0    0  0.23821389244E+02  0.19762874324E+02 -0.33232349202E+01  0.31129948239E+02  0.00000000000E+00 0.  1.
</event>
<event>
 5    1  0.1709463E-003  0.9118800E+02  0.7818608E-02  0.1130116E+00
         25   -1    0    0    0    0  0.00000000000E+00  0.00000000000E+00  0.99999998245E-14  0.12500000000E+03  0.12500000000E+03 0.  0.
        -13    1    3    3    0    0 -0.12416697532E+02 -0.44328073080E+02 -0.32442410560E+02  0.56317613653E+02  0.10566000000E+00 0.  1.
         23    2    1    0    0    0 -0.81708659796E+01 -0.28676141523E+02  0.27387842869E+01  0.95056969378E+02  0.90217749608E+02 0.  0.
         13    1    3    3    0    0  0.42458315520E+01  0.15651931558E+02  0.35181194847E+02  0.38739355724E+02  0.10566000000E+00 0. -1.
         22    1    1    0    0    0  0.81708659796E+01  0.28676141523E+02 -0.27387842869E+01  0.29943030622E+02  0.00000000000E+00 0. -1.
</event>
<event>
 5    1  0.1709463E-003  0.9118800E+02  0.7818608E-02  0.1130116E+00
         25   -1    0    0    0    0  0.00000000000E+00  0.00000000000E+00  0.99999998245E-14  0.12500000000E+03  0.12500000000E+03 0.  0.
        -13    1    3    3    0    0  0.47968701391E+02 -0.10039620314E+02 -0.22446147453E+02  0.53903905133E+02  0.10566000000E+00 0. -1.
         23    2    1    0    0    0  0.11426092218E+02  0.12058079141E+02 -0.23019691043E+02  0.96612343675E+02  0.92347636238E+02 0.  0.
         13    1    3    3    0    0 -0.36542609173E+02  0.22097699455E+02 -0.57354359016E+00  0.42708438541E+02  0.10566000000E+00 0.  1.
         22    1    1    0    0    0 -0.11426092218E+02 -0.12058079141E+02  0.23019691043E+02  0.28387656325E+02  0.00000000000E+00 0. -1.
</event>
<event>
 5    1  0.1709463E-003  0.9118800E+02  0.7818608E-02  0.1130116E+00
         25   -1    0    0    0    0  0.00000000000E+00  0.00000000000E+00  0.99999998245E-14  0.12500000000E+03  0.12500000000E+03 0.  0.
        -13    1    3    3    0    0  0.26328423851E+02 -0.22860642408E+02 -0.34196542472E+02  0.48838607217E+02  0.10566000000E+00 0. -1.
         23    2    1    0    0    0  0.24175153518E+02 -0.14244223987E+02  0.10971583347E+02  0.94871747383E+02  0.89960751696E+02 0.  0.
         13    1    3    3    0    0 -0.21532703324E+01  0.86164184207E+01  0.45168125819E+02  0.46033140166E+02  0.10566000000E+00 0.  1.
         22    1    1    0    0    0 -0.24175153518E+02  0.14244223987E+02 -0.10971583347E+02  0.30128252617E+02  0.00000000000E+00 0. -1.
</event>
<event>
 5    1  0.1709463E-003  0.9118800E+02  0.7818608E-02  0.1130116E+00
         25   -1    0    0    0    0  0.00000000000E+00  0.00000000000E+00  0.99999998245E-14  0.12500000000E+03  0.12500000000E+03 0.  0.
        -13    1    3    3    0    0 -0.45888713214E+02 -0.12026511403E+02 -0.40634021595E+02  0.62462355479E+02  0.10566000000E+00 0.  1.
         23    2    1    0    0    0 -0.20993564249E+02 -0.56381252678E+01 -0.20628499377E+02  0.95032464516E+02  0.90183790833E+02 0.  0.
         13    1    3    3    0    0  0.24895148965E+02  0.63883861353E+01  0.20005522218E+02  0.32570109036E+02  0.10566000000E+00 0. -1.
         22    1    1    0    0    0  0.20993564249E+02  0.56381252678E+01  0.20628499377E+02  0.29967535484E+02  0.00000000000E+00 0.  1.
</event>
<event>
 5    1  0.1709463E-003  0.9118800E+02  0.7818608E-02  0.1130116E+00
         25   -1    0    0    0    0  0.00000000000E+00  0.00000000000E+00  0.99999998245E-14  0.12500000000E+03  0.12500000000E+03 0.  0.
        -13    1    3    3    0    0 -0.11223738326E+02 -0.33566141900E+02  0.32001847585E+02  0.47715695499E+02  0.10566000000E+00 0. -1.
         23    2    1    0    0    0  0.25093920612E+02 -0.17315551207E+02  0.12163488590E+02  0.92174954380E+02  0.86132099678E+02 0.  0.
         13    1    3    3    0    0  0.36317658938E+02  0.16250590694E+02 -0.19838358994E+02  0.44459258881E+02  0.10566000000E+00 0.  1.
         22    1    1    0    0    0 -0.25093920612E+02  0.17315551207E+02 -0.12163488590E+02  0.32825045620E+02  0.00000000000E+00 0. -1.
</event>
<event>
 5    1  0.1709463E-003  0.9118800E+02  0.7818608E-02  0.1130116E+00
         25   -1    0    0    0    0  0.00000000000E+00  0.00000000000E+00  0.99999998245E-14  0.12500000000E+03  0.12500000000E+03 0.  0.
        -13    1    3    3    0    0  0.36265957705E+02 -0.21477925075E+02 -0.18918509491E+02  0.46200022935E+02  0.10566000000E+00 0. -1.
         23    2    1    0    0    0 -0.35510997723E+01 -0.27424783176E+02  0.98096615349E+01  0.95657905643E+02  0.91046561773E+02 0.  0.
         13    1    3    3    0    0 -0.39817057477E+02 -0.59468581013E+01  0.28728171026E+02  0.49457882708E+02  0.10566000000E+00 0.  1.
         22    1    1    0    0    0  0.35510997723E+01  0.27424783176E+02 -0.98096615349E+01  0.29342094357E+02  0.00000000000E+00 0. -1.
</event>
<event>
 5    1  0.1709463E-003  0.9118800E+02  0.7818608E-02  0.1130116E+00
         25   -1    0    0    0    0  0.00000000000E+00  0.00000000000E+00  0.99999998245E-14  0.12500000000E+03  0.12500000000E+03 0.  0.
        -13    1    3    3    0    0  0.51770910491E+02  0.17146429734E+02 -0.13080757310E+02  0.56083371881E+02  0.10566000000E+00 0.  1.
         23    2    1    0    0    0  0.21880802747E+02 -0.99863932642E+01 -0.15268183666E+02  0.96511142323E+02  0.92210550269E+02 0.  0.
         13    1    3    3    0    0 -0.29890107745E+02 -0.27132822998E+02 -0.21874263561E+01  0.40427770442E+02  0.10566000000E+00 0. -1.
         22    1    1    0    0    0 -0.21880802747E+02  0.99863932642E+01  0.15268183666E+02  0.28488857677E+02  0.00000000000E+00 0.  1.
</event>
<event>
 5    1  0.1709463E-003  0.9118800E+02  0.7818608E-02  0.1130116E+00
         25   -1    0    0    0    0  0.00000000000E+00  0.00000000000E+00  0.99999998245E-14  0.12500000000E+03  0.12500000000E+03 0.  0.
        -13    1    3    3    0    0  0.55617926670E+01 -0.35136118164E+02  0.62936527555E+01  0.36126189480E+02  0.10566000000E+00 0. -1.
         23    2    1    0    0    0 -0.56834052993E+01  0.13038964754E+02 -0.26112024249E+02  0.95265281100E+02  0.90505912929E+02 0.  0.
         13    1    3    3    0    0 -0.11245197966E+02  0.48175082918E+02 -0.32405677005E+02  0.59139091620E+02  0.10566000000E+00 0.  1.
         22    1    1    0    0    0  0.56834052993E+01 -0.13038964754E+02  0.26112024249E+02  0.29734718900E+02  0.00000000000E+00 0.  1.
</event>
<event>
 5    1  0.1709463E-003  0.9118800E+02  0.7818608E-02  0.1130116E+00
         25   -1    0    0    0    0  0.00000000000E+00  0.00000000000E+00  0.99999998245E-14  0.12500000000E+03  0.12500000000E+03 0.  0.
        -13    1    3    3    0    0  0.30550561481E+02 -0.26051274278E+02  0.17096083045E+02  0.43638204796E+02  0.10566000000E+00 0.  1.
         23    2    1    0    0    0 -0.19864176743E+02 -0.14295309731E+02  0.16636354809E+02  0.95407607408E+02  0.90702270380E+02 0.  0.
         13    1    3    3    0    0 -0.50414738225E+02  0.11755964547E+02 -0.45972823605E+00  0.51769402612E+02  0.10566000000E+00 0. -1.
         22    1    1    0    0    0  0.19864176743E+02  0.14295309731E+02 -0.16636354809E+02  0.29592392592E+02  0.00000000000E+00 0. -1.
</event>
<event>
 5    1  0.1709463E-003  0.9118800E+02  0.7818608E-02  0.1130116E+00
         25   -1    0    0    0    0  0.00000000000E+00  0.00000000000E+00  0.99999998245E-14  0.12500000000E+03  0.12500000000E+03 0.  0.
        -13    1    3    3    0    0 -0.92502696254E+01 -0.14362436936E+02 -0.31201916608E+02  0.35572712111E+02  0.10566000000E+00 0. -1.
         23    2    1    0    0    0 -0.38615913282E+01  0.28474424853E+01  0.27552672677E+02  0.97032705030E+02  0.92914887168E+02 0.  0.
         13    1    3    3    0    0  0.53886782972E+01  0.17209879421E+02  0.58754589285E+02  0.61459992919E+02  0.10566000000E+00 0.  1.
         22    1    1    0    0    0  0.38615913282E+01 -0.28474424853E+01 -0.27552672677E+02  0.27967294970E+02  0.00000000000E+00 0.  1.
</event>
<event>
 5    1  0.1709463E-003  0.9118800E+02  0.7818608E-02  0.1130116E+00
         25   -1    0    0    0    0  0.00000000000E+00  0.00000000000E+00  0.99999998245E-14  0.12500000000E+03  0.12500000000E+03 0.  0.
        -13    1    3    3    0    0  0.26973554554E+02  0.33921413547E+02  0.25556932967E+02  0.50313049292E+02  0.10566000000E+00 0. -1.
         23    2    1    0    0    0  0.12158717167E+02  0.19489831107E+02 -0.16186024965E+02  0.96898837677E+02  0.92734618235E+02 0.  0.
         13    1    3    3    0    0 -0.14814837387E+02 -0.14431582440E+02 -0.41742957932E+02  0.46585788385E+02  0.10566000000E+00 0.  1.
         22    1    1    0    0    0 -0.12158717167E+02 -0.19489831107E+02  0.16186024965E+02  0.28101162323E+02  0.00000000000E+00 0. -1.
</event>
<event>
 5    1  0.1709463E-003  0.9118800E+02  0.7818608E-02  0.1130116E+00
         25   -1    0    0    0    0  0.00000000000E+00  0.00000000000E+00  0.99999998245E-14  0.12500000000E+03  0.12500000000E+03 0.  0.
        -13    1    3    3    0    0 -0.16477006392E+02  0.27622279023E+02 -0.13325296339E+02  0.34814605048E+02  0.10566000000E+00 0.  1.
         23    2    1    0    0    0  0.12065804846E+01 -0.29122790362E+02  0.54036047956E+00  0.95847217210E+02  0.91306102220E+02 0.  0.
         13    1    3    3    0    0  0.17683586877E+02 -0.56745069385E+02  0.13865656819E+02  0.61032612163E+02  0.10566000000E+00 0. -1.
         22    1    1    0    0    0 -0.12065804846E+01  0.29122790362E+02 -0.54036047956E+00  0.29152782790E+02  0.00000000000E+00 0. -1.
</event>
<event>
 5    1  0.1709463E-003  0.9118800E+02  0.7818608E-02  0.1130116E+00
         25   -1    0    0    0    0  0.00000000000E+00  0.00000000000E+00  0.99999998245E-14  0.12500000000E+03  0.12500000000E+03 0.  0.
        -13    1    3    3    0    0 -0.57315368836E+02 -0.69252460410E+01  0.15336367543E+02  0.59734628742E+02  0.10566000000E+00 0. -1.
         23    2    1    0    0    0 -0.31255452066E+02  0.78832631388E+01  0.15456051402E+01  0.92728681204E+02  0.86931986639E+02 0.  0.
         13    1    3    3    0    0  0.26059916770E+02  0.14808509180E+02 -0.13790762403E+02  0.32994052462E+02  0.10566000000E+00 0.  1.
         22    1    1    0    0    0  0.31255452066E+02 -0.78832631388E+01 -0.15456051402E+01  0.32271318796E+02  0.00000000000E+00 0. -1.
</event>
<event>
 5    1  0.1709463E-003  0.9118800E+02  0.7818608E-02  0.1130116E+00
         25   -1    0    0    0    0  0.00000000000E+00  0.00000000000E+00  0.99999998245E-14  0.12500000000E+03  0.12500000000E+03 0.  0.
        -13    1    3    3    0    0 -0.44747499135E+02 -0.15692792333E+02  0.22995434444E+02  0.52701077592E+02  0.10566000000E+00 0. -1.
         23    2    1    0    0    0 -0.13099326889E+02 -0.18757127355E+02 -0.11312472715E+02  0.99477573970E+02  0.96147769045E+02 0.  0.
         13    1    3    3    0    0  0.31648172246E+02 -0.30643350216E+01 -0.34307907159E+02  0.46776496377E+02  0.10566000000E+00 0.  1.
         22    1    1    0    0    0  0.13099326889E+02  0.18757127355E+02  0.11312472715E+02  0.25522426030E+02  0.00000000000E+00 0. -1.
</event>
<event>
 5    1  0.1709463E-003  0.9118800E+02  0.7818608E-02  0.1130116E+00
         25   -1    0    0    0    0  0.00000000000E+00  0.00000000000E+00  0.99999998245E-14  0.12500000000E+03  0.12500000000E+03 0.  0.
        -13    1    3    3    0    0  0.43477923832E+02 -0.16064594211E+02  0.71477535464E+01  0.46898854919E+02  0.10566000000E+00 0.  1.
         23    2    1    0    0    0 -0.79403880372E+01 -0.23146796724E+02  0.92346051524E+01  0.98844658421E+02  0.95321375385E+02 0.  0.
         13    1    3    3    0    0 -0.51418311869E+02 -0.70822025132E+01  0.20868516059E+01  0.51945803503E+02  0.10566000000E+00 0. -1.
         22    1    1    0    0    0  0.79403880372E+01  0.23146796724E+02 -0.92346051524E+01  0.26155341579E+02  0.00000000000E+00 0.  1.
</event>
<event>
 5    1  0.1709463E-003  0.9118800E+02  0.7818608E-02  0.1130116E+00
         25   -1    0    0    0    0  0.00000000000E+00  0.00000000000E+00  0.99999998245E-14  0.12500000000E+03  0.12500000000E+03 0.  0.
        -13    1    3    3    0    0 -0.46376053215E+02 -0.10303157195E+02 -0.35940605763E+02  0.59570392534E+02  0.10566000000E+00 0. -1.
         23    2    1    0    0    0 -0.26379674593E+02  0.69717703916E+01 -0.12132642638E+02  0.95138757035E+02  0.90330998327E+02 0.  0.
         13    1    3    3    0    0  0.19996378622E+02  0.17274927586E+02  0.23807963125E+02  0.35568364502E+02  0.10566000000E+00 0.  1.
         22    1    1    0    0    0  0.26379674593E+02 -0.69717703916E+01  0.12132642638E+02  0.29861242965E+02  0.00000000000E+00 0. -1.
</event>
<event>
 5    1  0.1709463E-003  0.9118800E+02  0.7818608E-02  0.1130116E+00
         25   -1    0    0    0    0  0.00000000000E+00  0.00000000000E+00  0.99999998245E-14  0.12500000000E+03  0.12500000000E+03 0.  0.
        -13    1    3    3    0    0 -0.52174039406E+01  0.14375264474E+02  0.36612668760E+02  0.39678309066E+02  0.10566000000E+00 0. -1.
         23    2    1    0    0    0  0.80297408476E+01  0.20828601870E+02 -0.18050203379E+02  0.96292557830E+02  0.91913760980E+02 0.  0.
         13    1    3    3    0    0  0.13247144788E+02  0.64533373955E+01 -0.54662872139E+02  0.56614248764E+02  0.10566000000E+00 0.  1.
         22    1    1    0    0    0 -0.80297408476E+01 -0.20828601870E+02  0.18050203379E+02  0.28707442170E+02  0.00000000000E+00 0.  1.
</event>
<event>
 5    1  0.1709463E-003  0.9118800E+02  0.7818608E-02  0.1130116E+00
         25   -1    0    0    0    0  0.00000000000E+00  0.00000000000E+00  0.99999998245E-14  0.12500000000E+03  0.12500000000E+03 0.  0.
        -13    1    3    3    0    0 -0.36416911413E+02  0.34750584179E+01  0.43897077547E+02  0.57142208997E+02  0.10566000000E+00 0.  1.
         23    2    1    0    0    0 -0.10120961099E+01  0.57041849400E+01  0.28675706973E+02  0.95744945142E+02  0.91165982063E+02 0.  0.
         13    1    3    3    0    0  0.35404815303E+02  0.22291265222E+01 -0.15221370575E+02  0.38602736145E+02  0.10566000000E+00 0. -1.
         22    1    1    0    0    0  0.10120961099E+01 -0.57041849400E+01 -0.28675706973E+02  0.29255054858E+02  0.00000000000E+00 0.  1.
</event>
<event>
 5    1  0.1709463E-003  0.9118800E+02  0.7818608E-02  0.1130116E+00
         25   -1    0    0    0    0  0.00000000000E+00  0.00000000000E+00  0.99999998245E-14  0.12500000000E+03  0.12500000000E+03 0.  0.
        -13    1    3    3    0    0  0.45036283528E+02 -0.44317546128E+01  0.61526616632E+01  0.45670271431E+02  0.10566000000E+00 0. -1.
         23    2    1    0    0    0  0.70014915297E+01 -0.19256624664E+02  0.26677630685E+02  0.91361711458E+02  0.84943674658E+02 0.  0.
         13    1    3    3    0    0 -0.38034791998E+02 -0.14824870051E+02  0.20524969022E+02  0.45691440027E+02  0.10566000000E+00 0.  1.
         22    1    1    0    0    0 -0.70014915297E+01  0.19256624664E+02 -0.26677630685E+02  0.33638288542E+02  0.00000000000E+00 0. -1.
</event>
<event>
 5    1  0.1709463E-003  0.9118800E+02  0.7818608E-02  0.1130116E+00
         25   -1    0    0    0    0  0.00000000000E+00  0.00000000000E+00  0.99999998245E-14  0.12500000000E+03  0.12500000000E+03 0.  0.
        -13    1    3    3    0    0 -0.12702982647E+01  0.72641730525E+01 -0.59579950578E+02  0.60034686163E+02  0.10566000000E+00 0.  1.
         23    2    1    0    0    0  0.57162364266E+01 -0.73734624698E+01 -0.27092503120E+02  0.96346081716E+02  0.91986523084E+02 0.  0.
         13    1    3    3    0    0  0.69865346913E+01 -0.14637635522E+02  0.32487447458E+02  0.36311395553E+02  0.10566000000E+00 0. -1.
         22    1    1    0    0    0 -0.57162364266E+01  0.73734624698E+01  0.27092503120E+02  0.28653918284E+02  0.00000000000E+00 0.  1.
</event>
<event>
 5    1  0.1709463E-003  0.9118800E+02  0.7818608E-02  0.1130116E+00
         25   -1    0    0    0    0  0.00000000000E+00  0.00000000000E+00  0.99999998245E-14  0.12500000000E+03  0.12500000000E+03 0.  0.
        -13    1    3    3    0    0  0.41130262954E+02  0.31151892520E+02 -0.28824635767E+02  0.59101689734E+02  0.10566000000E+00 0.  1.
         23    2    1    0    0    0  0.13134797296E+02 -0.11619380361E+01 -0.17046431467E+02  0.10344880918E+03  0.10117906056E+03 0.  0.
         13    1    3    3    0    0 -0.27995465658E+02 -0.32313830557E+02  0.11778204300E+02  0.44347119446E+02  0.10566000000E+00 0. -1.
         22    1    1    0    0    0 -0.13134797296E+02  0.11619380361E+01  0.17046431467E+02  0.21551190820E+02  0.00000000000E+00 0.  1.
</event>
<event>
 5    1  0.1709463E-003  0.9118800E+02  0.7818608E-02  0.1130116E+00
         25   -1    0    0    0    0  0.00000000000E+00  0.00000000000E+00  0.99999998245E-14  0.12500000000E+03  0.12500000000E+03 0.  0.
        -13    1    3    3    0    0  0.26804930534E+02 -0.45598845059E+02 -0.24914534807E+02  0.58467975682E+02  0.10566000000E+00 0. -1.
         23    2    1    0    0    0  0.23727193592E+02 -0.16534137826E+02 -0.12864883066E+01  0.96051554764E+02  0.91585417459E+02 0.  0.
         13    1    3    3    0    0 -0.30777369426E+01  0.29064707233E+02  0.23628046500E+02  0.37583579082E+02  0.10566000000E+00 0.  1.
         22    1    1    0    0    0 -0.23727193592E+02  0.16534137826E+02  0.12864883066E+01  0.28948445236E+02  0.00000000000E+00 0. -1.
</event>
<event>
 5    1  0.1709463E-003  0.9118800E+02  0.7818608E-02  0.1130116E+00
         25   -1    0    0    0    0  0.00000000000E+00  0.00000000000E+00  0.99999998245E-14  0.12500000000E+03  0.12500000000E+03 0.  0.
        -13    1    3    3    0    0  0.23579500406E+02  0.49353972138E+02  0.29115434899E+02  0.61963917877E+02  0.10566000000E+00 0.  1.
         23    2    1    0    0    0  0.60670575916E+01  0.24740440799E+02  0.16161562846E+02  0.94832223940E+02  0.89905817304E+02 0.  0.
         13    1    3    3    0    0 -0.17512442815E+02 -0.24613531339E+02 -0.12953872053E+02  0.32868306064E+02  0.10566000000E+00 0. -1.
         22    1    1    0    0    0 -0.60670575916E+01 -0.24740440799E+02 -0.16161562846E+02  0.30167776060E+02  0.00000000000E+00 0.  1.
</event>
<event>
 5    1  0.1709463E-003  0.9118800E+02  0.7818608E-02  0.1130116E+00
         25   -1    0    0    0    0  0.00000000000E+00  0.00000000000E+00  0.99999998245E-14  0.12500000000E+03  0.12500000000E+03 0.  0.
        -13    1    3    3    0    0  0.22087898909E+02 -0.27229085668E+02 -0.23502791740E+02  0.42210078987E+02  0.10566000000E+00 0.  1.
         23    2    1    0    0    0 -0.21090168979E+02 -0.20107390262E+02  0.63403477236E+01  0.95178826650E+02  0.90386429637E+02 0.  0.
         13    1    3    3    0    0 -0.43178067888E+02  0.71216954058E+01  0.29843139463E+02  0.52968747663E+02  0.10566000000E+00 0. -1.
         22    1    1    0    0    0  0.21090168979E+02  0.20107390262E+02 -0.63403477236E+01  0.29821173350E+02  0.00000000000E+00 0. -1.
</event>
<event>
 5    1  0.1709463E-003  0.9118800E+02  0.7818608E-02  0.1130116E+00
         25   -1    0    0    0    0  0.00000000000E+00  0.00000000000E+00  0.99999998245E-14  0.12500000000E+03  0.12500000000E+03 0.  0.
        -13    1    3    3    0    0  0.36742580094E+02 -0.64978323683E+01  0.41017572472E+01  0.37537642361E+02  0.10566000000E+00 0.  1.
         23    2    1    0    0    0 -0.96940729675E+01 -0.91506198139E+01 -0.27956495262E+02  0.94027842810E+02  0.88780407200E+02 0.  0.
         13    1    3    3    0    0 -0.46436653062E+02 -0.26527874456E+01 -0.32058252509E+02  0.56490200449E+02  0.10566000000E+00 0. -1.
         22    1    1    0    0    0  0.96940729675E+01  0.91506198139E+01  0.27956495262E+02  0.30972157190E+02  0.00000000000E+00 0. -1.
</event>
<event>
 5    1  0.1709463E-003  0.9118800E+02  0.7818608E-02  0.1130116E+00
         25   -1    0    0    0    0  0.00000000000E+00  0.00000000000E+00  0.99999998245E-14  0.12500000000E+03  0.12500000000E+03 0.  0.
        -13    1    3    3    0    0  0.14366581283E+02  0.59764168380E+01 -0.54021749331E+02  0.56218117905E+02  0.10566000000E+00 0. -1.
         23    2    1    0    0    0  0.17726673113E+02  0.17506349986E+02 -0.17795736874E+02  0.94383085061E+02  0.89279175989E+02 0.  0.
         13    1    3    3    0    0  0.33600918297E+01  0.11529933148E+02  0.36226012457E+02  0.38164967156E+02  0.10566000000E+00 0.  1.
         22    1    1    0    0    0 -0.17726673113E+02 -0.17506349986E+02  0.17795736874E+02  0.30616914939E+02  0.00000000000E+00 0. -1.
</event>
<event>
 5    1  0.1709463E-003  0.9118800E+02  0.7818608E-02  0.1130116E+00
         25   -1    0    0    0    0  0.00000000000E+00  0.00000000000E+00  0.99999998245E-14  0.12500000000E+03  0.12500000000E+03 0.  0.
        -13    1    3    3    0    0 -0.23706113817E+02 -0.37488222740E+02  0.15486593126E+02  0.46980766354E+02  0.10566000000E+00 0.  1.
         23    2    1    0    0    0 -0.28453908930E+02  0.83577787334E+01  0.88074742481E+00  0.95330940110E+02  0.90596550858E+02 0.  0.
         13    1    3    3    0    0 -0.47477951133E+01  0.45846001473E+02 -0.14605845702E+02  0.48350173756E+02  0.10566000000E+00 0. -1.
         22    1    1    0    0    0  0.28453908930E+02 -0.83577787334E+01 -0.88074742481E+00  0.29669059890E+02  0.00000000000E+00 0.  1.
</event>
<event>
 5    1  0.1709463E-003  0.9118800E+02  0.7818608E-02  0.1130116E+00
         25   -1    0    0    0    0  0.00000000000E+00  0.00000000000E+00  0.99999998245E-14  0.12500000000E+03  0.12500000000E+03 0.  0.
        -13    1    3    3    0    0  0.97674569294E+01  0.23960405840E+02  0.34752885715E+02  0.43327571965E+02  0.10566000000E+00 0.  1.
         23    2    1    0    0    0  0.84046961648E+01  0.22782528897E+02 -0.17155918719E+02  0.95267726497E+02  0.90509290265E+02 0.  0.
         13    1    3    3    0    0 -0.13627607646E+01 -0.11778769428E+01 -0.51908804434E+02  0.51940154532E+02  0.10566000000E+00 0. -1.
         22    1    1    0    0    0 -0.84046961648E+01 -0.22782528897E+02  0.17155918719E+02  0.29732273503E+02  0.00000000000E+00 0. -1.
</event>
<event>
 5    1  0.1709463E-003  0.9118800E+02  0.7818608E-02  0.1130116E+00
         25   -1    0    0    0    0  0.00000000000E+00  0.00000000000E+00  0.99999998245E-14  0.12500000000E+03  0.12500000000E+03 0.  0.
        -13    1    3    3    0    0 -0.22701201876E+02  0.39651322999E+02 -0.12507924651E+02  0.47371207767E+02  0.10566000000E+00 0.  1.
         23    2    1    0    0    0 -0.28243140589E+02 -0.35396712135E+01  0.78978654615E+01  0.95460525707E+02  0.90775169660E+02 0.  0.
         13    1    3    3    0    0 -0.55419387127E+01 -0.43190994213E+02  0.20405790112E+02  0.48089317940E+02  0.10566000000E+00 0. -1.
         22    1    1    0    0    0  0.28243140589E+02  0.35396712135E+01 -0.78978654615E+01  0.29539474293E+02  0.00000000000E+00 0.  1.
</event>
<event>
 5    1  0.1709463E-003  0.9118800E+02  0.7818608E-02  0.1130116E+00
         25   -1    0    0    0    0  0.00000000000E+00  0.00000000000E+00  0.99999998245E-14  0.12500000000E+03  0.12500000000E+03 0.  0.
        -13    1    3    3    0    0  0.56366871496E+02  0.54741296849E+01  0.19185706026E+02  0.59793751997E+02  0.10566000000E+00 0.  1.
         23    2    1    0    0    0  0.25237998120E+02 -0.10490606627E+02  0.87917745718E+01  0.96289293345E+02  0.91909321269E+02 0.  0.
         13    1    3    3    0    0 -0.31128873376E+02 -0.15964736312E+02 -0.10393931454E+02  0.36495541348E+02  0.10566000000E+00 0. -1.
         22    1    1    0    0    0 -0.25237998120E+02  0.10490606627E+02 -0.87917745718E+01  0.28710706655E+02  0.00000000000E+00 0.  1.
</event>
<event>
 5    1  0.1709463E-003  0.9118800E+02  0.7818608E-02  0.1130116E+00
         25   -1    0    0    0    0  0.00000000000E+00  0.00000000000E+00  0.99999998245E-14  0.12500000000E+03  0.12500000000E+03 0.  0.
        -13    1    3    3    0    0 -0.49633293291E+02 -0.25986798362E+02 -0.41377224508E+01  0.56177481282E+02  0.10566000000E+00 0.  1.
         23    2    1    0    0    0 -0.11077735834E+02 -0.23118097757E+02 -0.13599749691E+02  0.95980767296E+02  0.91488752445E+02 0.  0.
         13    1    3    3    0    0  0.38555557457E+02  0.28687006057E+01 -0.94620272398E+01  0.39803286014E+02  0.10566000000E+00 0. -1.
         22    1    1    0    0    0  0.11077735834E+02  0.23118097757E+02  0.13599749691E+02  0.29019232704E+02  0.00000000000E+00 0.  1.
</event>
<event>
 5    1  0.1709463E-003  0.9118800E+02  0.7818608E-02  0.1130116E+00
         25   -1    0    0    0    0  0.00000000000E+00  0.00000000000E+00  0.99999998245E-14  0.12500000000E+03  0.12500000000E+03 0.  0.
        -13    1    3    3    0    0  0.29787091436E+00 -0.35536353979E+02  0.13145241927E+02  0.37891024407E+02  0.10566000000E+00 0.  1.
         23    2    1    0    0    0  0.99402040810E+01  0.39200179069E+01 -0.27588107476E+02  0.95414904569E+02  0.90712326297E+02 0.  0.
         13    1    3    3    0    0  0.96423331666E+01  0.39456371886E+02 -0.40733349403E+02  0.57523880162E+02  0.10566000000E+00 0. -1.
         22    1    1    0    0    0 -0.99402040810E+01 -0.39200179069E+01  0.27588107476E+02  0.29585095431E+02  0.00000000000E+00 0. -1.
</event>
<event>
 5    1  0.1709463E-003  0.9118800E+02  0.7818608E-02  0.1130116E+00
         25   -1    0    0    0    0  0.00000000000E+00  0.00000000000E+00  0.99999998245E-14  0.12500000000E+03  0.12500000000E+03 0.  0.
        -13    1    3    3    0    0  0.50700845384E+02  0.81382896165E+01 -0.27396060651E+01  0.51422991803E+02  0.10566000000E+00 0.  1.
         23    2    1    0    0    0  0.20743275909E+02 -0.13600503947E+02 -0.20819025895E+02  0.92616531343E+02  0.86770575864E+02 0.  0.
         13    1    3    3    0    0 -0.29957569475E+02 -0.21738793563E+02 -0.18079419830E+02  0.41193539540E+02  0.10566000000E+00 0. -1.
         22    1    1    0    0    0 -0.20743275909E+02  0.13600503947E+02  0.20819025895E+02  0.32383468657E+02  0.00000000000E+00 0.  1.
</event>
<event>
 5    1  0.1709463E-003  0.9118800E+02  0.7818608E-02  0.1130116E+00
         25   -1    0    0    0    0  0.00000000000E+00  0.00000000000E+00  0.99999998245E-14  0.12500000000E+03  0.12500000000E+03 0.  0.
        -13    1    3    3    0    0  0.37326209374E+02  0.69433903424E+01 -0.18170330192E+02  0.42090719155E+02  0.10566000000E+00 0. -1.
         23    2    1    0    0    0 -0.61102888386E+01  0.27410532759E+02  0.66451608341E+01  0.96141186817E+02  0.91707669823E+02 0.  0.
         13    1    3    3    0    0 -0.43436498212E+02  0.20467142416E+02  0.24815491026E+02  0.54050467662E+02  0.10566000000E+00 0.  1.
         22    1    1    0    0    0  0.61102888386E+01 -0.27410532759E+02 -0.66451608341E+01  0.28858813183E+02  0.00000000000E+00 0.  1.
</event>
<event>
 5    1  0.1709463E-003  0.9118800E+02  0.7818608E-02  0.1130116E+00
         25   -1    0    0    0    0  0.00000000000E+00  0.00000000000E+00  0.99999998245E-14  0.12500000000E+03  0.12500000000E+03 0.  0.
        -13    1    3    3    0    0 -0.25261419236E+02  0.11683210659E+02  0.28029891863E+02  0.39500920433E+02  0.10566000000E+00 0.  1.
         23    2    1    0    0    0 -0.24048043297E+01 -0.29285104535E+02 -0.25582858347E+01  0.95505165573E+02  0.90836619230E+02 0.  0.
         13    1    3    3    0    0  0.22856614907E+02 -0.40968315194E+02 -0.30588177698E+02  0.56004245140E+02  0.10566000000E+00 0. -1.
         22    1    1    0    0    0  0.24048043297E+01  0.29285104535E+02  0.25582858347E+01  0.29494834427E+02  0.00000000000E+00 0. -1.
</event>
<event>
 5    1  0.1709463E-003  0.9118800E+02  0.7818608E-02  0.1130116E+00
         25   -1    0    0    0    0  0.00000000000E+00  0.00000000000E+00  0.99999998245E-14  0.12500000000E+03  0.12500000000E+03 0.  0.
        -13    1    3    3    0    0  0.17962723050E+01  0.37971425411E+01  0.60367322382E+02  0.60513384150E+02  0.10566000000E+00 0.  1.
         23    2    1    0    0    0 -0.75225959480E+01 -0.54657035568E+01  0.29737168289E+02  0.93842937510E+02  0.88519683560E+02 0.  0.
         13    1    3    3    0    0 -0.93188682530E+01 -0.92628460979E+01 -0.30630154093E+02  0.33329553360E+02  0.10566000000E+00 0. -1.
         22    1    1    0    0    0  0.75225959480E+01  0.54657035568E+01 -0.29737168289E+02  0.31157062490E+02  0.00000000000E+00 0.  1.
</event>
<event>
 5    1  0.1709463E-003  0.9118800E+02  0.7818608E-02  0.1130116E+00
         25   -1    0    0    0    0  0.00000000000E+00  0.00000000000E+00  0.99999998245E-14  0.12500000000E+03  0.12500000000E+03 0.  0.
        -13    1    3    3    0    0 -0.17101614606E+02 -0.34841874883E+02 -0.39362058107E+02  0.55279329319E+02  0.10566000000E+00 0.  1.
         23    2    1    0    0    0 -0.21983674003E+02 -0.24426769266E+02 -0.46965728009E+01  0.91803512603E+02  0.85591343900E+02 0.  0.
         13    1    3    3    0    0 -0.48820593966E+01  0.10415105617E+02  0.34665485307E+02  0.36524183284E+02  0.10566000000E+00 0. -1.
         22    1    1    0    0    0  0.21983674003E+02  0.24426769266E+02  0.46965728009E+01  0.33196487397E+02  0.00000000000E+00 0.  1.
</event>
<event>
 5    1  0.1709463E-003  0.9118800E+02  0.7818608E-02  0.1130116E+00
         25   -1    0    0    0    0  0.00000000000E+00  0.00000000000E+00  0.99999998245E-14  0.12500000000E+03  0.12500000000E+03 0.  0.
        -13    1    3    3    0    0  0.32279517001E+02  0.26814625338E+01  0.36342048007E+02  0.48681753015E+02  0.10566000000E+00 0. -1.
         23    2    1    0    0    0  0.21196085085E+02 -0.57556109947E+00 -0.13511997909E+02  0.99856822377E+02  0.96639565367E+02 0.  0.
         13    1    3    3    0    0 -0.11083431917E+02 -0.32570236333E+01 -0.49854045916E+02  0.51175069362E+02  0.10566000000E+00 0.  1.
         22    1    1    0    0    0 -0.21196085085E+02  0.57556109947E+00  0.13511997909E+02  0.25143177623E+02  0.00000000000E+00 0.  1.
</event>
<event>
 5    1  0.1709463E-003  0.9118800E+02  0.7818608E-02  0.1130116E+00
         25   -1    0    0    0    0  0.00000000000E+00  0.00000000000E+00  0.99999998245E-14  0.12500000000E+03  0.12500000000E+03 0.  0.
        -13    1    3    3    0    0 -0.19185001938E+02 -0.16187114965E+02  0.43115823155E+02  0.49890603931E+02  0.10566000000E+00 0.  1.
         23    2    1    0    0    0  0.19539476778E+02 -0.88068779728E+01  0.20515975673E+02  0.95330866036E+02  0.90596448655E+02 0.  0.
         13    1    3    3    0    0  0.38724478716E+02  0.73802369920E+01 -0.22599847482E+02  0.45440262104E+02  0.10566000000E+00 0. -1.
         22    1    1    0    0    0 -0.19539476778E+02  0.88068779728E+01 -0.20515975673E+02  0.29669133964E+02  0.00000000000E+00 0. -1.
</event>
<event>
 5    1  0.1709463E-003  0.9118800E+02  0.7818608E-02  0.1130116E+00
         25   -1    0    0    0    0  0.00000000000E+00  0.00000000000E+00  0.99999998245E-14  0.12500000000E+03  0.12500000000E+03 0.  0.
        -13    1    3    3    0    0 -0.33733641836E+01  0.56315172966E+02 -0.11567133461E+02  0.57589825774E+02  0.10566000000E+00 0.  1.
         23    2    1    0    0    0 -0.14539359470E+02  0.26626378229E+02  0.63290673555E+01  0.94009451683E+02  0.88754509298E+02 0.  0.
         13    1    3    3    0    0 -0.11165995286E+02 -0.29688794737E+02  0.17896200817E+02  0.36419625909E+02  0.10566000000E+00 0. -1.
         22    1    1    0    0    0  0.14539359470E+02 -0.26626378229E+02 -0.63290673555E+01  0.30990548317E+02  0.00000000000E+00 0.  1.
</event>
<event>
 5    1  0.1709463E-003  0.9118800E+02  0.7818608E-02  0.1130116E+00
         25   -1    0    0    0    0  0.00000000000E+00  0.00000000000E+00  0.99999998245E-14  0.12500000000E+03  0.12500000000E+03 0.  0.
        -13    1    3    3    0    0  0.44742977442E+02  0.35028919355E+02 -0.16519018107E+02  0.59176417134E+02  0.10566000000E+00 0. -1.
         23    2    1    0    0    0  0.22572974949E+02  0.70036619353E+01 -0.18530455553E+02  0.94967213556E+02  0.90093303797E+02 0.  0.
         13    1    3    3    0    0 -0.22170002492E+02 -0.28025257420E+02 -0.20114374463E+01  0.35790796423E+02  0.10566000000E+00 0.  1.
         22    1    1    0    0    0 -0.22572974949E+02 -0.70036619353E+01  0.18530455553E+02  0.30032786444E+02  0.00000000000E+00 0. -1.
</event>
<event>
 5    1  0.1709463E-003  0.9118800E+02  0.7818608E-02  0.1130116E+00
         25   -1    0    0    0    0  0.00000000000E+00  0.00000000000E+00  0.99999998245E-14  0.12500000000E+03  0.12500000000E+03 0.  0.
        -13    1    3    3    0    0  0.25611554176E+02 -0.39619443573E+01 -0.29145344153E+02  0.39001422541E+02  0.10566000000E+00 0. -1.
         23    2    1    0    0    0 -0.14348774102E+02  0.24389858633E+02  0.12754967903E+01  0.96673697480E+02  0.92430646271E+02 0.  0.
         13    1    3    3    0    0 -0.39960328278E+02  0.28351802990E+02  0.30420840943E+02  0.57672274939E+02  0.10566000000E+00 0.  1.
         22    1    1    0    0    0  0.14348774102E+02 -0.24389858633E+02 -0.12754967903E+01  0.28326302520E+02  0.00000000000E+00 0.  1.
</event>
<event>
 5    1  0.1709463E-003  0.9118800E+02  0.7818608E-02  0.1130116E+00
         25   -1    0    0    0    0  0.00000000000E+00  0.00000000000E+00  0.99999998245E-14  0.12500000000E+03  0.12500000000E+03 0.  0.
        -13    1    3    3    0    0  0.39787576881E+02 -0.17608953046E+02 -0.16741512474E+02  0.46619908895E+02  0.10566000000E+00 0.  1.
         23    2    1    0    0    0  0.21125548478E+02  0.22721473175E+02 -0.38779695745E+00  0.93972519790E+02  0.88702479940E+02 0.  0.
         13    1    3    3    0    0 -0.18662028403E+02  0.40330426221E+02  0.16353715517E+02  0.47352610894E+02  0.10566000000E+00 0. -1.
         22    1    1    0    0    0 -0.21125548478E+02 -0.22721473175E+02  0.38779695745E+00  0.31027480210E+02  0.00000000000E+00 0. -1.
</event>
<event>
 5    1  0.1709463E-003  0.9118800E+02  0.7818608E-02  0.1130116E+00
         25   -1    0    0    0    0  0.00000000000E+00  0.00000000000E+00  0.99999998245E-14  0.12500000000E+03  0.12500000000E+03 0.  0.
        -13    1    3    3    0    0 -0.39628636602E+01  0.26328110885E+02 -0.21595757128E+02  0.34282088635E+02  0.10566000000E+00 0. -1.
         23    2    1    0    0    0 -0.10658867303E+01 -0.11717593600E+02  0.26694548347E+02  0.95827461102E+02  0.91279051679E+02 0.  0.
         13    1    3    3    0    0  0.28969769299E+01 -0.38045704486E+02  0.48290305475E+02  0.61545372467E+02  0.10566000000E+00 0.  1.
         22    1    1    0    0    0  0.10658867303E+01  0.11717593600E+02 -0.26694548347E+02  0.29172538898E+02  0.00000000000E+00 0.  1.
</event>
<event>
 5    1  0.1709463E-003  0.9118800E+02  0.7818608E-02  0.1130116E+00
         25   -1    0    0    0    0  0.00000000000E+00  0.00000000000E+00  0.99999998245E-14  0.12500000000E+03  0.12500000000E+03 0.  0.
        -13    1    3    3    0    0  0.38219583506E+02 -0.21230542442E+02 -0.33170105339E+02  0.54879318035E+02  0.10566000000E+00 0.  1.
         23    2    1    0    0    0  0.11783921667E+02  0.94018253428E+01 -0.24458727348E+02  0.96268754411E+02  0.91881383331E+02 0.  0.
         13    1    3    3    0    0 -0.26435661839E+02  0.30632367785E+02  0.87113779916E+01  0.41389436376E+02  0.10566000000E+00 0. -1.
         22    1    1    0    0    0 -0.11783921667E+02 -0.94018253428E+01  0.24458727348E+02  0.28731245589E+02  0.00000000000E+00 0.  1.
</event>
<event>
 5    1  0.1709463E-003  0.9118800E+02  0.7818608E-02  0.1130116E+00
         25   -1    0    0    0    0  0.00000000000E+00  0.00000000000E+00  0.99999998245E-14  0.12500000000E+03  0.12500000000E+03 0.  0.
        -13    1    3    3    0    0 -0.77345563030E+01 -0.29890854410E+02  0.48922664117E+02  0.57850883891E+02  0.10566000000E+00 0. -1.
         23    2    1    0    0    0 -0.15591089211E+02 -0.21391052383E+02  0.13161957426E+02  0.95438262769E+02  0.90744507780E+02 0.  0.
         13    1    3    3    0    0 -0.78565329078E+01  0.84998020272E+01 -0.35760706691E+02  0.37587378878E+02  0.10566000000E+00 0.  1.
         22    1    1    0    0    0  0.15591089211E+02  0.21391052383E+02 -0.13161957426E+02  0.29561737231E+02  0.00000000000E+00 0. -1.
</event>
<event>
 5    1  0.1709463E-003  0.9118800E+02  0.7818608E-02  0.1130116E+00
         25   -1    0    0    0    0  0.00000000000E+00  0.00000000000E+00  0.99999998245E-14  0.12500000000E+03  0.12500000000E+03 0.  0.
        -13    1    3    3    0    0 -0.32448934039E+02  0.19471280201E+02 -0.38276150219E+01  0.38035849848E+02  0.10566000000E+00 0. -1.
         23    2    1    0    0    0  0.17110558562E+02 -0.89487731023E+00 -0.24190839452E+02  0.95355966316E+02  0.90631074025E+02 0.  0.
         13    1    3    3    0    0  0.49559492600E+02 -0.20366157511E+02 -0.20363224430E+02  0.57320116467E+02  0.10566000000E+00 0.  1.
         22    1    1    0    0    0 -0.17110558562E+02  0.89487731023E+00  0.24190839452E+02  0.29644033684E+02  0.00000000000E+00 0.  1.
</event>
<event>
 5    1  0.1709463E-003  0.9118800E+02  0.7818608E-02  0.1130116E+00
         25   -1    0    0    0    0  0.00000000000E+00  0.00000000000E+00  0.99999998245E-14  0.12500000000E+03  0.12500000000E+03 0.  0.
        -13    1    3    3    0    0 -0.94296232437E+01 -0.14749735869E+02 -0.32420993575E+02  0.36845684837E+02  0.10566000000E+00 0.  1.
         23    2    1    0    0    0  0.68807792885E+00  0.27672832020E+02  0.78707296884E+01  0.96221406061E+02  0.91816945687E+02 0.  0.
         13    1    3    3    0    0  0.10117701173E+02  0.42422567889E+02  0.40291723263E+02  0.59375721224E+02  0.10566000000E+00 0. -1.
         22    1    1    0    0    0 -0.68807792885E+00 -0.27672832020E+02 -0.78707296884E+01  0.28778593939E+02  0.00000000000E+00 0. -1.
</event>
<event>
 5    1  0.1709463E-003  0.9118800E+02  0.7818608E-02  0.1130116E+00
         25   -1    0    0    0    0  0.00000000000E+00  0.00000000000E+00  0.99999998245E-14  0.12500000000E+03  0.12500000000E+03 0.  0.
        -13    1    3    3    0    0  0.11095655574E+02  0.19413582596E+02 -0.26403415940E+02  0.34599888716E+02  0.10566000000E+00 0.  1.
         23    2    1    0    0    0 -0.53717441972E+01 -0.25208147609E+02  0.12786104414E+02  0.96228646057E+02  0.91826801721E+02 0.  0.
         13    1    3    3    0    0 -0.16467399771E+02 -0.44621730205E+02  0.39189520354E+02  0.61628757341E+02  0.10566000000E+00 0. -1.
         22    1    1    0    0    0  0.53717441972E+01  0.25208147609E+02 -0.12786104414E+02  0.28771353943E+02  0.00000000000E+00 0. -1.
</event>
<event>
 5    1  0.1709463E-003  0.9118800E+02  0.7818608E-02  0.1130116E+00
         25   -1    0    0    0    0  0.00000000000E+00  0.00000000000E+00  0.99999998245E-14  0.12500000000E+03  0.12500000000E+03 0.  0.
        -13    1    3    3    0    0 -0.22505805232E+02 -0.42227306283E+02 -0.12794394384E+02  0.49531448160E+02  0.10566000000E+00 0.  1.
         23    2    1    0    0    0  0.11904433749E+02 -0.23242607157E+02  0.12273395186E+02  0.96145701191E+02  0.91713822828E+02 0.  0.
         13    1    3    3    0    0  0.34410238982E+02  0.18984699126E+02  0.25067789571E+02  0.46614253031E+02  0.10566000000E+00 0. -1.
         22    1    1    0    0    0 -0.11904433749E+02  0.23242607157E+02 -0.12273395186E+02  0.28854298809E+02  0.00000000000E+00 0.  1.
</event>
<event>
 5    1  0.1709463E-003  0.9118800E+02  0.7818608E-02  0.1130116E+00
         25   -1    0    0    0    0  0.00000000000E+00  0.00000000000E+00  0.99999998245E-14  0.12500000000E+03  0.12500000000E+03 0.  0.
        -13    1    3    3    0    0 -0.20639827340E+02  0.54402829686E+02 -0.16567156456E+02  0.60499191627E+02  0.10566000000E+00 0. -1.
         23    2    1    0    0    0 -0.14796703362E+02  0.20143126899E+02 -0.16123966608E+02  0.95256592481E+02  0.90493912062E+02 0.  0.
         13    1    3    3    0    0  0.58431239779E+01 -0.34259702787E+02  0.44318984759E+00  0.34757400854E+02  0.10566000000E+00 0.  1.
         22    1    1    0    0    0  0.14796703362E+02 -0.20143126899E+02  0.16123966608E+02  0.29743407519E+02  0.00000000000E+00 0. -1.
</event>
<event>
 5    1  0.1709463E-003  0.9118800E+02  0.7818608E-02  0.1130116E+00
         25   -1    0    0    0    0  0.00000000000E+00  0.00000000000E+00  0.99999998245E-14  0.12500000000E+03  0.12500000000E+03 0.  0.
        -13    1    3    3    0    0 -0.12915467764E+02  0.33445523599E+02  0.22049584607E+02  0.42090470439E+02  0.10566000000E+00 0. -1.
         23    2    1    0    0    0  0.41951679496E+01  0.90221767680E+01 -0.25168028218E+02  0.97936579075E+02  0.94123029960E+02 0.  0.
         13    1    3    3    0    0  0.17110635713E+02 -0.24423346831E+02 -0.47217612825E+02  0.55846108637E+02  0.10566000000E+00 0.  1.
         22    1    1    0    0    0 -0.41951679496E+01 -0.90221767680E+01  0.25168028218E+02  0.27063420925E+02  0.00000000000E+00 0.  1.
</event>
<event>
 4    1  0.1709463E-003  0.9118800E+02  0.7818608E-02  0.1130116E+00
         25   -1    0    0    0    0  0.00000000000E+00  0.00000000000E+00  0.99999998245E-14  0.12500000000E+03  0.12500000000E+03 0.  0.
        -13    1    1    0    0    0  0.15197144835E+02 -0.44216201443E+02 -0.39230613134E+02  0.61033415864E+02  0.10566000000E+00 0.  1.
         13    1    1    0    0    0 -0.50254569467E+01  0.87428781042E+01 -0.30257295344E-01  0.10084900327E+02  0.10566000000E+00 0. -1.
         22    1    1    0    0    0 -0.10171687888E+02  0.35473323338E+02  0.39260870429E+02  0.53881683809E+02  0.00000000000E+00 0.  1.
</event>
<event>
 5    1  0.1709463E-003  0.9118800E+02  0.7818608E-02  0.1130116E+00
         25   -1    0    0    0    0  0.00000000000E+00  0.00000000000E+00  0.99999998245E-14  0.12500000000E+03  0.12500000000E+03 0.  0.
        -13    1    3    3    0    0 -0.13035420373E+02  0.19614489245E+02  0.23787033757E+02  0.33473639056E+02  0.10566000000E+00 0.  1.
         23    2    1    0    0    0  0.18230321666E+02 -0.24259101927E+02 -0.44999777081E+01  0.94322671992E+02  0.89194551392E+02 0.  0.
         13    1    3    3    0    0  0.31265742039E+02 -0.43873591172E+02 -0.28287011465E+02  0.60849032936E+02  0.10566000000E+00 0. -1.
         22    1    1    0    0    0 -0.18230321666E+02  0.24259101927E+02  0.44999777081E+01  0.30677328008E+02  0.00000000000E+00 0. -1.
</event>
<event>
 5    1  0.1709463E-003  0.9118800E+02  0.7818608E-02  0.1130116E+00
         25   -1    0    0    0    0  0.00000000000E+00  0.00000000000E+00  0.99999998245E-14  0.12500000000E+03  0.12500000000E+03 0.  0.
        -13    1    3    3    0    0 -0.23304746463E+02 -0.11735019102E+02  0.23853015893E+02  0.35352502207E+02  0.10566000000E+00 0.  1.
         23    2    1    0    0    0  0.22121560439E+02 -0.28197131998E+01 -0.16893154439E+02  0.97023351064E+02  0.92902302265E+02 0.  0.
         13    1    3    3    0    0  0.45426306902E+02  0.89153059023E+01 -0.40746170332E+02  0.61670848858E+02  0.10566000000E+00 0. -1.
         22    1    1    0    0    0 -0.22121560439E+02  0.28197131998E+01  0.16893154439E+02  0.27976648936E+02  0.00000000000E+00 0. -1.
</event>
<event>
 5    1  0.1709463E-003  0.9118800E+02  0.7818608E-02  0.1130116E+00
         25   -1    0    0    0    0  0.00000000000E+00  0.00000000000E+00  0.99999998245E-14  0.12500000000E+03  0.12500000000E+03 0.  0.
        -13    1    3    3    0    0 -0.90273093854E+01  0.43693115793E+02 -0.23459508899E+02  0.50407741511E+02  0.10566000000E+00 0.  1.
         23    2    1    0    0    0 -0.27692089362E+02  0.69665133644E+01 -0.15977203846E+02  0.92279132584E+02  0.86283156793E+02 0.  0.
         13    1    3    3    0    0 -0.18664779977E+02 -0.36726602428E+02  0.74823050530E+01  0.41871391074E+02  0.10566000000E+00 0. -1.
         22    1    1    0    0    0  0.27692089362E+02 -0.69665133644E+01  0.15977203846E+02  0.32720867416E+02  0.00000000000E+00 0.  1.
</event>
<event>
 5    1  0.1709463E-003  0.9118800E+02  0.7818608E-02  0.1130116E+00
         25   -1    0    0    0    0  0.00000000000E+00  0.00000000000E+00  0.99999998245E-14  0.12500000000E+03  0.12500000000E+03 0.  0.
        -13    1    3    3    0    0  0.20166055750E+02 -0.11799314770E+02  0.25216793747E+02  0.34377194250E+02  0.10566000000E+00 0. -1.
         23    2    1    0    0    0 -0.22307989321E+02 -0.62519841771E+01 -0.18328329322E+02  0.95459157943E+02  0.90773286190E+02 0.  0.
         13    1    3    3    0    0 -0.42474045072E+02  0.55473305932E+01 -0.43545123069E+02  0.61081963693E+02  0.10566000000E+00 0.  1.
         22    1    1    0    0    0  0.22307989321E+02  0.62519841771E+01  0.18328329322E+02  0.29540842057E+02  0.00000000000E+00 0.  1.
</event>
<event>
 5    1  0.1709463E-003  0.9118800E+02  0.7818608E-02  0.1130116E+00
         25   -1    0    0    0    0  0.00000000000E+00  0.00000000000E+00  0.99999998245E-14  0.12500000000E+03  0.12500000000E+03 0.  0.
        -13    1    3    3    0    0  0.22370544924E+02  0.39764182828E+02 -0.16278278127E+01  0.45654052434E+02  0.10566000000E+00 0. -1.
         23    2    1    0    0    0 -0.21818546004E+02  0.20906840280E+02 -0.69506560578E+01  0.93992637329E+02  0.88730825152E+02 0.  0.
         13    1    3    3    0    0 -0.44189090928E+02 -0.18857342549E+02 -0.53228282451E+01  0.48338584895E+02  0.10566000000E+00 0.  1.
         22    1    1    0    0    0  0.21818546004E+02 -0.20906840280E+02  0.69506560578E+01  0.31007362671E+02  0.00000000000E+00 0.  1.
</event>
<event>
 5    1  0.1709463E-003  0.9118800E+02  0.7818608E-02  0.1130116E+00
         25   -1    0    0    0    0  0.00000000000E+00  0.00000000000E+00  0.99999998245E-14  0.12500000000E+03  0.12500000000E+03 0.  0.
        -13    1    3    3    0    0  0.41046697287E+02  0.17795648955E+02 -0.25054317961E+02  0.51276178606E+02  0.10566000000E+00 0. -1.
         23    2    1    0    0    0  0.27664242209E+02 -0.16608504942E+02 -0.92415133082E+01  0.91435758587E+02  0.85052569901E+02 0.  0.
         13    1    3    3    0    0 -0.13382455078E+02 -0.34404153897E+02  0.15812804653E+02  0.40159579982E+02  0.10566000000E+00 0.  1.
         22    1    1    0    0    0 -0.27664242209E+02  0.16608504942E+02  0.92415133082E+01  0.33564241413E+02  0.00000000000E+00 0. -1.
</event>
<event>
 5    1  0.1709463E-003  0.9118800E+02  0.7818608E-02  0.1130116E+00
         25   -1    0    0    0    0  0.00000000000E+00  0.00000000000E+00  0.99999998245E-14  0.12500000000E+03  0.12500000000E+03 0.  0.
        -13    1    3    3    0    0 -0.49242727510E+01  0.56994377123E+02  0.18161078471E+02  0.60020358388E+02  0.10566000000E+00 0. -1.
         23    2    1    0    0    0  0.89605792446E+01  0.23598349588E+02  0.13163392806E+02  0.96531614134E+02  0.92238297542E+02 0.  0.
         13    1    3    3    0    0  0.13884851996E+02 -0.33396027535E+02 -0.49976856648E+01  0.36511255746E+02  0.10566000000E+00 0.  1.
         22    1    1    0    0    0 -0.89605792446E+01 -0.23598349588E+02 -0.13163392806E+02  0.28468385866E+02  0.00000000000E+00 0. -1.
</event>
<event>
 5    1  0.1709463E-003  0.9118800E+02  0.7818608E-02  0.1130116E+00
         25   -1    0    0    0    0  0.00000000000E+00  0.00000000000E+00  0.99999998245E-14  0.12500000000E+03  0.12500000000E+03 0.  0.
        -13    1    3    3    0    0  0.43188015289E+01 -0.11235783583E+02 -0.40078836827E+02  0.41847571075E+02  0.10566000000E+00 0. -1.
         23    2    1    0    0    0 -0.19100878003E+02  0.18869737828E+02  0.12932487349E+01  0.98119095282E+02  0.94365109127E+02 0.  0.
         13    1    3    3    0    0 -0.23419679532E+02  0.30105521411E+02  0.41372085562E+02  0.56271524207E+02  0.10566000000E+00 0.  1.
         22    1    1    0    0    0  0.19100878003E+02 -0.18869737828E+02 -0.12932487349E+01  0.26880904718E+02  0.00000000000E+00 0.  1.
</event>
<event>
 5    1  0.1709463E-003  0.9118800E+02  0.7818608E-02  0.1130116E+00
         25   -1    0    0    0    0  0.00000000000E+00  0.00000000000E+00  0.99999998245E-14  0.12500000000E+03  0.12500000000E+03 0.  0.
        -13    1    3    3    0    0 -0.18861564168E+02 -0.29982949853E+02  0.33477343933E+01  0.35580252590E+02  0.10566000000E+00 0.  1.
         23    2    1    0    0    0  0.45042808180E+01  0.21736982205E+02 -0.18207902752E+02  0.96289154250E+02  0.91909132095E+02 0.  0.
         13    1    3    3    0    0  0.23365844986E+02  0.51719932058E+02 -0.21555637145E+02  0.60708901660E+02  0.10566000000E+00 0. -1.
         22    1    1    0    0    0 -0.45042808180E+01 -0.21736982205E+02  0.18207902752E+02  0.28710845750E+02  0.00000000000E+00 0. -1.
</event>
<event>
 5    1  0.1709463E-003  0.9118800E+02  0.7818608E-02  0.1130116E+00
         25   -1    0    0    0    0  0.00000000000E+00  0.00000000000E+00  0.99999998245E-14  0.12500000000E+03  0.12500000000E+03 0.  0.
        -13    1    3    3    0    0  0.51671424920E+02  0.27931976383E+02  0.12193134505E+00  0.58738041245E+02  0.10566000000E+00 0. -1.
         23    2    1    0    0    0  0.28201780489E+02  0.14656258419E+01  0.92736187584E+01  0.95276465776E+02  0.90521359049E+02 0.  0.
         13    1    3    3    0    0 -0.23469644431E+02 -0.26466350541E+02  0.91516874133E+01  0.36538424531E+02  0.10566000000E+00 0.  1.
         22    1    1    0    0    0 -0.28201780489E+02 -0.14656258419E+01 -0.92736187584E+01  0.29723534224E+02  0.00000000000E+00 0. -1.
</event>
<event>
 5    1  0.1709463E-003  0.9118800E+02  0.7818608E-02  0.1130116E+00
         25   -1    0    0    0    0  0.00000000000E+00  0.00000000000E+00  0.99999998245E-14  0.12500000000E+03  0.12500000000E+03 0.  0.
        -13    1    3    3    0    0  0.18214028258E+02 -0.10234620659E+02  0.37127238769E+02  0.42602127975E+02  0.10566000000E+00 0.  1.
         23    2    1    0    0    0 -0.25532811641E+02  0.70779197665E+01  0.14192357669E+02  0.94942647576E+02  0.90059213266E+02 0.  0.
         13    1    3    3    0    0 -0.43746839898E+02  0.17312540425E+02 -0.22934881099E+02  0.52340519601E+02  0.10566000000E+00 0. -1.
         22    1    1    0    0    0  0.25532811641E+02 -0.70779197665E+01 -0.14192357669E+02  0.30057352424E+02  0.00000000000E+00 0. -1.
</event>
<event>
 5    1  0.1709463E-003  0.9118800E+02  0.7818608E-02  0.1130116E+00
         25   -1    0    0    0    0  0.00000000000E+00  0.00000000000E+00  0.99999998245E-14  0.12500000000E+03  0.12500000000E+03 0.  0.
        -13    1    3    3    0    0 -0.30277631914E+02 -0.48421308364E+01  0.20072667587E+02  0.36648388415E+02  0.10566000000E+00 0. -1.
         23    2    1    0    0    0  0.26483584378E+02 -0.45533166663E+01 -0.30824077102E+01  0.97951632739E+02  0.94143019841E+02 0.  0.
         13    1    3    3    0    0  0.56761216292E+02  0.28881417011E+00 -0.23155075297E+02  0.61303244324E+02  0.10566000000E+00 0.  1.
         22    1    1    0    0    0 -0.26483584378E+02  0.45533166663E+01  0.30824077102E+01  0.27048367261E+02  0.00000000000E+00 0.  1.
</event>
<event>
 5    1  0.1709463E-003  0.9118800E+02  0.7818608E-02  0.1130116E+00
         25   -1    0    0    0    0  0.00000000000E+00  0.00000000000E+00  0.99999998245E-14  0.12500000000E+03  0.12500000000E+03 0.  0.
        -13    1    3    3    0    0  0.80871095327E+01 -0.39321147490E+02 -0.44307521419E+02  0.59788975563E+02  0.10566000000E+00 0. -1.
         23    2    1    0    0    0  0.52707911204E+01 -0.66083207366E+01 -0.26591052108E+02  0.97097756467E+02  0.93002360812E+02 0.  0.
         13    1    3    3    0    0 -0.28163184122E+01  0.32712826754E+02  0.17716469311E+02  0.37308780904E+02  0.10566000000E+00 0.  1.
         22    1    1    0    0    0 -0.52707911204E+01  0.66083207366E+01  0.26591052108E+02  0.27902243533E+02  0.00000000000E+00 0. -1.
</event>
<event>
 5    1  0.1709463E-003  0.9118800E+02  0.7818608E-02  0.1130116E+00
         25   -1    0    0    0    0  0.00000000000E+00  0.00000000000E+00  0.99999998245E-14  0.12500000000E+03  0.12500000000E+03 0.  0.
        -13    1    3    3    0    0  0.25965386574E+02 -0.29615753194E+02 -0.28739509380E+02  0.48757201525E+02  0.10566000000E+00 0.  1.
         23    2    1    0    0    0  0.42053299803E+02 -0.71530831786E+01 -0.13807531866E+02  0.80163691504E+02  0.66452410612E+02 0.  0.
         13    1    3    3    0    0  0.16087913229E+02  0.22462670015E+02  0.14931977514E+02  0.31406489979E+02  0.10566000000E+00 0. -1.
         22    1    1    0    0    0 -0.42053299803E+02  0.71530831786E+01  0.13807531866E+02  0.44836308496E+02  0.00000000000E+00 0.  1.
</event>
<event>
 5    1  0.1709463E-003  0.9118800E+02  0.7818608E-02  0.1130116E+00
         25   -1    0    0    0    0  0.00000000000E+00  0.00000000000E+00  0.99999998245E-14  0.12500000000E+03  0.12500000000E+03 0.  0.
        -13    1    3    3    0    0  0.15441983749E+01 -0.27226821337E+02 -0.54747790295E+02  0.61163845979E+02  0.10566000000E+00 0.  1.
         23    2    1    0    0    0  0.21368691280E+01 -0.21381488866E+02 -0.22712835384E+02  0.93733289796E+02  0.88364712691E+02 0.  0.
         13    1    3    3    0    0  0.59267075316E+00  0.58453324706E+01  0.32034954912E+02  0.32569443817E+02  0.10566000000E+00 0. -1.
         22    1    1    0    0    0 -0.21368691280E+01  0.21381488866E+02  0.22712835384E+02  0.31266710204E+02  0.00000000000E+00 0.  1.
</event>
<event>
 5    1  0.1709463E-003  0.9118800E+02  0.7818608E-02  0.1130116E+00
         25   -1    0    0    0    0  0.00000000000E+00  0.00000000000E+00  0.99999998245E-14  0.12500000000E+03  0.12500000000E+03 0.  0.
        -13    1    3    3    0    0 -0.12436432115E+02  0.93379896981E+01 -0.54636755998E+02  0.56807122488E+02  0.10566000000E+00 0. -1.
         23    2    1    0    0    0 -0.98940173366E+01  0.21302174473E+02 -0.18069620886E+02  0.95365806654E+02  0.90644644979E+02 0.  0.
         13    1    3    3    0    0  0.25424147785E+01  0.11964184775E+02  0.36567135112E+02  0.38558684166E+02  0.10566000000E+00 0.  1.
         22    1    1    0    0    0  0.98940173366E+01 -0.21302174473E+02  0.18069620886E+02  0.29634193346E+02  0.00000000000E+00 0. -1.
</event>
<event>
 5    1  0.1709463E-003  0.9118800E+02  0.7818608E-02  0.1130116E+00
         25   -1    0    0    0    0  0.00000000000E+00  0.00000000000E+00  0.99999998245E-14  0.12500000000E+03  0.12500000000E+03 0.  0.
        -13    1    3    3    0    0 -0.26933730484E+01  0.28571147206E+02  0.25979679617E+02  0.38710717225E+02  0.10566000000E+00 0.  1.
         23    2    1    0    0    0 -0.12330397109E+02 -0.19054279913E+02 -0.11005977391E+02  0.99776284686E+02  0.96535336388E+02 0.  0.
         13    1    3    3    0    0 -0.96370240608E+01 -0.47625427119E+02 -0.36985657008E+02  0.61065567461E+02  0.10566000000E+00 0. -1.
         22    1    1    0    0    0  0.12330397109E+02  0.19054279913E+02  0.11005977391E+02  0.25223715314E+02  0.00000000000E+00 0. -1.
</event>
<event>
 5    1  0.1709463E-003  0.9118800E+02  0.7818608E-02  0.1130116E+00
         25   -1    0    0    0    0  0.00000000000E+00  0.00000000000E+00  0.99999998245E-14  0.12500000000E+03  0.12500000000E+03 0.  0.
        -13    1    3    3    0    0 -0.33443798758E+02 -0.48430158796E+01 -0.49524723039E+01  0.34153779060E+02  0.10566000000E+00 0.  1.
         23    2    1    0    0    0  0.22532306240E+02  0.10871625717E+02  0.15245940144E+02  0.95702632182E+02  0.91107947214E+02 0.  0.
         13    1    3    3    0    0  0.55976104997E+02  0.15714641596E+02  0.20198412448E+02  0.61548853122E+02  0.10566000000E+00 0. -1.
         22    1    1    0    0    0 -0.22532306240E+02 -0.10871625717E+02 -0.15245940144E+02  0.29297367818E+02  0.00000000000E+00 0. -1.
</event>
<event>
 5    1  0.1709463E-003  0.9118800E+02  0.7818608E-02  0.1130116E+00
         25   -1    0    0    0    0  0.00000000000E+00  0.00000000000E+00  0.99999998245E-14  0.12500000000E+03  0.12500000000E+03 0.  0.
        -13    1    3    3    0    0 -0.14026061019E+02 -0.11434102125E+02  0.59358764481E+02  0.62055967995E+02  0.10566000000E+00 0. -1.
         23    2    1    0    0    0 -0.45558531308E+01 -0.10150900666E+02  0.26980045491E+02  0.95815767326E+02  0.91263036502E+02 0.  0.
         13    1    3    3    0    0  0.94702078878E+01  0.12832014589E+01 -0.32378718990E+02  0.33759799331E+02  0.10566000000E+00 0.  1.
         22    1    1    0    0    0  0.45558531308E+01  0.10150900666E+02 -0.26980045491E+02  0.29184232674E+02  0.00000000000E+00 0. -1.
</event>
<event>
 5    1  0.1709463E-003  0.9118800E+02  0.7818608E-02  0.1130116E+00
         25   -1    0    0    0    0  0.00000000000E+00  0.00000000000E+00  0.99999998245E-14  0.12500000000E+03  0.12500000000E+03 0.  0.
        -13    1    3    3    0    0 -0.33398993126E+02 -0.23497925471E+02 -0.34834536323E+02  0.53675891498E+02  0.10566000000E+00 0.  1.
         23    2    1    0    0    0 -0.27327899486E+02  0.51362091539E+01 -0.28256881002E+01  0.97050415960E+02  0.92938710933E+02 0.  0.
         13    1    3    3    0    0  0.60710936401E+01  0.28634134625E+02  0.32008848222E+02  0.43374524462E+02  0.10566000000E+00 0. -1.
         22    1    1    0    0    0  0.27327899486E+02 -0.51362091539E+01  0.28256881002E+01  0.27949584040E+02  0.00000000000E+00 0.  1.
</event>
<event>
 5    1  0.1709463E-003  0.9118800E+02  0.7818608E-02  0.1130116E+00
         25   -1    0    0    0    0  0.00000000000E+00  0.00000000000E+00  0.99999998245E-14  0.12500000000E+03  0.12500000000E+03 0.  0.
        -13    1    3    3    0    0  0.43233180913E+01 -0.70083497287E+01  0.42720697742E+02  0.43507208883E+02  0.10566000000E+00 0.  1.
         23    2    1    0    0    0  0.25690020521E+02  0.15358418995E+02  0.15156394228E+01  0.95030759915E+02  0.90181428126E+02 0.  0.
         13    1    3    3    0    0  0.21366702430E+02  0.22366768724E+02 -0.41205058319E+02  0.51523551032E+02  0.10566000000E+00 0. -1.
         22    1    1    0    0    0 -0.25690020521E+02 -0.15358418995E+02 -0.15156394228E+01  0.29969240085E+02  0.00000000000E+00 0. -1.
</event>
<event>
 5    1  0.1709463E-003  0.9118800E+02  0.7818608E-02  0.1130116E+00
         25   -1    0    0    0    0  0.00000000000E+00  0.00000000000E+00  0.99999998245E-14  0.12500000000E+03  0.12500000000E+03 0.  0.
        -13    1    3    3    0    0  0.30861103894E+01 -0.13585001414E+02 -0.30357482136E+02  0.33401560240E+02  0.10566000000E+00 0.  1.
         23    2    1    0    0    0 -0.19450632050E+02  0.96326385708E+00  0.24044935033E+02  0.94057894946E+02  0.88822709577E+02 0.  0.
         13    1    3    3    0    0 -0.22536742440E+02  0.14548265271E+02  0.54402417169E+02  0.60656334707E+02  0.10566000000E+00 0. -1.
         22    1    1    0    0    0  0.19450632050E+02 -0.96326385708E+00 -0.24044935033E+02  0.30942105054E+02  0.00000000000E+00 0. -1.
</event>
<event>
 5    1  0.1709463E-003  0.9118800E+02  0.7818608E-02  0.1130116E+00
         25   -1    0    0    0    0  0.00000000000E+00  0.00000000000E+00  0.99999998245E-14  0.12500000000E+03  0.12500000000E+03 0.  0.
        -13    1    3    3    0    0  0.18194901779E+02 -0.28262715695E+02 -0.27179592265E+01  0.33722900462E+02  0.10566000000E+00 0. -1.
         23    2    1    0    0    0 -0.98433403712E+01  0.26179168265E+02 -0.97894814999E+01  0.95367684047E+02  0.90647233889E+02 0.  0.
         13    1    3    3    0    0 -0.28038242150E+02  0.54441883960E+02 -0.70715222735E+01  0.61644783585E+02  0.10566000000E+00 0.  1.
         22    1    1    0    0    0  0.98433403712E+01 -0.26179168265E+02  0.97894814999E+01  0.29632315953E+02  0.00000000000E+00 0.  1.
</event>
<event>
 5    1  0.1709463E-003  0.9118800E+02  0.7818608E-02  0.1130116E+00
         25   -1    0    0    0    0  0.00000000000E+00  0.00000000000E+00  0.99999998245E-14  0.12500000000E+03  0.12500000000E+03 0.  0.
        -13    1    3    3    0    0 -0.32947707542E+02  0.39700056544E+02 -0.11006219461E+02  0.52752193819E+02  0.10566000000E+00 0.  1.
         23    2    1    0    0    0 -0.53260402079E+01  0.13422186599E+02  0.18905525901E+02  0.10121049166E+03  0.98374909989E+02 0.  0.
         13    1    3    3    0    0  0.27621667334E+02 -0.26277869945E+02  0.29911745362E+02  0.48458297843E+02  0.10566000000E+00 0. -1.
         22    1    1    0    0    0  0.53260402079E+01 -0.13422186599E+02 -0.18905525901E+02  0.23789508338E+02  0.00000000000E+00 0. -1.
</event>
<event>
 5    1  0.1709463E-003  0.9118800E+02  0.7818608E-02  0.1130116E+00
         25   -1    0    0    0    0  0.00000000000E+00  0.00000000000E+00  0.99999998245E-14  0.12500000000E+03  0.12500000000E+03 0.  0.
        -13    1    3    3    0    0 -0.39906026786E+02  0.10764944884E+02  0.31811690930E+02  0.52157164954E+02  0.10566000000E+00 0.  1.
         23    2    1    0    0    0 -0.11787969241E+02 -0.19728075895E+02  0.17775768589E+02  0.95946064875E+02  0.91441326646E+02 0.  0.
         13    1    3    3    0    0  0.28118057545E+02 -0.30493020779E+02 -0.14035922341E+02  0.43788899921E+02  0.10566000000E+00 0. -1.
         22    1    1    0    0    0  0.11787969241E+02  0.19728075895E+02 -0.17775768589E+02  0.29053935125E+02  0.00000000000E+00 0.  1.
</event>
<event>
 5    1  0.1709463E-003  0.9118800E+02  0.7818608E-02  0.1130116E+00
         25   -1    0    0    0    0  0.00000000000E+00  0.00000000000E+00  0.99999998245E-14  0.12500000000E+03  0.12500000000E+03 0.  0.
        -13    1    3    3    0    0 -0.48954708233E+02 -0.25925349831E+02  0.64583326951E+01  0.55771035917E+02  0.10566000000E+00 0. -1.
         23    2    1    0    0    0 -0.20754232737E+02 -0.15977408682E+02 -0.16997168198E+02  0.93776299204E+02  0.88425532517E+02 0.  0.
         13    1    3    3    0    0  0.28200475496E+02  0.99479411490E+01 -0.23455500893E+02  0.38005263287E+02  0.10566000000E+00 0.  1.
         22    1    1    0    0    0  0.20754232737E+02  0.15977408682E+02  0.16997168198E+02  0.31223700796E+02  0.00000000000E+00 0. -1.
</event>
<event>
 5    1  0.1709463E-003  0.9118800E+02  0.7818608E-02  0.1130116E+00
         25   -1    0    0    0    0  0.00000000000E+00  0.00000000000E+00  0.99999998245E-14  0.12500000000E+03  0.12500000000E+03 0.  0.
        -13    1    3    3    0    0 -0.54608757454E+01  0.23859011404E+02 -0.28191113839E+02  0.37333947723E+02  0.10566000000E+00 0.  1.
         23    2    1    0    0    0  0.14843626481E+02 -0.21889674336E+02  0.59112044075E+01  0.97899567768E+02  0.94073864288E+02 0.  0.
         13    1    3    3    0    0  0.20304502226E+02 -0.45748685740E+02  0.34102318246E+02  0.60565620045E+02  0.10566000000E+00 0. -1.
         22    1    1    0    0    0 -0.14843626481E+02  0.21889674336E+02 -0.59112044075E+01  0.27100432232E+02  0.00000000000E+00 0. -1.
</event>
<event>
 5    1  0.1709463E-003  0.9118800E+02  0.7818608E-02  0.1130116E+00
         25   -1    0    0    0    0  0.00000000000E+00  0.00000000000E+00  0.99999998245E-14  0.12500000000E+03  0.12500000000E+03 0.  0.
        -13    1    3    3    0    0  0.40434260632E+02 -0.28092187003E+02  0.19257195590E+02  0.52867297543E+02  0.10566000000E+00 0. -1.
         23    2    1    0    0    0  0.65989913547E+01 -0.26350526850E+02 -0.83610156257E+01  0.96578115219E+02  0.92301293625E+02 0.  0.
         13    1    3    3    0    0 -0.33835269277E+02  0.17416601523E+01 -0.27618211216E+02  0.43710817677E+02  0.10566000000E+00 0.  1.
         22    1    1    0    0    0 -0.65989913547E+01  0.26350526850E+02  0.83610156257E+01  0.28421884781E+02  0.00000000000E+00 0.  1.
</event>
<event>
 5    1  0.1709463E-003  0.9118800E+02  0.7818608E-02  0.1130116E+00
         25   -1    0    0    0    0  0.00000000000E+00  0.00000000000E+00  0.99999998245E-14  0.12500000000E+03  0.12500000000E+03 0.  0.
        -13    1    3    3    0    0 -0.23954767618E+02 -0.44916320349E+01 -0.30223079041E+02  0.38825910429E+02  0.10566000000E+00 0. -1.
         23    2    1    0    0    0  0.51250429176E+01 -0.28358158124E+02  0.10558385683E+02  0.94309110386E+02  0.89175543713E+02 0.  0.
         13    1    3    3    0    0  0.29079810535E+02 -0.23866526089E+02  0.40781464724E+02  0.55483199956E+02  0.10566000000E+00 0.  1.
         22    1    1    0    0    0 -0.51250429176E+01  0.28358158124E+02 -0.10558385683E+02  0.30690889614E+02  0.00000000000E+00 0.  1.
</event>
<event>
 5    1  0.1709463E-003  0.9118800E+02  0.7818608E-02  0.1130116E+00
         25   -1    0    0    0    0  0.00000000000E+00  0.00000000000E+00  0.99999998245E-14  0.12500000000E+03  0.12500000000E+03 0.  0.
        -13    1    3    3    0    0 -0.26884855020E+02  0.24434768771E+02  0.20829353017E+00  0.36330536805E+02  0.10566000000E+00 0. -1.
         23    2    1    0    0    0  0.24766106737E+02 -0.67396379423E+01  0.10008160528E+02  0.97451024708E+02  0.93475965772E+02 0.  0.
         13    1    3    3    0    0  0.51650961757E+02 -0.31174406713E+02  0.97998669977E+01  0.61120487903E+02  0.10566000000E+00 0.  1.
         22    1    1    0    0    0 -0.24766106737E+02  0.67396379423E+01 -0.10008160528E+02  0.27548975292E+02  0.00000000000E+00 0.  1.
</event>
<event>
 5    1  0.1709463E-003  0.9118800E+02  0.7818608E-02  0.1130116E+00
         25   -1    0    0    0    0  0.00000000000E+00  0.00000000000E+00  0.99999998245E-14  0.12500000000E+03  0.12500000000E+03 0.  0.
        -13    1    3    3    0    0  0.20192605772E+02 -0.54247944727E+02  0.22229660103E+02  0.62006046377E+02  0.10566000000E+00 0.  1.
         23    2    1    0    0    0  0.14131146619E+02 -0.22540367933E+02  0.11407573258E+02  0.96053666571E+02  0.91588299705E+02 0.  0.
         13    1    3    3    0    0 -0.60614591529E+01  0.31707576794E+02 -0.10822086844E+02  0.34047620195E+02  0.10566000000E+00 0. -1.
         22    1    1    0    0    0 -0.14131146619E+02  0.22540367933E+02 -0.11407573258E+02  0.28946333429E+02  0.00000000000E+00 0.  1.
</event>
<event>
 5    1  0.1709463E-003  0.9118800E+02  0.7818608E-02  0.1130116E+00
         25   -1    0    0    0    0  0.00000000000E+00  0.00000000000E+00  0.99999998245E-14  0.12500000000E+03  0.12500000000E+03 0.  0.
        -13    1    3    3    0    0 -0.23197117808E+02 -0.33082622164E+02 -0.16777170364E+02  0.43749865980E+02  0.10566000000E+00 0.  1.
         23    2    1    0    0    0  0.98806572014E+01  0.58283037440E+01 -0.26847926392E+02  0.95803978648E+02  0.91246888506E+02 0.  0.
         13    1    3    3    0    0  0.33077775009E+02  0.38910925908E+02 -0.10070756028E+02  0.52054112668E+02  0.10566000000E+00 0. -1.
         22    1    1    0    0    0 -0.98806572014E+01 -0.58283037440E+01  0.26847926392E+02  0.29196021352E+02  0.00000000000E+00 0. -1.
</event>
<event>
 5    1  0.1709463E-003  0.9118800E+02  0.7818608E-02  0.1130116E+00
         25   -1    0    0    0    0  0.00000000000E+00  0.00000000000E+00  0.99999998245E-14  0.12500000000E+03  0.12500000000E+03 0.  0.
        -13    1    3    3    0    0  0.36166339680E+02  0.90563035008E+01  0.17446954387E+02  0.41163432077E+02  0.10566000000E+00 0. -1.
         23    2    1    0    0    0 -0.90314188972E+01 -0.21486214157E+02  0.17732455428E+02  0.95714100635E+02  0.91123680560E+02 0.  0.
         13    1    3    3    0    0 -0.45197758577E+02 -0.30542517658E+02  0.28550104102E+00  0.54550668558E+02  0.10566000000E+00 0.  1.
         22    1    1    0    0    0  0.90314188972E+01  0.21486214157E+02 -0.17732455428E+02  0.29285899365E+02  0.00000000000E+00 0.  1.
</event>
<event>
 5    1  0.1709463E-003  0.9118800E+02  0.7818608E-02  0.1130116E+00
         25   -1    0    0    0    0  0.00000000000E+00  0.00000000000E+00  0.99999998245E-14  0.12500000000E+03  0.12500000000E+03 0.  0.
        -13    1    3    3    0    0  0.14225973951E+02  0.44177537976E+02  0.27502150380E+02  0.53948240343E+02  0.10566000000E+00 0. -1.
         23    2    1    0    0    0 -0.12301615671E+02  0.22260677136E+01  0.15633559827E+02  0.10498267454E+03  0.10305662830E+03 0.  0.
         13    1    3    3    0    0 -0.26527589622E+02 -0.41951470263E+02 -0.11868590552E+02  0.51034434200E+02  0.10566000000E+00 0.  1.
         22    1    1    0    0    0  0.12301615671E+02 -0.22260677136E+01 -0.15633559827E+02  0.20017325457E+02  0.00000000000E+00 0. -1.
</event>
<event>
 5    1  0.1709463E-003  0.9118800E+02  0.7818608E-02  0.1130116E+00
         25   -1    0    0    0    0  0.00000000000E+00  0.00000000000E+00  0.99999998245E-14  0.12500000000E+03  0.12500000000E+03 0.  0.
        -13    1    3    3    0    0  0.22349762706E+02 -0.45711877492E+00 -0.73427603430E+01  0.23529728942E+02  0.10566000000E+00 0.  1.
         23    2    1    0    0    0 -0.21385716934E+02  0.18047287666E+02 -0.36311442481E+02  0.79157068855E+02  0.64531133679E+02 0.  0.
         13    1    3    3    0    0 -0.43735479640E+02  0.18504406441E+02 -0.28968682138E+02  0.55627339914E+02  0.10566000000E+00 0. -1.
         22    1    1    0    0    0  0.21385716934E+02 -0.18047287666E+02  0.36311442481E+02  0.45842931145E+02  0.00000000000E+00 0. -1.
</event>
<event>
 5    1  0.1709463E-003  0.9118800E+02  0.7818608E-02  0.1130116E+00
         25   -1    0    0    0    0  0.00000000000E+00  0.00000000000E+00  0.99999998245E-14  0.12500000000E+03  0.12500000000E+03 0.  0.
        -13    1    3    3    0    0 -0.29832184553E+02 -0.11155885158E+02  0.95530601681E+01  0.33251844031E+02  0.10566000000E+00 0.  1.
         23    2    1    0    0    0  0.68351437520E+01  0.20790066956E+02 -0.24141186973E+02  0.92415602160E+02  0.86480636792E+02 0.  0.
         13    1    3    3    0    0  0.36667328305E+02  0.31945952113E+02 -0.33694247141E+02  0.59163758129E+02  0.10566000000E+00 0. -1.
         22    1    1    0    0    0 -0.68351437520E+01 -0.20790066956E+02  0.24141186973E+02  0.32584397840E+02  0.00000000000E+00 0. -1.
</event>
<event>
 5    1  0.1709463E-003  0.9118800E+02  0.7818608E-02  0.1130116E+00
         25   -1    0    0    0    0  0.00000000000E+00  0.00000000000E+00  0.99999998245E-14  0.12500000000E+03  0.12500000000E+03 0.  0.
        -13    1    3    3    0    0 -0.41908202009E+02 -0.20276179706E+02 -0.93792857302E+01  0.47491083625E+02  0.10566000000E+00 0.  1.
         23    2    1    0    0    0 -0.15260612315E+02  0.22112450279E+02 -0.36106098066E+01  0.97891269879E+02  0.94062837879E+02 0.  0.
         13    1    3    3    0    0  0.26647589694E+02  0.42388629985E+02  0.57686759236E+01  0.50400186254E+02  0.10566000000E+00 0. -1.
         22    1    1    0    0    0  0.15260612315E+02 -0.22112450279E+02  0.36106098066E+01  0.27108730121E+02  0.00000000000E+00 0.  1.
</event>
<event>
 5    1  0.1709463E-003  0.9118800E+02  0.7818608E-02  0.1130116E+00
         25   -1    0    0    0    0  0.00000000000E+00  0.00000000000E+00  0.99999998245E-14  0.12500000000E+03  0.12500000000E+03 0.  0.
        -13    1    3    3    0    0 -0.59376705123E+02 -0.32556050967E+01 -0.16282576630E+02  0.61654890654E+02  0.10566000000E+00 0.  1.
         23    2    1    0    0    0 -0.20396056549E+02  0.57562240085E+01 -0.63059273570E+01  0.10288896299E+03  0.10048502749E+03 0.  0.
         13    1    3    3    0    0  0.38980648574E+02  0.90118291051E+01  0.99766492729E+01  0.41234072341E+02  0.10566000000E+00 0. -1.
         22    1    1    0    0    0  0.20396056549E+02 -0.57562240085E+01  0.63059273570E+01  0.22111037005E+02  0.00000000000E+00 0.  1.
</event>
<event>
 5    1  0.1709463E-003  0.9118800E+02  0.7818608E-02  0.1130116E+00
         25   -1    0    0    0    0  0.00000000000E+00  0.00000000000E+00  0.99999998245E-14  0.12500000000E+03  0.12500000000E+03 0.  0.
        -13    1    3    3    0    0 -0.39769932955E+02 -0.31834619794E+02  0.33773796487E+02  0.61120954491E+02  0.10566000000E+00 0.  1.
         23    2    1    0    0    0 -0.14766475065E+02 -0.11929289997E+02  0.23708973599E+02  0.94627772970E+02  0.89621109357E+02 0.  0.
         13    1    3    3    0    0  0.25003457890E+02  0.19905329797E+02 -0.10064822888E+02  0.33506818479E+02  0.10566000000E+00 0. -1.
         22    1    1    0    0    0  0.14766475065E+02  0.11929289997E+02 -0.23708973599E+02  0.30372227030E+02  0.00000000000E+00 0.  1.
</event>
<event>
 5    1  0.1709463E-003  0.9118800E+02  0.7818608E-02  0.1130116E+00
         25   -1    0    0    0    0  0.00000000000E+00  0.00000000000E+00  0.99999998245E-14  0.12500000000E+03  0.12500000000E+03 0.  0.
        -13    1    3    3    0    0  0.64114016160E+01  0.52615790164E+02 -0.89785321669E+01  0.53760139966E+02  0.10566000000E+00 0. -1.
         23    2    1    0    0    0  0.20780065107E+02  0.16013348903E+02 -0.16793417030E+02  0.93851046495E+02  0.88531133641E+02 0.  0.
         13    1    3    3    0    0  0.14368663491E+02 -0.36602441261E+02 -0.78148848629E+01  0.40090906528E+02  0.10566000000E+00 0.  1.
         22    1    1    0    0    0 -0.20780065107E+02 -0.16013348903E+02  0.16793417030E+02  0.31148953505E+02  0.00000000000E+00 0. -1.
</event>
<event>
 5    1  0.1709463E-003  0.9118800E+02  0.7818608E-02  0.1130116E+00
         25   -1    0    0    0    0  0.00000000000E+00  0.00000000000E+00  0.99999998245E-14  0.12500000000E+03  0.12500000000E+03 0.  0.
        -13    1    3    3    0    0  0.29409470682E+02 -0.44789446737E+02 -0.32135657313E+02  0.62479781848E+02  0.10566000000E+00 0. -1.
         23    2    1    0    0    0  0.13975149744E+02 -0.20231876446E+02 -0.15863495114E+02  0.95737667350E+02  0.91156002751E+02 0.  0.
         13    1    3    3    0    0 -0.15434320937E+02  0.24557570291E+02  0.16272162200E+02  0.33257885502E+02  0.10566000000E+00 0.  1.
         22    1    1    0    0    0 -0.13975149744E+02  0.20231876446E+02  0.15863495114E+02  0.29262332650E+02  0.00000000000E+00 0. -1.
</event>
<event>
 5    1  0.1709463E-003  0.9118800E+02  0.7818608E-02  0.1130116E+00
         25   -1    0    0    0    0  0.00000000000E+00  0.00000000000E+00  0.99999998245E-14  0.12500000000E+03  0.12500000000E+03 0.  0.
        -13    1    3    3    0    0 -0.25587006470E+02 -0.34842970380E+02 -0.31814468864E+02  0.53674007473E+02  0.10566000000E+00 0.  1.
         23    2    1    0    0    0 -0.36951868334E+02 -0.24299711999E+02 -0.11361672778E+02  0.79338153947E+02  0.64880956272E+02 0.  0.
         13    1    3    3    0    0 -0.11364861864E+02  0.10543258381E+02  0.20452796086E+02  0.25664146475E+02  0.10566000000E+00 0. -1.
         22    1    1    0    0    0  0.36951868334E+02  0.24299711999E+02  0.11361672778E+02  0.45661846053E+02  0.00000000000E+00 0.  1.
</event>
<event>
 5    1  0.1709463E-003  0.9118800E+02  0.7818608E-02  0.1130116E+00
         25   -1    0    0    0    0  0.00000000000E+00  0.00000000000E+00  0.99999998245E-14  0.12500000000E+03  0.12500000000E+03 0.  0.
        -13    1    3    3    0    0 -0.26993460058E+02 -0.42350179549E+02 -0.23022979745E+02  0.55247202229E+02  0.10566000000E+00 0.  1.
         23    2    1    0    0    0 -0.27134316471E+02 -0.98864052015E+01  0.17259230822E+01  0.96069204148E+02  0.91609502984E+02 0.  0.
         13    1    3    3    0    0 -0.14085641285E+00  0.32463774348E+02  0.24748902827E+02  0.40822001918E+02  0.10566000000E+00 0. -1.
         22    1    1    0    0    0  0.27134316471E+02  0.98864052015E+01 -0.17259230822E+01  0.28930795852E+02  0.00000000000E+00 0. -1.
</event>
<event>
 5    1  0.1709463E-003  0.9118800E+02  0.7818608E-02  0.1130116E+00
         25   -1    0    0    0    0  0.00000000000E+00  0.00000000000E+00  0.99999998245E-14  0.12500000000E+03  0.12500000000E+03 0.  0.
        -13    1    3    3    0    0 -0.17496335682E+02  0.21941872241E+02  0.18103818052E+02  0.33396510474E+02  0.10566000000E+00 0.  1.
         23    2    1    0    0    0  0.17753640237E+01 -0.27413545504E+02 -0.12754940644E+02  0.94712330803E+02  0.89738969800E+02 0.  0.
         13    1    3    3    0    0  0.19271699706E+02 -0.49355417745E+02 -0.30858758696E+02  0.61315820329E+02  0.10566000000E+00 0. -1.
         22    1    1    0    0    0 -0.17753640237E+01  0.27413545504E+02  0.12754940644E+02  0.30287669197E+02  0.00000000000E+00 0. -1.
</event>
<event>
 5    1  0.1709463E-003  0.9118800E+02  0.7818608E-02  0.1130116E+00
         25   -1    0    0    0    0  0.00000000000E+00  0.00000000000E+00  0.99999998245E-14  0.12500000000E+03  0.12500000000E+03 0.  0.
        -13    1    3    3    0    0 -0.11590348172E+02  0.10752837261E+02 -0.36173263719E+02  0.39477536043E+02  0.10566000000E+00 0. -1.
         23    2    1    0    0    0  0.23305883634E+02 -0.17208099078E+02 -0.16276280479E+01  0.95983934469E+02  0.91493079614E+02 0.  0.
         13    1    3    3    0    0  0.34896231806E+02 -0.27960936338E+02  0.34545635671E+02  0.56506398426E+02  0.10566000000E+00 0.  1.
         22    1    1    0    0    0 -0.23305883634E+02  0.17208099078E+02  0.16276280479E+01  0.29016065531E+02  0.00000000000E+00 0.  1.
</event>
<event>
 5    1  0.1709463E-003  0.9118800E+02  0.7818608E-02  0.1130116E+00
         25   -1    0    0    0    0  0.00000000000E+00  0.00000000000E+00  0.99999998245E-14  0.12500000000E+03  0.12500000000E+03 0.  0.
        -13    1    3    3    0    0  0.31937108708E+02  0.36561635605E+02 -0.37365376741E+02  0.61261036995E+02  0.10566000000E+00 0.  1.
         23    2    1    0    0    0  0.11493103420E+02  0.23253122549E+02 -0.12110146088E+02  0.96373879536E+02  0.92024289642E+02 0.  0.
         13    1    3    3    0    0 -0.20444005287E+02 -0.13308513056E+02  0.25255230653E+02  0.35112842541E+02  0.10566000000E+00 0. -1.
         22    1    1    0    0    0 -0.11493103420E+02 -0.23253122549E+02  0.12110146088E+02  0.28626120464E+02  0.00000000000E+00 0.  1.
</event>
<event>
 5    1  0.1709463E-003  0.9118800E+02  0.7818608E-02  0.1130116E+00
         25   -1    0    0    0    0  0.00000000000E+00  0.00000000000E+00  0.99999998245E-14  0.12500000000E+03  0.12500000000E+03 0.  0.
        -13    1    3    3    0    0  0.39911621991E+02 -0.28956032595E+02  0.28154506672E+02  0.56780954585E+02  0.10566000000E+00 0. -1.
         23    2    1    0    0    0  0.28367365500E+02  0.17154673162E+01  0.71890093200E+01  0.95685633069E+02  0.91084621464E+02 0.  0.
         13    1    3    3    0    0 -0.11544256491E+02  0.30671499911E+02 -0.20965497352E+02  0.38904678484E+02  0.10566000000E+00 0.  1.
         22    1    1    0    0    0 -0.28367365500E+02 -0.17154673162E+01 -0.71890093200E+01  0.29314366931E+02  0.00000000000E+00 0. -1.
</event>
<event>
 5    1  0.1709463E-003  0.9118800E+02  0.7818608E-02  0.1130116E+00
         25   -1    0    0    0    0  0.00000000000E+00  0.00000000000E+00  0.99999998245E-14  0.12500000000E+03  0.12500000000E+03 0.  0.
        -13    1    3    3    0    0 -0.16066484437E+02  0.56279112302E+02  0.10999482866E+02  0.59552247573E+02  0.10566000000E+00 0. -1.
         23    2    1    0    0    0 -0.18107335838E+02  0.22307424183E+02 -0.24891409674E+01  0.96160918746E+02  0.91734561026E+02 0.  0.
         13    1    3    3    0    0 -0.20408514013E+01 -0.33971688119E+02 -0.13488623833E+02  0.36608671173E+02  0.10566000000E+00 0.  1.
         22    1    1    0    0    0  0.18107335838E+02 -0.22307424183E+02  0.24891409674E+01  0.28839081254E+02  0.00000000000E+00 0. -1.
</event>
<event>
 5    1  0.1709463E-003  0.9118800E+02  0.7818608E-02  0.1130116E+00
         25   -1    0    0    0    0  0.00000000000E+00  0.00000000000E+00  0.99999998245E-14  0.12500000000E+03  0.12500000000E+03 0.  0.
        -13    1    3    3    0    0 -0.29336325126E+02 -0.20704467581E+01  0.18749303717E+02  0.34877704563E+02  0.10566000000E+00 0. -1.
         23    2    1    0    0    0  0.17312900893E+02 -0.17873021466E+02 -0.16232893714E+02  0.95289929788E+02  0.90539949454E+02 0.  0.
         13    1    3    3    0    0  0.46649226019E+02 -0.15802574707E+02 -0.34982197431E+02  0.60412225226E+02  0.10566000000E+00 0.  1.
         22    1    1    0    0    0 -0.17312900893E+02  0.17873021466E+02  0.16232893714E+02  0.29710070212E+02  0.00000000000E+00 0.  1.
</event>
<event>
 5    1  0.1709463E-003  0.9118800E+02  0.7818608E-02  0.1130116E+00
         25   -1    0    0    0    0  0.00000000000E+00  0.00000000000E+00  0.99999998245E-14  0.12500000000E+03  0.12500000000E+03 0.  0.
        -13    1    3    3    0    0 -0.28552056495E+02 -0.95377042805E+01  0.51797462590E+02  0.59909732330E+02  0.10566000000E+00 0. -1.
         23    2    1    0    0    0 -0.69010981752E+01 -0.15460994361E+02  0.23725141664E+02  0.95852961564E+02  0.91313966023E+02 0.  0.
         13    1    3    3    0    0  0.21650958320E+02 -0.59232900804E+01 -0.28072320926E+02  0.35943229234E+02  0.10566000000E+00 0.  1.
         22    1    1    0    0    0  0.69010981752E+01  0.15460994361E+02 -0.23725141664E+02  0.29147038436E+02  0.00000000000E+00 0. -1.
</event>
<event>
 5    1  0.1709463E-003  0.9118800E+02  0.7818608E-02  0.1130116E+00
         25   -1    0    0    0    0  0.00000000000E+00  0.00000000000E+00  0.99999998245E-14  0.12500000000E+03  0.12500000000E+03 0.  0.
        -13    1    3    3    0    0  0.28729049919E+02  0.25960526734E+02  0.43408075852E+02  0.58168543653E+02  0.10566000000E+00 0. -1.
         23    2    1    0    0    0  0.21754437901E+02 -0.18512164177E+01  0.22446106905E+02  0.93686899135E+02  0.88299064455E+02 0.  0.
         13    1    3    3    0    0 -0.69746120178E+01 -0.27811743152E+02 -0.20961968947E+02  0.35518355482E+02  0.10566000000E+00 0.  1.
         22    1    1    0    0    0 -0.21754437901E+02  0.18512164177E+01 -0.22446106905E+02  0.31313100865E+02  0.00000000000E+00 0. -1.
</event>
<event>
 5    1  0.1709463E-003  0.9118800E+02  0.7818608E-02  0.1130116E+00
         25   -1    0    0    0    0  0.00000000000E+00  0.00000000000E+00  0.99999998245E-14  0.12500000000E+03  0.12500000000E+03 0.  0.
        -13    1    3    3    0    0  0.23360498495E+02  0.23320217301E+02  0.30536979163E+02  0.44967362446E+02  0.10566000000E+00 0. -1.
         23    2    1    0    0    0 -0.22606016452E+02  0.94485285385E+01  0.18018620930E+02  0.94586559360E+02  0.89563607788E+02 0.  0.
         13    1    3    3    0    0 -0.45966514946E+02 -0.13871688763E+02 -0.12518358233E+02  0.49619196914E+02  0.10566000000E+00 0.  1.
         22    1    1    0    0    0  0.22606016452E+02 -0.94485285385E+01 -0.18018620930E+02  0.30413440640E+02  0.00000000000E+00 0. -1.
</event>
<event>
 5    1  0.1709463E-003  0.9118800E+02  0.7818608E-02  0.1130116E+00
         25   -1    0    0    0    0  0.00000000000E+00  0.00000000000E+00  0.99999998245E-14  0.12500000000E+03  0.12500000000E+03 0.  0.
        -13    1    3    3    0    0  0.20593306831E+02 -0.21461127477E+02  0.19878806339E+02  0.35774884826E+02  0.10566000000E+00 0.  1.
         23    2    1    0    0    0 -0.20542884096E+02  0.19440882853E+02  0.13033438871E+01  0.96686456980E+02  0.92447900165E+02 0.  0.
         13    1    3    3    0    0 -0.41136190926E+02  0.40902010330E+02 -0.18575462452E+02  0.60911572154E+02  0.10566000000E+00 0. -1.
         22    1    1    0    0    0  0.20542884096E+02 -0.19440882853E+02 -0.13033438871E+01  0.28313543020E+02  0.00000000000E+00 0. -1.
</event>
<event>
 5    1  0.1709463E-003  0.9118800E+02  0.7818608E-02  0.1130116E+00
         25   -1    0    0    0    0  0.00000000000E+00  0.00000000000E+00  0.99999998245E-14  0.12500000000E+03  0.12500000000E+03 0.  0.
        -13    1    3    3    0    0 -0.41955708306E+02  0.48109855445E+01 -0.21129372958E+01  0.42283598586E+02  0.10566000000E+00 0.  1.
         23    2    1    0    0    0  0.19594431765E+01 -0.36063985862E+01  0.28327740120E+02  0.96376471416E+02  0.92027810220E+02 0.  0.
         13    1    3    3    0    0  0.43915151483E+02 -0.84173841308E+01  0.30440677416E+02  0.54092872829E+02  0.10566000000E+00 0. -1.
         22    1    1    0    0    0 -0.19594431765E+01  0.36063985862E+01 -0.28327740120E+02  0.28623528584E+02  0.00000000000E+00 0. -1.
</event>
<event>
 5    1  0.1709463E-003  0.9118800E+02  0.7818608E-02  0.1130116E+00
         25   -1    0    0    0    0  0.00000000000E+00  0.00000000000E+00  0.99999998245E-14  0.12500000000E+03  0.12500000000E+03 0.  0.
        -13    1    3    3    0    0  0.34649798564E+02  0.40474949494E+02 -0.17423370204E+02  0.56057248152E+02  0.10566000000E+00 0. -1.
         23    2    1    0    0    0  0.20917512274E+02  0.16771367711E+02  0.11439553483E+02  0.95850652177E+02  0.91310804641E+02 0.  0.
         13    1    3    3    0    0 -0.13732286290E+02 -0.23703581783E+02  0.28862923687E+02  0.39793404025E+02  0.10566000000E+00 0.  1.
         22    1    1    0    0    0 -0.20917512274E+02 -0.16771367711E+02 -0.11439553483E+02  0.29149347823E+02  0.00000000000E+00 0. -1.
</event>
<event>
 5    1  0.1709463E-003  0.9118800E+02  0.7818608E-02  0.1130116E+00
         25   -1    0    0    0    0  0.00000000000E+00  0.00000000000E+00  0.99999998245E-14  0.12500000000E+03  0.12500000000E+03 0.  0.
        -13    1    3    3    0    0  0.70240151706E+00  0.23762823554E+02  0.22390881382E+02  0.32657738505E+02  0.10566000000E+00 0.  1.
         23    2    1    0    0    0  0.90913968620E+01 -0.24888704999E+02 -0.14966263703E+02  0.94568270133E+02  0.89538078678E+02 0.  0.
         13    1    3    3    0    0  0.83889953449E+01 -0.48651528554E+02 -0.37357145085E+02  0.61910531628E+02  0.10566000000E+00 0. -1.
         22    1    1    0    0    0 -0.90913968620E+01  0.24888704999E+02  0.14966263703E+02  0.30431729867E+02  0.00000000000E+00 0. -1.
</event>
<event>
 5    1  0.1709463E-003  0.9118800E+02  0.7818608E-02  0.1130116E+00
         25   -1    0    0    0    0  0.00000000000E+00  0.00000000000E+00  0.99999998245E-14  0.12500000000E+03  0.12500000000E+03 0.  0.
        -13    1    3    3    0    0 -0.60861026097E+02  0.11348351446E+01 -0.64060716395E+01  0.61207852979E+02  0.10566000000E+00 0.  1.
         23    2    1    0    0    0 -0.26264634558E+02  0.90494790836E+01 -0.53229811024E+01  0.96714699437E+02  0.92486079273E+02 0.  0.
         13    1    3    3    0    0  0.34596391540E+02  0.79146439390E+01  0.10830905371E+01  0.35506846458E+02  0.10566000000E+00 0. -1.
         22    1    1    0    0    0  0.26264634558E+02 -0.90494790836E+01  0.53229811024E+01  0.28285300563E+02  0.00000000000E+00 0.  1.
</event>
<event>
 5    1  0.1709463E-003  0.9118800E+02  0.7818608E-02  0.1130116E+00
         25   -1    0    0    0    0  0.00000000000E+00  0.00000000000E+00  0.99999998245E-14  0.12500000000E+03  0.12500000000E+03 0.  0.
        -13    1    3    3    0    0  0.23698961006E+02 -0.35916014900E+02 -0.33678023424E+02  0.54642669269E+02  0.10566000000E+00 0.  1.
         23    2    1    0    0    0  0.33662360804E+02 -0.12339199239E+02 -0.16067101412E+02  0.85711806856E+02  0.76177107546E+02 0.  0.
         13    1    3    3    0    0  0.99633997977E+01  0.23576815661E+02  0.17610922013E+02  0.31069137587E+02  0.10566000000E+00 0. -1.
         22    1    1    0    0    0 -0.33662360804E+02  0.12339199239E+02  0.16067101412E+02  0.39288193144E+02  0.00000000000E+00 0.  1.
</event>
<event>
 5    1  0.1709463E-003  0.9118800E+02  0.7818608E-02  0.1130116E+00
         25   -1    0    0    0    0  0.00000000000E+00  0.00000000000E+00  0.99999998245E-14  0.12500000000E+03  0.12500000000E+03 0.  0.
        -13    1    3    3    0    0  0.14319647331E+02  0.26791959892E+02  0.22614896367E+02  0.37872234107E+02  0.10566000000E+00 0.  1.
         23    2    1    0    0    0 -0.17496178376E+01  0.79705835039E+01 -0.28871317129E+02  0.94997594818E+02  0.90135446437E+02 0.  0.
         13    1    3    3    0    0 -0.16069265169E+02 -0.18821376388E+02 -0.51486213496E+02  0.57125360711E+02  0.10566000000E+00 0. -1.
         22    1    1    0    0    0  0.17496178376E+01 -0.79705835039E+01  0.28871317129E+02  0.30002405182E+02  0.00000000000E+00 0. -1.
</event>
<event>
 5    1  0.1709463E-003  0.9118800E+02  0.7818608E-02  0.1130116E+00
         25   -1    0    0    0    0  0.00000000000E+00  0.00000000000E+00  0.99999998245E-14  0.12500000000E+03  0.12500000000E+03 0.  0.
        -13    1    3    3    0    0  0.25391767999E+02  0.12373250431E+02 -0.22163513391E+02  0.35903644637E+02  0.10566000000E+00 0.  1.
         23    2    1    0    0    0  0.38403330609E+01 -0.23068100799E+02  0.19393282865E+02  0.94619334227E+02  0.89609338558E+02 0.  0.
         13    1    3    3    0    0 -0.21551434938E+02 -0.35441351230E+02  0.41556796256E+02  0.58715689590E+02  0.10566000000E+00 0. -1.
         22    1    1    0    0    0 -0.38403330609E+01  0.23068100799E+02 -0.19393282865E+02  0.30380665773E+02  0.00000000000E+00 0. -1.
</event>
<event>
 5    1  0.1709463E-003  0.9118800E+02  0.7818608E-02  0.1130116E+00
         25   -1    0    0    0    0  0.00000000000E+00  0.00000000000E+00  0.99999998245E-14  0.12500000000E+03  0.12500000000E+03 0.  0.
        -13    1    3    3    0    0  0.91934034280E+01 -0.31927688767E+02 -0.55087093513E+01  0.33678673064E+02  0.10566000000E+00 0.  1.
         23    2    1    0    0    0 -0.12552202779E+02  0.26206642609E+02 -0.28311263026E+01  0.95804774575E+02  0.91247978848E+02 0.  0.
         13    1    3    3    0    0 -0.21745606207E+02  0.58134331377E+02  0.26775830486E+01  0.62126101511E+02  0.10566000000E+00 0. -1.
         22    1    1    0    0    0  0.12552202779E+02 -0.26206642609E+02  0.28311263026E+01  0.29195225425E+02  0.00000000000E+00 0. -1.
</event>
<event>
 5    1  0.1709463E-003  0.9118800E+02  0.7818608E-02  0.1130116E+00
         25   -1    0    0    0    0  0.00000000000E+00  0.00000000000E+00  0.99999998245E-14  0.12500000000E+03  0.12500000000E+03 0.  0.
        -13    1    3    3    0    0 -0.33459146231E+02  0.74049423812E+01 -0.22706442694E+02  0.41108896142E+02  0.10566000000E+00 0. -1.
         23    2    1    0    0    0  0.73527070708E+01 -0.26157495372E+02 -0.13180573858E+02  0.94800589531E+02  0.89861823834E+02 0.  0.
         13    1    3    3    0    0  0.40811853302E+02 -0.33562437754E+02  0.95258688362E+01  0.53691693389E+02  0.10566000000E+00 0.  1.
         22    1    1    0    0    0 -0.73527070708E+01  0.26157495372E+02  0.13180573858E+02  0.30199410469E+02  0.00000000000E+00 0.  1.
</event>
<event>
 5    1  0.1709463E-003  0.9118800E+02  0.7818608E-02  0.1130116E+00
         25   -1    0    0    0    0  0.00000000000E+00  0.00000000000E+00  0.99999998245E-14  0.12500000000E+03  0.12500000000E+03 0.  0.
        -13    1    3    3    0    0 -0.43842174717E+02 -0.39678363465E+01  0.10719423641E+01  0.44034534558E+02  0.10566000000E+00 0.  1.
         23    2    1    0    0    0 -0.19341775084E+00 -0.27077159851E+02 -0.12385383396E+02  0.95224041277E+02  0.90448937635E+02 0.  0.
         13    1    3    3    0    0  0.43648756967E+02 -0.23109323504E+02 -0.13457325760E+02  0.51189506720E+02  0.10566000000E+00 0. -1.
         22    1    1    0    0    0  0.19341775084E+00  0.27077159851E+02  0.12385383396E+02  0.29775958723E+02  0.00000000000E+00 0. -1.
</event>
<event>
 5    1  0.1709463E-003  0.9118800E+02  0.7818608E-02  0.1130116E+00
         25   -1    0    0    0    0  0.00000000000E+00  0.00000000000E+00  0.99999998245E-14  0.12500000000E+03  0.12500000000E+03 0.  0.
        -13    1    3    3    0    0  0.69043457003E+01  0.34570085217E+02 -0.17721233277E+02  0.39456483046E+02  0.10566000000E+00 0.  1.
         23    2    1    0    0    0  0.12147003693E+01  0.18294775508E+01  0.28517468291E+02  0.96398103510E+02  0.92057188082E+02 0.  0.
         13    1    3    3    0    0 -0.56896453311E+01 -0.32740607667E+02  0.46238701568E+02  0.56941620464E+02  0.10566000000E+00 0. -1.
         22    1    1    0    0    0 -0.12147003693E+01 -0.18294775508E+01 -0.28517468291E+02  0.28601896490E+02  0.00000000000E+00 0. -1.
</event>
<event>
 5    1  0.1709463E-003  0.9118800E+02  0.7818608E-02  0.1130116E+00
         25   -1    0    0    0    0  0.00000000000E+00  0.00000000000E+00  0.99999998245E-14  0.12500000000E+03  0.12500000000E+03 0.  0.
        -13    1    3    3    0    0 -0.47698355059E+02 -0.11652580799E+02 -0.55940615029E+01  0.49418826400E+02  0.10566000000E+00 0.  1.
         23    2    1    0    0    0 -0.38190648254E+02 -0.33569058986E+02  0.78887688323E+00  0.74146979814E+02  0.53960587038E+02 0.  0.
         13    1    3    3    0    0  0.95077068044E+01 -0.21916478187E+02  0.63829383861E+01  0.24728153414E+02  0.10566000000E+00 0. -1.
         22    1    1    0    0    0  0.38190648254E+02  0.33569058986E+02 -0.78887688323E+00  0.50853020186E+02  0.00000000000E+00 0.  1.
</event>
<event>
 5    1  0.1709463E-003  0.9118800E+02  0.7818608E-02  0.1130116E+00
         25   -1    0    0    0    0  0.00000000000E+00  0.00000000000E+00  0.99999998245E-14  0.12500000000E+03  0.12500000000E+03 0.  0.
        -13    1    3    3    0    0 -0.24186880405E+01  0.34001213062E+02  0.49384654371E+02  0.60006564582E+02  0.10566000000E+00 0. -1.
         23    2    1    0    0    0 -0.13376594914E+02  0.15449976574E+02  0.20377147110E+02  0.96140630776E+02  0.91706911921E+02 0.  0.
         13    1    3    3    0    0 -0.10957906873E+02 -0.18551236488E+02 -0.29007507261E+02  0.36134066195E+02  0.10566000000E+00 0.  1.
         22    1    1    0    0    0  0.13376594914E+02 -0.15449976574E+02 -0.20377147110E+02  0.28859369224E+02  0.00000000000E+00 0. -1.
</event>
<event>
 5    1  0.1709463E-003  0.9118800E+02  0.7818608E-02  0.1130116E+00
         25   -1    0    0    0    0  0.00000000000E+00  0.00000000000E+00  0.99999998245E-14  0.12500000000E+03  0.12500000000E+03 0.  0.
        -13    1    3    3    0    0  0.36782296977E+02 -0.96261486535E+01 -0.16833085604E+02  0.41580813409E+02  0.10566000000E+00 0.  1.
         23    2    1    0    0    0  0.12730638770E+02  0.31389939894E+02 -0.35996930002E+01  0.90936011981E+02  0.84314903755E+02 0.  0.
         13    1    3    3    0    0 -0.24051658206E+02  0.41016088548E+02  0.13233392604E+02  0.49355198572E+02  0.10566000000E+00 0. -1.
         22    1    1    0    0    0 -0.12730638770E+02 -0.31389939894E+02  0.35996930002E+01  0.34063988019E+02  0.00000000000E+00 0.  1.
</event>
<event>
 5    1  0.1709463E-003  0.9118800E+02  0.7818608E-02  0.1130116E+00
         25   -1    0    0    0    0  0.00000000000E+00  0.00000000000E+00  0.99999998245E-14  0.12500000000E+03  0.12500000000E+03 0.  0.
        -13    1    3    3    0    0 -0.15697972257E+02  0.24272477085E+02 -0.34908355547E+02  0.45323105894E+02  0.10566000000E+00 0. -1.
         23    2    1    0    0    0  0.25760428914E+02  0.10013432974E+02 -0.11067044858E+02  0.95228402467E+02  0.90454964578E+02 0.  0.
         13    1    3    3    0    0  0.41458401171E+02 -0.14259044112E+02  0.23841310689E+02  0.49905296573E+02  0.10566000000E+00 0.  1.
         22    1    1    0    0    0 -0.25760428914E+02 -0.10013432974E+02  0.11067044858E+02  0.29771597533E+02  0.00000000000E+00 0. -1.
</event>
<event>
 5    1  0.1709463E-003  0.9118800E+02  0.7818608E-02  0.1130116E+00
         25   -1    0    0    0    0  0.00000000000E+00  0.00000000000E+00  0.99999998245E-14  0.12500000000E+03  0.12500000000E+03 0.  0.
        -13    1    3    3    0    0 -0.17710394477E+02  0.34662141951E+02  0.44156657688E+02  0.58863772724E+02  0.10566000000E+00 0.  1.
         23    2    1    0    0    0  0.54881148511E+01  0.15295551831E+02  0.26643996057E+02  0.93791414061E+02  0.88446896584E+02 0.  0.
         13    1    3    3    0    0  0.23198509328E+02 -0.19366590120E+02 -0.17512661631E+02  0.34927641337E+02  0.10566000000E+00 0. -1.
         22    1    1    0    0    0 -0.54881148511E+01 -0.15295551831E+02 -0.26643996057E+02  0.31208585939E+02  0.00000000000E+00 0.  1.
</event>
<event>
 5    1  0.1709463E-003  0.9118800E+02  0.7818608E-02  0.1130116E+00
         25   -1    0    0    0    0  0.00000000000E+00  0.00000000000E+00  0.99999998245E-14  0.12500000000E+03  0.12500000000E+03 0.  0.
        -13    1    3    3    0    0 -0.10860825887E+02 -0.31302992702E+02  0.71785917650E+01  0.33902481248E+02  0.10566000000E+00 0. -1.
         23    2    1    0    0    0 -0.36100766294E+01  0.29228525146E+02  0.63506814727E+01  0.94872429725E+02  0.89961699802E+02 0.  0.
         13    1    3    3    0    0  0.72507492580E+01  0.60531517848E+02 -0.82791029231E+00  0.60969948477E+02  0.10566000000E+00 0.  1.
         22    1    1    0    0    0  0.36100766294E+01 -0.29228525146E+02 -0.63506814727E+01  0.30127570275E+02  0.00000000000E+00 0.  1.
</event>
<event>
 5    1  0.1709463E-003  0.9118800E+02  0.7818608E-02  0.1130116E+00
         25   -1    0    0    0    0  0.00000000000E+00  0.00000000000E+00  0.99999998245E-14  0.12500000000E+03  0.12500000000E+03 0.  0.
        -13    1    3    3    0    0 -0.18096103276E+02  0.51669013131E+02 -0.68188769657E+00  0.54750634759E+02  0.10566000000E+00 0.  1.
         23    2    1    0    0    0 -0.26592459977E+02  0.13077604126E+02  0.58256604731E+01  0.94798659347E+02  0.89859138860E+02 0.  0.
         13    1    3    3    0    0 -0.84963567005E+01 -0.38591409004E+02  0.65075481697E+01  0.40048024587E+02  0.10566000000E+00 0. -1.
         22    1    1    0    0    0  0.26592459977E+02 -0.13077604126E+02 -0.58256604731E+01  0.30201340653E+02  0.00000000000E+00 0.  1.
</event>
<event>
 5    1  0.1709463E-003  0.9118800E+02  0.7818608E-02  0.1130116E+00
         25   -1    0    0    0    0  0.00000000000E+00  0.00000000000E+00  0.99999998245E-14  0.12500000000E+03  0.12500000000E+03 0.  0.
        -13    1    3    3    0    0  0.20326636358E+02  0.27107706920E+02  0.86424622595E+01  0.34967173722E+02  0.10566000000E+00 0.  1.
         23    2    1    0    0    0 -0.17769735125E+02 -0.65184988869E+01 -0.23295314264E+02  0.94984570954E+02  0.90117383109E+02 0.  0.
         13    1    3    3    0    0 -0.38096371483E+02 -0.33626205807E+02 -0.31937776524E+02  0.60017397232E+02  0.10566000000E+00 0. -1.
         22    1    1    0    0    0  0.17769735125E+02  0.65184988869E+01  0.23295314264E+02  0.30015429046E+02  0.00000000000E+00 0. -1.
</event>
<event>
 5    1  0.1709463E-003  0.9118800E+02  0.7818608E-02  0.1130116E+00
         25   -1    0    0    0    0  0.00000000000E+00  0.00000000000E+00  0.99999998245E-14  0.12500000000E+03  0.12500000000E+03 0.  0.
        -13    1    3    3    0    0  0.11567101218E+02 -0.35398157562E+02  0.10985321385E+02  0.38826741292E+02  0.10566000000E+00 0.  1.
         23    2    1    0    0    0  0.13456874316E+01  0.49970170506E+01 -0.28381573928E+02  0.96150480200E+02  0.91720336077E+02 0.  0.
         13    1    3    3    0    0 -0.10221413787E+02  0.40395174613E+02 -0.39366895312E+02  0.57323738908E+02  0.10566000000E+00 0. -1.
         22    1    1    0    0    0 -0.13456874316E+01 -0.49970170506E+01  0.28381573928E+02  0.28849519800E+02  0.00000000000E+00 0. -1.
</event>
<event>
 5    1  0.1709463E-003  0.9118800E+02  0.7818608E-02  0.1130116E+00
         25   -1    0    0    0    0  0.00000000000E+00  0.00000000000E+00  0.99999998245E-14  0.12500000000E+03  0.12500000000E+03 0.  0.
        -13    1    3    3    0    0  0.27823353079E+02  0.13290266871E+02  0.25225803102E+02  0.39838705755E+02  0.10566000000E+00 0.  1.
         23    2    1    0    0    0 -0.17544333003E+02 -0.17238814196E+02  0.16912130536E+02  0.95150368601E+02  0.90347064979E+02 0.  0.
         13    1    3    3    0    0 -0.45367686082E+02 -0.30529081068E+02 -0.83136725659E+01  0.55311662846E+02  0.10566000000E+00 0. -1.
         22    1    1    0    0    0  0.17544333003E+02  0.17238814196E+02 -0.16912130536E+02  0.29849631399E+02  0.00000000000E+00 0.  1.
</event>
<event>
 5    1  0.1709463E-003  0.9118800E+02  0.7818608E-02  0.1130116E+00
         25   -1    0    0    0    0  0.00000000000E+00  0.00000000000E+00  0.99999998245E-14  0.12500000000E+03  0.12500000000E+03 0.  0.
        -13    1    3    3    0    0  0.34505406075E+02  0.11872579653E+02  0.36692916498E+02  0.51749033626E+02  0.10566000000E+00 0. -1.
         23    2    1    0    0    0  0.18263026712E+02 -0.20303409315E+02  0.14436317449E+02  0.94110295631E+02  0.88896422356E+02 0.  0.
         13    1    3    3    0    0 -0.16242379363E+02 -0.32175988968E+02 -0.22256599049E+02  0.42361262005E+02  0.10566000000E+00 0.  1.
         22    1    1    0    0    0 -0.18263026712E+02  0.20303409315E+02 -0.14436317449E+02  0.30889704369E+02  0.00000000000E+00 0. -1.
</event>
<event>
 5    1  0.1709463E-003  0.9118800E+02  0.7818608E-02  0.1130116E+00
         25   -1    0    0    0    0  0.00000000000E+00  0.00000000000E+00  0.99999998245E-14  0.12500000000E+03  0.12500000000E+03 0.  0.
        -13    1    3    3    0    0 -0.53798956019E+02  0.28397806057E+02  0.51742452362E+00  0.60836189474E+02  0.10566000000E+00 0. -1.
         23    2    1    0    0    0 -0.29685673640E+02  0.47665949191E+01  0.35050507834E+01  0.94730460400E+02  0.89764219486E+02 0.  0.
         13    1    3    3    0    0  0.24113282378E+02 -0.23631211138E+02  0.29876262598E+01  0.33894270926E+02  0.10566000000E+00 0.  1.
         22    1    1    0    0    0  0.29685673640E+02 -0.47665949191E+01 -0.35050507834E+01  0.30269539600E+02  0.00000000000E+00 0. -1.
</event>
<event>
 5    1  0.1709463E-003  0.9118800E+02  0.7818608E-02  0.1130116E+00
         25   -1    0    0    0    0  0.00000000000E+00  0.00000000000E+00  0.99999998245E-14  0.12500000000E+03  0.12500000000E+03 0.  0.
        -13    1    3    3    0    0 -0.27510618557E+02 -0.22502363205E+02 -0.46210657811E+02  0.58297740458E+02  0.10566000000E+00 0.  1.
         23    2    1    0    0    0 -0.56739989729E+01 -0.23916148772E+02 -0.15738513526E+02  0.95813063805E+02  0.91259333502E+02 0.  0.
         13    1    3    3    0    0  0.21836619584E+02 -0.14137855676E+01  0.30472144285E+02  0.37515323347E+02  0.10566000000E+00 0. -1.
         22    1    1    0    0    0  0.56739989729E+01  0.23916148772E+02  0.15738513526E+02  0.29186936195E+02  0.00000000000E+00 0.  1.
</event>
<event>
 5    1  0.1709463E-003  0.9118800E+02  0.7818608E-02  0.1130116E+00
         25   -1    0    0    0    0  0.00000000000E+00  0.00000000000E+00  0.99999998245E-14  0.12500000000E+03  0.12500000000E+03 0.  0.
        -13    1    3    3    0    0  0.56583800805E+02 -0.17165269523E+02  0.10485020208E+02  0.60052641941E+02  0.10566000000E+00 0.  1.
         23    2    1    0    0    0  0.24210016737E+02 -0.32301925514E+01 -0.72681212968E+01  0.99516973463E+02  0.96198977987E+02 0.  0.
         13    1    3    3    0    0 -0.32373784068E+02  0.13935076971E+02 -0.17753141505E+02  0.39464331521E+02  0.10566000000E+00 0. -1.
         22    1    1    0    0    0 -0.24210016737E+02  0.32301925514E+01  0.72681212968E+01  0.25483026537E+02  0.00000000000E+00 0.  1.
</event>
<event>
 5    1  0.1709463E-003  0.9118800E+02  0.7818608E-02  0.1130116E+00
         25   -1    0    0    0    0  0.00000000000E+00  0.00000000000E+00  0.99999998245E-14  0.12500000000E+03  0.12500000000E+03 0.  0.
        -13    1    3    3    0    0 -0.36214701696E+02 -0.46117195474E+02 -0.93785480845E+01  0.59382393565E+02  0.10566000000E+00 0.  1.
         23    2    1    0    0    0 -0.43848325951E+01 -0.27954849028E+02 -0.40937137590E+01  0.96408762996E+02  0.92071660944E+02 0.  0.
         13    1    3    3    0    0  0.31829869101E+02  0.18162346446E+02  0.52848343255E+01  0.37026369431E+02  0.10566000000E+00 0. -1.
         22    1    1    0    0    0  0.43848325951E+01  0.27954849028E+02  0.40937137590E+01  0.28591237004E+02  0.00000000000E+00 0.  1.
</event>
<event>
 5    1  0.1709463E-003  0.9118800E+02  0.7818608E-02  0.1130116E+00
         25   -1    0    0    0    0  0.00000000000E+00  0.00000000000E+00  0.99999998245E-14  0.12500000000E+03  0.12500000000E+03 0.  0.
        -13    1    3    3    0    0  0.32561912579E+02 -0.23233664736E+02  0.41048663129E+02  0.57315663100E+02  0.10566000000E+00 0. -1.
         23    2    1    0    0    0  0.14657794072E+02 -0.24039977590E+02  0.67021735240E+01  0.96057115217E+02  0.91593006307E+02 0.  0.
         13    1    3    3    0    0 -0.17904118506E+02 -0.80631285467E+00 -0.34346489605E+02  0.38741452117E+02  0.10566000000E+00 0.  1.
         22    1    1    0    0    0 -0.14657794072E+02  0.24039977590E+02 -0.67021735240E+01  0.28942884783E+02  0.00000000000E+00 0. -1.
</event>
<event>
 5    1  0.1709463E-003  0.9118800E+02  0.7818608E-02  0.1130116E+00
         25   -1    0    0    0    0  0.00000000000E+00  0.00000000000E+00  0.99999998245E-14  0.12500000000E+03  0.12500000000E+03 0.  0.
        -13    1    3    3    0    0  0.50077636763E+02 -0.30347927932E+02 -0.12751782367E+02  0.59928169929E+02  0.10566000000E+00 0.  1.
         23    2    1    0    0    0  0.16996732144E+02 -0.22340715374E+02  0.16371286127E+01  0.96881026742E+02  0.92710607189E+02 0.  0.
         13    1    3    3    0    0 -0.33080904620E+02  0.80072125571E+01  0.14388910980E+02  0.36952856812E+02  0.10566000000E+00 0. -1.
         22    1    1    0    0    0 -0.16996732144E+02  0.22340715374E+02 -0.16371286127E+01  0.28118973258E+02  0.00000000000E+00 0.  1.
</event>
<event>
 5    1  0.1709463E-003  0.9118800E+02  0.7818608E-02  0.1130116E+00
         25   -1    0    0    0    0  0.00000000000E+00  0.00000000000E+00  0.99999998245E-14  0.12500000000E+03  0.12500000000E+03 0.  0.
        -13    1    3    3    0    0  0.45441831743E+01  0.47149420161E+02 -0.33267918738E+01  0.47484693644E+02  0.10566000000E+00 0. -1.
         23    2    1    0    0    0 -0.24144040398E+01  0.82802743248E+01 -0.29106622275E+02  0.94642336223E+02  0.89641419308E+02 0.  0.
         13    1    3    3    0    0 -0.69585872141E+01 -0.38869145836E+02 -0.25779830401E+02  0.47157642579E+02  0.10566000000E+00 0.  1.
         22    1    1    0    0    0  0.24144040398E+01 -0.82802743248E+01  0.29106622275E+02  0.30357663777E+02  0.00000000000E+00 0. -1.
</event>
<event>
 5    1  0.1709463E-003  0.9118800E+02  0.7818608E-02  0.1130116E+00
         25   -1    0    0    0    0  0.00000000000E+00  0.00000000000E+00  0.99999998245E-14  0.12500000000E+03  0.12500000000E+03 0.  0.
        -13    1    3    3    0    0  0.18292171272E+02  0.12174515885E+02  0.43609240488E+02  0.48832360038E+02  0.10566000000E+00 0. -1.
         23    2    1    0    0    0  0.43355751228E+01 -0.23618248191E+02  0.17649488523E+02  0.95198602309E+02  0.90413774267E+02 0.  0.
         13    1    3    3    0    0 -0.13956596149E+02 -0.35792764075E+02 -0.25959751965E+02  0.46366242271E+02  0.10566000000E+00 0.  1.
         22    1    1    0    0    0 -0.43355751228E+01  0.23618248191E+02 -0.17649488523E+02  0.29801397691E+02  0.00000000000E+00 0. -1.
</event>
<event>
 5    1  0.1709463E-003  0.9118800E+02  0.7818608E-02  0.1130116E+00
         25   -1    0    0    0    0  0.00000000000E+00  0.00000000000E+00  0.99999998245E-14  0.12500000000E+03  0.12500000000E+03 0.  0.
        -13    1    3    3    0    0 -0.39670422464E+02  0.16239892225E+01  0.29593040887E+02  0.49519077056E+02  0.10566000000E+00 0. -1.
         23    2    1    0    0    0 -0.59352770869E+01  0.26695975454E+02  0.13180689608E+02  0.94641587688E+02  0.89640375512E+02 0.  0.
         13    1    3    3    0    0  0.33735145377E+02  0.25071986232E+02 -0.16412351279E+02  0.45122510632E+02  0.10566000000E+00 0.  1.
         22    1    1    0    0    0  0.59352770869E+01 -0.26695975454E+02 -0.13180689608E+02  0.30358412312E+02  0.00000000000E+00 0. -1.
</event>
<event>
 5    1  0.1709463E-003  0.9118800E+02  0.7818608E-02  0.1130116E+00
         25   -1    0    0    0    0  0.00000000000E+00  0.00000000000E+00  0.99999998245E-14  0.12500000000E+03  0.12500000000E+03 0.  0.
        -13    1    3    3    0    0  0.26401199568E+02 -0.26160904921E+02 -0.14041183097E+02  0.39731376413E+02  0.10566000000E+00 0.  1.
         23    2    1    0    0    0  0.11015700513E+01  0.23614343136E+02 -0.17367025458E+02  0.95666329388E+02  0.91058126199E+02 0.  0.
         13    1    3    3    0    0 -0.25299629517E+02  0.49775248057E+02 -0.33258423616E+01  0.55934952974E+02  0.10566000000E+00 0. -1.
         22    1    1    0    0    0 -0.11015700513E+01 -0.23614343136E+02  0.17367025458E+02  0.29333670612E+02  0.00000000000E+00 0. -1.
</event>
<event>
 5    1  0.1709463E-003  0.9118800E+02  0.7818608E-02  0.1130116E+00
         25   -1    0    0    0    0  0.00000000000E+00  0.00000000000E+00  0.99999998245E-14  0.12500000000E+03  0.12500000000E+03 0.  0.
        -13    1    3    3    0    0 -0.14091955057E+02 -0.53521137813E+02  0.14727479244E+02  0.57271329642E+02  0.10566000000E+00 0.  1.
         23    2    1    0    0    0 -0.21263915124E+02 -0.15178701770E+02  0.11633173706E+02  0.96401437024E+02  0.92061714388E+02 0.  0.
         13    1    3    3    0    0 -0.71719600670E+01  0.38342436043E+02 -0.30943055382E+01  0.39130107382E+02  0.10566000000E+00 0. -1.
         22    1    1    0    0    0  0.21263915124E+02  0.15178701770E+02 -0.11633173706E+02  0.28598562976E+02  0.00000000000E+00 0.  1.
</event>
<event>
 5    1  0.1709463E-003  0.9118800E+02  0.7818608E-02  0.1130116E+00
         25   -1    0    0    0    0  0.00000000000E+00  0.00000000000E+00  0.99999998245E-14  0.12500000000E+03  0.12500000000E+03 0.  0.
        -13    1    3    3    0    0  0.45172197986E+01  0.45317074906E+02  0.28786615710E+02  0.53876924196E+02  0.10566000000E+00 0. -1.
         23    2    1    0    0    0  0.23552156012E+02  0.13808334834E+02  0.64116434720E+01  0.96955689780E+02  0.92811219392E+02 0.  0.
         13    1    3    3    0    0  0.19034936214E+02 -0.31508740072E+02 -0.22374972238E+02  0.43078765584E+02  0.10566000000E+00 0.  1.
         22    1    1    0    0    0 -0.23552156012E+02 -0.13808334834E+02 -0.64116434720E+01  0.28044310220E+02  0.00000000000E+00 0. -1.
</event>
<event>
 5    1  0.1709463E-003  0.9118800E+02  0.7818608E-02  0.1130116E+00
         25   -1    0    0    0    0  0.00000000000E+00  0.00000000000E+00  0.99999998245E-14  0.12500000000E+03  0.12500000000E+03 0.  0.
        -13    1    3    3    0    0  0.21105064901E+02 -0.36664164910E+02 -0.11694715662E+02  0.43891483131E+02  0.10566000000E+00 0. -1.
         23    2    1    0    0    0  0.19170498447E+02  0.14021936129E+02 -0.18264250263E+02  0.95038265384E+02  0.90191830816E+02 0.  0.
         13    1    3    3    0    0 -0.19345664532E+01  0.50686101039E+02 -0.65695346011E+01  0.51146782253E+02  0.10566000000E+00 0.  1.
         22    1    1    0    0    0 -0.19170498447E+02 -0.14021936129E+02  0.18264250263E+02  0.29961734616E+02  0.00000000000E+00 0.  1.
</event>
<event>
 5    1  0.1709463E-003  0.9118800E+02  0.7818608E-02  0.1130116E+00
         25   -1    0    0    0    0  0.00000000000E+00  0.00000000000E+00  0.99999998245E-14  0.12500000000E+03  0.12500000000E+03 0.  0.
        -13    1    3    3    0    0  0.37655140383E+02  0.21940995323E+02 -0.16321822908E+02  0.46537403668E+02  0.10566000000E+00 0.  1.
         23    2    1    0    0    0 -0.63740260801E+01  0.27118146762E+02  0.64929311657E+01  0.96396149781E+02  0.92054535169E+02 0.  0.
         13    1    3    3    0    0 -0.44029166463E+02  0.51771514387E+01  0.22814754074E+02  0.49858746113E+02  0.10566000000E+00 0. -1.
         22    1    1    0    0    0  0.63740260801E+01 -0.27118146762E+02 -0.64929311657E+01  0.28603850219E+02  0.00000000000E+00 0. -1.
</event>
<event>
 5    1  0.1709463E-003  0.9118800E+02  0.7818608E-02  0.1130116E+00
         25   -1    0    0    0    0  0.00000000000E+00  0.00000000000E+00  0.99999998245E-14  0.12500000000E+03  0.12500000000E+03 0.  0.
        -13    1    3    3    0    0  0.20644284533E+02  0.29088042981E+02 -0.25429044517E+02  0.43805800956E+02  0.10566000000E+00 0.  1.
         23    2    1    0    0    0 -0.15383075717E+02 -0.56446490119E+01 -0.26479881248E+02  0.93860231345E+02  0.88544101081E+02 0.  0.
         13    1    3    3    0    0 -0.36027360250E+02 -0.34732691993E+02 -0.10508367313E+01  0.50054430389E+02  0.10566000000E+00 0. -1.
         22    1    1    0    0    0  0.15383075717E+02  0.56446490119E+01  0.26479881248E+02  0.31139768655E+02  0.00000000000E+00 0. -1.
</event>
<event>
 5    1  0.1709463E-003  0.9118800E+02  0.7818608E-02  0.1130116E+00
         25   -1    0    0    0    0  0.00000000000E+00  0.00000000000E+00  0.99999998245E-14  0.12500000000E+03  0.12500000000E+03 0.  0.
        -13    1    3    3    0    0  0.40188402295E+01 -0.57365361812E+02  0.24564728072E+01  0.57558502719E+02  0.10566000000E+00 0.  1.
         23    2    1    0    0    0 -0.77745370837E+01 -0.23392296911E+02  0.15578289744E+02  0.95839648614E+02  0.91295740062E+02 0.  0.
         13    1    3    3    0    0 -0.11793377313E+02  0.33973064901E+02  0.13121816937E+02  0.38281145894E+02  0.10566000000E+00 0. -1.
         22    1    1    0    0    0  0.77745370837E+01  0.23392296911E+02 -0.15578289744E+02  0.29160351386E+02  0.00000000000E+00 0.  1.
</event>
<event>
 5    1  0.1709463E-003  0.9118800E+02  0.7818608E-02  0.1130116E+00
         25   -1    0    0    0    0  0.00000000000E+00  0.00000000000E+00  0.99999998245E-14  0.12500000000E+03  0.12500000000E+03 0.  0.
        -13    1    3    3    0    0  0.28153289587E+02  0.36222315904E+02  0.18284007712E+02  0.49386030272E+02  0.10566000000E+00 0.  1.
         23    2    1    0    0    0  0.12769551500E+02  0.19238094426E+02 -0.20295333533E+02  0.94258069581E+02  0.89103969582E+02 0.  0.
         13    1    3    3    0    0 -0.15383738087E+02 -0.16984221478E+02 -0.38579341245E+02  0.44872039309E+02  0.10566000000E+00 0. -1.
         22    1    1    0    0    0 -0.12769551500E+02 -0.19238094426E+02  0.20295333533E+02  0.30741930419E+02  0.00000000000E+00 0.  1.
</event>
<event>
 5    1  0.1709463E-003  0.9118800E+02  0.7818608E-02  0.1130116E+00
         25   -1    0    0    0    0  0.00000000000E+00  0.00000000000E+00  0.99999998245E-14  0.12500000000E+03  0.12500000000E+03 0.  0.
        -13    1    3    3    0    0 -0.31747029553E+02  0.33052431384E+02 -0.21660148906E+01  0.45880713708E+02  0.10566000000E+00 0.  1.
         23    2    1    0    0    0 -0.14177028003E+02 -0.54266739145E+01 -0.26337841564E+02  0.94600677458E+02  0.89583309632E+02 0.  0.
         13    1    3    3    0    0  0.17570001550E+02 -0.38479105299E+02 -0.24171826673E+02  0.48719963750E+02  0.10566000000E+00 0. -1.
         22    1    1    0    0    0  0.14177028003E+02  0.54266739145E+01  0.26337841564E+02  0.30399322542E+02  0.00000000000E+00 0.  1.
</event>
<event>
 5    1  0.1709463E-003  0.9118800E+02  0.7818608E-02  0.1130116E+00
         25   -1    0    0    0    0  0.00000000000E+00  0.00000000000E+00  0.99999998245E-14  0.12500000000E+03  0.12500000000E+03 0.  0.
        -13    1    3    3    0    0  0.24591989255E+02 -0.10678102001E+02  0.48902635025E+01  0.27252773052E+02  0.10566000000E+00 0.  1.
         23    2    1    0    0    0 -0.21937541971E+02 -0.29414116628E+02  0.24247355790E+02  0.81018409903E+02  0.68041182203E+02 0.  0.
         13    1    3    3    0    0 -0.46529531225E+02 -0.18736014626E+02  0.19357092287E+02  0.53765636851E+02  0.10566000000E+00 0. -1.
         22    1    1    0    0    0  0.21937541971E+02  0.29414116628E+02 -0.24247355790E+02  0.43981590097E+02  0.00000000000E+00 0. -1.
</event>
<event>
 5    1  0.1709463E-003  0.9118800E+02  0.7818608E-02  0.1130116E+00
         25   -1    0    0    0    0  0.00000000000E+00  0.00000000000E+00  0.99999998245E-14  0.12500000000E+03  0.12500000000E+03 0.  0.
        -13    1    3    3    0    0 -0.54881102723E+01 -0.32226189066E+02  0.23398545515E+02  0.40201364558E+02  0.10566000000E+00 0. -1.
         23    2    1    0    0    0  0.28385487176E+02  0.56143423591E+01  0.13202249259E+00  0.96064310060E+02  0.91602824820E+02 0.  0.
         13    1    3    3    0    0  0.33873597448E+02  0.37840531425E+02 -0.23266523023E+02  0.55862945502E+02  0.10566000000E+00 0.  1.
         22    1    1    0    0    0 -0.28385487176E+02 -0.56143423591E+01 -0.13202249259E+00  0.28935689940E+02  0.00000000000E+00 0.  1.
</event>
<event>
 5    1  0.1709463E-003  0.9118800E+02  0.7818608E-02  0.1130116E+00
         25   -1    0    0    0    0  0.00000000000E+00  0.00000000000E+00  0.99999998245E-14  0.12500000000E+03  0.12500000000E+03 0.  0.
        -13    1    3    3    0    0 -0.21599454238E+02  0.23979433022E+02 -0.52527645130E+02  0.61649933482E+02  0.10566000000E+00 0. -1.
         23    2    1    0    0    0 -0.16451192406E+02  0.79413998264E+01 -0.23193499721E+02  0.95476348598E+02  0.90796955618E+02 0.  0.
         13    1    3    3    0    0  0.51482618315E+01 -0.16038033195E+02  0.29334145409E+02  0.33826415116E+02  0.10566000000E+00 0.  1.
         22    1    1    0    0    0  0.16451192406E+02 -0.79413998264E+01  0.23193499721E+02  0.29523651402E+02  0.00000000000E+00 0. -1.
</event>
<event>
 5    1  0.1709463E-003  0.9118800E+02  0.7818608E-02  0.1130116E+00
         25   -1    0    0    0    0  0.00000000000E+00  0.00000000000E+00  0.99999998245E-14  0.12500000000E+03  0.12500000000E+03 0.  0.
        -13    1    3    3    0    0 -0.39182653830E+02 -0.24197075716E+02 -0.84237420589E+01  0.46816123597E+02  0.10566000000E+00 0.  1.
         23    2    1    0    0    0  0.46344240163E+01 -0.84188298536E+01 -0.26529677584E+02  0.96783367054E+02  0.92578840799E+02 0.  0.
         13    1    3    3    0    0  0.43817077846E+02  0.15778245862E+02 -0.18105935525E+02  0.49967243457E+02  0.10566000000E+00 0. -1.
         22    1    1    0    0    0 -0.46344240163E+01  0.84188298536E+01  0.26529677584E+02  0.28216632946E+02  0.00000000000E+00 0. -1.
</event>
<event>
 5    1  0.1709463E-003  0.9118800E+02  0.7818608E-02  0.1130116E+00
         25   -1    0    0    0    0  0.00000000000E+00  0.00000000000E+00  0.99999998245E-14  0.12500000000E+03  0.12500000000E+03 0.  0.
        -13    1    3    3    0    0  0.79949871072E+01 -0.24836977653E+02 -0.26164941534E+02  0.36951462858E+02  0.10566000000E+00 0. -1.
         23    2    1    0    0    0 -0.29037230440E+02  0.59006175189E+01  0.59076583122E+01  0.94786121310E+02  0.89841695930E+02 0.  0.
         13    1    3    3    0    0 -0.37032217547E+02  0.30737595172E+02  0.32072599846E+02  0.57834658453E+02  0.10566000000E+00 0.  1.
         22    1    1    0    0    0  0.29037230440E+02 -0.59006175189E+01 -0.59076583122E+01  0.30213878690E+02  0.00000000000E+00 0.  1.
</event>
<event>
 5    1  0.1709463E-003  0.9118800E+02  0.7818608E-02  0.1130116E+00
         25   -1    0    0    0    0  0.00000000000E+00  0.00000000000E+00  0.99999998245E-14  0.12500000000E+03  0.12500000000E+03 0.  0.
        -13    1    3    3    0    0  0.16896580846E+02 -0.30495499450E+02  0.27078671125E+02  0.44144484649E+02  0.10566000000E+00 0. -1.
         23    2    1    0    0    0  0.25560690758E+02 -0.10999245303E+01 -0.14342180211E+02  0.95669863976E+02  0.91062978175E+02 0.  0.
         13    1    3    3    0    0  0.86641099115E+01  0.29395574920E+02 -0.41420851336E+02  0.51525379327E+02  0.10566000000E+00 0.  1.
         22    1    1    0    0    0 -0.25560690758E+02  0.10999245303E+01  0.14342180211E+02  0.29330136024E+02  0.00000000000E+00 0.  1.
</event>
<event>
 5    1  0.1709463E-003  0.9118800E+02  0.7818608E-02  0.1130116E+00
         25   -1    0    0    0    0  0.00000000000E+00  0.00000000000E+00  0.99999998245E-14  0.12500000000E+03  0.12500000000E+03 0.  0.
        -13    1    3    3    0    0  0.36509990391E+02 -0.95254917830E+01  0.31976409570E+02  0.49459239026E+02  0.10566000000E+00 0.  1.
         23    2    1    0    0    0  0.15089747644E+02 -0.24014080876E+02 -0.65801401382E+01  0.95885144539E+02  0.91358010786E+02 0.  0.
         13    1    3    3    0    0 -0.21420242747E+02 -0.14488589093E+02 -0.38556549708E+02  0.46425905513E+02  0.10566000000E+00 0. -1.
         22    1    1    0    0    0 -0.15089747644E+02  0.24014080876E+02  0.65801401382E+01  0.29114855461E+02  0.00000000000E+00 0. -1.
</event>
<event>
 5    1  0.1709463E-003  0.9118800E+02  0.7818608E-02  0.1130116E+00
         25   -1    0    0    0    0  0.00000000000E+00  0.00000000000E+00  0.99999998245E-14  0.12500000000E+03  0.12500000000E+03 0.  0.
        -13    1    3    3    0    0  0.44721325179E+01  0.13065664094E+02  0.53962184208E+02  0.55701346806E+02  0.10566000000E+00 0.  1.
         23    2    1    0    0    0 -0.15420494878E+02  0.14156898344E+02  0.15722374384E+02  0.98819807310E+02  0.95288781226E+02 0.  0.
         13    1    3    3    0    0 -0.19892627396E+02  0.10912342493E+01 -0.38239809823E+02  0.43118460504E+02  0.10566000000E+00 0. -1.
         22    1    1    0    0    0  0.15420494878E+02 -0.14156898344E+02 -0.15722374384E+02  0.26180192690E+02  0.00000000000E+00 0.  1.
</event>
<event>
 5    1  0.1709463E-003  0.9118800E+02  0.7818608E-02  0.1130116E+00
         25   -1    0    0    0    0  0.00000000000E+00  0.00000000000E+00  0.99999998245E-14  0.12500000000E+03  0.12500000000E+03 0.  0.
        -13    1    3    3    0    0  0.29628487521E+02  0.97712323073E+01 -0.36886775255E+02  0.48311174756E+02  0.10566000000E+00 0.  1.
         23    2    1    0    0    0  0.17382554864E+02  0.22483259453E+02  0.70999101428E+01  0.95707357695E+02  0.91114430381E+02 0.  0.
         13    1    3    3    0    0 -0.12245932657E+02  0.12712027145E+02  0.43986685398E+02  0.47396182938E+02  0.10566000000E+00 0. -1.
         22    1    1    0    0    0 -0.17382554864E+02 -0.22483259453E+02 -0.70999101428E+01  0.29292642305E+02  0.00000000000E+00 0. -1.
</event>
<event>
 5    1  0.1709463E-003  0.9118800E+02  0.7818608E-02  0.1130116E+00
         25   -1    0    0    0    0  0.00000000000E+00  0.00000000000E+00  0.99999998245E-14  0.12500000000E+03  0.12500000000E+03 0.  0.
        -13    1    3    3    0    0 -0.28561380038E+02  0.15082774265E+02 -0.17722652840E+02  0.36842178233E+02  0.10566000000E+00 0.  1.
         23    2    1    0    0    0  0.27855383158E+02 -0.23399876791E+00 -0.70166929638E+01  0.96273512111E+02  0.91887855714E+02 0.  0.
         13    1    3    3    0    0  0.56416763196E+02 -0.15316773033E+02  0.10705959876E+02  0.59431333878E+02  0.10566000000E+00 0. -1.
         22    1    1    0    0    0 -0.27855383158E+02  0.23399876791E+00  0.70166929638E+01  0.28726487889E+02  0.00000000000E+00 0. -1.
</event>
<event>
 5    1  0.1709463E-003  0.9118800E+02  0.7818608E-02  0.1130116E+00
         25   -1    0    0    0    0  0.00000000000E+00  0.00000000000E+00  0.99999998245E-14  0.12500000000E+03  0.12500000000E+03 0.  0.
        -13    1    3    3    0    0  0.22605662807E+02 -0.22827647784E+02 -0.34541174434E+02  0.47172252327E+02  0.10566000000E+00 0.  1.
         23    2    1    0    0    0  0.10263845050E+02 -0.25242275428E+02  0.11885034343E+02  0.95271679742E+02  0.90514749823E+02 0.  0.
         13    1    3    3    0    0 -0.12341817757E+02 -0.24146276444E+01  0.46426208777E+02  0.48099427415E+02  0.10566000000E+00 0. -1.
         22    1    1    0    0    0 -0.10263845050E+02  0.25242275428E+02 -0.11885034343E+02  0.29728320258E+02  0.00000000000E+00 0. -1.
</event>
<event>
 5    1  0.1709463E-003  0.9118800E+02  0.7818608E-02  0.1130116E+00
         25   -1    0    0    0    0  0.00000000000E+00  0.00000000000E+00  0.99999998245E-14  0.12500000000E+03  0.12500000000E+03 0.  0.
        -13    1    3    3    0    0 -0.42135992961E+02 -0.10303643426E+02 -0.11397724319E+02  0.44850041854E+02  0.10566000000E+00 0. -1.
         23    2    1    0    0    0 -0.13996904462E+02  0.17805207963E+02  0.19420186306E+02  0.95165751203E+02  0.90368345125E+02 0.  0.
         13    1    3    3    0    0  0.28139088498E+02  0.28108851389E+02  0.30817910625E+02  0.50315709349E+02  0.10566000000E+00 0.  1.
         22    1    1    0    0    0  0.13996904462E+02 -0.17805207963E+02 -0.19420186306E+02  0.29834248797E+02  0.00000000000E+00 0. -1.
</event>
<event>
 5    1  0.1709463E-003  0.9118800E+02  0.7818608E-02  0.1130116E+00
         25   -1    0    0    0    0  0.00000000000E+00  0.00000000000E+00  0.99999998245E-14  0.12500000000E+03  0.12500000000E+03 0.  0.
        -13    1    3    3    0    0 -0.49252845077E+02 -0.28415621534E+02  0.25685884432E+02  0.62394439804E+02  0.10566000000E+00 0.  1.
         23    2    1    0    0    0 -0.21304367292E+02 -0.14922083271E+02  0.12987940812E+02  0.95927139092E+02  0.91415451500E+02 0.  0.
         13    1    3    3    0    0  0.27948477785E+02  0.13493538263E+02 -0.12697943620E+02  0.33532699288E+02  0.10566000000E+00 0. -1.
         22    1    1    0    0    0  0.21304367292E+02  0.14922083271E+02 -0.12987940812E+02  0.29072860908E+02  0.00000000000E+00 0.  1.
</event>
<event>
 5    1  0.1709463E-003  0.9118800E+02  0.7818608E-02  0.1130116E+00
         25   -1    0    0    0    0  0.00000000000E+00  0.00000000000E+00  0.99999998245E-14  0.12500000000E+03  0.12500000000E+03 0.  0.
        -13    1    3    3    0    0 -0.10835415358E+02 -0.39558610782E+02  0.29583202878E+00  0.41016930573E+02  0.10566000000E+00 0. -1.
         23    2    1    0    0    0  0.44998944918E+01 -0.72181755901E+01 -0.33616873310E+02  0.90323707227E+02  0.83402199053E+02 0.  0.
         13    1    3    3    0    0  0.15335309850E+02  0.32340435192E+02 -0.33912705339E+02  0.49306776655E+02  0.10566000000E+00 0.  1.
         22    1    1    0    0    0 -0.44998944918E+01  0.72181755901E+01  0.33616873310E+02  0.34676292773E+02  0.00000000000E+00 0.  1.
</event>
<event>
 5    1  0.1709463E-003  0.9118800E+02  0.7818608E-02  0.1130116E+00
         25   -1    0    0    0    0  0.00000000000E+00  0.00000000000E+00  0.99999998245E-14  0.12500000000E+03  0.12500000000E+03 0.  0.
        -13    1    3    3    0    0  0.10423075863E+02 -0.23525401771E+02 -0.33077002938E+02  0.41906852976E+02  0.10566000000E+00 0.  1.
         23    2    1    0    0    0  0.27240145421E+02  0.86509337551E+01  0.65782446878E+01  0.95671899472E+02  0.91065772209E+02 0.  0.
         13    1    3    3    0    0  0.16817069558E+02  0.32176335526E+02  0.39655247626E+02  0.53765046496E+02  0.10566000000E+00 0. -1.
         22    1    1    0    0    0 -0.27240145421E+02 -0.86509337551E+01 -0.65782446878E+01  0.29328100528E+02  0.00000000000E+00 0. -1.
</event>
<event>
 5    1  0.1709463E-003  0.9118800E+02  0.7818608E-02  0.1130116E+00
         25   -1    0    0    0    0  0.00000000000E+00  0.00000000000E+00  0.99999998245E-14  0.12500000000E+03  0.12500000000E+03 0.  0.
        -13    1    3    3    0    0 -0.27811072509E+02 -0.23611829798E+02  0.31275112284E+02  0.48053283685E+02  0.10566000000E+00 0.  1.
         23    2    1    0    0    0  0.13154369617E+02  0.12897757728E+01  0.25419045981E+02  0.96349889003E+02  0.91991696640E+02 0.  0.
         13    1    3    3    0    0  0.40965442126E+02  0.24901605571E+02 -0.58560663032E+01  0.48296605317E+02  0.10566000000E+00 0. -1.
         22    1    1    0    0    0 -0.13154369617E+02 -0.12897757728E+01 -0.25419045981E+02  0.28650110997E+02  0.00000000000E+00 0. -1.
</event>
<event>
 5    1  0.1709463E-003  0.9118800E+02  0.7818608E-02  0.1130116E+00
         25   -1    0    0    0    0  0.00000000000E+00  0.00000000000E+00  0.99999998245E-14  0.12500000000E+03  0.12500000000E+03 0.  0.
        -13    1    3    3    0    0  0.20083897494E+02  0.11968413576E+02 -0.29004487981E+02  0.37254225923E+02  0.10566000000E+00 0.  1.
         23    2    1    0    0    0 -0.18805299417E+02 -0.22366188214E+02 -0.20736521933E+01  0.95705193381E+02  0.91111461108E+02 0.  0.
         13    1    3    3    0    0 -0.38889196911E+02 -0.34334601790E+02  0.26930835788E+02  0.58450967458E+02  0.10566000000E+00 0. -1.
         22    1    1    0    0    0  0.18805299417E+02  0.22366188214E+02  0.20736521933E+01  0.29294806619E+02  0.00000000000E+00 0. -1.
</event>
<event>
 5    1  0.1709463E-003  0.9118800E+02  0.7818608E-02  0.1130116E+00
         25   -1    0    0    0    0  0.00000000000E+00  0.00000000000E+00  0.99999998245E-14  0.12500000000E+03  0.12500000000E+03 0.  0.
        -13    1    3    3    0    0  0.22294547878E+02  0.15330510025E+02 -0.28684762835E+02  0.39432197322E+02  0.10566000000E+00 0. -1.
         23    2    1    0    0    0  0.48131044850E+01 -0.28294552800E+02  0.30450383315E+01  0.96137914985E+02  0.91703210120E+02 0.  0.
         13    1    3    3    0    0 -0.17481443393E+02 -0.43625062825E+02  0.31729801166E+02  0.56705717663E+02  0.10566000000E+00 0.  1.
         22    1    1    0    0    0 -0.48131044850E+01  0.28294552800E+02 -0.30450383315E+01  0.28862085015E+02  0.00000000000E+00 0.  1.
</event>
<event>
 5    1  0.1709463E-003  0.9118800E+02  0.7818608E-02  0.1130116E+00
         25   -1    0    0    0    0  0.00000000000E+00  0.00000000000E+00  0.99999998245E-14  0.12500000000E+03  0.12500000000E+03 0.  0.
        -13    1    3    3    0    0 -0.18889708659E+02  0.27168687602E+02  0.26345019590E+02  0.42296925426E+02  0.10566000000E+00 0. -1.
         23    2    1    0    0    0  0.14675207150E+02  0.20906855685E+02 -0.14574893921E+02  0.95591058293E+02  0.90954739146E+02 0.  0.
         13    1    3    3    0    0  0.33564915809E+02 -0.62618319169E+01 -0.40919913511E+02  0.53294132867E+02  0.10566000000E+00 0.  1.
         22    1    1    0    0    0 -0.14675207150E+02 -0.20906855685E+02  0.14574893921E+02  0.29408941707E+02  0.00000000000E+00 0.  1.
</event>
<event>
 5    1  0.1709463E-003  0.9118800E+02  0.7818608E-02  0.1130116E+00
         25   -1    0    0    0    0  0.00000000000E+00  0.00000000000E+00  0.99999998245E-14  0.12500000000E+03  0.12500000000E+03 0.  0.
        -13    1    3    3    0    0  0.31263720036E+02 -0.39184078778E+02 -0.22321795587E+01  0.50177744168E+02  0.10566000000E+00 0. -1.
         23    2    1    0    0    0 -0.53842933496E+01 -0.37694018035E+02 -0.22626807299E+01  0.86856201885E+02  0.78032368100E+02 0.  0.
         13    1    3    3    0    0 -0.36648013386E+02  0.14900607425E+01 -0.30501171239E-01  0.36678457717E+02  0.10566000000E+00 0.  1.
         22    1    1    0    0    0  0.53842933496E+01  0.37694018035E+02  0.22626807299E+01  0.38143798115E+02  0.00000000000E+00 0. -1.
</event>
<event>
 5    1  0.1709463E-003  0.9118800E+02  0.7818608E-02  0.1130116E+00
         25   -1    0    0    0    0  0.00000000000E+00  0.00000000000E+00  0.99999998245E-14  0.12500000000E+03  0.12500000000E+03 0.  0.
        -13    1    3    3    0    0 -0.15011338444E+02  0.58879922091E+02  0.54491442887E+01  0.61007293374E+02  0.10566000000E+00 0.  1.
         23    2    1    0    0    0 -0.12834682154E+02  0.25271408080E+02  0.98951013355E+01  0.94978571607E+02  0.90109061152E+02 0.  0.
         13    1    3    3    0    0  0.21766562906E+01 -0.33608514012E+02  0.44459570468E+01  0.33971278233E+02  0.10566000000E+00 0. -1.
         22    1    1    0    0    0  0.12834682154E+02 -0.25271408080E+02 -0.98951013355E+01  0.30021428393E+02  0.00000000000E+00 0.  1.
</event>
<event>
 5    1  0.1709463E-003  0.9118800E+02  0.7818608E-02  0.1130116E+00
         25   -1    0    0    0    0  0.00000000000E+00  0.00000000000E+00  0.99999998245E-14  0.12500000000E+03  0.12500000000E+03 0.  0.
        -13    1    3    3    0    0 -0.25865960589E+02 -0.65865096552E+01 -0.25007354952E+02  0.36576071308E+02  0.10566000000E+00 0.  1.
         23    2    1    0    0    0  0.75691192662E+01 -0.25837625239E+02  0.16641266515E+02  0.93348677821E+02  0.87818958404E+02 0.  0.
         13    1    3    3    0    0  0.33435079855E+02 -0.19251115584E+02  0.41648621467E+02  0.56772606513E+02  0.10566000000E+00 0. -1.
         22    1    1    0    0    0 -0.75691192662E+01  0.25837625239E+02 -0.16641266515E+02  0.31651322179E+02  0.00000000000E+00 0. -1.
</event>
<event>
 5    1  0.1709463E-003  0.9118800E+02  0.7818608E-02  0.1130116E+00
         25   -1    0    0    0    0  0.00000000000E+00  0.00000000000E+00  0.99999998245E-14  0.12500000000E+03  0.12500000000E+03 0.  0.
        -13    1    3    3    0    0 -0.14822806851E+02 -0.16059294716E+02 -0.34667862739E+02  0.40981561960E+02  0.10566000000E+00 0. -1.
         23    2    1    0    0    0  0.17660079251E+02 -0.19185025714E+02  0.10655888643E+02  0.96831017527E+02  0.92643156152E+02 0.  0.
         13    1    3    3    0    0  0.32482886101E+02 -0.31257309985E+01  0.45323751383E+02  0.55849455567E+02  0.10566000000E+00 0.  1.
         22    1    1    0    0    0 -0.17660079251E+02  0.19185025714E+02 -0.10655888643E+02  0.28168982473E+02  0.00000000000E+00 0.  1.
</event>
<event>
 5    1  0.1709463E-003  0.9118800E+02  0.7818608E-02  0.1130116E+00
         25   -1    0    0    0    0  0.00000000000E+00  0.00000000000E+00  0.99999998245E-14  0.12500000000E+03  0.12500000000E+03 0.  0.
        -13    1    3    3    0    0  0.14140006381E+02  0.29728332343E+02 -0.23831442358E+01  0.33006121626E+02  0.10566000000E+00 0. -1.
         23    2    1    0    0    0  0.25616511327E+01 -0.30491463378E+02  0.50495636091E+00  0.94396954786E+02  0.89298592914E+02 0.  0.
         13    1    3    3    0    0 -0.11578355249E+02 -0.60219795721E+02  0.28881005967E+01  0.61390833159E+02  0.10566000000E+00 0.  1.
         22    1    1    0    0    0 -0.25616511327E+01  0.30491463378E+02 -0.50495636091E+00  0.30603045214E+02  0.00000000000E+00 0.  1.
</event>
<event>
 5    1  0.1709463E-003  0.9118800E+02  0.7818608E-02  0.1130116E+00
         25   -1    0    0    0    0  0.00000000000E+00  0.00000000000E+00  0.99999998245E-14  0.12500000000E+03  0.12500000000E+03 0.  0.
        -13    1    3    3    0    0 -0.32870037697E+02  0.20931564845E+01  0.48697129428E+02  0.58789814260E+02  0.10566000000E+00 0.  1.
         23    2    1    0    0    0 -0.30281265142E+02  0.42168236130E+01  0.18305852048E+02  0.89365173788E+02  0.81952995350E+02 0.  0.
         13    1    3    3    0    0  0.25887725545E+01  0.21236671284E+01 -0.30391277380E+02  0.30575359527E+02  0.10566000000E+00 0. -1.
         22    1    1    0    0    0  0.30281265142E+02 -0.42168236130E+01 -0.18305852048E+02  0.35634826212E+02  0.00000000000E+00 0.  1.
</event>
<event>
 5    1  0.1709463E-003  0.9118800E+02  0.7818608E-02  0.1130116E+00
         25   -1    0    0    0    0  0.00000000000E+00  0.00000000000E+00  0.99999998245E-14  0.12500000000E+03  0.12500000000E+03 0.  0.
        -13    1    3    3    0    0  0.42567399346E+02  0.18134201661E+02  0.32763145919E+02  0.56694511653E+02  0.10566000000E+00 0.  1.
         23    2    1    0    0    0  0.17789615597E+02  0.22365409045E+02  0.20981358560E+01  0.96345434588E+02  0.91985643701E+02 0.  0.
         13    1    3    3    0    0 -0.24777783749E+02  0.42312073840E+01 -0.30665010063E+02  0.39650922936E+02  0.10566000000E+00 0. -1.
         22    1    1    0    0    0 -0.17789615597E+02 -0.22365409045E+02 -0.20981358560E+01  0.28654565412E+02  0.00000000000E+00 0.  1.
</event>
<event>
 5    1  0.1709463E-003  0.9118800E+02  0.7818608E-02  0.1130116E+00
         25   -1    0    0    0    0  0.00000000000E+00  0.00000000000E+00  0.99999998245E-14  0.12500000000E+03  0.12500000000E+03 0.  0.
        -13    1    3    3    0    0 -0.25412420672E+02  0.67393303715E+00  0.52414159774E+02  0.58253760556E+02  0.10566000000E+00 0.  1.
         23    2    1    0    0    0 -0.62634455081E+01 -0.13929967780E+02  0.30833747691E+02  0.90590775239E+02  0.83801514365E+02 0.  0.
         13    1    3    3    0    0  0.19148975163E+02 -0.14603900817E+02 -0.21580412083E+02  0.32337014683E+02  0.10566000000E+00 0. -1.
         22    1    1    0    0    0  0.62634455081E+01  0.13929967780E+02 -0.30833747691E+02  0.34409224761E+02  0.00000000000E+00 0.  1.
</event>
<event>
 5    1  0.1709463E-003  0.9118800E+02  0.7818608E-02  0.1130116E+00
         25   -1    0    0    0    0  0.00000000000E+00  0.00000000000E+00  0.99999998245E-14  0.12500000000E+03  0.12500000000E+03 0.  0.
        -13    1    3    3    0    0 -0.65161171443E+01 -0.11808147557E+02  0.21038975539E+02  0.24990834063E+02  0.10566000000E+00 0.  1.
         23    2    1    0    0    0 -0.59926044207E+01  0.41675898633E+02 -0.11067647298E+01  0.82880921629E+02  0.71380882646E+02 0.  0.
         13    1    3    3    0    0  0.52351272363E+00  0.53484046190E+02 -0.22145740269E+02  0.57890087567E+02  0.10566000000E+00 0. -1.
         22    1    1    0    0    0  0.59926044207E+01 -0.41675898633E+02  0.11067647298E+01  0.42119078371E+02  0.00000000000E+00 0. -1.
</event>
<event>
 5    1  0.1709463E-003  0.9118800E+02  0.7818608E-02  0.1130116E+00
         25   -1    0    0    0    0  0.00000000000E+00  0.00000000000E+00  0.99999998245E-14  0.12500000000E+03  0.12500000000E+03 0.  0.
        -13    1    3    3    0    0  0.88738526430E+01 -0.61209999914E+01  0.56489671335E+02  0.57509182164E+02  0.10566000000E+00 0. -1.
         23    2    1    0    0    0 -0.83839873433E+01 -0.15229704999E+02  0.25214289625E+02  0.94373286833E+02  0.89265456411E+02 0.  0.
         13    1    3    3    0    0 -0.17257839986E+02 -0.91087050071E+01 -0.31275381710E+02  0.36864104669E+02  0.10566000000E+00 0.  1.
         22    1    1    0    0    0  0.83839873433E+01  0.15229704999E+02 -0.25214289625E+02  0.30626713167E+02  0.00000000000E+00 0. -1.
</event>
<event>
 5    1  0.1709463E-003  0.9118800E+02  0.7818608E-02  0.1130116E+00
         25   -1    0    0    0    0  0.00000000000E+00  0.00000000000E+00  0.99999998245E-14  0.12500000000E+03  0.12500000000E+03 0.  0.
        -13    1    3    3    0    0  0.38365779719E+02 -0.22551321580E+01  0.84155419396E+01  0.39342739923E+02  0.10566000000E+00 0. -1.
         23    2    1    0    0    0 -0.11723921836E+02  0.20060988116E+02 -0.13189983021E+02  0.98281668475E+02  0.94580215260E+02 0.  0.
         13    1    3    3    0    0 -0.50089701555E+02  0.22316120274E+02 -0.21605524960E+02  0.58938928551E+02  0.10566000000E+00 0.  1.
         22    1    1    0    0    0  0.11723921836E+02 -0.20060988116E+02  0.13189983021E+02  0.26718331525E+02  0.00000000000E+00 0.  1.
</event>
<event>
 5    1  0.1709463E-003  0.9118800E+02  0.7818608E-02  0.1130116E+00
         25   -1    0    0    0    0  0.00000000000E+00  0.00000000000E+00  0.99999998245E-14  0.12500000000E+03  0.12500000000E+03 0.  0.
        -13    1    3    3    0    0  0.39798503725E+02  0.24063674884E+02  0.75228098245E+01  0.47112473713E+02  0.10566000000E+00 0. -1.
         23    2    1    0    0    0  0.27824817437E+02 -0.13429427770E+02 -0.12976205728E+02  0.91489525357E+02  0.85131553136E+02 0.  0.
         13    1    3    3    0    0 -0.11973686288E+02 -0.37493102655E+02 -0.20499015553E+02  0.44377051644E+02  0.10566000000E+00 0.  1.
         22    1    1    0    0    0 -0.27824817437E+02  0.13429427770E+02  0.12976205728E+02  0.33510474643E+02  0.00000000000E+00 0.  1.
</event>
<event>
 5    1  0.1709463E-003  0.9118800E+02  0.7818608E-02  0.1130116E+00
         25   -1    0    0    0    0  0.00000000000E+00  0.00000000000E+00  0.99999998245E-14  0.12500000000E+03  0.12500000000E+03 0.  0.
        -13    1    3    3    0    0 -0.21445112416E+02  0.17483598237E+01 -0.30430650845E+02  0.37269092871E+02  0.10566000000E+00 0.  1.
         23    2    1    0    0    0 -0.12272695727E+02 -0.11050759561E+02  0.25080522521E+02  0.94970498552E+02  0.90097861450E+02 0.  0.
         13    1    3    3    0    0  0.91724166891E+01 -0.12799119385E+02  0.55511173366E+02  0.57701405680E+02  0.10566000000E+00 0. -1.
         22    1    1    0    0    0  0.12272695727E+02  0.11050759561E+02 -0.25080522521E+02  0.30029501448E+02  0.00000000000E+00 0. -1.
</event>
<event>
 5    1  0.1709463E-003  0.9118800E+02  0.7818608E-02  0.1130116E+00
         25   -1    0    0    0    0  0.00000000000E+00  0.00000000000E+00  0.99999998245E-14  0.12500000000E+03  0.12500000000E+03 0.  0.
        -13    1    3    3    0    0 -0.19042043284E+02 -0.24383777561E+02 -0.21894679913E+02  0.37901928620E+02  0.10566000000E+00 0.  1.
         23    2    1    0    0    0  0.30475845498E+02 -0.53494928489E+01 -0.44912847248E+01  0.93733950185E+02  0.88365646867E+02 0.  0.
         13    1    3    3    0    0  0.49517888782E+02  0.19034284712E+02  0.17403395188E+02  0.55832021565E+02  0.10566000000E+00 0. -1.
         22    1    1    0    0    0 -0.30475845498E+02  0.53494928489E+01  0.44912847248E+01  0.31266049815E+02  0.00000000000E+00 0. -1.
</event>
<event>
 5    1  0.1709463E-003  0.9118800E+02  0.7818608E-02  0.1130116E+00
         25   -1    0    0    0    0  0.00000000000E+00  0.00000000000E+00  0.99999998245E-14  0.12500000000E+03  0.12500000000E+03 0.  0.
        -13    1    3    3    0    0  0.79318643714E+01  0.30526285760E+02 -0.17227483270E+02  0.35938363048E+02  0.10566000000E+00 0. -1.
         23    2    1    0    0    0 -0.21095678867E+02 -0.19936529758E+02 -0.33842953776E+01  0.95777639711E+02  0.91210799403E+02 0.  0.
         13    1    3    3    0    0 -0.29027543238E+02 -0.50462815518E+02  0.13843187893E+02  0.59839276663E+02  0.10566000000E+00 0.  1.
         22    1    1    0    0    0  0.21095678867E+02  0.19936529758E+02  0.33842953776E+01  0.29222360289E+02  0.00000000000E+00 0.  1.
</event>
<event>
 5    1  0.1709463E-003  0.9118800E+02  0.7818608E-02  0.1130116E+00
         25   -1    0    0    0    0  0.00000000000E+00  0.00000000000E+00  0.99999998245E-14  0.12500000000E+03  0.12500000000E+03 0.  0.
        -13    1    3    3    0    0  0.10885090605E+02  0.10116950053E+02  0.39034155367E+02  0.41767383508E+02  0.10566000000E+00 0. -1.
         23    2    1    0    0    0 -0.50386668221E+01 -0.27839317312E+02  0.28622028926E+01  0.96563967275E+02  0.92282131634E+02 0.  0.
         13    1    3    3    0    0 -0.15923757427E+02 -0.37956267364E+02 -0.36171952474E+02  0.54796583768E+02  0.10566000000E+00 0.  1.
         22    1    1    0    0    0  0.50386668221E+01  0.27839317312E+02 -0.28622028926E+01  0.28436032725E+02  0.00000000000E+00 0.  1.
</event>
<event>
 5    1  0.1709463E-003  0.9118800E+02  0.7818608E-02  0.1130116E+00
         25   -1    0    0    0    0  0.00000000000E+00  0.00000000000E+00  0.99999998245E-14  0.12500000000E+03  0.12500000000E+03 0.  0.
        -13    1    3    3    0    0 -0.14102842607E+02 -0.24049620900E+02  0.35158355728E+01  0.28100652997E+02  0.10566000000E+00 0. -1.
         23    2    1    0    0    0 -0.20800349209E+02  0.33078088929E+02 -0.19365715692E+01  0.85877566488E+02  0.76448620799E+02 0.  0.
         13    1    3    3    0    0 -0.66975066020E+01  0.57127709829E+02 -0.54524071420E+01  0.57776913492E+02  0.10566000000E+00 0.  1.
         22    1    1    0    0    0  0.20800349209E+02 -0.33078088929E+02  0.19365715692E+01  0.39122433512E+02  0.00000000000E+00 0.  1.
</event>
<event>
 5    1  0.1709463E-003  0.9118800E+02  0.7818608E-02  0.1130116E+00
         25   -1    0    0    0    0  0.00000000000E+00  0.00000000000E+00  0.99999998245E-14  0.12500000000E+03  0.12500000000E+03 0.  0.
        -13    1    3    3    0    0 -0.55225290567E+02  0.14453614463E+02 -0.18279200240E+02  0.59940637424E+02  0.10566000000E+00 0.  1.
         23    2    1    0    0    0 -0.19969809544E+02  0.17592456835E+02 -0.40900977198E+01  0.98073865296E+02  0.94305176549E+02 0.  0.
         13    1    3    3    0    0  0.35255481023E+02  0.31388423721E+01  0.14189102520E+02  0.38133227872E+02  0.10566000000E+00 0. -1.
         22    1    1    0    0    0  0.19969809544E+02 -0.17592456835E+02  0.40900977198E+01  0.26926134704E+02  0.00000000000E+00 0.  1.
</event>
<event>
 5    1  0.1709463E-003  0.9118800E+02  0.7818608E-02  0.1130116E+00
         25   -1    0    0    0    0  0.00000000000E+00  0.00000000000E+00  0.99999998245E-14  0.12500000000E+03  0.12500000000E+03 0.  0.
        -13    1    3    3    0    0 -0.20222687891E+02  0.34765774189E+02  0.43160228728E+02  0.58995191909E+02  0.10566000000E+00 0.  1.
         23    2    1    0    0    0 -0.19030479044E+02  0.45082375225E+01  0.18992668401E+02  0.97738217388E+02  0.93859226221E+02 0.  0.
         13    1    3    3    0    0  0.11922088467E+01 -0.30257536666E+02 -0.24167560327E+02  0.38743025479E+02  0.10566000000E+00 0. -1.
         22    1    1    0    0    0  0.19030479044E+02 -0.45082375225E+01 -0.18992668401E+02  0.27261782612E+02  0.00000000000E+00 0.  1.
</event>
<event>
 5    1  0.1709463E-003  0.9118800E+02  0.7818608E-02  0.1130116E+00
         25   -1    0    0    0    0  0.00000000000E+00  0.00000000000E+00  0.99999998245E-14  0.12500000000E+03  0.12500000000E+03 0.  0.
        -13    1    3    3    0    0 -0.40158952038E+02  0.93347141888E+01  0.25191141281E+02  0.48316488706E+02  0.10566000000E+00 0.  1.
         23    2    1    0    0    0 -0.24393590741E+02  0.34411199515E+02  0.19717292725E+02  0.78438754809E+02  0.63124390708E+02 0.  0.
         13    1    3    3    0    0  0.15765361296E+02  0.25076485326E+02 -0.54738485563E+01  0.30122266103E+02  0.10566000000E+00 0. -1.
         22    1    1    0    0    0  0.24393590741E+02 -0.34411199515E+02 -0.19717292725E+02  0.46561245191E+02  0.00000000000E+00 0.  1.
</event>
<event>
 5    1  0.1709463E-003  0.9118800E+02  0.7818608E-02  0.1130116E+00
         25   -1    0    0    0    0  0.00000000000E+00  0.00000000000E+00  0.99999998245E-14  0.12500000000E+03  0.12500000000E+03 0.  0.
        -13    1    3    3    0    0  0.46276497214E+02  0.10136757235E+02  0.82530618902E+01  0.48087339667E+02  0.10566000000E+00 0.  1.
         23    2    1    0    0    0  0.42903746845E+01  0.21152477584E+02  0.22547243874E+02  0.93787617374E+02  0.88441530649E+02 0.  0.
         13    1    3    3    0    0 -0.41986122530E+02  0.11015720349E+02  0.14294181984E+02  0.45700277707E+02  0.10566000000E+00 0. -1.
         22    1    1    0    0    0 -0.42903746845E+01 -0.21152477584E+02 -0.22547243874E+02  0.31212382626E+02  0.00000000000E+00 0.  1.
</event>
<event>
 5    1  0.1709463E-003  0.9118800E+02  0.7818608E-02  0.1130116E+00
         25   -1    0    0    0    0  0.00000000000E+00  0.00000000000E+00  0.99999998245E-14  0.12500000000E+03  0.12500000000E+03 0.  0.
        -13    1    3    3    0    0 -0.52393486473E+02 -0.26381277041E+02 -0.47916378865E+01  0.58855927151E+02  0.10566000000E+00 0.  1.
         23    2    1    0    0    0 -0.27298664155E+02  0.22913205592E+01 -0.59067815367E+01  0.96975773291E+02  0.92838264324E+02 0.  0.
         13    1    3    3    0    0  0.25094822318E+02  0.28672597600E+02 -0.11151436502E+01  0.38119846140E+02  0.10566000000E+00 0. -1.
         22    1    1    0    0    0  0.27298664155E+02 -0.22913205592E+01  0.59067815367E+01  0.28024226709E+02  0.00000000000E+00 0.  1.
</event>
<event>
 5    1  0.1709463E-003  0.9118800E+02  0.7818608E-02  0.1130116E+00
         25   -1    0    0    0    0  0.00000000000E+00  0.00000000000E+00  0.99999998245E-14  0.12500000000E+03  0.12500000000E+03 0.  0.
        -13    1    3    3    0    0 -0.78456310651E+01  0.44876133871E+02  0.38034127003E+02  0.59346670495E+02  0.10566000000E+00 0. -1.
         23    2    1    0    0    0 -0.23429979930E+01  0.12519618042E+02  0.28903851770E+02  0.93414194286E+02  0.87912163956E+02 0.  0.
         13    1    3    3    0    0  0.55026330721E+01 -0.32356515829E+02 -0.91302752332E+01  0.34067523790E+02  0.10566000000E+00 0.  1.
         22    1    1    0    0    0  0.23429979930E+01 -0.12519618042E+02 -0.28903851770E+02  0.31585805714E+02  0.00000000000E+00 0. -1.
</event>
<event>
 5    1  0.1709463E-003  0.9118800E+02  0.7818608E-02  0.1130116E+00
         25   -1    0    0    0    0  0.00000000000E+00  0.00000000000E+00  0.99999998245E-14  0.12500000000E+03  0.12500000000E+03 0.  0.
        -13    1    3    3    0    0 -0.13960745912E+02 -0.41132277752E+02  0.40775956373E+02  0.59577315160E+02  0.10566000000E+00 0. -1.
         23    2    1    0    0    0 -0.15108064550E+02 -0.23175124312E+02  0.93360567427E+01  0.95802363849E+02  0.91244676350E+02 0.  0.
         13    1    3    3    0    0 -0.11473186372E+01  0.17957153440E+02 -0.31439899630E+02  0.36225048689E+02  0.10566000000E+00 0.  1.
         22    1    1    0    0    0  0.15108064550E+02  0.23175124312E+02 -0.93360567427E+01  0.29197636151E+02  0.00000000000E+00 0. -1.
</event>
<event>
 5    1  0.1709463E-003  0.9118800E+02  0.7818608E-02  0.1130116E+00
         25   -1    0    0    0    0  0.00000000000E+00  0.00000000000E+00  0.99999998245E-14  0.12500000000E+03  0.12500000000E+03 0.  0.
        -13    1    3    3    0    0 -0.28436408882E+02  0.35429165035E+01  0.21749060389E+02  0.35975191442E+02  0.10566000000E+00 0.  1.
         23    2    1    0    0    0 -0.21316518684E+01 -0.99045459683E+01 -0.28769938717E+02  0.94498305878E+02  0.89440351461E+02 0.  0.
         13    1    3    3    0    0  0.26304757014E+02 -0.13447462472E+02 -0.50518999106E+02  0.58523114435E+02  0.10566000000E+00 0. -1.
         22    1    1    0    0    0  0.21316518684E+01  0.99045459683E+01  0.28769938717E+02  0.30501694122E+02  0.00000000000E+00 0. -1.
</event>
<event>
 5    1  0.1709463E-003  0.9118800E+02  0.7818608E-02  0.1130116E+00
         25   -1    0    0    0    0  0.00000000000E+00  0.00000000000E+00  0.99999998245E-14  0.12500000000E+03  0.12500000000E+03 0.  0.
        -13    1    3    3    0    0 -0.19652679016E+02 -0.19771908148E+02 -0.44098463290E+02  0.52171273446E+02  0.10566000000E+00 0.  1.
         23    2    1    0    0    0  0.13246891380E+02 -0.20911264976E+02 -0.15378684465E+02  0.95857847196E+02  0.91320653738E+02 0.  0.
         13    1    3    3    0    0  0.32899570397E+02 -0.11393568288E+01  0.28719778825E+02  0.43686573751E+02  0.10566000000E+00 0. -1.
         22    1    1    0    0    0 -0.13246891380E+02  0.20911264976E+02  0.15378684465E+02  0.29142152804E+02  0.00000000000E+00 0.  1.
</event>
<event>
 5    1  0.1709463E-003  0.9118800E+02  0.7818608E-02  0.1130116E+00
         25   -1    0    0    0    0  0.00000000000E+00  0.00000000000E+00  0.99999998245E-14  0.12500000000E+03  0.12500000000E+03 0.  0.
        -13    1    3    3    0    0  0.17503367509E+02  0.53423953945E+02 -0.26281030500E+02  0.62057960468E+02  0.10566000000E+00 0.  1.
         23    2    1    0    0    0  0.47108586825E+01  0.22282542581E+02 -0.15661023898E+02  0.97359964491E+02  0.93354116796E+02 0.  0.
         13    1    3    3    0    0 -0.12792508827E+02 -0.31141411363E+02  0.10620006602E+02  0.35302004023E+02  0.10566000000E+00 0. -1.
         22    1    1    0    0    0 -0.47108586825E+01 -0.22282542581E+02  0.15661023898E+02  0.27640035509E+02  0.00000000000E+00 0.  1.
</event>
<event>
 5    1  0.1709463E-003  0.9118800E+02  0.7818608E-02  0.1130116E+00
         25   -1    0    0    0    0  0.00000000000E+00  0.00000000000E+00  0.99999998245E-14  0.12500000000E+03  0.12500000000E+03 0.  0.
        -13    1    3    3    0    0  0.47161407534E+01 -0.27032975753E+02 -0.41669610400E+02  0.49893800783E+02  0.10566000000E+00 0.  1.
         23    2    1    0    0    0 -0.17191847565E+02  0.77340063951E+01 -0.23626545444E+02  0.94774379622E+02  0.89825357809E+02 0.  0.
         13    1    3    3    0    0 -0.21907988318E+02  0.34766982148E+02  0.18043064957E+02  0.44880578839E+02  0.10566000000E+00 0. -1.
         22    1    1    0    0    0  0.17191847565E+02 -0.77340063951E+01  0.23626545444E+02  0.30225620378E+02  0.00000000000E+00 0.  1.
</event>
<event>
 5    1  0.1709463E-003  0.9118800E+02  0.7818608E-02  0.1130116E+00
         25   -1    0    0    0    0  0.00000000000E+00  0.00000000000E+00  0.99999998245E-14  0.12500000000E+03  0.12500000000E+03 0.  0.
        -13    1    3    3    0    0  0.32607155997E+01 -0.36019725358E+02  0.24548753020E+02  0.43711615390E+02  0.10566000000E+00 0.  1.
         23    2    1    0    0    0  0.21334732154E+01 -0.11900732122E+02 -0.24108061257E+02  0.98030058388E+02  0.94247093308E+02 0.  0.
         13    1    3    3    0    0 -0.11272423843E+01  0.24118993237E+02 -0.48656814277E+02  0.54318442998E+02  0.10566000000E+00 0. -1.
         22    1    1    0    0    0 -0.21334732154E+01  0.11900732122E+02  0.24108061257E+02  0.26969941612E+02  0.00000000000E+00 0.  1.
</event>
<event>
 5    1  0.1709463E-003  0.9118800E+02  0.7818608E-02  0.1130116E+00
         25   -1    0    0    0    0  0.00000000000E+00  0.00000000000E+00  0.99999998245E-14  0.12500000000E+03  0.12500000000E+03 0.  0.
        -13    1    3    3    0    0 -0.13956195615E+00 -0.45968060845E+02 -0.69228583927E+01  0.46486764006E+02  0.10566000000E+00 0. -1.
         23    2    1    0    0    0 -0.86726489496E+01 -0.10619024885E+02  0.26042244692E+02  0.95569114218E+02  0.90924576186E+02 0.  0.
         13    1    3    3    0    0 -0.85330869934E+01  0.35349035960E+02  0.32965103084E+02  0.49082350212E+02  0.10566000000E+00 0.  1.
         22    1    1    0    0    0  0.86726489496E+01  0.10619024885E+02 -0.26042244692E+02  0.29430885782E+02  0.00000000000E+00 0.  1.
</event>
<event>
 5    1  0.1709463E-003  0.9118800E+02  0.7818608E-02  0.1130116E+00
         25   -1    0    0    0    0  0.00000000000E+00  0.00000000000E+00  0.99999998245E-14  0.12500000000E+03  0.12500000000E+03 0.  0.
        -13    1    3    3    0    0 -0.33728681949E+02 -0.19693348010E+02 -0.36794966068E+02  0.53659413283E+02  0.10566000000E+00 0.  1.
         23    2    1    0    0    0 -0.28425714681E+02 -0.82554634898E+01  0.28519148031E+01  0.95262694295E+02  0.90502340156E+02 0.  0.
         13    1    3    3    0    0  0.53029672681E+01  0.11437884520E+02  0.39646880871E+02  0.41603281012E+02  0.10566000000E+00 0. -1.
         22    1    1    0    0    0  0.28425714681E+02  0.82554634898E+01 -0.28519148031E+01  0.29737305705E+02  0.00000000000E+00 0. -1.
</event>
<event>
 5    1  0.1709463E-003  0.9118800E+02  0.7818608E-02  0.1130116E+00
         25   -1    0    0    0    0  0.00000000000E+00  0.00000000000E+00  0.99999998245E-14  0.12500000000E+03  0.12500000000E+03 0.  0.
        -13    1    3    3    0    0 -0.24387972477E+02  0.16713788576E+02  0.51212170066E+02  0.59133928138E+02  0.10566000000E+00 0.  1.
         23    2    1    0    0    0 -0.43958541707E+01  0.19688152506E+02  0.18265905507E+02  0.97786213292E+02  0.93923124538E+02 0.  0.
         13    1    3    3    0    0  0.19992118307E+02  0.29743639306E+01 -0.32946264559E+02  0.38652285154E+02  0.10566000000E+00 0. -1.
         22    1    1    0    0    0  0.43958541707E+01 -0.19688152506E+02 -0.18265905507E+02  0.27213786708E+02  0.00000000000E+00 0.  1.
</event>
<event>
 5    1  0.1709463E-003  0.9118800E+02  0.7818608E-02  0.1130116E+00
         25   -1    0    0    0    0  0.00000000000E+00  0.00000000000E+00  0.99999998245E-14  0.12500000000E+03  0.12500000000E+03 0.  0.
        -13    1    3    3    0    0  0.35748794970E+02 -0.10916155529E+02  0.29546611075E+02  0.47646114043E+02  0.10566000000E+00 0. -1.
         23    2    1    0    0    0  0.22179657099E+02 -0.32574134888E+01 -0.17086271326E+02  0.96813325853E+02  0.92619282351E+02 0.  0.
         13    1    3    3    0    0 -0.13569137871E+02  0.76587420406E+01 -0.46632882400E+02  0.49167211810E+02  0.10566000000E+00 0.  1.
         22    1    1    0    0    0 -0.22179657099E+02  0.32574134888E+01  0.17086271326E+02  0.28186674147E+02  0.00000000000E+00 0.  1.
</event>
<event>
 5    1  0.1709463E-003  0.9118800E+02  0.7818608E-02  0.1130116E+00
         25   -1    0    0    0    0  0.00000000000E+00  0.00000000000E+00  0.99999998245E-14  0.12500000000E+03  0.12500000000E+03 0.  0.
        -13    1    3    3    0    0  0.74389346957E+01  0.45928121634E+01 -0.42379448955E+02  0.43271936989E+02  0.10566000000E+00 0.  1.
         23    2    1    0    0    0  0.20479082228E+02  0.19008458364E+02  0.68765891989E+01  0.96224979977E+02  0.91821811104E+02 0.  0.
         13    1    3    3    0    0  0.13040147533E+02  0.14415646201E+02  0.49256038154E+02  0.52953042988E+02  0.10566000000E+00 0. -1.
         22    1    1    0    0    0 -0.20479082228E+02 -0.19008458364E+02 -0.68765891989E+01  0.28775020023E+02  0.00000000000E+00 0. -1.
</event>
<event>
 5    1  0.1709463E-003  0.9118800E+02  0.7818608E-02  0.1130116E+00
         25   -1    0    0    0    0  0.00000000000E+00  0.00000000000E+00  0.99999998245E-14  0.12500000000E+03  0.12500000000E+03 0.  0.
        -13    1    3    3    0    0  0.79776528516E+01  0.13243572165E+02  0.29416728654E+02  0.33232367316E+02  0.10566000000E+00 0. -1.
         23    2    1    0    0    0 -0.47442259351E+01 -0.21120653801E+02 -0.20521008120E+02  0.95172135997E+02  0.90377176318E+02 0.  0.
         13    1    3    3    0    0 -0.12721878787E+02 -0.34364225966E+02 -0.49937736774E+02  0.61939768681E+02  0.10566000000E+00 0.  1.
         22    1    1    0    0    0  0.47442259351E+01  0.21120653801E+02  0.20521008120E+02  0.29827864003E+02  0.00000000000E+00 0.  1.
</event>
<event>
 5    1  0.1709463E-003  0.9118800E+02  0.7818608E-02  0.1130116E+00
         25   -1    0    0    0    0  0.00000000000E+00  0.00000000000E+00  0.99999998245E-14  0.12500000000E+03  0.12500000000E+03 0.  0.
        -13    1    3    3    0    0  0.18383987677E+02  0.16978460392E+02 -0.25962935402E+02  0.36060009691E+02  0.10566000000E+00 0. -1.
         23    2    1    0    0    0 -0.25728703263E+02 -0.89946283166E+01  0.68906654140E+01  0.96886821951E+02  0.92718420434E+02 0.  0.
         13    1    3    3    0    0 -0.44112690941E+02 -0.25973088709E+02  0.32853600816E+02  0.60826812260E+02  0.10566000000E+00 0.  1.
         22    1    1    0    0    0  0.25728703263E+02  0.89946283166E+01 -0.68906654140E+01  0.28113178049E+02  0.00000000000E+00 0.  1.
</event>
<event>
 5    1  0.1709463E-003  0.9118800E+02  0.7818608E-02  0.1130116E+00
         25   -1    0    0    0    0  0.00000000000E+00  0.00000000000E+00  0.99999998245E-14  0.12500000000E+03  0.12500000000E+03 0.  0.
        -13    1    3    3    0    0  0.11193850723E+02  0.25364141211E+02 -0.44842439374E+02  0.52720939733E+02  0.10566000000E+00 0.  1.
         23    2    1    0    0    0  0.12005450378E+02 -0.12465607738E+02 -0.22323908822E+02  0.96753245847E+02  0.92538162192E+02 0.  0.
         13    1    3    3    0    0  0.81159965552E+00 -0.37829748948E+02  0.22518530551E+02  0.44032306114E+02  0.10566000000E+00 0. -1.
         22    1    1    0    0    0 -0.12005450378E+02  0.12465607738E+02  0.22323908822E+02  0.28246754153E+02  0.00000000000E+00 0. -1.
</event>
<event>
 5    1  0.1709463E-003  0.9118800E+02  0.7818608E-02  0.1130116E+00
         25   -1    0    0    0    0  0.00000000000E+00  0.00000000000E+00  0.99999998245E-14  0.12500000000E+03  0.12500000000E+03 0.  0.
        -13    1    3    3    0    0  0.49929554496E+02 -0.24889879832E+02  0.74138436717E+01  0.56280038843E+02  0.10566000000E+00 0. -1.
         23    2    1    0    0    0  0.35164275535E+02  0.28069702599E+01  0.11419527929E+02  0.87921556478E+02  0.79720694424E+02 0.  0.
         13    1    3    3    0    0 -0.14765278961E+02  0.27696850092E+02  0.40056842572E+01  0.31641517634E+02  0.10566000000E+00 0.  1.
         22    1    1    0    0    0 -0.35164275535E+02 -0.28069702599E+01 -0.11419527929E+02  0.37078443522E+02  0.00000000000E+00 0. -1.
</event>
<event>
 5    1  0.1709463E-003  0.9118800E+02  0.7818608E-02  0.1130116E+00
         25   -1    0    0    0    0  0.00000000000E+00  0.00000000000E+00  0.99999998245E-14  0.12500000000E+03  0.12500000000E+03 0.  0.
        -13    1    3    3    0    0  0.39870042937E+02  0.21684595620E+02  0.36410703764E+02  0.58185844701E+02  0.10566000000E+00 0. -1.
         23    2    1    0    0    0  0.16416262542E+02 -0.52706261242E+01  0.22785998961E+02  0.96425974658E+02  0.92095025189E+02 0.  0.
         13    1    3    3    0    0 -0.23453780396E+02 -0.26955221744E+02 -0.13624704802E+02  0.38240129957E+02  0.10566000000E+00 0.  1.
         22    1    1    0    0    0 -0.16416262542E+02  0.52706261242E+01 -0.22785998961E+02  0.28574025342E+02  0.00000000000E+00 0. -1.
</event>
<event>
 5    1  0.1709463E-003  0.9118800E+02  0.7818608E-02  0.1130116E+00
         25   -1    0    0    0    0  0.00000000000E+00  0.00000000000E+00  0.99999998245E-14  0.12500000000E+03  0.12500000000E+03 0.  0.
        -13    1    3    3    0    0  0.32368657819E+01 -0.51059346350E+02  0.34611616259E+02  0.61769808919E+02  0.10566000000E+00 0.  1.
         23    2    1    0    0    0 -0.50993208943E+01 -0.23020522452E+02  0.17238193454E+02  0.95792075714E+02  0.91230581103E+02 0.  0.
         13    1    3    3    0    0 -0.83361866762E+01  0.28038823898E+02 -0.17373422804E+02  0.34022266795E+02  0.10566000000E+00 0. -1.
         22    1    1    0    0    0  0.50993208943E+01  0.23020522452E+02 -0.17238193454E+02  0.29207924286E+02  0.00000000000E+00 0.  1.
</event>
<event>
 5    1  0.1709463E-003  0.9118800E+02  0.7818608E-02  0.1130116E+00
         25   -1    0    0    0    0  0.00000000000E+00  0.00000000000E+00  0.99999998245E-14  0.12500000000E+03  0.12500000000E+03 0.  0.
        -13    1    3    3    0    0  0.43164713442E+01 -0.13721126118E+02 -0.35198120121E+02  0.38023940497E+02  0.10566000000E+00 0. -1.
         23    2    1    0    0    0  0.61896543032E+00 -0.14963264358E+02  0.23653133385E+02  0.97004408965E+02  0.92876812183E+02 0.  0.
         13    1    3    3    0    0 -0.36975059138E+01 -0.12421382403E+01  0.58851253506E+02  0.58980468468E+02  0.10566000000E+00 0.  1.
         22    1    1    0    0    0 -0.61896543032E+00  0.14963264358E+02 -0.23653133385E+02  0.27995591035E+02  0.00000000000E+00 0.  1.
</event>
<event>
 5    1  0.1709463E-003  0.9118800E+02  0.7818608E-02  0.1130116E+00
         25   -1    0    0    0    0  0.00000000000E+00  0.00000000000E+00  0.99999998245E-14  0.12500000000E+03  0.12500000000E+03 0.  0.
        -13    1    3    3    0    0  0.15869185049E+02 -0.13592105806E+01 -0.31813334021E+02  0.35577772177E+02  0.10566000000E+00 0.  1.
         23    2    1    0    0    0 -0.15315236048E+02  0.20676740434E+02  0.14390568706E+02  0.95518268066E+02  0.90854647743E+02 0.  0.
         13    1    3    3    0    0 -0.31184421097E+02  0.22035951014E+02  0.46203902726E+02  0.59940495889E+02  0.10566000000E+00 0. -1.
         22    1    1    0    0    0  0.15315236048E+02 -0.20676740434E+02 -0.14390568706E+02  0.29481731934E+02  0.00000000000E+00 0. -1.
</event>
<event>
 5    1  0.1709463E-003  0.9118800E+02  0.7818608E-02  0.1130116E+00
         25   -1    0    0    0    0  0.00000000000E+00  0.00000000000E+00  0.99999998245E-14  0.12500000000E+03  0.12500000000E+03 0.  0.
        -13    1    3    3    0    0 -0.26191651543E+02 -0.48725307181E+02 -0.74218341106E+01  0.55814451140E+02  0.10566000000E+00 0.  1.
         23    2    1    0    0    0  0.24950182639E+01 -0.28695885402E+02  0.94873721514E+01  0.94673622282E+02  0.89685035377E+02 0.  0.
         13    1    3    3    0    0  0.28686669807E+02  0.20029421780E+02  0.16909206262E+02  0.38859171142E+02  0.10566000000E+00 0. -1.
         22    1    1    0    0    0 -0.24950182639E+01  0.28695885402E+02 -0.94873721514E+01  0.30326377718E+02  0.00000000000E+00 0.  1.
</event>
<event>
 5    1  0.1709463E-003  0.9118800E+02  0.7818608E-02  0.1130116E+00
         25   -1    0    0    0    0  0.00000000000E+00  0.00000000000E+00  0.99999998245E-14  0.12500000000E+03  0.12500000000E+03 0.  0.
        -13    1    3    3    0    0  0.57456750309E+02 -0.16654781686E+02  0.10553690519E+02  0.60745793737E+02  0.10566000000E+00 0.  1.
         23    2    1    0    0    0  0.27317571275E+02 -0.37165911543E+01 -0.48926266493E+01  0.96999990256E+02  0.92870864990E+02 0.  0.
         13    1    3    3    0    0 -0.30139179035E+02  0.12938190531E+02 -0.15446317169E+02  0.36254196519E+02  0.10566000000E+00 0. -1.
         22    1    1    0    0    0 -0.27317571275E+02  0.37165911543E+01  0.48926266493E+01  0.28000009744E+02  0.00000000000E+00 0.  1.
</event>
<event>
 5    1  0.1709463E-003  0.9118800E+02  0.7818608E-02  0.1130116E+00
         25   -1    0    0    0    0  0.00000000000E+00  0.00000000000E+00  0.99999998245E-14  0.12500000000E+03  0.12500000000E+03 0.  0.
        -13    1    3    3    0    0  0.11416473665E+02  0.33327381074E+02  0.21692890117E+01  0.35295427169E+02  0.10566000000E+00 0. -1.
         23    2    1    0    0    0  0.34874218603E+01 -0.25518345072E+02  0.13768272739E+02  0.95795319200E+02  0.91235025072E+02 0.  0.
         13    1    3    3    0    0 -0.79290518047E+01 -0.58845726146E+02  0.11598983727E+02  0.60499892031E+02  0.10566000000E+00 0.  1.
         22    1    1    0    0    0 -0.34874218603E+01  0.25518345072E+02 -0.13768272739E+02  0.29204680800E+02  0.00000000000E+00 0.  1.
</event>
<event>
 5    1  0.1709463E-003  0.9118800E+02  0.7818608E-02  0.1130116E+00
         25   -1    0    0    0    0  0.00000000000E+00  0.00000000000E+00  0.99999998245E-14  0.12500000000E+03  0.12500000000E+03 0.  0.
        -13    1    3    3    0    0  0.27092869020E+02  0.40803564230E+02  0.77684111424E+01  0.49591468837E+02  0.10566000000E+00 0.  1.
         23    2    1    0    0    0 -0.11635030995E+02  0.19969079226E+02  0.19114716929E+02  0.95008159865E+02  0.90150096874E+02 0.  0.
         13    1    3    3    0    0 -0.38727900015E+02 -0.20834485004E+02  0.11346305786E+02  0.45416691029E+02  0.10566000000E+00 0. -1.
         22    1    1    0    0    0  0.11635030995E+02 -0.19969079226E+02 -0.19114716929E+02  0.29991840135E+02  0.00000000000E+00 0. -1.
</event>
<event>
 5    1  0.1709463E-003  0.9118800E+02  0.7818608E-02  0.1130116E+00
         25   -1    0    0    0    0  0.00000000000E+00  0.00000000000E+00  0.99999998245E-14  0.12500000000E+03  0.12500000000E+03 0.  0.
        -13    1    3    3    0    0 -0.11989584491E+02  0.37867089694E+02 -0.33818719967E+02  0.52166882238E+02  0.10566000000E+00 0. -1.
         23    2    1    0    0    0 -0.32146867237E+01  0.27610533159E+02  0.79710726725E+01  0.96082639269E+02  0.91627833202E+02 0.  0.
         13    1    3    3    0    0  0.87748977677E+01 -0.10256556535E+02  0.41789792639E+02  0.43915757032E+02  0.10566000000E+00 0.  1.
         22    1    1    0    0    0  0.32146867237E+01 -0.27610533159E+02 -0.79710726725E+01  0.28917360731E+02  0.00000000000E+00 0.  1.
</event>
<event>
 5    1  0.1709463E-003  0.9118800E+02  0.7818608E-02  0.1130116E+00
         25   -1    0    0    0    0  0.00000000000E+00  0.00000000000E+00  0.99999998245E-14  0.12500000000E+03  0.12500000000E+03 0.  0.
        -13    1    3    3    0    0 -0.43986874688E+02  0.33300883857E+01 -0.48155269860E+01  0.44374937720E+02  0.10566000000E+00 0. -1.
         23    2    1    0    0    0 -0.29370743386E+01  0.13665088769E+02  0.25142014475E+02  0.96234014033E+02  0.91834108633E+02 0.  0.
         13    1    3    3    0    0  0.41049800349E+02  0.10335000384E+02  0.29957541461E+02  0.51859076314E+02  0.10566000000E+00 0.  1.
         22    1    1    0    0    0  0.29370743386E+01 -0.13665088769E+02 -0.25142014475E+02  0.28765985967E+02  0.00000000000E+00 0.  1.
</event>
<event>
 5    1  0.1709463E-003  0.9118800E+02  0.7818608E-02  0.1130116E+00
         25   -1    0    0    0    0  0.00000000000E+00  0.00000000000E+00  0.99999998245E-14  0.12500000000E+03  0.12500000000E+03 0.  0.
        -13    1    3    3    0    0  0.16176437082E+02 -0.29211391112E+02  0.24095477467E+02  0.41177490037E+02  0.10566000000E+00 0.  1.
         23    2    1    0    0    0  0.83971666149E+01 -0.95962555920E+01 -0.26277628526E+02  0.95791879734E+02  0.91230312580E+02 0.  0.
         13    1    3    3    0    0 -0.77792704674E+01  0.19615135520E+02 -0.50373105993E+02  0.54614389696E+02  0.10566000000E+00 0. -1.
         22    1    1    0    0    0 -0.83971666149E+01  0.95962555920E+01  0.26277628526E+02  0.29208120266E+02  0.00000000000E+00 0.  1.
</event>
<event>
 5    1  0.1709463E-003  0.9118800E+02  0.7818608E-02  0.1130116E+00
         25   -1    0    0    0    0  0.00000000000E+00  0.00000000000E+00  0.99999998245E-14  0.12500000000E+03  0.12500000000E+03 0.  0.
        -13    1    3    3    0    0  0.21145553444E+02  0.38928869022E+02  0.42864435178E+02  0.61643833762E+02  0.10566000000E+00 0.  1.
         23    2    1    0    0    0  0.42814762475E+01  0.22617518446E+02  0.18502080430E+02  0.95466795640E+02  0.90783803127E+02 0.  0.
         13    1    3    3    0    0 -0.16864077196E+02 -0.16311350576E+02 -0.24362354748E+02  0.33822961878E+02  0.10566000000E+00 0. -1.
         22    1    1    0    0    0 -0.42814762475E+01 -0.22617518446E+02 -0.18502080430E+02  0.29533204360E+02  0.00000000000E+00 0.  1.
</event>
<event>
 5    1  0.1709463E-003  0.9118800E+02  0.7818608E-02  0.1130116E+00
         25   -1    0    0    0    0  0.00000000000E+00  0.00000000000E+00  0.99999998245E-14  0.12500000000E+03  0.12500000000E+03 0.  0.
        -13    1    3    3    0    0  0.41243702287E+02  0.37610430393E+02  0.16556617944E+01  0.55842097316E+02  0.10566000000E+00 0. -1.
         23    2    1    0    0    0  0.81138991964E+01  0.21941295326E+02 -0.16136209739E+02  0.96581114281E+02  0.92305355046E+02 0.  0.
         13    1    3    3    0    0 -0.33129803090E+02 -0.15669135067E+02 -0.17791871533E+02  0.40739016965E+02  0.10566000000E+00 0.  1.
         22    1    1    0    0    0 -0.81138991964E+01 -0.21941295326E+02  0.16136209739E+02  0.28418885719E+02  0.00000000000E+00 0. -1.
</event>
<event>
 5    1  0.1709463E-003  0.9118800E+02  0.7818608E-02  0.1130116E+00
         25   -1    0    0    0    0  0.00000000000E+00  0.00000000000E+00  0.99999998245E-14  0.12500000000E+03  0.12500000000E+03 0.  0.
        -13    1    3    3    0    0  0.19964123721E+02 -0.31173721839E+02  0.49927936426E+02  0.62154462181E+02  0.10566000000E+00 0.  1.
         23    2    1    0    0    0  0.63613767487E+01 -0.15887183949E+02  0.28296037394E+02  0.91931352308E+02  0.85777841411E+02 0.  0.
         13    1    3    3    0    0 -0.13602746972E+02  0.15286537891E+02 -0.21631899032E+02  0.29776890127E+02  0.10566000000E+00 0. -1.
         22    1    1    0    0    0 -0.63613767487E+01  0.15887183949E+02 -0.28296037394E+02  0.33068647692E+02  0.00000000000E+00 0.  1.
</event>
<event>
 5    1  0.1709463E-003  0.9118800E+02  0.7818608E-02  0.1130116E+00
         25   -1    0    0    0    0  0.00000000000E+00  0.00000000000E+00  0.99999998245E-14  0.12500000000E+03  0.12500000000E+03 0.  0.
        -13    1    3    3    0    0 -0.22945549168E+02 -0.38418080580E+02 -0.36125364341E+02  0.57510870754E+02  0.10566000000E+00 0.  1.
         23    2    1    0    0    0 -0.15350944864E+02 -0.20867752206E+02  0.78630579376E+00  0.99082190155E+02  0.95632356129E+02 0.  0.
         13    1    3    3    0    0  0.75946043039E+01  0.17550328374E+02  0.36911670135E+02  0.41571319401E+02  0.10566000000E+00 0. -1.
         22    1    1    0    0    0  0.15350944864E+02  0.20867752206E+02 -0.78630579376E+00  0.25917809845E+02  0.00000000000E+00 0.  1.
</event>
<event>
 5    1  0.1709463E-003  0.9118800E+02  0.7818608E-02  0.1130116E+00
         25   -1    0    0    0    0  0.00000000000E+00  0.00000000000E+00  0.99999998245E-14  0.12500000000E+03  0.12500000000E+03 0.  0.
        -13    1    3    3    0    0  0.46208482786E+02  0.18757982777E+01 -0.29293881466E+02  0.54743813860E+02  0.10566000000E+00 0. -1.
         23    2    1    0    0    0  0.86438037176E+01 -0.14748273416E+02 -0.23062656535E+02  0.96292630947E+02  0.91913860417E+02 0.  0.
         13    1    3    3    0    0 -0.37564679068E+02 -0.16624071694E+02  0.62312249310E+01  0.41548817087E+02  0.10566000000E+00 0.  1.
         22    1    1    0    0    0 -0.86438037176E+01  0.14748273416E+02  0.23062656535E+02  0.28707369053E+02  0.00000000000E+00 0. -1.
</event>
<event>
 5    1  0.1709463E-003  0.9118800E+02  0.7818608E-02  0.1130116E+00
         25   -1    0    0    0    0  0.00000000000E+00  0.00000000000E+00  0.99999998245E-14  0.12500000000E+03  0.12500000000E+03 0.  0.
        -13    1    3    3    0    0 -0.34549241312E+02  0.73473511182E+01  0.33207689954E+01  0.35477772118E+02  0.10566000000E+00 0. -1.
         23    2    1    0    0    0  0.12151374576E+02 -0.25178272167E+02 -0.12244461904E+02  0.94479054066E+02  0.89413441475E+02 0.  0.
         13    1    3    3    0    0  0.46700615888E+02 -0.32525623286E+02 -0.15565230899E+02  0.59001281947E+02  0.10566000000E+00 0.  1.
         22    1    1    0    0    0 -0.12151374576E+02  0.25178272167E+02  0.12244461904E+02  0.30520945934E+02  0.00000000000E+00 0.  1.
</event>
<event>
 5    1  0.1709463E-003  0.9118800E+02  0.7818608E-02  0.1130116E+00
         25   -1    0    0    0    0  0.00000000000E+00  0.00000000000E+00  0.99999998245E-14  0.12500000000E+03  0.12500000000E+03 0.  0.
        -13    1    3    3    0    0 -0.42498303460E+02 -0.19588692671E+02 -0.18263782718E+02  0.50233451014E+02  0.10566000000E+00 0. -1.
         23    2    1    0    0    0 -0.53821002013E+01  0.47239850584E+01 -0.28369928851E+02  0.95740199925E+02  0.91159475543E+02 0.  0.
         13    1    3    3    0    0  0.37116203259E+02  0.24312677730E+02 -0.10106146133E+02  0.45506748911E+02  0.10566000000E+00 0.  1.
         22    1    1    0    0    0  0.53821002013E+01 -0.47239850584E+01  0.28369928851E+02  0.29259800075E+02  0.00000000000E+00 0. -1.
</event>
<event>
 5    1  0.1709463E-003  0.9118800E+02  0.7818608E-02  0.1130116E+00
         25   -1    0    0    0    0  0.00000000000E+00  0.00000000000E+00  0.99999998245E-14  0.12500000000E+03  0.12500000000E+03 0.  0.
        -13    1    3    3    0    0 -0.33549596183E+02 -0.45550730427E+02  0.17082780673E+02  0.59095490573E+02  0.10566000000E+00 0.  1.
         23    2    1    0    0    0 -0.55385110157E+01 -0.17156574480E+02  0.18714337678E+02  0.99014435029E+02  0.95543753104E+02 0.  0.
         13    1    3    3    0    0  0.28011085168E+02  0.28394155947E+02  0.16315570055E+01  0.39918944456E+02  0.10566000000E+00 0. -1.
         22    1    1    0    0    0  0.55385110157E+01  0.17156574480E+02 -0.18714337678E+02  0.25985564971E+02  0.00000000000E+00 0.  1.
</event>
<event>
 5    1  0.1709463E-003  0.9118800E+02  0.7818608E-02  0.1130116E+00
         25   -1    0    0    0    0  0.00000000000E+00  0.00000000000E+00  0.99999998245E-14  0.12500000000E+03  0.12500000000E+03 0.  0.
        -13    1    3    3    0    0  0.31295314549E+02 -0.13926232200E+02  0.78541436762E+00  0.34263168210E+02  0.10566000000E+00 0. -1.
         23    2    1    0    0    0 -0.16158454406E+02  0.22736597979E+02  0.10853257880E+02  0.95069384519E+02  0.90234949603E+02 0.  0.
         13    1    3    3    0    0 -0.47453768955E+02  0.36662830179E+02  0.10067843512E+02  0.60806216309E+02  0.10566000000E+00 0.  1.
         22    1    1    0    0    0  0.16158454406E+02 -0.22736597979E+02 -0.10853257880E+02  0.29930615481E+02  0.00000000000E+00 0.  1.
</event>
<event>
 5    1  0.1709463E-003  0.9118800E+02  0.7818608E-02  0.1130116E+00
         25   -1    0    0    0    0  0.00000000000E+00  0.00000000000E+00  0.99999998245E-14  0.12500000000E+03  0.12500000000E+03 0.  0.
        -13    1    3    3    0    0  0.36306119721E+02  0.11673840967E+01  0.44630050482E+02  0.57544327999E+02  0.10566000000E+00 0. -1.
         23    2    1    0    0    0  0.25884306992E+02 -0.99119267485E+01  0.97139935558E+01  0.95629856808E+02  0.91008044711E+02 0.  0.
         13    1    3    3    0    0 -0.10421812730E+02 -0.11079310845E+02 -0.34916056926E+02  0.38085528809E+02  0.10566000000E+00 0.  1.
         22    1    1    0    0    0 -0.25884306992E+02  0.99119267485E+01 -0.97139935558E+01  0.29370143192E+02  0.00000000000E+00 0. -1.
</event>
<event>
 5    1  0.1709463E-003  0.9118800E+02  0.7818608E-02  0.1130116E+00
         25   -1    0    0    0    0  0.00000000000E+00  0.00000000000E+00  0.99999998245E-14  0.12500000000E+03  0.12500000000E+03 0.  0.
        -13    1    3    3    0    0  0.52834657698E+02  0.84316481034E+01 -0.78806327547E+01  0.54080581362E+02  0.10566000000E+00 0.  1.
         23    2    1    0    0    0  0.16943189745E+02 -0.68338896401E+01 -0.22750321676E+02  0.95822082619E+02  0.91271685942E+02 0.  0.
         13    1    3    3    0    0 -0.35891467954E+02 -0.15265537744E+02 -0.14869688922E+02  0.41741501256E+02  0.10566000000E+00 0. -1.
         22    1    1    0    0    0 -0.16943189745E+02  0.68338896401E+01  0.22750321676E+02  0.29177917381E+02  0.00000000000E+00 0.  1.
</event>
<event>
 5    1  0.1709463E-003  0.9118800E+02  0.7818608E-02  0.1130116E+00
         25   -1    0    0    0    0  0.00000000000E+00  0.00000000000E+00  0.99999998245E-14  0.12500000000E+03  0.12500000000E+03 0.  0.
        -13    1    3    3    0    0 -0.23636522606E+02  0.28347583617E+02 -0.38479800135E+02  0.53319573145E+02  0.10566000000E+00 0. -1.
         23    2    1    0    0    0  0.82905022888E+01  0.21680668177E+02 -0.30090505790E+02  0.86997074593E+02  0.78257706638E+02 0.  0.
         13    1    3    3    0    0  0.31927024895E+02 -0.66669154397E+01  0.83892943456E+01  0.33677501448E+02  0.10566000000E+00 0.  1.
         22    1    1    0    0    0 -0.82905022888E+01 -0.21680668177E+02  0.30090505790E+02  0.38002925407E+02  0.00000000000E+00 0. -1.
</event>
<event>
 5    1  0.1709463E-003  0.9118800E+02  0.7818608E-02  0.1130116E+00
         25   -1    0    0    0    0  0.00000000000E+00  0.00000000000E+00  0.99999998245E-14  0.12500000000E+03  0.12500000000E+03 0.  0.
        -13    1    3    3    0    0 -0.28624145519E+02  0.39937325467E+02  0.13743268667E+02  0.51021762708E+02  0.10566000000E+00 0.  1.
         23    2    1    0    0    0  0.10371525774E+01  0.18181628138E+02  0.28927712407E+02  0.90817258268E+02  0.84138662736E+02 0.  0.
         13    1    3    3    0    0  0.29661298097E+02 -0.21755697329E+02  0.15184443740E+02  0.39795495559E+02  0.10566000000E+00 0. -1.
         22    1    1    0    0    0 -0.10371525774E+01 -0.18181628138E+02 -0.28927712407E+02  0.34182741732E+02  0.00000000000E+00 0.  1.
</event>
<event>
 5    1  0.1709463E-003  0.9118800E+02  0.7818608E-02  0.1130116E+00
         25   -1    0    0    0    0  0.00000000000E+00  0.00000000000E+00  0.99999998245E-14  0.12500000000E+03  0.12500000000E+03 0.  0.
        -13    1    3    3    0    0 -0.40236873744E+02  0.28978009979E+01  0.45721085067E+02  0.60974027610E+02  0.10566000000E+00 0.  1.
         23    2    1    0    0    0 -0.11302759467E+02  0.18625088485E+01  0.27567074241E+02  0.95147614953E+02  0.90343255079E+02 0.  0.
         13    1    3    3    0    0  0.28934114276E+02 -0.10352921494E+01 -0.18154010826E+02  0.34173587343E+02  0.10566000000E+00 0. -1.
         22    1    1    0    0    0  0.11302759467E+02 -0.18625088485E+01 -0.27567074241E+02  0.29852385047E+02  0.00000000000E+00 0.  1.
</event>
<event>
 5    1  0.1709463E-003  0.9118800E+02  0.7818608E-02  0.1130116E+00
         25   -1    0    0    0    0  0.00000000000E+00  0.00000000000E+00  0.99999998245E-14  0.12500000000E+03  0.12500000000E+03 0.  0.
        -13    1    3    3    0    0 -0.31365662547E+01 -0.99771432460E+01  0.52983906431E+02  0.54006360181E+02  0.10566000000E+00 0.  1.
         23    2    1    0    0    0 -0.73175141700E+01  0.17620903581E+02  0.25216396340E+02  0.93378663833E+02  0.87861629613E+02 0.  0.
         13    1    3    3    0    0 -0.41809479154E+01  0.27598046827E+02 -0.27767510092E+02  0.39372303652E+02  0.10566000000E+00 0. -1.
         22    1    1    0    0    0  0.73175141700E+01 -0.17620903581E+02 -0.25216396340E+02  0.31621336167E+02  0.00000000000E+00 0.  1.
</event>
<event>
 5    1  0.1709463E-003  0.9118800E+02  0.7818608E-02  0.1130116E+00
         25   -1    0    0    0    0  0.00000000000E+00  0.00000000000E+00  0.99999998245E-14  0.12500000000E+03  0.12500000000E+03 0.  0.
        -13    1    3    3    0    0 -0.77720765686E+01 -0.12124836363E+02 -0.27008791629E+02  0.30608868328E+02  0.10566000000E+00 0.  1.
         23    2    1    0    0    0 -0.69326622139E+01  0.35148314752E+02 -0.30404968281E+02  0.78011406369E+02  0.62272398317E+02 0.  0.
         13    1    3    3    0    0  0.83941435466E+00  0.47273151115E+02 -0.33961766516E+01  0.47402538041E+02  0.10566000000E+00 0. -1.
         22    1    1    0    0    0  0.69326622139E+01 -0.35148314752E+02  0.30404968281E+02  0.46988593631E+02  0.00000000000E+00 0. -1.
</event>
<event>
 5    1  0.1709463E-003  0.9118800E+02  0.7818608E-02  0.1130116E+00
         25   -1    0    0    0    0  0.00000000000E+00  0.00000000000E+00  0.99999998245E-14  0.12500000000E+03  0.12500000000E+03 0.  0.
        -13    1    3    3    0    0 -0.27755050076E+02 -0.29950622563E+02 -0.77050277693E+01  0.41554316425E+02  0.10566000000E+00 0. -1.
         23    2    1    0    0    0  0.16275661112E+02  0.56416641563E+01  0.14612267493E+02  0.10241142146E+03  0.99889215461E+02 0.  0.
         13    1    3    3    0    0  0.44030711188E+02  0.35592286719E+02  0.22317295262E+02  0.60857105037E+02  0.10566000000E+00 0.  1.
         22    1    1    0    0    0 -0.16275661112E+02 -0.56416641563E+01 -0.14612267493E+02  0.22588578538E+02  0.00000000000E+00 0.  1.
</event>
<event>
 5    1  0.1709463E-003  0.9118800E+02  0.7818608E-02  0.1130116E+00
         25   -1    0    0    0    0  0.00000000000E+00  0.00000000000E+00  0.99999998245E-14  0.12500000000E+03  0.12500000000E+03 0.  0.
        -13    1    3    3    0    0 -0.36994288025E+02 -0.81643004803E+01  0.14012741476E+02  0.40393084018E+02  0.10566000000E+00 0. -1.
         23    2    1    0    0    0 -0.66617640754E+01 -0.33589720440E-01 -0.29893044635E+02  0.94373633151E+02  0.89265941364E+02 0.  0.
         13    1    3    3    0    0  0.30332523950E+02  0.81307107598E+01 -0.43905786110E+02  0.53980549132E+02  0.10566000000E+00 0.  1.
         22    1    1    0    0    0  0.66617640754E+01  0.33589720440E-01  0.29893044635E+02  0.30626366849E+02  0.00000000000E+00 0. -1.
</event>
<event>
 5    1  0.1709463E-003  0.9118800E+02  0.7818608E-02  0.1130116E+00
         25   -1    0    0    0    0  0.00000000000E+00  0.00000000000E+00  0.99999998245E-14  0.12500000000E+03  0.12500000000E+03 0.  0.
        -13    1    3    3    0    0 -0.40404230336E+02 -0.71249568727E+01  0.18929292200E+02  0.45184024907E+02  0.10566000000E+00 0.  1.
         23    2    1    0    0    0  0.14172373321E+02 -0.12598730953E+02  0.16128448892E+02  0.10010600372E+03  0.96961337294E+02 0.  0.
         13    1    3    3    0    0  0.54576603657E+02 -0.54737740800E+01 -0.28008433085E+01  0.54921978813E+02  0.10566000000E+00 0. -1.
         22    1    1    0    0    0 -0.14172373321E+02  0.12598730953E+02 -0.16128448892E+02  0.24893996281E+02  0.00000000000E+00 0. -1.
</event>
<event>
 5    1  0.1709463E-003  0.9118800E+02  0.7818608E-02  0.1130116E+00
         25   -1    0    0    0    0  0.00000000000E+00  0.00000000000E+00  0.99999998245E-14  0.12500000000E+03  0.12500000000E+03 0.  0.
        -13    1    3    3    0    0 -0.11238218214E+02  0.31245309892E+02  0.27851084445E+02  0.43338908704E+02  0.10566000000E+00 0. -1.
         23    2    1    0    0    0 -0.23836336408E+02  0.67435184898E+01 -0.16275241599E+02  0.95360002293E+02  0.90636640346E+02 0.  0.
         13    1    3    3    0    0 -0.12598118195E+02 -0.24501791403E+02 -0.44126326044E+02  0.52021093588E+02  0.10566000000E+00 0.  1.
         22    1    1    0    0    0  0.23836336408E+02 -0.67435184898E+01  0.16275241599E+02  0.29639997707E+02  0.00000000000E+00 0.  1.
</event>
<event>
 5    1  0.1709463E-003  0.9118800E+02  0.7818608E-02  0.1130116E+00
         25   -1    0    0    0    0  0.00000000000E+00  0.00000000000E+00  0.99999998245E-14  0.12500000000E+03  0.12500000000E+03 0.  0.
        -13    1    3    3    0    0 -0.31053714245E+02  0.22665090707E+02  0.45593194304E+02  0.59638829935E+02  0.10566000000E+00 0.  1.
         23    2    1    0    0    0 -0.11635868707E+02  0.23626332097E+02  0.19254486959E+02  0.92375894235E+02  0.86423223492E+02 0.  0.
         13    1    3    3    0    0  0.19417845538E+02  0.96124138963E+00 -0.26338707345E+02  0.32737064300E+02  0.10566000000E+00 0. -1.
         22    1    1    0    0    0  0.11635868707E+02 -0.23626332097E+02 -0.19254486959E+02  0.32624105765E+02  0.00000000000E+00 0.  1.
</event>
<event>
 5    1  0.1709463E-003  0.9118800E+02  0.7818608E-02  0.1130116E+00
         25   -1    0    0    0    0  0.00000000000E+00  0.00000000000E+00  0.99999998245E-14  0.12500000000E+03  0.12500000000E+03 0.  0.
        -13    1    3    3    0    0 -0.12360703889E+02  0.38058933537E+02  0.24797057906E+02  0.47076264374E+02  0.10566000000E+00 0. -1.
         23    2    1    0    0    0 -0.23998653272E+02 -0.83801120215E+01  0.13293420494E+02  0.96314173103E+02  0.91943152413E+02 0.  0.
         13    1    3    3    0    0 -0.11637949383E+02 -0.46439045559E+02 -0.11503637411E+02  0.49237908728E+02  0.10566000000E+00 0.  1.
         22    1    1    0    0    0  0.23998653272E+02  0.83801120215E+01 -0.13293420494E+02  0.28685826897E+02  0.00000000000E+00 0.  1.
</event>
<event>
 5    1  0.1709463E-003  0.9118800E+02  0.7818608E-02  0.1130116E+00
         25   -1    0    0    0    0  0.00000000000E+00  0.00000000000E+00  0.99999998245E-14  0.12500000000E+03  0.12500000000E+03 0.  0.
        -13    1    3    3    0    0  0.30862121707E+02  0.85943481172E+01 -0.90084317704E+01  0.33279068238E+02  0.10566000000E+00 0. -1.
         23    2    1    0    0    0 -0.26914508564E+02 -0.98464785379E+01  0.59159648566E+01  0.95736668832E+02  0.91154633497E+02 0.  0.
         13    1    3    3    0    0 -0.57776630271E+02 -0.18440826655E+02  0.14924396627E+02  0.62457600594E+02  0.10566000000E+00 0.  1.
         22    1    1    0    0    0  0.26914508564E+02  0.98464785379E+01 -0.59159648566E+01  0.29263331168E+02  0.00000000000E+00 0.  1.
</event>
<event>
 5    1  0.1709463E-003  0.9118800E+02  0.7818608E-02  0.1130116E+00
         25   -1    0    0    0    0  0.00000000000E+00  0.00000000000E+00  0.99999998245E-14  0.12500000000E+03  0.12500000000E+03 0.  0.
        -13    1    3    3    0    0 -0.52757664406E+01 -0.97608553550E+01  0.27222343084E+02  0.29396855883E+02  0.10566000000E+00 0. -1.
         23    2    1    0    0    0 -0.43088417922E+02  0.11936459181E+02  0.98684861493E+00  0.80277917234E+02  0.66666928146E+02 0.  0.
         13    1    3    3    0    0 -0.37812651481E+02  0.21697314536E+02 -0.26235494469E+02  0.50881061351E+02  0.10566000000E+00 0.  1.
         22    1    1    0    0    0  0.43088417922E+02 -0.11936459181E+02 -0.98684861493E+00  0.44722082766E+02  0.00000000000E+00 0.  1.
</event>
<event>
 5    1  0.1709463E-003  0.9118800E+02  0.7818608E-02  0.1130116E+00
         25   -1    0    0    0    0  0.00000000000E+00  0.00000000000E+00  0.99999998245E-14  0.12500000000E+03  0.12500000000E+03 0.  0.
        -13    1    3    3    0    0  0.34851713902E+02  0.47026079140E+02 -0.77830926929E+01  0.59048131021E+02  0.10566000000E+00 0.  1.
         23    2    1    0    0    0  0.25410189876E+02  0.10244243117E+02 -0.52259210969E+01  0.97108558340E+02  0.93016877958E+02 0.  0.
         13    1    3    3    0    0 -0.94415240259E+01 -0.36781836023E+02  0.25571715960E+01  0.38060427319E+02  0.10566000000E+00 0. -1.
         22    1    1    0    0    0 -0.25410189876E+02 -0.10244243117E+02  0.52259210969E+01  0.27891441660E+02  0.00000000000E+00 0.  1.
</event>
<event>
 5    1  0.1709463E-003  0.9118800E+02  0.7818608E-02  0.1130116E+00
         25   -1    0    0    0    0  0.00000000000E+00  0.00000000000E+00  0.99999998245E-14  0.12500000000E+03  0.12500000000E+03 0.  0.
        -13    1    3    3    0    0  0.20347534653E+02 -0.23867252730E+02  0.19566842290E+02  0.36966747227E+02  0.10566000000E+00 0.  1.
         23    2    1    0    0    0 -0.94480628827E+01  0.26032873789E+02  0.54755888460E+01  0.96769546884E+02  0.92560178916E+02 0.  0.
         13    1    3    3    0    0 -0.29795597535E+02  0.49900126519E+02 -0.14091253444E+02  0.59802799657E+02  0.10566000000E+00 0. -1.
         22    1    1    0    0    0  0.94480628827E+01 -0.26032873789E+02 -0.54755888460E+01  0.28230453116E+02  0.00000000000E+00 0. -1.
</event>
<event>
 5    1  0.1709463E-003  0.9118800E+02  0.7818608E-02  0.1130116E+00
         25   -1    0    0    0    0  0.00000000000E+00  0.00000000000E+00  0.99999998245E-14  0.12500000000E+03  0.12500000000E+03 0.  0.
        -13    1    3    3    0    0  0.26465372827E+02 -0.35671108874E+02 -0.11135616190E+02  0.45791452031E+02  0.10566000000E+00 0.  1.
         23    2    1    0    0    0 -0.85905709790E+01 -0.43651137847E+01 -0.27736719248E+02  0.95637137014E+02  0.91018043560E+02 0.  0.
         13    1    3    3    0    0 -0.35055943806E+02  0.31305995089E+02 -0.16601103058E+02  0.49845684983E+02  0.10566000000E+00 0. -1.
         22    1    1    0    0    0  0.85905709790E+01  0.43651137847E+01  0.27736719248E+02  0.29362862986E+02  0.00000000000E+00 0.  1.
</event>
<event>
 5    1  0.1709463E-003  0.9118800E+02  0.7818608E-02  0.1130116E+00
         25   -1    0    0    0    0  0.00000000000E+00  0.00000000000E+00  0.99999998245E-14  0.12500000000E+03  0.12500000000E+03 0.  0.
        -13    1    3    3    0    0  0.24687216703E+01 -0.38581167599E+02 -0.11966031944E+02  0.40469719106E+02  0.10566000000E+00 0. -1.
         23    2    1    0    0    0  0.97558277576E+01 -0.67603827289E+00  0.27584011382E+02  0.95733792748E+02  0.91150689450E+02 0.  0.
         13    1    3    3    0    0  0.72871060873E+01  0.37905129327E+02  0.39550043326E+02  0.55264073642E+02  0.10566000000E+00 0.  1.
         22    1    1    0    0    0 -0.97558277576E+01  0.67603827289E+00 -0.27584011382E+02  0.29266207252E+02  0.00000000000E+00 0. -1.
</event>
<event>
 5    1  0.1709463E-003  0.9118800E+02  0.7818608E-02  0.1130116E+00
         25   -1    0    0    0    0  0.00000000000E+00  0.00000000000E+00  0.99999998245E-14  0.12500000000E+03  0.12500000000E+03 0.  0.
        -13    1    3    3    0    0  0.19761920081E+02  0.16001427932E+02  0.30259474701E+02  0.39525006697E+02  0.10566000000E+00 0. -1.
         23    2    1    0    0    0 -0.28595997800E+02 -0.47752062502E+00  0.14133597442E+02  0.93098312070E+02  0.87461866077E+02 0.  0.
         13    1    3    3    0    0 -0.48357917881E+02 -0.16478948557E+02 -0.16125877259E+02  0.53573305374E+02  0.10566000000E+00 0.  1.
         22    1    1    0    0    0  0.28595997800E+02  0.47752062502E+00 -0.14133597442E+02  0.31901687930E+02  0.00000000000E+00 0. -1.
</event>
<event>
 5    1  0.1709463E-003  0.9118800E+02  0.7818608E-02  0.1130116E+00
         25   -1    0    0    0    0  0.00000000000E+00  0.00000000000E+00  0.99999998245E-14  0.12500000000E+03  0.12500000000E+03 0.  0.
        -13    1    3    3    0    0 -0.47540391719E+01 -0.40092837295E+02 -0.44256967378E+02  0.59905983143E+02  0.10566000000E+00 0.  1.
         23    2    1    0    0    0 -0.88138597632E+01 -0.26080992643E+02 -0.12679678610E+02  0.94690322489E+02  0.89708308546E+02 0.  0.
         13    1    3    3    0    0 -0.40598205913E+01  0.14011844653E+02  0.31577288767E+02  0.34784339346E+02  0.10566000000E+00 0. -1.
         22    1    1    0    0    0  0.88138597632E+01  0.26080992643E+02  0.12679678610E+02  0.30309677511E+02  0.00000000000E+00 0.  1.
</event>
<event>
 5    1  0.1709463E-003  0.9118800E+02  0.7818608E-02  0.1130116E+00
         25   -1    0    0    0    0  0.00000000000E+00  0.00000000000E+00  0.99999998245E-14  0.12500000000E+03  0.12500000000E+03 0.  0.
        -13    1    3    3    0    0 -0.17735141014E+01 -0.36672624646E+02 -0.10470242104E+02  0.38179364642E+02  0.10566000000E+00 0. -1.
         23    2    1    0    0    0 -0.41826998204E+01  0.49359419862E+01  0.28823002311E+02  0.95459790737E+02  0.90774157579E+02 0.  0.
         13    1    3    3    0    0 -0.24091857190E+01  0.41608566632E+02  0.39293244415E+02  0.57280426095E+02  0.10566000000E+00 0.  1.
         22    1    1    0    0    0  0.41826998204E+01 -0.49359419862E+01 -0.28823002311E+02  0.29540209263E+02  0.00000000000E+00 0.  1.
</event>
<event>
 5    1  0.1709463E-003  0.9118800E+02  0.7818608E-02  0.1130116E+00
         25   -1    0    0    0    0  0.00000000000E+00  0.00000000000E+00  0.99999998245E-14  0.12500000000E+03  0.12500000000E+03 0.  0.
        -13    1    3    3    0    0  0.34323864786E+02 -0.49585470048E+01 -0.13784670671E+02  0.37319474699E+02  0.10566000000E+00 0. -1.
         23    2    1    0    0    0 -0.21507144316E+02  0.10889864406E+02 -0.17088974512E+02  0.95450389964E+02  0.90761211379E+02 0.  0.
         13    1    3    3    0    0 -0.55831009102E+02  0.15848411411E+02 -0.33043038411E+01  0.58130915265E+02  0.10566000000E+00 0.  1.
         22    1    1    0    0    0  0.21507144316E+02 -0.10889864406E+02  0.17088974512E+02  0.29549610036E+02  0.00000000000E+00 0.  1.
</event>
<event>
 5    1  0.1709463E-003  0.9118800E+02  0.7818608E-02  0.1130116E+00
         25   -1    0    0    0    0  0.00000000000E+00  0.00000000000E+00  0.99999998245E-14  0.12500000000E+03  0.12500000000E+03 0.  0.
        -13    1    3    3    0    0 -0.17334711599E+02  0.33249435548E+02  0.31785850792E+02  0.49156572959E+02  0.10566000000E+00 0.  1.
         23    2    1    0    0    0  0.19793849714E+02  0.73413564522E+01  0.19952529467E+02  0.95951842860E+02  0.91449224792E+02 0.  0.
         13    1    3    3    0    0  0.37128561313E+02 -0.25908079096E+02 -0.11833321325E+02  0.46795269902E+02  0.10566000000E+00 0. -1.
         22    1    1    0    0    0 -0.19793849714E+02 -0.73413564522E+01 -0.19952529467E+02  0.29048157140E+02  0.00000000000E+00 0.  1.
</event>
<event>
 5    1  0.1709463E-003  0.9118800E+02  0.7818608E-02  0.1130116E+00
         25   -1    0    0    0    0  0.00000000000E+00  0.00000000000E+00  0.99999998245E-14  0.12500000000E+03  0.12500000000E+03 0.  0.
        -13    1    3    3    0    0 -0.26190239111E+02  0.94686164427E+01 -0.18852860092E+02  0.33630712448E+02  0.10566000000E+00 0. -1.
         23    2    1    0    0    0  0.21081775469E+02 -0.88815443882E+01  0.17645700588E+02  0.96108931538E+02  0.91663694473E+02 0.  0.
         13    1    3    3    0    0  0.47272014580E+02 -0.18350160831E+02  0.36498560680E+02  0.62478219090E+02  0.10566000000E+00 0.  1.
         22    1    1    0    0    0 -0.21081775469E+02  0.88815443882E+01 -0.17645700588E+02  0.28891068462E+02  0.00000000000E+00 0.  1.
</event>
<event>
 5    1  0.1709463E-003  0.9118800E+02  0.7818608E-02  0.1130116E+00
         25   -1    0    0    0    0  0.00000000000E+00  0.00000000000E+00  0.99999998245E-14  0.12500000000E+03  0.12500000000E+03 0.  0.
        -13    1    3    3    0    0 -0.34728826950E+02 -0.56200015147E+01 -0.13923005994E+02  0.37835659083E+02  0.10566000000E+00 0.  1.
         23    2    1    0    0    0  0.13889500392E+02  0.24957176850E+02 -0.32432944574E+01  0.96254602866E+02  0.91862128848E+02 0.  0.
         13    1    3    3    0    0  0.48618327341E+02  0.30577178364E+02  0.10679711536E+02  0.58418943783E+02  0.10566000000E+00 0. -1.
         22    1    1    0    0    0 -0.13889500392E+02 -0.24957176850E+02  0.32432944574E+01  0.28745397134E+02  0.00000000000E+00 0. -1.
</event>
<event>
 5    1  0.1709463E-003  0.9118800E+02  0.7818608E-02  0.1130116E+00
         25   -1    0    0    0    0  0.00000000000E+00  0.00000000000E+00  0.99999998245E-14  0.12500000000E+03  0.12500000000E+03 0.  0.
        -13    1    3    3    0    0  0.22889325003E+02 -0.47714645800E+02 -0.26915093779E+02  0.59372064644E+02  0.10566000000E+00 0. -1.
         23    2    1    0    0    0  0.16024785084E+02 -0.12307210729E+02 -0.20887016148E+02  0.95939225466E+02  0.91431976718E+02 0.  0.
         13    1    3    3    0    0 -0.68645399189E+01  0.35407435071E+02  0.60280776308E+01  0.36567160822E+02  0.10566000000E+00 0.  1.
         22    1    1    0    0    0 -0.16024785084E+02  0.12307210729E+02  0.20887016148E+02  0.29060774534E+02  0.00000000000E+00 0. -1.
</event>
<event>
 5    1  0.1709463E-003  0.9118800E+02  0.7818608E-02  0.1130116E+00
         25   -1    0    0    0    0  0.00000000000E+00  0.00000000000E+00  0.99999998245E-14  0.12500000000E+03  0.12500000000E+03 0.  0.
        -13    1    3    3    0    0  0.27070541021E+02 -0.68607631843E+01 -0.53057045187E+02  0.59957864127E+02  0.10566000000E+00 0.  1.
         23    2    1    0    0    0  0.17855938004E+02  0.71730520788E+01 -0.18849969353E+02  0.98062877980E+02  0.94290611914E+02 0.  0.
         13    1    3    3    0    0 -0.92146030173E+01  0.14033815263E+02  0.34207075834E+02  0.38105013853E+02  0.10566000000E+00 0. -1.
         22    1    1    0    0    0 -0.17855938004E+02 -0.71730520788E+01  0.18849969353E+02  0.26937122020E+02  0.00000000000E+00 0.  1.
</event>
<event>
 5    1  0.1709463E-003  0.9118800E+02  0.7818608E-02  0.1130116E+00
         25   -1    0    0    0    0  0.00000000000E+00  0.00000000000E+00  0.99999998245E-14  0.12500000000E+03  0.12500000000E+03 0.  0.
        -13    1    3    3    0    0  0.38333206832E+02  0.17089835635E+02 -0.45232425435E+02  0.61704786709E+02  0.10566000000E+00 0. -1.
         23    2    1    0    0    0  0.21009752481E+02  0.17446373074E+01 -0.20054401075E+02  0.95903050656E+02  0.91382507430E+02 0.  0.
         13    1    3    3    0    0 -0.17323454351E+02 -0.15345198327E+02  0.25178024360E+02  0.34198263948E+02  0.10566000000E+00 0.  1.
         22    1    1    0    0    0 -0.21009752481E+02 -0.17446373074E+01  0.20054401075E+02  0.29096949344E+02  0.00000000000E+00 0. -1.
</event>
<event>
 5    1  0.1709463E-003  0.9118800E+02  0.7818608E-02  0.1130116E+00
         25   -1    0    0    0    0  0.00000000000E+00  0.00000000000E+00  0.99999998245E-14  0.12500000000E+03  0.12500000000E+03 0.  0.
        -13    1    3    3    0    0  0.43324715479E+02  0.73611715923E+01  0.70739044367E+01  0.44511449162E+02  0.10566000000E+00 0.  1.
         23    2    1    0    0    0 -0.23311271417E+01  0.28512224323E+02  0.94148782591E+01  0.94883210293E+02  0.89976677941E+02 0.  0.
         13    1    3    3    0    0 -0.45655842620E+02  0.21151052731E+02  0.23409738225E+01  0.50371761131E+02  0.10566000000E+00 0. -1.
         22    1    1    0    0    0  0.23311271417E+01 -0.28512224323E+02 -0.94148782591E+01  0.30116789707E+02  0.00000000000E+00 0. -1.
</event>
<event>
 5    1  0.1709463E-003  0.9118800E+02  0.7818608E-02  0.1130116E+00
         25   -1    0    0    0    0  0.00000000000E+00  0.00000000000E+00  0.99999998245E-14  0.12500000000E+03  0.12500000000E+03 0.  0.
        -13    1    3    3    0    0  0.37896552001E+01 -0.29473542972E+02  0.91074121353E+01  0.31080658643E+02  0.10566000000E+00 0. -1.
         23    2    1    0    0    0 -0.43239605986E+01  0.16572659333E+01  0.45276690600E+02  0.79487124049E+02  0.65167330866E+02 0.  0.
         13    1    3    3    0    0 -0.81136157987E+01  0.31130808905E+02  0.36169278465E+02  0.48406465406E+02  0.10566000000E+00 0.  1.
         22    1    1    0    0    0  0.43239605986E+01 -0.16572659333E+01 -0.45276690600E+02  0.45512875951E+02  0.00000000000E+00 0.  1.
</event>
<event>
 5    1  0.1709463E-003  0.9118800E+02  0.7818608E-02  0.1130116E+00
         25   -1    0    0    0    0  0.00000000000E+00  0.00000000000E+00  0.99999998245E-14  0.12500000000E+03  0.12500000000E+03 0.  0.
        -13    1    3    3    0    0 -0.19159568120E+02 -0.47816353632E+02 -0.25331463570E+02  0.57403718833E+02  0.10566000000E+00 0.  1.
         23    2    1    0    0    0 -0.19985435387E+02 -0.10460845565E+02 -0.19422597558E+02  0.95232833299E+02  0.90461087350E+02 0.  0.
         13    1    3    3    0    0 -0.82586726666E+00  0.37355508067E+02  0.59088660127E+01  0.37829114465E+02  0.10566000000E+00 0. -1.
         22    1    1    0    0    0  0.19985435387E+02  0.10460845565E+02  0.19422597558E+02  0.29767166701E+02  0.00000000000E+00 0.  1.
</event>
<event>
 5    1  0.1709463E-003  0.9118800E+02  0.7818608E-02  0.1130116E+00
         25   -1    0    0    0    0  0.00000000000E+00  0.00000000000E+00  0.99999998245E-14  0.12500000000E+03  0.12500000000E+03 0.  0.
        -13    1    3    3    0    0  0.89822801648E+01 -0.26907915301E+02  0.28308396489E+02  0.40076099344E+02  0.10566000000E+00 0. -1.
         23    2    1    0    0    0 -0.26093712478E+02  0.97743143389E+01  0.24748938705E+01  0.97026009378E+02  0.92905878955E+02 0.  0.
         13    1    3    3    0    0 -0.35075992643E+02  0.36682229640E+02 -0.25833502619E+02  0.56949910034E+02  0.10566000000E+00 0.  1.
         22    1    1    0    0    0  0.26093712478E+02 -0.97743143389E+01 -0.24748938705E+01  0.27973990622E+02  0.00000000000E+00 0.  1.
</event>
<event>
 5    1  0.1709463E-003  0.9118800E+02  0.7818608E-02  0.1130116E+00
         25   -1    0    0    0    0  0.00000000000E+00  0.00000000000E+00  0.99999998245E-14  0.12500000000E+03  0.12500000000E+03 0.  0.
        -13    1    3    3    0    0  0.29741285571E+02 -0.22899717869E+02  0.24942519136E+02  0.45067522350E+02  0.10566000000E+00 0.  1.
         23    2    1    0    0    0  0.10444704056E+02  0.22500119511E+02  0.16735861980E+02  0.95076158384E+02  0.90244332764E+02 0.  0.
         13    1    3    3    0    0 -0.19296581514E+02  0.45399837380E+02 -0.82066571554E+01  0.50008636034E+02  0.10566000000E+00 0. -1.
         22    1    1    0    0    0 -0.10444704056E+02 -0.22500119511E+02 -0.16735861980E+02  0.29923841616E+02  0.00000000000E+00 0. -1.
</event>
<event>
 5    1  0.1709463E-003  0.9118800E+02  0.7818608E-02  0.1130116E+00
         25   -1    0    0    0    0  0.00000000000E+00  0.00000000000E+00  0.99999998245E-14  0.12500000000E+03  0.12500000000E+03 0.  0.
        -13    1    3    3    0    0 -0.31249355524E+02 -0.15267133756E+02 -0.55288595694E+01  0.35216289497E+02  0.10566000000E+00 0. -1.
         23    2    1    0    0    0  0.28210309922E+02 -0.25224982202E+01 -0.60929610665E+01  0.96029174024E+02  0.91554866096E+02 0.  0.
         13    1    3    3    0    0  0.59459665446E+02  0.12744635536E+02 -0.56410149714E+00  0.60812884527E+02  0.10566000000E+00 0.  1.
         22    1    1    0    0    0 -0.28210309922E+02  0.25224982202E+01  0.60929610665E+01  0.28970825976E+02  0.00000000000E+00 0.  1.
</event>
<event>
 5    1  0.1709463E-003  0.9118800E+02  0.7818608E-02  0.1130116E+00
         25   -1    0    0    0    0  0.00000000000E+00  0.00000000000E+00  0.99999998245E-14  0.12500000000E+03  0.12500000000E+03 0.  0.
        -13    1    3    3    0    0  0.11522307648E+02 -0.39068828212E+02  0.16077489753E+02  0.43790795291E+02  0.10566000000E+00 0.  1.
         23    2    1    0    0    0  0.55959207151E+01  0.19399901392E+02  0.86781229895E+01  0.10302318673E+03  0.10065185882E+03 0.  0.
         13    1    3    3    0    0 -0.59263869330E+01  0.58468729604E+02 -0.73993667634E+01  0.59232391444E+02  0.10566000000E+00 0. -1.
         22    1    1    0    0    0 -0.55959207151E+01 -0.19399901392E+02 -0.86781229895E+01  0.21976813265E+02  0.00000000000E+00 0. -1.
</event>
<event>
 5    1  0.1709463E-003  0.9118800E+02  0.7818608E-02  0.1130116E+00
         25   -1    0    0    0    0  0.00000000000E+00  0.00000000000E+00  0.99999998245E-14  0.12500000000E+03  0.12500000000E+03 0.  0.
        -13    1    3    3    0    0 -0.36666175053E+02 -0.16518370306E+02 -0.12241292642E+02  0.42037190203E+02  0.10566000000E+00 0. -1.
         23    2    1    0    0    0  0.15169570968E+01 -0.13454062584E+02  0.25699307513E+02  0.95952325988E+02  0.91449885167E+02 0.  0.
         13    1    3    3    0    0  0.38183132149E+02  0.30643077225E+01  0.37940600155E+02  0.53915135785E+02  0.10566000000E+00 0.  1.
         22    1    1    0    0    0 -0.15169570968E+01  0.13454062584E+02 -0.25699307513E+02  0.29047674012E+02  0.00000000000E+00 0.  1.
</event>
<event>
 5    1  0.1709463E-003  0.9118800E+02  0.7818608E-02  0.1130116E+00
         25   -1    0    0    0    0  0.00000000000E+00  0.00000000000E+00  0.99999998245E-14  0.12500000000E+03  0.12500000000E+03 0.  0.
        -13    1    3    3    0    0  0.23547778546E+02  0.48437614922E+02  0.10295872221E+01  0.53868094710E+02  0.10566000000E+00 0.  1.
         23    2    1    0    0    0  0.16377153005E+02  0.11685060542E+02 -0.19846482459E+02  0.96739875329E+02  0.92520099612E+02 0.  0.
         13    1    3    3    0    0 -0.71706255413E+01 -0.36752554380E+02 -0.20876069681E+02  0.42871780619E+02  0.10566000000E+00 0. -1.
         22    1    1    0    0    0 -0.16377153005E+02 -0.11685060542E+02  0.19846482459E+02  0.28260124671E+02  0.00000000000E+00 0.  1.
</event>
<event>
 5    1  0.1709463E-003  0.9118800E+02  0.7818608E-02  0.1130116E+00
         25   -1    0    0    0    0  0.00000000000E+00  0.00000000000E+00  0.99999998245E-14  0.12500000000E+03  0.12500000000E+03 0.  0.
        -13    1    3    3    0    0 -0.10792661883E+02  0.21521098112E+02 -0.58183343029E-01  0.24075999746E+02  0.10566000000E+00 0.  1.
         23    2    1    0    0    0 -0.91363709420E+01 -0.16445331668E+02  0.40919426866E+02  0.79963107315E+02  0.66074025371E+02 0.  0.
         13    1    3    3    0    0  0.16562909407E+01 -0.37966429780E+02  0.40977610209E+02  0.55887107569E+02  0.10566000000E+00 0. -1.
         22    1    1    0    0    0  0.91363709420E+01  0.16445331668E+02 -0.40919426866E+02  0.45036892685E+02  0.00000000000E+00 0. -1.
</event>
<event>
 5    1  0.1709463E-003  0.9118800E+02  0.7818608E-02  0.1130116E+00
         25   -1    0    0    0    0  0.00000000000E+00  0.00000000000E+00  0.99999998245E-14  0.12500000000E+03  0.12500000000E+03 0.  0.
        -13    1    3    3    0    0 -0.50022352815E+02 -0.25791408027E+02 -0.39454830701E+01  0.56418175350E+02  0.10566000000E+00 0. -1.
         23    2    1    0    0    0 -0.23508940363E+02 -0.95092633458E+01  0.17483804582E+02  0.94197730781E+02  0.89019282716E+02 0.  0.
         13    1    3    3    0    0  0.26513412451E+02  0.16282144682E+02  0.21429287652E+02  0.37779555431E+02  0.10566000000E+00 0.  1.
         22    1    1    0    0    0  0.23508940363E+02  0.95092633458E+01 -0.17483804582E+02  0.30802269219E+02  0.00000000000E+00 0. -1.
</event>
<event>
 5    1  0.1709463E-003  0.9118800E+02  0.7818608E-02  0.1130116E+00
         25   -1    0    0    0    0  0.00000000000E+00  0.00000000000E+00  0.99999998245E-14  0.12500000000E+03  0.12500000000E+03 0.  0.
        -13    1    3    3    0    0 -0.38634140842E+02  0.55324870707E+01  0.74075437184E+01  0.39725157266E+02  0.10566000000E+00 0.  1.
         23    2    1    0    0    0 -0.62345864038E+00 -0.90765491583E+01 -0.29158751306E+02  0.94454865805E+02  0.89379619887E+02 0.  0.
         13    1    3    3    0    0  0.38010682202E+02 -0.14609036229E+02 -0.36566295024E+02  0.54729708539E+02  0.10566000000E+00 0. -1.
         22    1    1    0    0    0  0.62345864038E+00  0.90765491583E+01  0.29158751306E+02  0.30545134195E+02  0.00000000000E+00 0. -1.
</event>
<event>
 5    1  0.1709463E-003  0.9118800E+02  0.7818608E-02  0.1130116E+00
         25   -1    0    0    0    0  0.00000000000E+00  0.00000000000E+00  0.99999998245E-14  0.12500000000E+03  0.12500000000E+03 0.  0.
        -13    1    3    3    0    0  0.46104543438E+02  0.75865226438E+01  0.34900192289E+02  0.58319969456E+02  0.10566000000E+00 0.  1.
         23    2    1    0    0    0  0.27741510759E+02  0.70683565559E+01  0.16290917015E+01  0.96325847470E+02  0.91959022762E+02 0.  0.
         13    1    3    3    0    0 -0.18363032680E+02 -0.51816608793E+00 -0.33271100587E+02  0.38005878014E+02  0.10566000000E+00 0. -1.
         22    1    1    0    0    0 -0.27741510759E+02 -0.70683565559E+01 -0.16290917015E+01  0.28674152530E+02  0.00000000000E+00 0.  1.
</event>
<event>
 5    1  0.1709463E-003  0.9118800E+02  0.7818608E-02  0.1130116E+00
         25   -1    0    0    0    0  0.00000000000E+00  0.00000000000E+00  0.99999998245E-14  0.12500000000E+03  0.12500000000E+03 0.  0.
        -13    1    3    3    0    0  0.25445280255E+02 -0.41889761652E+02  0.22227599169E+02  0.53817206796E+02  0.10566000000E+00 0. -1.
         23    2    1    0    0    0  0.45308340988E+01 -0.26824982052E+02 -0.10815103930E+02  0.95724163672E+02  0.91137483605E+02 0.  0.
         13    1    3    3    0    0 -0.20914446156E+02  0.15064779600E+02 -0.33042703099E+02  0.41906956875E+02  0.10566000000E+00 0.  1.
         22    1    1    0    0    0 -0.45308340988E+01  0.26824982052E+02  0.10815103930E+02  0.29275836328E+02  0.00000000000E+00 0. -1.
</event>
<event>
 5    1  0.1709463E-003  0.9118800E+02  0.7818608E-02  0.1130116E+00
         25   -1    0    0    0    0  0.00000000000E+00  0.00000000000E+00  0.99999998245E-14  0.12500000000E+03  0.12500000000E+03 0.  0.
        -13    1    3    3    0    0 -0.56200023194E+00 -0.24104762454E+02  0.31676926033E+02  0.39809474050E+02  0.10566000000E+00 0.  1.
         23    2    1    0    0    0  0.20008497773E+02 -0.16303537362E+02 -0.17590484379E+02  0.93765876764E+02  0.88410797932E+02 0.  0.
         13    1    3    3    0    0  0.20570498005E+02  0.78012250920E+01 -0.49267410412E+02  0.53956402714E+02  0.10566000000E+00 0. -1.
         22    1    1    0    0    0 -0.20008497773E+02  0.16303537362E+02  0.17590484379E+02  0.31234123236E+02  0.00000000000E+00 0. -1.
</event>
<event>
 5    1  0.1709463E-003  0.9118800E+02  0.7818608E-02  0.1130116E+00
         25   -1    0    0    0    0  0.00000000000E+00  0.00000000000E+00  0.99999998245E-14  0.12500000000E+03  0.12500000000E+03 0.  0.
        -13    1    3    3    0    0 -0.37980857518E+02 -0.39132321497E+02 -0.28888023434E+02  0.61712342246E+02  0.10566000000E+00 0.  1.
         23    2    1    0    0    0 -0.20927998120E+02 -0.13276262174E+02 -0.17268031828E+02  0.94793623756E+02  0.89852133747E+02 0.  0.
         13    1    3    3    0    0  0.17052859397E+02  0.25856059323E+02  0.11619991607E+02  0.33081281510E+02  0.10566000000E+00 0. -1.
         22    1    1    0    0    0  0.20927998120E+02  0.13276262174E+02  0.17268031828E+02  0.30206376244E+02  0.00000000000E+00 0.  1.
</event>
<event>
 5    1  0.1709463E-003  0.9118800E+02  0.7818608E-02  0.1130116E+00
         25   -1    0    0    0    0  0.00000000000E+00  0.00000000000E+00  0.99999998245E-14  0.12500000000E+03  0.12500000000E+03 0.  0.
        -13    1    3    3    0    0 -0.40631292456E+02 -0.23738721382E+02  0.19170178731E+02  0.50812751708E+02  0.10566000000E+00 0.  1.
         23    2    1    0    0    0 -0.13041661138E+02 -0.16992919729E+02 -0.17600824951E+02  0.97275763579E+02  0.93241304660E+02 0.  0.
         13    1    3    3    0    0  0.27589631318E+02  0.67458016527E+01 -0.36771003683E+02  0.46463011870E+02  0.10566000000E+00 0. -1.
         22    1    1    0    0    0  0.13041661138E+02  0.16992919729E+02  0.17600824951E+02  0.27724236421E+02  0.00000000000E+00 0. -1.
</event>
<event>
 5    1  0.1709463E-003  0.9118800E+02  0.7818608E-02  0.1130116E+00
         25   -1    0    0    0    0  0.00000000000E+00  0.00000000000E+00  0.99999998245E-14  0.12500000000E+03  0.12500000000E+03 0.  0.
        -13    1    3    3    0    0  0.40147842453E+01 -0.21577894262E+02  0.36314923928E+02  0.42432403624E+02  0.10566000000E+00 0. -1.
         23    2    1    0    0    0 -0.16470599322E+02 -0.20698442376E+02 -0.12769231746E+02  0.95627233052E+02  0.91004440897E+02 0.  0.
         13    1    3    3    0    0 -0.20485383568E+02  0.87945188684E+00 -0.49084155675E+02  0.53194829428E+02  0.10566000000E+00 0.  1.
         22    1    1    0    0    0  0.16470599322E+02  0.20698442376E+02  0.12769231746E+02  0.29372766948E+02  0.00000000000E+00 0.  1.
</event>
<event>
 5    1  0.1709463E-003  0.9118800E+02  0.7818608E-02  0.1130116E+00
         25   -1    0    0    0    0  0.00000000000E+00  0.00000000000E+00  0.99999998245E-14  0.12500000000E+03  0.12500000000E+03 0.  0.
        -13    1    3    3    0    0 -0.20079271261E+02  0.53027845658E+02 -0.37311683296E+01  0.56824839029E+02  0.10566000000E+00 0.  1.
         23    2    1    0    0    0 -0.72106034578E+01  0.18350179632E+02 -0.19713939860E+02  0.97118799890E+02  0.93030639966E+02 0.  0.
         13    1    3    3    0    0  0.12868667803E+02 -0.34677666026E+02 -0.15982771530E+02  0.40293960861E+02  0.10566000000E+00 0. -1.
         22    1    1    0    0    0  0.72106034578E+01 -0.18350179632E+02  0.19713939860E+02  0.27881200110E+02  0.00000000000E+00 0.  1.
</event>
<event>
 5    1  0.1709463E-003  0.9118800E+02  0.7818608E-02  0.1130116E+00
         25   -1    0    0    0    0  0.00000000000E+00  0.00000000000E+00  0.99999998245E-14  0.12500000000E+03  0.12500000000E+03 0.  0.
        -13    1    3    3    0    0 -0.20101405504E+02  0.14951653254E+02 -0.22829604412E+02  0.33894253789E+02  0.10566000000E+00 0. -1.
         23    2    1    0    0    0  0.17340864212E+02 -0.14919262549E+02  0.17250475543E+02  0.96349190708E+02  0.91990747779E+02 0.  0.
         13    1    3    3    0    0  0.37442269716E+02 -0.29870915802E+02  0.40080079955E+02  0.62454936919E+02  0.10566000000E+00 0.  1.
         22    1    1    0    0    0 -0.17340864212E+02  0.14919262549E+02 -0.17250475543E+02  0.28650809292E+02  0.00000000000E+00 0.  1.
</event>
<event>
 5    1  0.1709463E-003  0.9118800E+02  0.7818608E-02  0.1130116E+00
         25   -1    0    0    0    0  0.00000000000E+00  0.00000000000E+00  0.99999998245E-14  0.12500000000E+03  0.12500000000E+03 0.  0.
        -13    1    3    3    0    0  0.46785185145E+02  0.22149221532E+02 -0.45110007618E+01  0.51959617545E+02  0.10566000000E+00 0. -1.
         23    2    1    0    0    0  0.43247038043E+01  0.26204690915E+02 -0.12968346205E+02  0.95443834954E+02  0.90752183105E+02 0.  0.
         13    1    3    3    0    0 -0.42460481341E+02  0.40554693832E+01 -0.84573454432E+01  0.43484217408E+02  0.10566000000E+00 0.  1.
         22    1    1    0    0    0 -0.43247038043E+01 -0.26204690915E+02  0.12968346205E+02  0.29556165046E+02  0.00000000000E+00 0. -1.
</event>
<event>
 5    1  0.1709463E-003  0.9118800E+02  0.7818608E-02  0.1130116E+00
         25   -1    0    0    0    0  0.00000000000E+00  0.00000000000E+00  0.99999998245E-14  0.12500000000E+03  0.12500000000E+03 0.  0.
        -13    1    3    3    0    0  0.29773058903E+02 -0.26321155861E+02 -0.32397335876E+02  0.51272183669E+02  0.10566000000E+00 0.  1.
         23    2    1    0    0    0  0.23515060932E+02  0.12686385149E+02 -0.13414613760E+02  0.95102603439E+02  0.90280955133E+02 0.  0.
         13    1    3    3    0    0 -0.62579979709E+01  0.39007541010E+02  0.18982722116E+02  0.43830419770E+02  0.10566000000E+00 0. -1.
         22    1    1    0    0    0 -0.23515060932E+02 -0.12686385149E+02  0.13414613760E+02  0.29897396561E+02  0.00000000000E+00 0.  1.
</event>
<event>
 5    1  0.1709463E-003  0.9118800E+02  0.7818608E-02  0.1130116E+00
         25   -1    0    0    0    0  0.00000000000E+00  0.00000000000E+00  0.99999998245E-14  0.12500000000E+03  0.12500000000E+03 0.  0.
        -13    1    3    3    0    0 -0.98756148755E+01 -0.39107072400E+02  0.36444668733E+02  0.54360977953E+02  0.10566000000E+00 0.  1.
         23    2    1    0    0    0 -0.24392300617E+02 -0.78369260143E+01  0.19662327024E+02  0.92704352572E+02  0.86896997319E+02 0.  0.
         13    1    3    3    0    0 -0.14516685742E+02  0.31270146386E+02 -0.16782341709E+02  0.38343374619E+02  0.10566000000E+00 0. -1.
         22    1    1    0    0    0  0.24392300617E+02  0.78369260143E+01 -0.19662327024E+02  0.32295647428E+02  0.00000000000E+00 0.  1.
</event>
<event>
 5    1  0.1709463E-003  0.9118800E+02  0.7818608E-02  0.1130116E+00
         25   -1    0    0    0    0  0.00000000000E+00  0.00000000000E+00  0.99999998245E-14  0.12500000000E+03  0.12500000000E+03 0.  0.
        -13    1    3    3    0    0  0.43446324882E+02  0.92507010911E+01  0.24324400160E+01  0.44486925550E+02  0.10566000000E+00 0. -1.
         23    2    1    0    0    0 -0.30513754073E+01  0.33603130299E+01 -0.25533860671E+02  0.99065840359E+02  0.95610983102E+02 0.  0.
         13    1    3    3    0    0 -0.46497700289E+02 -0.58903880612E+01 -0.27966300687E+02  0.54578914810E+02  0.10566000000E+00 0.  1.
         22    1    1    0    0    0  0.30513754073E+01 -0.33603130299E+01  0.25533860671E+02  0.25934159641E+02  0.00000000000E+00 0.  1.
</event>
<event>
 5    1  0.1709463E-003  0.9118800E+02  0.7818608E-02  0.1130116E+00
         25   -1    0    0    0    0  0.00000000000E+00  0.00000000000E+00  0.99999998245E-14  0.12500000000E+03  0.12500000000E+03 0.  0.
        -13    1    3    3    0    0  0.53145228760E+02  0.18486852530E+02 -0.26222773516E+02  0.62079175826E+02  0.10566000000E+00 0.  1.
         23    2    1    0    0    0  0.24309841120E+02  0.38260582488E+01 -0.14188083631E+02  0.96593859570E+02  0.92322613116E+02 0.  0.
         13    1    3    3    0    0 -0.28835387640E+02 -0.14660794281E+02  0.12034689884E+02  0.34514683744E+02  0.10566000000E+00 0. -1.
         22    1    1    0    0    0 -0.24309841120E+02 -0.38260582488E+01  0.14188083631E+02  0.28406140430E+02  0.00000000000E+00 0.  1.
</event>
<event>
 5    1  0.1709463E-003  0.9118800E+02  0.7818608E-02  0.1130116E+00
         25   -1    0    0    0    0  0.00000000000E+00  0.00000000000E+00  0.99999998245E-14  0.12500000000E+03  0.12500000000E+03 0.  0.
        -13    1    3    3    0    0 -0.38902321599E+02  0.23803850556E+02 -0.72914776634E+01  0.46186477866E+02  0.10566000000E+00 0.  1.
         23    2    1    0    0    0  0.16889015428E+00  0.49797417299E+01 -0.29618229272E+02  0.94965588789E+02  0.90091049484E+02 0.  0.
         13    1    3    3    0    0  0.39071211754E+02 -0.18824108826E+02 -0.22326751609E+02  0.48779110923E+02  0.10566000000E+00 0. -1.
         22    1    1    0    0    0 -0.16889015428E+00 -0.49797417299E+01  0.29618229272E+02  0.30034411211E+02  0.00000000000E+00 0. -1.
</event>
<event>
 5    1  0.1709463E-003  0.9118800E+02  0.7818608E-02  0.1130116E+00
         25   -1    0    0    0    0  0.00000000000E+00  0.00000000000E+00  0.99999998245E-14  0.12500000000E+03  0.12500000000E+03 0.  0.
        -13    1    3    3    0    0  0.36779211070E+02 -0.39963435895E+02 -0.20971080036E+02  0.58220133437E+02  0.10566000000E+00 0.  1.
         23    2    1    0    0    0  0.12315271615E+02 -0.29864883434E+02  0.10925816789E+01  0.92677083791E+02  0.86857762738E+02 0.  0.
         13    1    3    3    0    0 -0.24463939455E+02  0.10098552461E+02  0.22063661715E+02  0.34456950355E+02  0.10566000000E+00 0. -1.
         22    1    1    0    0    0 -0.12315271615E+02  0.29864883434E+02 -0.10925816789E+01  0.32322916209E+02  0.00000000000E+00 0.  1.
</event>
<event>
 5    1  0.1709463E-003  0.9118800E+02  0.7818608E-02  0.1130116E+00
         25   -1    0    0    0    0  0.00000000000E+00  0.00000000000E+00  0.99999998245E-14  0.12500000000E+03  0.12500000000E+03 0.  0.
        -13    1    3    3    0    0 -0.96939512965E+01  0.16207284361E+02 -0.56955963799E+02  0.60005347549E+02  0.10566000000E+00 0. -1.
         23    2    1    0    0    0  0.54261885097E+01 -0.15353593137E+00 -0.27674429792E+02  0.96798206452E+02  0.92598874793E+02 0.  0.
         13    1    3    3    0    0  0.15120139806E+02 -0.16360820292E+02  0.29281534007E+02  0.36792858903E+02  0.10566000000E+00 0.  1.
         22    1    1    0    0    0 -0.54261885097E+01  0.15353593137E+00  0.27674429792E+02  0.28201793548E+02  0.00000000000E+00 0. -1.
</event>
<event>
 5    1  0.1709463E-003  0.9118800E+02  0.7818608E-02  0.1130116E+00
         25   -1    0    0    0    0  0.00000000000E+00  0.00000000000E+00  0.99999998245E-14  0.12500000000E+03  0.12500000000E+03 0.  0.
        -13    1    3    3    0    0 -0.85417915946E+01  0.41386421320E+02 -0.18756034256E+02  0.46234165489E+02  0.10566000000E+00 0. -1.
         23    2    1    0    0    0  0.26638544574E+02  0.77818570103E+01 -0.87269221824E+01  0.95908273920E+02  0.91389651930E+02 0.  0.
         13    1    3    3    0    0  0.35180336168E+02 -0.33604564310E+02  0.10029112074E+02  0.49674108431E+02  0.10566000000E+00 0.  1.
         22    1    1    0    0    0 -0.26638544574E+02 -0.77818570103E+01  0.87269221824E+01  0.29091726080E+02  0.00000000000E+00 0. -1.
</event>
<event>
 5    1  0.1709463E-003  0.9118800E+02  0.7818608E-02  0.1130116E+00
         25   -1    0    0    0    0  0.00000000000E+00  0.00000000000E+00  0.99999998245E-14  0.12500000000E+03  0.12500000000E+03 0.  0.
        -13    1    3    3    0    0 -0.21574298751E+02 -0.12700689466E+02 -0.21275625078E+02  0.32854547113E+02  0.10566000000E+00 0. -1.
         23    2    1    0    0    0  0.20587164302E+02  0.17363179505E+02  0.13143181242E+02  0.95032441713E+02  0.90183759226E+02 0.  0.
         13    1    3    3    0    0  0.42161463053E+02  0.30063868971E+02  0.34418806320E+02  0.62177894600E+02  0.10566000000E+00 0.  1.
         22    1    1    0    0    0 -0.20587164302E+02 -0.17363179505E+02 -0.13143181242E+02  0.29967558287E+02  0.00000000000E+00 0.  1.
</event>
<event>
 5    1  0.1709463E-003  0.9118800E+02  0.7818608E-02  0.1130116E+00
         25   -1    0    0    0    0  0.00000000000E+00  0.00000000000E+00  0.99999998245E-14  0.12500000000E+03  0.12500000000E+03 0.  0.
        -13    1    3    3    0    0  0.49181851943E+01 -0.28125588572E+02 -0.31828579154E+02  0.42758705466E+02  0.10566000000E+00 0.  1.
         23    2    1    0    0    0 -0.81832537374E+01 -0.24099796187E+02  0.17602359422E+02  0.94054743898E+02  0.88818275003E+02 0.  0.
         13    1    3    3    0    0 -0.13101438932E+02  0.40257923847E+01  0.49430938575E+02  0.51296038432E+02  0.10566000000E+00 0. -1.
         22    1    1    0    0    0  0.81832537374E+01  0.24099796187E+02 -0.17602359422E+02  0.30945256102E+02  0.00000000000E+00 0. -1.
</event>
<event>
 5    1  0.1709463E-003  0.9118800E+02  0.7818608E-02  0.1130116E+00
         25   -1    0    0    0    0  0.00000000000E+00  0.00000000000E+00  0.99999998245E-14  0.12500000000E+03  0.12500000000E+03 0.  0.
        -13    1    3    3    0    0 -0.72106840478E+01  0.17554465739E+02  0.57633200735E+02  0.60677427622E+02  0.10566000000E+00 0. -1.
         23    2    1    0    0    0 -0.23237268276E+01  0.18268810078E+02  0.23611784278E+02  0.95055626825E+02  0.90215889433E+02 0.  0.
         13    1    3    3    0    0  0.48869572202E+01  0.71434433922E+00 -0.34021416456E+02  0.34378199203E+02  0.10566000000E+00 0.  1.
         22    1    1    0    0    0  0.23237268276E+01 -0.18268810078E+02 -0.23611784278E+02  0.29944373175E+02  0.00000000000E+00 0. -1.
</event>
<event>
 5    1  0.1709463E-003  0.9118800E+02  0.7818608E-02  0.1130116E+00
         25   -1    0    0    0    0  0.00000000000E+00  0.00000000000E+00  0.99999998245E-14  0.12500000000E+03  0.12500000000E+03 0.  0.
        -13    1    3    3    0    0  0.40970951933E+02 -0.99013669708E+00 -0.43803160101E+02  0.59986058979E+02  0.10566000000E+00 0. -1.
         23    2    1    0    0    0  0.13544478269E+02 -0.11239295738E+02 -0.23602662307E+02  0.95557508118E+02  0.90908619116E+02 0.  0.
         13    1    3    3    0    0 -0.27426473664E+02 -0.10249159041E+02  0.20200497794E+02  0.35571449139E+02  0.10566000000E+00 0.  1.
         22    1    1    0    0    0 -0.13544478269E+02  0.11239295738E+02  0.23602662307E+02  0.29442491882E+02  0.00000000000E+00 0. -1.
</event>
<event>
 5    1  0.1709463E-003  0.9118800E+02  0.7818608E-02  0.1130116E+00
         25   -1    0    0    0    0  0.00000000000E+00  0.00000000000E+00  0.99999998245E-14  0.12500000000E+03  0.12500000000E+03 0.  0.
        -13    1    3    3    0    0  0.33347216373E+02 -0.40363119816E+02  0.19881115909E+01  0.52394484756E+02  0.10566000000E+00 0. -1.
         23    2    1    0    0    0  0.45816112550E+01 -0.16235333662E+02  0.23809372629E+02  0.95820153431E+02  0.91269043809E+02 0.  0.
         13    1    3    3    0    0 -0.28765605118E+02  0.24127786154E+02  0.21821261038E+02  0.43425668675E+02  0.10566000000E+00 0.  1.
         22    1    1    0    0    0 -0.45816112550E+01  0.16235333662E+02 -0.23809372629E+02  0.29179846569E+02  0.00000000000E+00 0. -1.
</event>
<event>
 5    1  0.1709463E-003  0.9118800E+02  0.7818608E-02  0.1130116E+00
         25   -1    0    0    0    0  0.00000000000E+00  0.00000000000E+00  0.99999998245E-14  0.12500000000E+03  0.12500000000E+03 0.  0.
        -13    1    3    3    0    0 -0.37546596523E+02  0.20804685902E+02  0.12506847990E+02  0.44710337469E+02  0.10566000000E+00 0.  1.
         23    2    1    0    0    0  0.66207182573E+01  0.29240797028E+02 -0.77578075829E+01  0.94031601599E+02  0.88785699297E+02 0.  0.
         13    1    3    3    0    0  0.44167314780E+02  0.84361111257E+01 -0.20264655573E+02  0.49321264130E+02  0.10566000000E+00 0. -1.
         22    1    1    0    0    0 -0.66207182573E+01 -0.29240797028E+02  0.77578075829E+01  0.30968398401E+02  0.00000000000E+00 0.  1.
</event>
<event>
 5    1  0.1709463E-003  0.9118800E+02  0.7818608E-02  0.1130116E+00
         25   -1    0    0    0    0  0.00000000000E+00  0.00000000000E+00  0.99999998245E-14  0.12500000000E+03  0.12500000000E+03 0.  0.
        -13    1    3    3    0    0  0.71380318089E+01  0.40102506581E+02 -0.37339649439E+02  0.55257787835E+02  0.10566000000E+00 0.  1.
         23    2    1    0    0    0  0.20292933893E+02  0.21424985554E+02 -0.46698585811E+01  0.95122905912E+02  0.90309060885E+02 0.  0.
         13    1    3    3    0    0  0.13154902085E+02 -0.18677521027E+02  0.32669790858E+02  0.39865118077E+02  0.10566000000E+00 0. -1.
         22    1    1    0    0    0 -0.20292933893E+02 -0.21424985554E+02  0.46698585811E+01  0.29877094088E+02  0.00000000000E+00 0.  1.
</event>
<event>
 5    1  0.1709463E-003  0.9118800E+02  0.7818608E-02  0.1130116E+00
         25   -1    0    0    0    0  0.00000000000E+00  0.00000000000E+00  0.99999998245E-14  0.12500000000E+03  0.12500000000E+03 0.  0.
        -13    1    3    3    0    0  0.37812604401E+02 -0.43339522691E+01  0.31431324273E+02  0.49361072754E+02  0.10566000000E+00 0.  1.
         23    2    1    0    0    0  0.25589620524E+02 -0.47580230377E+00 -0.13485164213E+02  0.96070694439E+02  0.91611536445E+02 0.  0.
         13    1    3    3    0    0 -0.12222983878E+02  0.38581499653E+01 -0.44916488486E+02  0.46709621685E+02  0.10566000000E+00 0. -1.
         22    1    1    0    0    0 -0.25589620524E+02  0.47580230377E+00  0.13485164213E+02  0.28929305561E+02  0.00000000000E+00 0.  1.
</event>
<event>
 5    1  0.1709463E-003  0.9118800E+02  0.7818608E-02  0.1130116E+00
         25   -1    0    0    0    0  0.00000000000E+00  0.00000000000E+00  0.99999998245E-14  0.12500000000E+03  0.12500000000E+03 0.  0.
        -13    1    3    3    0    0 -0.23170019954E+02  0.17738514546E+02  0.52093332351E+02  0.59709556709E+02  0.10566000000E+00 0. -1.
         23    2    1    0    0    0 -0.14361875763E+02  0.17041468291E+02  0.14303827763E+02  0.98518410063E+02  0.94892584092E+02 0.  0.
         13    1    3    3    0    0  0.88081441909E+01 -0.69704625426E+00 -0.37789504588E+02  0.38808853353E+02  0.10566000000E+00 0.  1.
         22    1    1    0    0    0  0.14361875763E+02 -0.17041468291E+02 -0.14303827763E+02  0.26481589937E+02  0.00000000000E+00 0. -1.
</event>
<event>
 5    1  0.1709463E-003  0.9118800E+02  0.7818608E-02  0.1130116E+00
         25   -1    0    0    0    0  0.00000000000E+00  0.00000000000E+00  0.99999998245E-14  0.12500000000E+03  0.12500000000E+03 0.  0.
        -13    1    3    3    0    0 -0.38245632540E+02 -0.48039236409E+02 -0.84941704320E+00  0.61410335584E+02  0.10566000000E+00 0. -1.
         23    2    1    0    0    0 -0.98799067049E+01 -0.25459507039E+02  0.40557741423E+00  0.97687666738E+02  0.93791879630E+02 0.  0.
         13    1    3    3    0    0  0.28365725835E+02  0.22579729370E+02  0.12549944574E+01  0.36277331155E+02  0.10566000000E+00 0.  1.
         22    1    1    0    0    0  0.98799067049E+01  0.25459507039E+02 -0.40557741423E+00  0.27312333262E+02  0.00000000000E+00 0. -1.
</event>
<event>
 5    1  0.1709463E-003  0.9118800E+02  0.7818608E-02  0.1130116E+00
         25   -1    0    0    0    0  0.00000000000E+00  0.00000000000E+00  0.99999998245E-14  0.12500000000E+03  0.12500000000E+03 0.  0.
        -13    1    3    3    0    0  0.31293749037E+01 -0.30961903808E+02  0.16101548031E+02  0.35038599969E+02  0.10566000000E+00 0. -1.
         23    2    1    0    0    0 -0.11420858030E+02  0.19788044610E+02 -0.16255487140E+02  0.96959964876E+02  0.92816976997E+02 0.  0.
         13    1    3    3    0    0 -0.14550232934E+02  0.50749948418E+02 -0.32357035171E+02  0.61921364907E+02  0.10566000000E+00 0.  1.
         22    1    1    0    0    0  0.11420858030E+02 -0.19788044610E+02  0.16255487140E+02  0.28040035124E+02  0.00000000000E+00 0.  1.
</event>
<event>
 5    1  0.1709463E-003  0.9118800E+02  0.7818608E-02  0.1130116E+00
         25   -1    0    0    0    0  0.00000000000E+00  0.00000000000E+00  0.99999998245E-14  0.12500000000E+03  0.12500000000E+03 0.  0.
        -13    1    3    3    0    0 -0.34062577813E+01  0.16669486269E+02  0.42816316279E+02  0.46073012364E+02  0.10566000000E+00 0.  1.
         23    2    1    0    0    0 -0.27422423324E+02  0.10110436967E+02 -0.19793774690E+00  0.95772454500E+02  0.91203693044E+02 0.  0.
         13    1    3    3    0    0 -0.24016165543E+02 -0.65590493016E+01 -0.43014254026E+02  0.49699442135E+02  0.10566000000E+00 0. -1.
         22    1    1    0    0    0  0.27422423324E+02 -0.10110436967E+02  0.19793774690E+00  0.29227545500E+02  0.00000000000E+00 0. -1.
</event>
<event>
 5    1  0.1709463E-003  0.9118800E+02  0.7818608E-02  0.1130116E+00
         25   -1    0    0    0    0  0.00000000000E+00  0.00000000000E+00  0.99999998245E-14  0.12500000000E+03  0.12500000000E+03 0.  0.
        -13    1    3    3    0    0 -0.51898366517E+02 -0.11117225259E+02  0.15117997676E+02  0.55186938331E+02  0.10566000000E+00 0.  1.
         23    2    1    0    0    0 -0.16789439192E+02  0.43798803150E+01  0.24768137750E+02  0.94758815044E+02  0.89803695697E+02 0.  0.
         13    1    3    3    0    0  0.35108927325E+02  0.15497105574E+02  0.96501400738E+01  0.39571876712E+02  0.10566000000E+00 0. -1.
         22    1    1    0    0    0  0.16789439192E+02 -0.43798803150E+01 -0.24768137750E+02  0.30241184956E+02  0.00000000000E+00 0.  1.
</event>
<event>
 5    1  0.1709463E-003  0.9118800E+02  0.7818608E-02  0.1130116E+00
         25   -1    0    0    0    0  0.00000000000E+00  0.00000000000E+00  0.99999998245E-14  0.12500000000E+03  0.12500000000E+03 0.  0.
        -13    1    3    3    0    0  0.68801488046E+01 -0.55086369673E+02 -0.26337758153E+02  0.61445367929E+02  0.10566000000E+00 0.  1.
         23    2    1    0    0    0 -0.43833441778E+01 -0.27237809755E+02 -0.98977846009E+01  0.95689965431E+02  0.91090566788E+02 0.  0.
         13    1    3    3    0    0 -0.11263492982E+02  0.27848559918E+02  0.16439973552E+02  0.34244597503E+02  0.10566000000E+00 0. -1.
         22    1    1    0    0    0  0.43833441778E+01  0.27237809755E+02  0.98977846009E+01  0.29310034569E+02  0.00000000000E+00 0.  1.
</event>
<event>
 5    1  0.1709463E-003  0.9118800E+02  0.7818608E-02  0.1130116E+00
         25   -1    0    0    0    0  0.00000000000E+00  0.00000000000E+00  0.99999998245E-14  0.12500000000E+03  0.12500000000E+03 0.  0.
        -13    1    3    3    0    0 -0.33771202215E+02 -0.14387231816E+01 -0.10722716663E+02  0.35461977386E+02  0.10566000000E+00 0.  1.
         23    2    1    0    0    0  0.27411458136E+02 -0.26421712180E+01 -0.58244911779E+01  0.96852286001E+02  0.92671848477E+02 0.  0.
         13    1    3    3    0    0  0.61182660351E+02 -0.12034480364E+01  0.48982254855E+01  0.61390308615E+02  0.10566000000E+00 0. -1.
         22    1    1    0    0    0 -0.27411458136E+02  0.26421712180E+01  0.58244911779E+01  0.28147713999E+02  0.00000000000E+00 0. -1.
</event>
<event>
 5    1  0.1709463E-003  0.9118800E+02  0.7818608E-02  0.1130116E+00
         25   -1    0    0    0    0  0.00000000000E+00  0.00000000000E+00  0.99999998245E-14  0.12500000000E+03  0.12500000000E+03 0.  0.
        -13    1    3    3    0    0 -0.29195910135E+01  0.13667651808E+02  0.36250842593E+02  0.38851814248E+02  0.10566000000E+00 0. -1.
         23    2    1    0    0    0  0.16134176671E+02  0.20206743108E+02 -0.15822119140E+02  0.94685587949E+02  0.89701711173E+02 0.  0.
         13    1    3    3    0    0  0.19053767684E+02  0.65390913002E+01 -0.52072961733E+02  0.55833773701E+02  0.10566000000E+00 0.  1.
         22    1    1    0    0    0 -0.16134176671E+02 -0.20206743108E+02  0.15822119140E+02  0.30314412051E+02  0.00000000000E+00 0.  1.
</event>
<event>
 5    1  0.1709463E-003  0.9118800E+02  0.7818608E-02  0.1130116E+00
         25   -1    0    0    0    0  0.00000000000E+00  0.00000000000E+00  0.99999998245E-14  0.12500000000E+03  0.12500000000E+03 0.  0.
        -13    1    3    3    0    0  0.37270860141E+02  0.37545465599E+02 -0.20738273310E+02  0.56823112786E+02  0.10566000000E+00 0. -1.
         23    2    1    0    0    0  0.26318315298E+02  0.26226562213E+01 -0.16874718857E+02  0.93626632596E+02  0.88213707263E+02 0.  0.
         13    1    3    3    0    0 -0.10952544844E+02 -0.34922809378E+02  0.38635544535E+01  0.36803519810E+02  0.10566000000E+00 0.  1.
         22    1    1    0    0    0 -0.26318315298E+02 -0.26226562213E+01  0.16874718857E+02  0.31373367404E+02  0.00000000000E+00 0. -1.
</event>
<event>
 5    1  0.1709463E-003  0.9118800E+02  0.7818608E-02  0.1130116E+00
         25   -1    0    0    0    0  0.00000000000E+00  0.00000000000E+00  0.99999998245E-14  0.12500000000E+03  0.12500000000E+03 0.  0.
        -13    1    3    3    0    0 -0.10355260449E+02  0.50191461926E+02  0.73399250983E+01  0.51771613204E+02  0.10566000000E+00 0. -1.
         23    2    1    0    0    0  0.15944779991E+02  0.20908485188E+02 -0.12541489454E+02  0.95867720316E+02  0.91334167096E+02 0.  0.
         13    1    3    3    0    0  0.26300040440E+02 -0.29282976738E+02 -0.19881414553E+02  0.44096107112E+02  0.10566000000E+00 0.  1.
         22    1    1    0    0    0 -0.15944779991E+02 -0.20908485188E+02  0.12541489454E+02  0.29132279684E+02  0.00000000000E+00 0. -1.
</event>
<event>
 5    1  0.1709463E-003  0.9118800E+02  0.7818608E-02  0.1130116E+00
         25   -1    0    0    0    0  0.00000000000E+00  0.00000000000E+00  0.99999998245E-14  0.12500000000E+03  0.12500000000E+03 0.  0.
        -13    1    3    3    0    0 -0.46932144428E+02 -0.51098552122E+01 -0.61133863796E+01  0.47603796676E+02  0.10566000000E+00 0. -1.
         23    2    1    0    0    0 -0.10187385903E+02 -0.20577576148E+02  0.19403410451E+02  0.94938200173E+02  0.90053040167E+02 0.  0.
         13    1    3    3    0    0  0.36744758524E+02 -0.15467720936E+02  0.25516796831E+02  0.47334403498E+02  0.10566000000E+00 0.  1.
         22    1    1    0    0    0  0.10187385903E+02  0.20577576148E+02 -0.19403410451E+02  0.30061799827E+02  0.00000000000E+00 0.  1.
</event>
<event>
 5    1  0.1709463E-003  0.9118800E+02  0.7818608E-02  0.1130116E+00
         25   -1    0    0    0    0  0.00000000000E+00  0.00000000000E+00  0.99999998245E-14  0.12500000000E+03  0.12500000000E+03 0.  0.
        -13    1    3    3    0    0  0.73075480639E+00 -0.16785454689E+02  0.37157710160E+02  0.40779799902E+02  0.10566000000E+00 0.  1.
         23    2    1    0    0    0 -0.11109752107E+02 -0.21019498839E+02 -0.16609444586E+02  0.95997938474E+02  0.91512210215E+02 0.  0.
         13    1    3    3    0    0 -0.11840506914E+02 -0.42340441492E+01 -0.53767154746E+02  0.55218138572E+02  0.10566000000E+00 0. -1.
         22    1    1    0    0    0  0.11109752107E+02  0.21019498839E+02  0.16609444586E+02  0.29002061526E+02  0.00000000000E+00 0. -1.
</event>
<event>
 5    1  0.1709463E-003  0.9118800E+02  0.7818608E-02  0.1130116E+00
         25   -1    0    0    0    0  0.00000000000E+00  0.00000000000E+00  0.99999998245E-14  0.12500000000E+03  0.12500000000E+03 0.  0.
        -13    1    3    3    0    0  0.46756214369E+02 -0.18456313138E+02  0.18695616535E+02  0.53631299802E+02  0.10566000000E+00 0.  1.
         23    2    1    0    0    0  0.17726230909E+02  0.11782760350E+02  0.20308640264E+02  0.95580727863E+02  0.90940540826E+02 0.  0.
         13    1    3    3    0    0 -0.29029983460E+02  0.30239073488E+02  0.16130237290E+01  0.41949428061E+02  0.10566000000E+00 0. -1.
         22    1    1    0    0    0 -0.17726230909E+02 -0.11782760350E+02 -0.20308640264E+02  0.29419272137E+02  0.00000000000E+00 0.  1.
</event>
<event>
 4    1  0.1709463E-003  0.9118800E+02  0.7818608E-02  0.1130116E+00
         25   -1    0    0    0    0  0.00000000000E+00  0.00000000000E+00  0.99999998245E-14  0.12500000000E+03  0.12500000000E+03 0.  0.
        -13    1    1    0    0    0  0.20448891991E+02 -0.44018976854E+02  0.20743861080E+02  0.52783960097E+02  0.10566000000E+00 0. -1.
         13    1    1    0    0    0 -0.20763080899E+02 -0.12586947201E+01  0.31189807312E+01  0.21033997377E+02  0.10566000000E+00 0.  1.
         22    1    1    0    0    0  0.31418890800E+00  0.45277671574E+02 -0.23862841811E+02  0.51182042526E+02  0.00000000000E+00 0. -1.
</event>
<event>
 5    1  0.1709463E-003  0.9118800E+02  0.7818608E-02  0.1130116E+00
         25   -1    0    0    0    0  0.00000000000E+00  0.00000000000E+00  0.99999998245E-14  0.12500000000E+03  0.12500000000E+03 0.  0.
        -13    1    3    3    0    0  0.32906726818E+02  0.17937637034E+02 -0.20485234907E+01  0.37534239100E+02  0.10566000000E+00 0. -1.
         23    2    1    0    0    0  0.36794151450E+01 -0.30478187819E+02 -0.34632540833E+01  0.94105790877E+02  0.88890087857E+02 0.  0.
         13    1    3    3    0    0 -0.29227311673E+02 -0.48415824852E+02 -0.14147305926E+01  0.56571551777E+02  0.10566000000E+00 0.  1.
         22    1    1    0    0    0 -0.36794151450E+01  0.30478187819E+02  0.34632540833E+01  0.30894209123E+02  0.00000000000E+00 0.  1.
</event>
<event>
 5    1  0.1709463E-003  0.9118800E+02  0.7818608E-02  0.1130116E+00
         25   -1    0    0    0    0  0.00000000000E+00  0.00000000000E+00  0.99999998245E-14  0.12500000000E+03  0.12500000000E+03 0.  0.
        -13    1    3    3    0    0  0.46161964982E+01  0.29701408099E+02  0.40815025991E+02  0.50688858971E+02  0.10566000000E+00 0.  1.
         23    2    1    0    0    0  0.27202243300E+02  0.11036170916E+02  0.82254339507E+01  0.94513660883E+02  0.89461808728E+02 0.  0.
         13    1    3    3    0    0  0.22586046802E+02 -0.18665237183E+02 -0.32589592040E+02  0.43824801912E+02  0.10566000000E+00 0. -1.
         22    1    1    0    0    0 -0.27202243300E+02 -0.11036170916E+02 -0.82254339507E+01  0.30486339117E+02  0.00000000000E+00 0.  1.
</event>
<event>
 5    1  0.1709463E-003  0.9118800E+02  0.7818608E-02  0.1130116E+00
         25   -1    0    0    0    0  0.00000000000E+00  0.00000000000E+00  0.99999998245E-14  0.12500000000E+03  0.12500000000E+03 0.  0.
        -13    1    3    3    0    0 -0.32376137734E+02  0.76217085872E+01 -0.44915351351E+02  0.55890112608E+02  0.10566000000E+00 0. -1.
         23    2    1    0    0    0 -0.74000422108E+01  0.22184973446E+02 -0.16924353874E+02  0.96131896052E+02  0.91695005387E+02 0.  0.
         13    1    3    3    0    0  0.24976095523E+02  0.14563264859E+02  0.27990997477E+02  0.40241783443E+02  0.10566000000E+00 0.  1.
         22    1    1    0    0    0  0.74000422108E+01 -0.22184973446E+02  0.16924353874E+02  0.28868103948E+02  0.00000000000E+00 0. -1.
</event>
<event>
 5    1  0.1709463E-003  0.9118800E+02  0.7818608E-02  0.1130116E+00
         25   -1    0    0    0    0  0.00000000000E+00  0.00000000000E+00  0.99999998245E-14  0.12500000000E+03  0.12500000000E+03 0.  0.
        -13    1    3    3    0    0 -0.10101565844E+02 -0.13365638537E+02  0.30799292541E+02  0.35061225179E+02  0.10566000000E+00 0.  1.
         23    2    1    0    0    0 -0.93571291107E+01 -0.82502295884E+01 -0.28135782572E+02  0.94222663949E+02  0.89054286743E+02 0.  0.
         13    1    3    3    0    0  0.74443673317E+00  0.51154089483E+01 -0.58935075113E+02  0.59161438770E+02  0.10566000000E+00 0. -1.
         22    1    1    0    0    0  0.93571291107E+01  0.82502295884E+01  0.28135782572E+02  0.30777336051E+02  0.00000000000E+00 0. -1.
</event>
<event>
 5    1  0.1709463E-003  0.9118800E+02  0.7818608E-02  0.1130116E+00
         25   -1    0    0    0    0  0.00000000000E+00  0.00000000000E+00  0.99999998245E-14  0.12500000000E+03  0.12500000000E+03 0.  0.
        -13    1    3    3    0    0  0.19305399623E+02  0.52906492628E+01  0.55246448311E+02  0.58761132046E+02  0.10566000000E+00 0.  1.
         23    2    1    0    0    0  0.13838184099E+01  0.15737323014E+02  0.24125793567E+02  0.96161966012E+02  0.91735988048E+02 0.  0.
         13    1    3    3    0    0 -0.17921581213E+02  0.10446673751E+02 -0.31120654744E+02  0.37400833967E+02  0.10566000000E+00 0. -1.
         22    1    1    0    0    0 -0.13838184099E+01 -0.15737323014E+02 -0.24125793567E+02  0.28838033988E+02  0.00000000000E+00 0.  1.
</event>
<event>
 5    1  0.1709463E-003  0.9118800E+02  0.7818608E-02  0.1130116E+00
         25   -1    0    0    0    0  0.00000000000E+00  0.00000000000E+00  0.99999998245E-14  0.12500000000E+03  0.12500000000E+03 0.  0.
        -13    1    3    3    0    0 -0.18510258980E+02  0.28832054828E+02 -0.10114108308E+02  0.35724269398E+02  0.10566000000E+00 0. -1.
         23    2    1    0    0    0  0.27457413075E+02 -0.92017491134E+01 -0.50889508351E+01  0.95597973877E+02  0.90964242806E+02 0.  0.
         13    1    3    3    0    0  0.45967672055E+02 -0.38033803941E+02  0.50251574731E+01  0.59873704479E+02  0.10566000000E+00 0.  1.
         22    1    1    0    0    0 -0.27457413075E+02  0.92017491134E+01  0.50889508351E+01  0.29402026123E+02  0.00000000000E+00 0.  1.
</event>
<event>
 5    1  0.1709463E-003  0.9118800E+02  0.7818608E-02  0.1130116E+00
         25   -1    0    0    0    0  0.00000000000E+00  0.00000000000E+00  0.99999998245E-14  0.12500000000E+03  0.12500000000E+03 0.  0.
        -13    1    3    3    0    0 -0.69562675881E+01  0.23214590322E+02  0.27000826041E+02  0.36281712109E+02  0.10566000000E+00 0. -1.
         23    2    1    0    0    0 -0.31301211723E+01 -0.45065399735E+01 -0.27184845076E+02  0.97266944581E+02  0.93229481095E+02 0.  0.
         13    1    3    3    0    0  0.38261464158E+01 -0.27721130296E+02 -0.54185671117E+02  0.60985232472E+02  0.10566000000E+00 0.  1.
         22    1    1    0    0    0  0.31301211723E+01  0.45065399735E+01  0.27184845076E+02  0.27733055419E+02  0.00000000000E+00 0.  1.
</event>
<event>
 5    1  0.1709463E-003  0.9118800E+02  0.7818608E-02  0.1130116E+00
         25   -1    0    0    0    0  0.00000000000E+00  0.00000000000E+00  0.99999998245E-14  0.12500000000E+03  0.12500000000E+03 0.  0.
        -13    1    3    3    0    0  0.36433178811E+01  0.34517299223E+02 -0.39461687507E+02  0.52554292458E+02  0.10566000000E+00 0.  1.
         23    2    1    0    0    0  0.18784252988E+02  0.22168861655E+02 -0.73130476654E+00  0.95933844526E+02  0.91424619941E+02 0.  0.
         13    1    3    3    0    0  0.15140935107E+02 -0.12348437567E+02  0.38730382741E+02  0.43379552067E+02  0.10566000000E+00 0. -1.
         22    1    1    0    0    0 -0.18784252988E+02 -0.22168861655E+02  0.73130476654E+00  0.29066155474E+02  0.00000000000E+00 0.  1.
</event>
<event>
 5    1  0.1709463E-003  0.9118800E+02  0.7818608E-02  0.1130116E+00
         25   -1    0    0    0    0  0.00000000000E+00  0.00000000000E+00  0.99999998245E-14  0.12500000000E+03  0.12500000000E+03 0.  0.
        -13    1    3    3    0    0  0.35502753796E+02  0.73970378123E+01 -0.66211323768E+01  0.36864783378E+02  0.10566000000E+00 0.  1.
         23    2    1    0    0    0 -0.21063757010E+02  0.19944879432E+02  0.38253875188E+01  0.95740579900E+02  0.91159996571E+02 0.  0.
         13    1    3    3    0    0 -0.56566510806E+02  0.12547841619E+02  0.10446519896E+02  0.58875796522E+02  0.10566000000E+00 0. -1.
         22    1    1    0    0    0  0.21063757010E+02 -0.19944879432E+02 -0.38253875188E+01  0.29259420100E+02  0.00000000000E+00 0. -1.
</event>
<event>
 5    1  0.1709463E-003  0.9118800E+02  0.7818608E-02  0.1130116E+00
         25   -1    0    0    0    0  0.00000000000E+00  0.00000000000E+00  0.99999998245E-14  0.12500000000E+03  0.12500000000E+03 0.  0.
        -13    1    3    3    0    0 -0.42508389064E+02 -0.97241672599E+01 -0.26722016324E+02  0.51142935878E+02  0.10566000000E+00 0.  1.
         23    2    1    0    0    0 -0.16887106657E+02  0.21538764681E+02 -0.45201353310E+01  0.97259697575E+02  0.93219763965E+02 0.  0.
         13    1    3    3    0    0  0.25621282407E+02  0.31262931941E+02  0.22201880993E+02  0.46116761697E+02  0.10566000000E+00 0. -1.
         22    1    1    0    0    0  0.16887106657E+02 -0.21538764681E+02  0.45201353310E+01  0.27740302425E+02  0.00000000000E+00 0.  1.
</event>
<event>
 5    1  0.1709463E-003  0.9118800E+02  0.7818608E-02  0.1130116E+00
         25   -1    0    0    0    0  0.00000000000E+00  0.00000000000E+00  0.99999998245E-14  0.12500000000E+03  0.12500000000E+03 0.  0.
        -13    1    3    3    0    0 -0.28819703047E+02 -0.20380486847E+02  0.19087390730E+02  0.40128283999E+02  0.10566000000E+00 0. -1.
         23    2    1    0    0    0  0.44898288080E+01 -0.17045296352E+02 -0.24331907824E+02  0.94954327619E+02  0.90075423422E+02 0.  0.
         13    1    3    3    0    0  0.33309531855E+02  0.33351904948E+01 -0.43419298554E+02  0.54826043620E+02  0.10566000000E+00 0.  1.
         22    1    1    0    0    0 -0.44898288080E+01  0.17045296352E+02  0.24331907824E+02  0.30045672381E+02  0.00000000000E+00 0.  1.
</event>
<event>
 5    1  0.1709463E-003  0.9118800E+02  0.7818608E-02  0.1130116E+00
         25   -1    0    0    0    0  0.00000000000E+00  0.00000000000E+00  0.99999998245E-14  0.12500000000E+03  0.12500000000E+03 0.  0.
        -13    1    3    3    0    0 -0.31342147790E+02 -0.20643518769E+02  0.47751689751E+00  0.37532975924E+02  0.10566000000E+00 0.  1.
         23    2    1    0    0    0  0.25738608166E+02 -0.12154793288E+02  0.72205327965E+01  0.95634185793E+02  0.91013990398E+02 0.  0.
         13    1    3    3    0    0  0.57080755956E+02  0.84887254803E+01  0.67430158990E+01  0.58101209869E+02  0.10566000000E+00 0. -1.
         22    1    1    0    0    0 -0.25738608166E+02  0.12154793288E+02 -0.72205327965E+01  0.29365814207E+02  0.00000000000E+00 0. -1.
</event>
<event>
 5    1  0.1709463E-003  0.9118800E+02  0.7818608E-02  0.1130116E+00
         25   -1    0    0    0    0  0.00000000000E+00  0.00000000000E+00  0.99999998245E-14  0.12500000000E+03  0.12500000000E+03 0.  0.
        -13    1    3    3    0    0  0.18533541481E+02  0.15347920921E+02 -0.52924992160E+02  0.58138771879E+02  0.10566000000E+00 0. -1.
         23    2    1    0    0    0  0.33506402565E+01  0.21209730871E+02 -0.16883952983E+02  0.97684302277E+02  0.93787395578E+02 0.  0.
         13    1    3    3    0    0 -0.15182901225E+02  0.58618099503E+01  0.36041039177E+02  0.39545530398E+02  0.10566000000E+00 0.  1.
         22    1    1    0    0    0 -0.33506402565E+01 -0.21209730871E+02  0.16883952983E+02  0.27315697723E+02  0.00000000000E+00 0. -1.
</event>
<event>
 5    1  0.1709463E-003  0.9118800E+02  0.7818608E-02  0.1130116E+00
         25   -1    0    0    0    0  0.00000000000E+00  0.00000000000E+00  0.99999998245E-14  0.12500000000E+03  0.12500000000E+03 0.  0.
        -13    1    3    3    0    0  0.98559076366E+00  0.13063574831E+02 -0.56019159788E+02  0.57530737905E+02  0.10566000000E+00 0.  1.
         23    2    1    0    0    0 -0.16477224019E+02  0.94792072617E+01 -0.22100742686E+02  0.95848720286E+02  0.91308159940E+02 0.  0.
         13    1    3    3    0    0 -0.17462814783E+02 -0.35843675693E+01  0.33918417102E+02  0.38317982381E+02  0.10566000000E+00 0. -1.
         22    1    1    0    0    0  0.16477224019E+02 -0.94792072617E+01  0.22100742686E+02  0.29151279714E+02  0.00000000000E+00 0.  1.
</event>
<event>
 5    1  0.1709463E-003  0.9118800E+02  0.7818608E-02  0.1130116E+00
         25   -1    0    0    0    0  0.00000000000E+00  0.00000000000E+00  0.99999998245E-14  0.12500000000E+03  0.12500000000E+03 0.  0.
        -13    1    3    3    0    0 -0.33135095545E+02  0.11856847418E+02  0.50764727897E+02  0.61770447222E+02  0.10566000000E+00 0.  1.
         23    2    1    0    0    0 -0.13326288575E+02  0.10840339150E+02  0.29594825262E+02  0.90780756841E+02  0.84084417167E+02 0.  0.
         13    1    3    3    0    0  0.19808806970E+02 -0.10165082682E+01 -0.21169902635E+02  0.29010309619E+02  0.10566000000E+00 0. -1.
         22    1    1    0    0    0  0.13326288575E+02 -0.10840339150E+02 -0.29594825262E+02  0.34219243159E+02  0.00000000000E+00 0.  1.
</event>
<event>
 5    1  0.1709463E-003  0.9118800E+02  0.7818608E-02  0.1130116E+00
         25   -1    0    0    0    0  0.00000000000E+00  0.00000000000E+00  0.99999998245E-14  0.12500000000E+03  0.12500000000E+03 0.  0.
        -13    1    3    3    0    0 -0.43254304348E+02 -0.21125431174E+02 -0.24322994095E+02  0.53933643421E+02  0.10566000000E+00 0. -1.
         23    2    1    0    0    0 -0.24976971599E+02  0.12803514414E+02 -0.12747736345E+02  0.94173325293E+02  0.88985006171E+02 0.  0.
         13    1    3    3    0    0  0.18277332749E+02  0.33928945588E+02  0.11575257750E+02  0.40239681872E+02  0.10566000000E+00 0.  1.
         22    1    1    0    0    0  0.24976971599E+02 -0.12803514414E+02  0.12747736345E+02  0.30826674707E+02  0.00000000000E+00 0. -1.
</event>
<event>
 5    1  0.1709463E-003  0.9118800E+02  0.7818608E-02  0.1130116E+00
         25   -1    0    0    0    0  0.00000000000E+00  0.00000000000E+00  0.99999998245E-14  0.12500000000E+03  0.12500000000E+03 0.  0.
        -13    1    3    3    0    0  0.28798530321E+02  0.22085809669E+02  0.29828537969E+02  0.46977560375E+02  0.10566000000E+00 0.  1.
         23    2    1    0    0    0 -0.31404994018E+01  0.29922476029E+02 -0.45708582163E+01  0.94567943660E+02  0.89537622903E+02 0.  0.
         13    1    3    3    0    0 -0.31939029723E+02  0.78366663604E+01 -0.34399396186E+02  0.47590383285E+02  0.10566000000E+00 0. -1.
         22    1    1    0    0    0  0.31404994018E+01 -0.29922476029E+02  0.45708582163E+01  0.30432056340E+02  0.00000000000E+00 0. -1.
</event>
<event>
 5    1  0.1709463E-003  0.9118800E+02  0.7818608E-02  0.1130116E+00
         25   -1    0    0    0    0  0.00000000000E+00  0.00000000000E+00  0.99999998245E-14  0.12500000000E+03  0.12500000000E+03 0.  0.
        -13    1    3    3    0    0  0.59684864943E+01 -0.11413582310E+02  0.47584859646E+02  0.49297289213E+02  0.10566000000E+00 0. -1.
         23    2    1    0    0    0 -0.17195239639E+02  0.15589306034E+02  0.16749516487E+02  0.96377473358E+02  0.92029171133E+02 0.  0.
         13    1    3    3    0    0 -0.23163726133E+02  0.27002888344E+02 -0.30835343160E+02  0.47080184144E+02  0.10566000000E+00 0.  1.
         22    1    1    0    0    0  0.17195239639E+02 -0.15589306034E+02 -0.16749516487E+02  0.28622526642E+02  0.00000000000E+00 0. -1.
</event>
<event>
 5    1  0.1709463E-003  0.9118800E+02  0.7818608E-02  0.1130116E+00
         25   -1    0    0    0    0  0.00000000000E+00  0.00000000000E+00  0.99999998245E-14  0.12500000000E+03  0.12500000000E+03 0.  0.
        -13    1    3    3    0    0 -0.49598133497E+02 -0.31590754664E+02  0.60865872325E+01  0.59118595508E+02  0.10566000000E+00 0. -1.
         23    2    1    0    0    0 -0.11899828421E+02 -0.23388645427E+02  0.74436228677E+01  0.97722863553E+02  0.93838776038E+02 0.  0.
         13    1    3    3    0    0  0.37698305077E+02  0.82021092369E+01  0.13570356352E+01  0.38604268046E+02  0.10566000000E+00 0.  1.
         22    1    1    0    0    0  0.11899828421E+02  0.23388645427E+02 -0.74436228677E+01  0.27277136447E+02  0.00000000000E+00 0. -1.
</event>
<event>
 5    1  0.1709463E-003  0.9118800E+02  0.7818608E-02  0.1130116E+00
         25   -1    0    0    0    0  0.00000000000E+00  0.00000000000E+00  0.99999998245E-14  0.12500000000E+03  0.12500000000E+03 0.  0.
        -13    1    3    3    0    0 -0.47944418908E+02 -0.28392998919E+01 -0.35800135558E+02  0.59903170186E+02  0.10566000000E+00 0. -1.
         23    2    1    0    0    0 -0.18423081989E+02  0.11313418332E+02 -0.13615273716E+02  0.99450458660E+02  0.96112510450E+02 0.  0.
         13    1    3    3    0    0  0.29521336919E+02  0.14152718224E+02  0.22184861842E+02  0.39547288474E+02  0.10566000000E+00 0.  1.
         22    1    1    0    0    0  0.18423081989E+02 -0.11313418332E+02  0.13615273716E+02  0.25549541340E+02  0.00000000000E+00 0. -1.
</event>
<event>
 5    1  0.1709463E-003  0.9118800E+02  0.7818608E-02  0.1130116E+00
         25   -1    0    0    0    0  0.00000000000E+00  0.00000000000E+00  0.99999998245E-14  0.12500000000E+03  0.12500000000E+03 0.  0.
        -13    1    3    3    0    0  0.38317669086E+02 -0.14388026307E+02 -0.31072032028E+02  0.51388144582E+02  0.10566000000E+00 0.  1.
         23    2    1    0    0    0  0.27243028139E+02  0.99141256713E+01  0.42807887897E+01  0.95694750937E+02  0.91097133513E+02 0.  0.
         13    1    3    3    0    0 -0.11074640948E+02  0.24302151978E+02  0.35352820818E+02  0.44306606355E+02  0.10566000000E+00 0. -1.
         22    1    1    0    0    0 -0.27243028139E+02 -0.99141256713E+01 -0.42807887897E+01  0.29305249063E+02  0.00000000000E+00 0.  1.
</event>
<event>
 5    1  0.1709463E-003  0.9118800E+02  0.7818608E-02  0.1130116E+00
         25   -1    0    0    0    0  0.00000000000E+00  0.00000000000E+00  0.99999998245E-14  0.12500000000E+03  0.12500000000E+03 0.  0.
        -13    1    3    3    0    0 -0.43498331690E+02  0.34122121071E+02  0.19936663288E+02  0.58769938858E+02  0.10566000000E+00 0.  1.
         23    2    1    0    0    0 -0.26682925208E+02  0.26002378177E+01  0.13164737878E+02  0.95132792937E+02  0.90322744834E+02 0.  0.
         13    1    3    3    0    0  0.16815406482E+02 -0.31521883253E+02 -0.67719254105E+01  0.36362854080E+02  0.10566000000E+00 0. -1.
         22    1    1    0    0    0  0.26682925208E+02 -0.26002378177E+01 -0.13164737878E+02  0.29867207063E+02  0.00000000000E+00 0.  1.
</event>
<event>
 5    1  0.1709463E-003  0.9118800E+02  0.7818608E-02  0.1130116E+00
         25   -1    0    0    0    0  0.00000000000E+00  0.00000000000E+00  0.99999998245E-14  0.12500000000E+03  0.12500000000E+03 0.  0.
        -13    1    3    3    0    0  0.13352942721E+02 -0.34170541389E+02 -0.58728083595E+01  0.37154111753E+02  0.10566000000E+00 0. -1.
         23    2    1    0    0    0 -0.26871777673E+02  0.75727454807E+01  0.62788823087E+01  0.96384212881E+02  0.92038324736E+02 0.  0.
         13    1    3    3    0    0 -0.40224720394E+02  0.41743286870E+02  0.12151690668E+02  0.59230101127E+02  0.10566000000E+00 0.  1.
         22    1    1    0    0    0  0.26871777673E+02 -0.75727454807E+01 -0.62788823087E+01  0.28615787119E+02  0.00000000000E+00 0.  1.
</event>
<event>
 4    1  0.1709463E-003  0.9118800E+02  0.7818608E-02  0.1130116E+00
         25   -1    0    0    0    0  0.00000000000E+00  0.00000000000E+00  0.99999998245E-14  0.12500000000E+03  0.12500000000E+03 0.  0.
        -13    1    1    0    0    0  0.25162751398E+02 -0.26603160004E+02 -0.35458349808E+02  0.50972521178E+02  0.10566000000E+00 0.  1.
         13    1    1    0    0    0  0.16281558613E+02  0.70317568550E+01  0.33049003054E+01  0.18040739603E+02  0.10566000000E+00 0. -1.
         22    1    1    0    0    0 -0.41444310011E+02  0.19571403149E+02  0.32153449502E+02  0.55986739219E+02  0.00000000000E+00 0.  1.
</event>
<event>
 5    1  0.1709463E-003  0.9118800E+02  0.7818608E-02  0.1130116E+00
         25   -1    0    0    0    0  0.00000000000E+00  0.00000000000E+00  0.99999998245E-14  0.12500000000E+03  0.12500000000E+03 0.  0.
        -13    1    3    3    0    0 -0.37816921026E+02 -0.21445368789E+02 -0.24662530911E+02  0.49982746557E+02  0.10566000000E+00 0. -1.
         23    2    1    0    0    0  0.45548172638E+01 -0.19713479858E+02 -0.25562131288E+02  0.92399536746E+02  0.86457412559E+02 0.  0.
         13    1    3    3    0    0  0.42371738290E+02  0.17318889313E+01 -0.89960037662E+00  0.42416790188E+02  0.10566000000E+00 0.  1.
         22    1    1    0    0    0 -0.45548172638E+01  0.19713479858E+02  0.25562131288E+02  0.32600463254E+02  0.00000000000E+00 0. -1.
</event>
<event>
 5    1  0.1709463E-003  0.9118800E+02  0.7818608E-02  0.1130116E+00
         25   -1    0    0    0    0  0.00000000000E+00  0.00000000000E+00  0.99999998245E-14  0.12500000000E+03  0.12500000000E+03 0.  0.
        -13    1    3    3    0    0 -0.12467362606E+02  0.17504438385E+02  0.35469642925E+02  0.41472246465E+02  0.10566000000E+00 0.  1.
         23    2    1    0    0    0  0.20808820897E+02 -0.17497827549E+02  0.15225124835E+02  0.93839361010E+02  0.88514632985E+02 0.  0.
         13    1    3    3    0    0  0.33276183503E+02 -0.35002265934E+02 -0.20244518091E+02  0.52367114545E+02  0.10566000000E+00 0. -1.
         22    1    1    0    0    0 -0.20808820897E+02  0.17497827549E+02 -0.15225124835E+02  0.31160638990E+02  0.00000000000E+00 0. -1.
</event>
<event>
 5    1  0.1709463E-003  0.9118800E+02  0.7818608E-02  0.1130116E+00
         25   -1    0    0    0    0  0.00000000000E+00  0.00000000000E+00  0.99999998245E-14  0.12500000000E+03  0.12500000000E+03 0.  0.
        -13    1    3    3    0    0  0.36754353056E+02  0.22554581747E+01 -0.15084338044E+02  0.39793441399E+02  0.10566000000E+00 0. -1.
         23    2    1    0    0    0 -0.16127459674E+02  0.17125057322E+02 -0.18850765587E+02  0.94855118062E+02  0.89937642373E+02 0.  0.
         13    1    3    3    0    0 -0.52881812731E+02  0.14869599147E+02 -0.37664275428E+01  0.55061676663E+02  0.10566000000E+00 0.  1.
         22    1    1    0    0    0  0.16127459674E+02 -0.17125057322E+02  0.18850765587E+02  0.30144881938E+02  0.00000000000E+00 0.  1.
</event>
<event>
 5    1  0.1709463E-003  0.9118800E+02  0.7818608E-02  0.1130116E+00
         25   -1    0    0    0    0  0.00000000000E+00  0.00000000000E+00  0.99999998245E-14  0.12500000000E+03  0.12500000000E+03 0.  0.
        -13    1    3    3    0    0  0.30801699466E+02 -0.73216203284E+00  0.37414155953E+02  0.48467628176E+02  0.10566000000E+00 0.  1.
         23    2    1    0    0    0  0.26742657077E+02 -0.70944378956E+01 -0.93180221025E+01  0.95805372198E+02  0.91248797524E+02 0.  0.
         13    1    3    3    0    0 -0.40590423894E+01 -0.63622758627E+01 -0.46732178056E+02  0.47337744023E+02  0.10566000000E+00 0. -1.
         22    1    1    0    0    0 -0.26742657077E+02  0.70944378956E+01  0.93180221025E+01  0.29194627802E+02  0.00000000000E+00 0. -1.
</event>
<event>
 5    1  0.1709463E-003  0.9118800E+02  0.7818608E-02  0.1130116E+00
         25   -1    0    0    0    0  0.00000000000E+00  0.00000000000E+00  0.99999998245E-14  0.12500000000E+03  0.12500000000E+03 0.  0.
        -13    1    3    3    0    0  0.44593984803E+01 -0.17414422685E+02 -0.28391184818E+02  0.33603852334E+02  0.10566000000E+00 0.  1.
         23    2    1    0    0    0 -0.10165008094E+02  0.13097743229E+02  0.23915028953E+02  0.95900053659E+02  0.91378407814E+02 0.  0.
         13    1    3    3    0    0 -0.14624406574E+02  0.30512165914E+02  0.52306213771E+02  0.62296201325E+02  0.10566000000E+00 0. -1.
         22    1    1    0    0    0  0.10165008094E+02 -0.13097743229E+02 -0.23915028953E+02  0.29099946341E+02  0.00000000000E+00 0. -1.
</event>
<event>
 5    1  0.1709463E-003  0.9118800E+02  0.7818608E-02  0.1130116E+00
         25   -1    0    0    0    0  0.00000000000E+00  0.00000000000E+00  0.99999998245E-14  0.12500000000E+03  0.12500000000E+03 0.  0.
        -13    1    3    3    0    0  0.35044020960E+01  0.36568200431E+02 -0.30138376879E+02  0.47516807992E+02  0.10566000000E+00 0.  1.
         23    2    1    0    0    0 -0.21866389840E+02  0.17094175852E+02  0.68466763438E+01  0.96412820537E+02  0.92077169451E+02 0.  0.
         13    1    3    3    0    0 -0.25370791936E+02 -0.19474024579E+02  0.36985053223E+02  0.48896012544E+02  0.10566000000E+00 0. -1.
         22    1    1    0    0    0  0.21866389840E+02 -0.17094175852E+02 -0.68466763438E+01  0.28587179463E+02  0.00000000000E+00 0. -1.
</event>
<event>
 5    1  0.1709463E-003  0.9118800E+02  0.7818608E-02  0.1130116E+00
         25   -1    0    0    0    0  0.00000000000E+00  0.00000000000E+00  0.99999998245E-14  0.12500000000E+03  0.12500000000E+03 0.  0.
        -13    1    3    3    0    0  0.76152759654E+01 -0.26925232882E+02 -0.35190173922E+02  0.44959093613E+02  0.10566000000E+00 0.  1.
         23    2    1    0    0    0  0.18308474756E+02  0.15506717846E+02 -0.16892466913E+00  0.10100652001E+03  0.98115391268E+02 0.  0.
         13    1    3    3    0    0  0.10693198791E+02  0.42431950728E+02  0.35021249253E+02  0.56047426402E+02  0.10566000000E+00 0. -1.
         22    1    1    0    0    0 -0.18308474756E+02 -0.15506717846E+02  0.16892466913E+00  0.23993479985E+02  0.00000000000E+00 0. -1.
</event>
<event>
 5    1  0.1709463E-003  0.9118800E+02  0.7818608E-02  0.1130116E+00
         25   -1    0    0    0    0  0.00000000000E+00  0.00000000000E+00  0.99999998245E-14  0.12500000000E+03  0.12500000000E+03 0.  0.
        -13    1    3    3    0    0 -0.30754063340E+02 -0.39029428091E+02 -0.18889622567E+02  0.53159549225E+02  0.10566000000E+00 0.  1.
         23    2    1    0    0    0 -0.31360901215E+00 -0.10820175448E+02 -0.27412726890E+02  0.95527434063E+02  0.90867257667E+02 0.  0.
         13    1    3    3    0    0  0.30440454328E+02  0.28209252643E+02 -0.85231043227E+01  0.42367884838E+02  0.10566000000E+00 0. -1.
         22    1    1    0    0    0  0.31360901215E+00  0.10820175448E+02  0.27412726890E+02  0.29472565937E+02  0.00000000000E+00 0.  1.
</event>
<event>
 5    1  0.1709463E-003  0.9118800E+02  0.7818608E-02  0.1130116E+00
         25   -1    0    0    0    0  0.00000000000E+00  0.00000000000E+00  0.99999998245E-14  0.12500000000E+03  0.12500000000E+03 0.  0.
        -13    1    3    3    0    0  0.54999343740E+02  0.17653939988E+02 -0.20733164718E+02  0.61371529981E+02  0.10566000000E+00 0.  1.
         23    2    1    0    0    0  0.26971281745E+02  0.11869068372E+02 -0.22357441927E+01  0.95447954807E+02  0.90757857521E+02 0.  0.
         13    1    3    3    0    0 -0.28028061995E+02 -0.57848716159E+01  0.18497420525E+02  0.34076424826E+02  0.10566000000E+00 0. -1.
         22    1    1    0    0    0 -0.26971281745E+02 -0.11869068372E+02  0.22357441927E+01  0.29552045193E+02  0.00000000000E+00 0.  1.
</event>
<event>
 5    1  0.1709463E-003  0.9118800E+02  0.7818608E-02  0.1130116E+00
         25   -1    0    0    0    0  0.00000000000E+00  0.00000000000E+00  0.99999998245E-14  0.12500000000E+03  0.12500000000E+03 0.  0.
        -13    1    3    3    0    0  0.22380237615E+02  0.58808851164E+01  0.39435228899E+02  0.45723170142E+02  0.10566000000E+00 0.  1.
         23    2    1    0    0    0  0.30666769399E+02 -0.10140376293E+02 -0.37106474611E+01  0.92487742599E+02  0.86584846536E+02 0.  0.
         13    1    3    3    0    0  0.82865317841E+01 -0.16021261410E+02 -0.43145876360E+02  0.46764572457E+02  0.10566000000E+00 0. -1.
         22    1    1    0    0    0 -0.30666769399E+02  0.10140376293E+02  0.37106474611E+01  0.32512257401E+02  0.00000000000E+00 0. -1.
</event>
<event>
 5    1  0.1709463E-003  0.9118800E+02  0.7818608E-02  0.1130116E+00
         25   -1    0    0    0    0  0.00000000000E+00  0.00000000000E+00  0.99999998245E-14  0.12500000000E+03  0.12500000000E+03 0.  0.
        -13    1    3    3    0    0 -0.50823241180E+01 -0.41445465781E+02 -0.17236727706E+02  0.45173804337E+02  0.10566000000E+00 0. -1.
         23    2    1    0    0    0  0.20256714555E+00  0.72511623985E+01 -0.28631056747E+02  0.95464296182E+02  0.90780361563E+02 0.  0.
         13    1    3    3    0    0  0.52848912636E+01  0.48696628179E+02 -0.11394329041E+02  0.50290491845E+02  0.10566000000E+00 0.  1.
         22    1    1    0    0    0 -0.20256714555E+00 -0.72511623985E+01  0.28631056747E+02  0.29535703818E+02  0.00000000000E+00 0.  1.
</event>
<event>
 5    1  0.1709463E-003  0.9118800E+02  0.7818608E-02  0.1130116E+00
         25   -1    0    0    0    0  0.00000000000E+00  0.00000000000E+00  0.99999998245E-14  0.12500000000E+03  0.12500000000E+03 0.  0.
        -13    1    3    3    0    0  0.47496052072E+01  0.29511485080E+02 -0.13396410240E+02  0.32756090618E+02  0.10566000000E+00 0.  1.
         23    2    1    0    0    0 -0.73959327223E+01 -0.27700168807E+02  0.83236152421E+01  0.95145657879E+02  0.90340547208E+02 0.  0.
         13    1    3    3    0    0 -0.12145537929E+02 -0.57211653887E+02  0.21720025482E+02  0.62389567261E+02  0.10566000000E+00 0. -1.
         22    1    1    0    0    0  0.73959327223E+01  0.27700168807E+02 -0.83236152421E+01  0.29854342121E+02  0.00000000000E+00 0. -1.
</event>
<event>
 5    1  0.1709463E-003  0.9118800E+02  0.7818608E-02  0.1130116E+00
         25   -1    0    0    0    0  0.00000000000E+00  0.00000000000E+00  0.99999998245E-14  0.12500000000E+03  0.12500000000E+03 0.  0.
        -13    1    3    3    0    0 -0.30152987857E+02 -0.22088993042E+02 -0.23324896000E+02  0.44058917687E+02  0.10566000000E+00 0.  1.
         23    2    1    0    0    0 -0.21808148729E+02  0.19733115211E+02  0.48778738665E+01  0.95187505298E+02  0.90398430984E+02 0.  0.
         13    1    3    3    0    0  0.83448391285E+01  0.41822108254E+02  0.28202769866E+02  0.51128587610E+02  0.10566000000E+00 0. -1.
         22    1    1    0    0    0  0.21808148729E+02 -0.19733115211E+02 -0.48778738665E+01  0.29812494702E+02  0.00000000000E+00 0. -1.
</event>
<event>
 5    1  0.1709463E-003  0.9118800E+02  0.7818608E-02  0.1130116E+00
         25   -1    0    0    0    0  0.00000000000E+00  0.00000000000E+00  0.99999998245E-14  0.12500000000E+03  0.12500000000E+03 0.  0.
        -13    1    3    3    0    0  0.10225053147E+02 -0.39964602409E+02 -0.10502928498E+02  0.42568108117E+02  0.10566000000E+00 0.  1.
         23    2    1    0    0    0  0.30732493522E+02 -0.11805991732E+01  0.12136005823E+02  0.91936990309E+02  0.85786057009E+02 0.  0.
         13    1    3    3    0    0  0.20507440375E+02  0.38784003236E+02  0.22638934321E+02  0.49368882192E+02  0.10566000000E+00 0. -1.
         22    1    1    0    0    0 -0.30732493522E+02  0.11805991732E+01 -0.12136005823E+02  0.33063009691E+02  0.00000000000E+00 0. -1.
</event>
<event>
 5    1  0.1709463E-003  0.9118800E+02  0.7818608E-02  0.1130116E+00
         25   -1    0    0    0    0  0.00000000000E+00  0.00000000000E+00  0.99999998245E-14  0.12500000000E+03  0.12500000000E+03 0.  0.
        -13    1    3    3    0    0  0.35182531328E+02  0.43370180722E+02 -0.76156946303E+01  0.56363046894E+02  0.10566000000E+00 0. -1.
         23    2    1    0    0    0 -0.20331724932E+01  0.25546919549E+02 -0.94961272771E+01  0.97669516614E+02  0.93767687151E+02 0.  0.
         13    1    3    3    0    0 -0.37215703821E+02 -0.17823261173E+02 -0.18804326468E+01  0.41306469720E+02  0.10566000000E+00 0.  1.
         22    1    1    0    0    0  0.20331724932E+01 -0.25546919549E+02  0.94961272771E+01  0.27330483386E+02  0.00000000000E+00 0. -1.
</event>
<event>
 5    1  0.1709463E-003  0.9118800E+02  0.7818608E-02  0.1130116E+00
         25   -1    0    0    0    0  0.00000000000E+00  0.00000000000E+00  0.99999998245E-14  0.12500000000E+03  0.12500000000E+03 0.  0.
        -13    1    3    3    0    0  0.59304468406E+02  0.56791028245E+01 -0.18726945338E+02  0.62449834488E+02  0.10566000000E+00 0.  1.
         23    2    1    0    0    0  0.27385475103E+02  0.87214737662E+00 -0.88870883242E+01  0.96195395740E+02  0.91781528289E+02 0.  0.
         13    1    3    3    0    0 -0.31918993303E+02 -0.48069554479E+01  0.98398570135E+01  0.33745561253E+02  0.10566000000E+00 0. -1.
         22    1    1    0    0    0 -0.27385475103E+02 -0.87214737662E+00  0.88870883242E+01  0.28804604260E+02  0.00000000000E+00 0.  1.
</event>
<event>
 5    1  0.1709463E-003  0.9118800E+02  0.7818608E-02  0.1130116E+00
         25   -1    0    0    0    0  0.00000000000E+00  0.00000000000E+00  0.99999998245E-14  0.12500000000E+03  0.12500000000E+03 0.  0.
        -13    1    3    3    0    0 -0.51629077667E+01  0.30304785354E+02  0.35013785438E+02  0.46594119443E+02  0.10566000000E+00 0.  1.
         23    2    1    0    0    0 -0.18950003983E+02 -0.13107490820E+02  0.19809252403E+02  0.94613893844E+02  0.89601749207E+02 0.  0.
         13    1    3    3    0    0 -0.13787096217E+02 -0.43412276174E+02 -0.15204533035E+02  0.48019774401E+02  0.10566000000E+00 0. -1.
         22    1    1    0    0    0  0.18950003983E+02  0.13107490820E+02 -0.19809252403E+02  0.30386106156E+02  0.00000000000E+00 0.  1.
</event>
<event>
 5    1  0.1709463E-003  0.9118800E+02  0.7818608E-02  0.1130116E+00
         25   -1    0    0    0    0  0.00000000000E+00  0.00000000000E+00  0.99999998245E-14  0.12500000000E+03  0.12500000000E+03 0.  0.
        -13    1    3    3    0    0  0.17047686949E+02  0.31215751530E+02 -0.88054759154E+01  0.36641429339E+02  0.10566000000E+00 0.  1.
         23    2    1    0    0    0 -0.15992469307E+02 -0.20387569352E+02 -0.78572802609E+01  0.97923277308E+02  0.94105362903E+02 0.  0.
         13    1    3    3    0    0 -0.33040156257E+02 -0.51603320882E+02  0.94819565454E+00  0.61281847969E+02  0.10566000000E+00 0. -1.
         22    1    1    0    0    0  0.15992469307E+02  0.20387569352E+02  0.78572802609E+01  0.27076722692E+02  0.00000000000E+00 0. -1.
</event>
<event>
 5    1  0.1709463E-003  0.9118800E+02  0.7818608E-02  0.1130116E+00
         25   -1    0    0    0    0  0.00000000000E+00  0.00000000000E+00  0.99999998245E-14  0.12500000000E+03  0.12500000000E+03 0.  0.
        -13    1    3    3    0    0  0.32940755303E+02 -0.10001926508E+02 -0.55892648984E+01  0.34876681894E+02  0.10566000000E+00 0. -1.
         23    2    1    0    0    0 -0.27967092365E+02 -0.65932332613E+01  0.10973160188E+01  0.96245294600E+02  0.91849461893E+02 0.  0.
         13    1    3    3    0    0 -0.60907847667E+02  0.34086932464E+01  0.66865809172E+01  0.61368612707E+02  0.10566000000E+00 0.  1.
         22    1    1    0    0    0  0.27967092365E+02  0.65932332613E+01 -0.10973160188E+01  0.28754705400E+02  0.00000000000E+00 0.  1.
</event>
<event>
 5    1  0.1709463E-003  0.9118800E+02  0.7818608E-02  0.1130116E+00
         25   -1    0    0    0    0  0.00000000000E+00  0.00000000000E+00  0.99999998245E-14  0.12500000000E+03  0.12500000000E+03 0.  0.
        -13    1    3    3    0    0  0.22175011202E+02  0.36056001596E+02 -0.36714780028E+02  0.56033495424E+02  0.10566000000E+00 0. -1.
         23    2    1    0    0    0  0.24941679468E+02  0.59523439918E+01 -0.26945505124E+02  0.87803521402E+02  0.79535403127E+02 0.  0.
         13    1    3    3    0    0  0.27666682663E+01 -0.30103657604E+02  0.97692749042E+01  0.31770025978E+02  0.10566000000E+00 0.  1.
         22    1    1    0    0    0 -0.24941679468E+02 -0.59523439918E+01  0.26945505124E+02  0.37196478598E+02  0.00000000000E+00 0. -1.
</event>
<event>
 5    1  0.1709463E-003  0.9118800E+02  0.7818608E-02  0.1130116E+00
         25   -1    0    0    0    0  0.00000000000E+00  0.00000000000E+00  0.99999998245E-14  0.12500000000E+03  0.12500000000E+03 0.  0.
        -13    1    3    3    0    0 -0.23246148064E+02 -0.12753436618E+02  0.20866784355E+02  0.33741182533E+02  0.10566000000E+00 0. -1.
         23    2    1    0    0    0  0.16818153098E+02 -0.12201055121E+02 -0.23572837759E+02  0.93577162768E+02  0.88143579982E+02 0.  0.
         13    1    3    3    0    0  0.40064301162E+02  0.55238149683E+00 -0.44439622115E+02  0.59835980234E+02  0.10566000000E+00 0.  1.
         22    1    1    0    0    0 -0.16818153098E+02  0.12201055121E+02  0.23572837759E+02  0.31422837232E+02  0.00000000000E+00 0.  1.
</event>
<event>
 5    1  0.1709463E-003  0.9118800E+02  0.7818608E-02  0.1130116E+00
         25   -1    0    0    0    0  0.00000000000E+00  0.00000000000E+00  0.99999998245E-14  0.12500000000E+03  0.12500000000E+03 0.  0.
        -13    1    3    3    0    0  0.40438469290E+02  0.68648162217E+01 -0.26597861672E+02  0.48886121854E+02  0.10566000000E+00 0.  1.
         23    2    1    0    0    0 -0.19389009852E+01 -0.13980648201E+02 -0.25179479205E+02  0.96134379719E+02  0.91698391097E+02 0.  0.
         13    1    3    3    0    0 -0.42377370276E+02 -0.20845464423E+02  0.14183824672E+01  0.47248257866E+02  0.10566000000E+00 0. -1.
         22    1    1    0    0    0  0.19389009852E+01  0.13980648201E+02  0.25179479205E+02  0.28865620281E+02  0.00000000000E+00 0. -1.
</event>
<event>
 5    1  0.1709463E-003  0.9118800E+02  0.7818608E-02  0.1130116E+00
         25   -1    0    0    0    0  0.00000000000E+00  0.00000000000E+00  0.99999998245E-14  0.12500000000E+03  0.12500000000E+03 0.  0.
        -13    1    3    3    0    0 -0.13061754653E+02 -0.17264690530E+01 -0.49636449564E+02  0.51355412756E+02  0.10566000000E+00 0. -1.
         23    2    1    0    0    0 -0.27280385136E+02 -0.76273842338E+01 -0.82742563239E+01  0.95489667553E+02  0.90815289947E+02 0.  0.
         13    1    3    3    0    0 -0.14218630483E+02 -0.59009151808E+01  0.41362193240E+02  0.44134254797E+02  0.10566000000E+00 0.  1.
         22    1    1    0    0    0  0.27280385136E+02  0.76273842338E+01  0.82742563239E+01  0.29510332447E+02  0.00000000000E+00 0. -1.
</event>
<event>
 5    1  0.1709463E-003  0.9118800E+02  0.7818608E-02  0.1130116E+00
         25   -1    0    0    0    0  0.00000000000E+00  0.00000000000E+00  0.99999998245E-14  0.12500000000E+03  0.12500000000E+03 0.  0.
        -13    1    3    3    0    0  0.19374078871E+02 -0.22831094977E+01  0.32469135122E+02  0.37879063091E+02  0.10566000000E+00 0. -1.
         23    2    1    0    0    0 -0.19605792985E+02 -0.25387759422E+02  0.12625762362E+01  0.92898293725E+02  0.87175532296E+02 0.  0.
         13    1    3    3    0    0 -0.38979871855E+02 -0.23104649925E+02 -0.31206558885E+02  0.55019230634E+02  0.10566000000E+00 0.  1.
         22    1    1    0    0    0  0.19605792985E+02  0.25387759422E+02 -0.12625762362E+01  0.32101706275E+02  0.00000000000E+00 0.  1.
</event>
<event>
 5    1  0.1709463E-003  0.9118800E+02  0.7818608E-02  0.1130116E+00
         25   -1    0    0    0    0  0.00000000000E+00  0.00000000000E+00  0.99999998245E-14  0.12500000000E+03  0.12500000000E+03 0.  0.
        -13    1    3    3    0    0 -0.21058668228E+02  0.13860874064E+02 -0.22570883129E+02  0.33838547053E+02  0.10566000000E+00 0. -1.
         23    2    1    0    0    0 -0.45193669280E+01 -0.30601576271E+02  0.11233669697E+02  0.92089872644E+02  0.86008535396E+02 0.  0.
         13    1    3    3    0    0  0.16539301300E+02 -0.44462450335E+02  0.33804552827E+02  0.58251325591E+02  0.10566000000E+00 0.  1.
         22    1    1    0    0    0  0.45193669280E+01  0.30601576271E+02 -0.11233669697E+02  0.32910127356E+02  0.00000000000E+00 0.  1.
</event>
<event>
 5    1  0.1709463E-003  0.9118800E+02  0.7818608E-02  0.1130116E+00
         25   -1    0    0    0    0  0.00000000000E+00  0.00000000000E+00  0.99999998245E-14  0.12500000000E+03  0.12500000000E+03 0.  0.
        -13    1    3    3    0    0 -0.55063018453E+02  0.55188349507E+01  0.21284252013E+02  0.59291011866E+02  0.10566000000E+00 0. -1.
         23    2    1    0    0    0 -0.28578851556E+02 -0.25408835343E+01 -0.30466196798E+01  0.96147119089E+02  0.91715755311E+02 0.  0.
         13    1    3    3    0    0  0.26484166896E+02 -0.80597184850E+01 -0.24330871693E+02  0.36856107223E+02  0.10566000000E+00 0.  1.
         22    1    1    0    0    0  0.28578851556E+02  0.25408835343E+01  0.30466196798E+01  0.28852880911E+02  0.00000000000E+00 0. -1.
</event>
<event>
 5    1  0.1709463E-003  0.9118800E+02  0.7818608E-02  0.1130116E+00
         25   -1    0    0    0    0  0.00000000000E+00  0.00000000000E+00  0.99999998245E-14  0.12500000000E+03  0.12500000000E+03 0.  0.
        -13    1    3    3    0    0  0.28722677453E+01 -0.55655538138E+02  0.71892348054E+01  0.56191503882E+02  0.10566000000E+00 0. -1.
         23    2    1    0    0    0 -0.17952927190E+02 -0.21864246731E+02 -0.87650514365E+00  0.96695916530E+02  0.92460689661E+02 0.  0.
         13    1    3    3    0    0 -0.20825194935E+02  0.33791291407E+02 -0.80657399490E+01  0.40504412648E+02  0.10566000000E+00 0.  1.
         22    1    1    0    0    0  0.17952927190E+02  0.21864246731E+02  0.87650514365E+00  0.28304083470E+02  0.00000000000E+00 0. -1.
</event>
<event>
 5    1  0.1709463E-003  0.9118800E+02  0.7818608E-02  0.1130116E+00
         25   -1    0    0    0    0  0.00000000000E+00  0.00000000000E+00  0.99999998245E-14  0.12500000000E+03  0.12500000000E+03 0.  0.
        -13    1    3    3    0    0 -0.29099243308E+02 -0.20009496890E+02 -0.26526819690E+02  0.44168192784E+02  0.10566000000E+00 0.  1.
         23    2    1    0    0    0  0.16156338194E+02  0.86922162868E+01 -0.19515975676E+02  0.98214645897E+02  0.94491594729E+02 0.  0.
         13    1    3    3    0    0  0.45255581502E+02  0.28701713177E+02  0.70108440137E+01  0.54046453114E+02  0.10566000000E+00 0. -1.
         22    1    1    0    0    0 -0.16156338194E+02 -0.86922162868E+01  0.19515975676E+02  0.26785354103E+02  0.00000000000E+00 0. -1.
</event>
<event>
 5    1  0.1709463E-003  0.9118800E+02  0.7818608E-02  0.1130116E+00
         25   -1    0    0    0    0  0.00000000000E+00  0.00000000000E+00  0.99999998245E-14  0.12500000000E+03  0.12500000000E+03 0.  0.
        -13    1    3    3    0    0  0.33061117903E+01  0.68814489023E+01 -0.33414490598E+02  0.34275706559E+02  0.10566000000E+00 0.  1.
         23    2    1    0    0    0  0.18839324779E+02  0.40975062624E+02 -0.89483742305E+01  0.79022295441E+02  0.64269540687E+02 0.  0.
         13    1    3    3    0    0  0.15533212989E+02  0.34093613722E+02  0.24466116368E+02  0.44746588881E+02  0.10566000000E+00 0. -1.
         22    1    1    0    0    0 -0.18839324779E+02 -0.40975062624E+02  0.89483742305E+01  0.45977704559E+02  0.00000000000E+00 0.  1.
</event>
<event>
 5    1  0.1709463E-003  0.9118800E+02  0.7818608E-02  0.1130116E+00
         25   -1    0    0    0    0  0.00000000000E+00  0.00000000000E+00  0.99999998245E-14  0.12500000000E+03  0.12500000000E+03 0.  0.
        -13    1    3    3    0    0 -0.12855324969E+02  0.62179553285E+01 -0.32334454554E+02  0.35347566591E+02  0.10566000000E+00 0. -1.
         23    2    1    0    0    0  0.40077770546E+01  0.14079289652E+02  0.25222630391E+02  0.95837185358E+02  0.91292367367E+02 0.  0.
         13    1    3    3    0    0  0.16863102024E+02  0.78613343231E+01  0.57557084945E+02  0.60489618767E+02  0.10566000000E+00 0.  1.
         22    1    1    0    0    0 -0.40077770546E+01 -0.14079289652E+02 -0.25222630391E+02  0.29162814642E+02  0.00000000000E+00 0.  1.
</event>
<event>
 5    1  0.1709463E-003  0.9118800E+02  0.7818608E-02  0.1130116E+00
         25   -1    0    0    0    0  0.00000000000E+00  0.00000000000E+00  0.99999998245E-14  0.12500000000E+03  0.12500000000E+03 0.  0.
        -13    1    3    3    0    0  0.20003941724E+02  0.20571239268E+02  0.21419228667E+02  0.35806816254E+02  0.10566000000E+00 0.  1.
         23    2    1    0    0    0  0.97541377363E+01 -0.27047958236E+02 -0.10885366672E+02  0.94255464627E+02  0.89100315133E+02 0.  0.
         13    1    3    3    0    0 -0.10249803987E+02 -0.47619197504E+02 -0.32304595339E+02  0.58448648374E+02  0.10566000000E+00 0. -1.
         22    1    1    0    0    0 -0.97541377363E+01  0.27047958236E+02  0.10885366672E+02  0.30744535373E+02  0.00000000000E+00 0. -1.
</event>
<event>
 5    1  0.1709463E-003  0.9118800E+02  0.7818608E-02  0.1130116E+00
         25   -1    0    0    0    0  0.00000000000E+00  0.00000000000E+00  0.99999998245E-14  0.12500000000E+03  0.12500000000E+03 0.  0.
        -13    1    3    3    0    0  0.21268130710E+02  0.27143913498E+02 -0.46596952284E+02  0.57969065458E+02  0.10566000000E+00 0.  1.
         23    2    1    0    0    0 -0.29433418424E+01  0.23283822108E+02 -0.19750135561E+02  0.94326436662E+02  0.89199827161E+02 0.  0.
         13    1    3    3    0    0 -0.24211472553E+02 -0.38600913899E+01  0.26846816723E+02  0.36357371204E+02  0.10566000000E+00 0. -1.
         22    1    1    0    0    0  0.29433418424E+01 -0.23283822108E+02  0.19750135561E+02  0.30673563338E+02  0.00000000000E+00 0.  1.
</event>
<event>
 4    1  0.1709463E-003  0.9118800E+02  0.7818608E-02  0.1130116E+00
         25   -1    0    0    0    0  0.00000000000E+00  0.00000000000E+00  0.99999998245E-14  0.12500000000E+03  0.12500000000E+03 0.  0.
        -13    1    1    0    0    0  0.10203638369E+02  0.37487600430E+02 -0.24808820224E+02  0.46096888690E+02  0.10566000000E+00 0.  1.
         13    1    1    0    0    0 -0.61684445034E+01  0.54804590890E+00 -0.19446668153E+02  0.20409167748E+02  0.10566000000E+00 0. -1.
         22    1    1    0    0    0 -0.40351938656E+01 -0.38035646339E+02  0.44255488377E+02  0.58493943562E+02  0.00000000000E+00 0.  1.
</event>
<event>
 5    1  0.1709463E-003  0.9118800E+02  0.7818608E-02  0.1130116E+00
         25   -1    0    0    0    0  0.00000000000E+00  0.00000000000E+00  0.99999998245E-14  0.12500000000E+03  0.12500000000E+03 0.  0.
        -13    1    3    3    0    0  0.15625521496E+01  0.52943158600E+02 -0.16364417358E+02  0.55436674966E+02  0.10566000000E+00 0.  1.
         23    2    1    0    0    0 -0.41537895596E+01  0.14167895558E+02 -0.25364646446E+02  0.95651260307E+02  0.91037437776E+02 0.  0.
         13    1    3    3    0    0 -0.57163417092E+01 -0.38775263042E+02 -0.90002290878E+01  0.40214585341E+02  0.10566000000E+00 0. -1.
         22    1    1    0    0    0  0.41537895596E+01 -0.14167895558E+02  0.25364646446E+02  0.29348739693E+02  0.00000000000E+00 0.  1.
</event>
<event>
 5    1  0.1709463E-003  0.9118800E+02  0.7818608E-02  0.1130116E+00
         25   -1    0    0    0    0  0.00000000000E+00  0.00000000000E+00  0.99999998245E-14  0.12500000000E+03  0.12500000000E+03 0.  0.
        -13    1    3    3    0    0  0.29100407889E+02 -0.33083773002E+02 -0.45631589363E+01  0.44296764654E+02  0.10566000000E+00 0.  1.
         23    2    1    0    0    0 -0.19076231620E+02 -0.17853479441E+02 -0.13473074044E+02  0.95603179337E+02  0.90971395692E+02 0.  0.
         13    1    3    3    0    0 -0.48176639509E+02  0.15230293561E+02 -0.89099151073E+01  0.51306414682E+02  0.10566000000E+00 0. -1.
         22    1    1    0    0    0  0.19076231620E+02  0.17853479441E+02  0.13473074044E+02  0.29396820663E+02  0.00000000000E+00 0. -1.
</event>
<event>
 5    1  0.1709463E-003  0.9118800E+02  0.7818608E-02  0.1130116E+00
         25   -1    0    0    0    0  0.00000000000E+00  0.00000000000E+00  0.99999998245E-14  0.12500000000E+03  0.12500000000E+03 0.  0.
        -13    1    3    3    0    0 -0.10516993295E+02 -0.84381271800E+01 -0.52972707537E+02  0.54661943307E+02  0.10566000000E+00 0.  1.
         23    2    1    0    0    0 -0.24150434300E+02  0.30594179354E+01 -0.15558895681E+02  0.96109123416E+02  0.91663956133E+02 0.  0.
         13    1    3    3    0    0 -0.13633441005E+02  0.11497545115E+02  0.37413811856E+02  0.41447180109E+02  0.10566000000E+00 0. -1.
         22    1    1    0    0    0  0.24150434300E+02 -0.30594179354E+01  0.15558895681E+02  0.28890876584E+02  0.00000000000E+00 0.  1.
</event>
<event>
 5    1  0.1709463E-003  0.9118800E+02  0.7818608E-02  0.1130116E+00
         25   -1    0    0    0    0  0.00000000000E+00  0.00000000000E+00  0.99999998245E-14  0.12500000000E+03  0.12500000000E+03 0.  0.
        -13    1    3    3    0    0 -0.96578907275E+00  0.41539480764E+02  0.55995065035E+01  0.41926445686E+02  0.10566000000E+00 0.  1.
         23    2    1    0    0    0 -0.36090044157E+02  0.16117893741E+02  0.27637965037E+01  0.85377829981E+02  0.75627094982E+02 0.  0.
         13    1    3    3    0    0 -0.35124255084E+02 -0.25421587024E+02 -0.28357099998E+01  0.43451384296E+02  0.10566000000E+00 0. -1.
         22    1    1    0    0    0  0.36090044157E+02 -0.16117893741E+02 -0.27637965037E+01  0.39622170019E+02  0.00000000000E+00 0. -1.
</event>
<event>
 5    1  0.1709463E-003  0.9118800E+02  0.7818608E-02  0.1130116E+00
         25   -1    0    0    0    0  0.00000000000E+00  0.00000000000E+00  0.99999998245E-14  0.12500000000E+03  0.12500000000E+03 0.  0.
        -13    1    3    3    0    0  0.45393412508E+02  0.96980528299E+01 -0.26278648776E+02  0.53340347518E+02  0.10566000000E+00 0. -1.
         23    2    1    0    0    0  0.26273361849E+02 -0.51324684497E+01  0.95523218799E+01  0.96576794189E+02  0.92299504589E+02 0.  0.
         13    1    3    3    0    0 -0.19120050658E+02 -0.14830521280E+02  0.35830970656E+02  0.43236446672E+02  0.10566000000E+00 0.  1.
         22    1    1    0    0    0 -0.26273361849E+02  0.51324684497E+01 -0.95523218799E+01  0.28423205811E+02  0.00000000000E+00 0. -1.
</event>
<event>
 5    1  0.1709463E-003  0.9118800E+02  0.7818608E-02  0.1130116E+00
         25   -1    0    0    0    0  0.00000000000E+00  0.00000000000E+00  0.99999998245E-14  0.12500000000E+03  0.12500000000E+03 0.  0.
        -13    1    3    3    0    0  0.20785421367E+02 -0.72135694028E+01  0.25696528171E+02  0.33828864140E+02  0.10566000000E+00 0.  1.
         23    2    1    0    0    0 -0.17487475294E+02  0.53110885612E+01 -0.22095764716E+02  0.96325232830E+02  0.91958187278E+02 0.  0.
         13    1    3    3    0    0 -0.38272896661E+02  0.12524657964E+02 -0.47792292887E+02  0.62496368690E+02  0.10566000000E+00 0. -1.
         22    1    1    0    0    0  0.17487475294E+02 -0.53110885612E+01  0.22095764716E+02  0.28674767170E+02  0.00000000000E+00 0. -1.
</event>
<event>
 5    1  0.1709463E-003  0.9118800E+02  0.7818608E-02  0.1130116E+00
         25   -1    0    0    0    0  0.00000000000E+00  0.00000000000E+00  0.99999998245E-14  0.12500000000E+03  0.12500000000E+03 0.  0.
        -13    1    3    3    0    0 -0.23838491121E+02  0.51394970865E+01  0.24821534598E+02  0.34796664109E+02  0.10566000000E+00 0.  1.
         23    2    1    0    0    0  0.41723671065E+00 -0.37519270793E+02  0.13176426336E+02  0.85232073497E+02  0.75385796900E+02 0.  0.
         13    1    3    3    0    0  0.24255727832E+02 -0.42658767880E+02 -0.11645108262E+02  0.50435409388E+02  0.10566000000E+00 0. -1.
         22    1    1    0    0    0 -0.41723671065E+00  0.37519270793E+02 -0.13176426336E+02  0.39767926503E+02  0.00000000000E+00 0. -1.
</event>
<event>
 5    1  0.1709463E-003  0.9118800E+02  0.7818608E-02  0.1130116E+00
         25   -1    0    0    0    0  0.00000000000E+00  0.00000000000E+00  0.99999998245E-14  0.12500000000E+03  0.12500000000E+03 0.  0.
        -13    1    3    3    0    0 -0.20459276292E+02  0.11297228004E+02  0.24424541399E+02  0.33805010480E+02  0.10566000000E+00 0.  1.
         23    2    1    0    0    0 -0.37502787037E+01 -0.25913067816E+02 -0.18439605080E+02  0.92975467068E+02  0.87286120128E+02 0.  0.
         13    1    3    3    0    0  0.16708997588E+02 -0.37210295820E+02 -0.42864146479E+02  0.59170456588E+02  0.10566000000E+00 0. -1.
         22    1    1    0    0    0  0.37502787037E+01  0.25913067816E+02  0.18439605080E+02  0.32024532932E+02  0.00000000000E+00 0. -1.
</event>
<event>
 5    1  0.1709463E-003  0.9118800E+02  0.7818608E-02  0.1130116E+00
         25   -1    0    0    0    0  0.00000000000E+00  0.00000000000E+00  0.99999998245E-14  0.12500000000E+03  0.12500000000E+03 0.  0.
        -13    1    3    3    0    0  0.39325884334E+02  0.23810217227E+02  0.41903825772E+02  0.62204448406E+02  0.10566000000E+00 0. -1.
         23    2    1    0    0    0  0.17523553710E+02  0.10098391154E+02  0.24215553917E+02  0.93449318707E+02  0.87962092271E+02 0.  0.
         13    1    3    3    0    0 -0.21802330623E+02 -0.13711826074E+02 -0.17688271855E+02  0.31244870301E+02  0.10566000000E+00 0.  1.
         22    1    1    0    0    0 -0.17523553710E+02 -0.10098391154E+02 -0.24215553917E+02  0.31550681293E+02  0.00000000000E+00 0. -1.
</event>
<event>
 5    1  0.1709463E-003  0.9118800E+02  0.7818608E-02  0.1130116E+00
         25   -1    0    0    0    0  0.00000000000E+00  0.00000000000E+00  0.99999998245E-14  0.12500000000E+03  0.12500000000E+03 0.  0.
        -13    1    3    3    0    0 -0.14503914258E+02  0.19154901806E+02 -0.75130312622E+01  0.25174006331E+02  0.10566000000E+00 0.  1.
         23    2    1    0    0    0  0.21106807467E+02 -0.26485829927E+01 -0.41073480776E+02  0.78744804223E+02  0.63727553348E+02 0.  0.
         13    1    3    3    0    0  0.35610721725E+02 -0.21803484798E+02 -0.33560449514E+02  0.53570797891E+02  0.10566000000E+00 0. -1.
         22    1    1    0    0    0 -0.21106807467E+02  0.26485829927E+01  0.41073480776E+02  0.46255195777E+02  0.00000000000E+00 0. -1.
</event>
<event>
 5    1  0.1709463E-003  0.9118800E+02  0.7818608E-02  0.1130116E+00
         25   -1    0    0    0    0  0.00000000000E+00  0.00000000000E+00  0.99999998245E-14  0.12500000000E+03  0.12500000000E+03 0.  0.
        -13    1    3    3    0    0 -0.12261405429E+02 -0.31834928479E+02  0.10861278177E+01  0.34132031466E+02  0.10566000000E+00 0. -1.
         23    2    1    0    0    0  0.33273918965E+02 -0.14372646119E+02  0.16355294784E+02  0.85235413906E+02  0.75391335553E+02 0.  0.
         13    1    3    3    0    0  0.45535324394E+02  0.17462282360E+02  0.15269166967E+02  0.51103382439E+02  0.10566000000E+00 0.  1.
         22    1    1    0    0    0 -0.33273918965E+02  0.14372646119E+02 -0.16355294784E+02  0.39764586094E+02  0.00000000000E+00 0. -1.
</event>
<event>
 5    1  0.1709463E-003  0.9118800E+02  0.7818608E-02  0.1130116E+00
         25   -1    0    0    0    0  0.00000000000E+00  0.00000000000E+00  0.99999998245E-14  0.12500000000E+03  0.12500000000E+03 0.  0.
        -13    1    3    3    0    0 -0.27846582813E+02  0.34541170808E+02  0.22215531589E+01  0.44423767486E+02  0.10566000000E+00 0. -1.
         23    2    1    0    0    0  0.11650745268E+02  0.90035229082E+01  0.24459795465E+02  0.96450308508E+02  0.92128047451E+02 0.  0.
         13    1    3    3    0    0  0.39497328081E+02 -0.25537647900E+02  0.22238242306E+02  0.52026541022E+02  0.10566000000E+00 0.  1.
         22    1    1    0    0    0 -0.11650745268E+02 -0.90035229082E+01 -0.24459795465E+02  0.28549691492E+02  0.00000000000E+00 0. -1.
</event>
<event>
 5    1  0.1709463E-003  0.9118800E+02  0.7818608E-02  0.1130116E+00
         25   -1    0    0    0    0  0.00000000000E+00  0.00000000000E+00  0.99999998245E-14  0.12500000000E+03  0.12500000000E+03 0.  0.
        -13    1    3    3    0    0 -0.81994856345E+00  0.20787758340E+02 -0.28349129247E+02  0.35163724284E+02  0.10566000000E+00 0.  1.
         23    2    1    0    0    0 -0.19063818470E+02 -0.19599971170E+02  0.12039890767E+02  0.95124474662E+02  0.90311232222E+02 0.  0.
         13    1    3    3    0    0 -0.18243869907E+02 -0.40387729510E+02  0.40389020014E+02  0.59960750378E+02  0.10566000000E+00 0. -1.
         22    1    1    0    0    0  0.19063818470E+02  0.19599971170E+02 -0.12039890767E+02  0.29875525338E+02  0.00000000000E+00 0.  1.
</event>
<event>
 5    1  0.1709463E-003  0.9118800E+02  0.7818608E-02  0.1130116E+00
         25   -1    0    0    0    0  0.00000000000E+00  0.00000000000E+00  0.99999998245E-14  0.12500000000E+03  0.12500000000E+03 0.  0.
        -13    1    3    3    0    0  0.34537807712E+02  0.96521144344E+01  0.41900979756E+01  0.36105284373E+02  0.10566000000E+00 0. -1.
         23    2    1    0    0    0 -0.16766021065E+02  0.15142745042E+02  0.24606972782E+02  0.91594831249E+02  0.85286035272E+02 0.  0.
         13    1    3    3    0    0 -0.51303828777E+02  0.54906306074E+01  0.20416874807E+02  0.55489546876E+02  0.10566000000E+00 0.  1.
         22    1    1    0    0    0  0.16766021065E+02 -0.15142745042E+02 -0.24606972782E+02  0.33405168751E+02  0.00000000000E+00 0.  1.
</event>
<event>
 5    1  0.1709463E-003  0.9118800E+02  0.7818608E-02  0.1130116E+00
         25   -1    0    0    0    0  0.00000000000E+00  0.00000000000E+00  0.99999998245E-14  0.12500000000E+03  0.12500000000E+03 0.  0.
        -13    1    3    3    0    0  0.42715918323E+02 -0.43754300230E+01  0.35272130035E+02  0.55569131605E+02  0.10566000000E+00 0. -1.
         23    2    1    0    0    0  0.51944195661E+01 -0.11939358756E+02  0.27424210558E+02  0.94641844475E+02  0.89640733591E+02 0.  0.
         13    1    3    3    0    0 -0.37521498757E+02 -0.75639287335E+01 -0.78479194765E+01  0.39072712870E+02  0.10566000000E+00 0.  1.
         22    1    1    0    0    0 -0.51944195661E+01  0.11939358756E+02 -0.27424210558E+02  0.30358155525E+02  0.00000000000E+00 0. -1.
</event>
<event>
 5    1  0.1709463E-003  0.9118800E+02  0.7818608E-02  0.1130116E+00
         25   -1    0    0    0    0  0.00000000000E+00  0.00000000000E+00  0.99999998245E-14  0.12500000000E+03  0.12500000000E+03 0.  0.
        -13    1    3    3    0    0  0.32220468547E+01 -0.31311070374E+02 -0.13579056454E+02  0.34280703787E+02  0.10566000000E+00 0. -1.
         23    2    1    0    0    0  0.21038868958E+02  0.13307381268E+02  0.20141888484E+02  0.92977881473E+02  0.87289577661E+02 0.  0.
         13    1    3    3    0    0  0.17816822103E+02  0.44618451642E+02  0.33720944938E+02  0.58697177686E+02  0.10566000000E+00 0.  1.
         22    1    1    0    0    0 -0.21038868958E+02 -0.13307381268E+02 -0.20141888484E+02  0.32022118527E+02  0.00000000000E+00 0.  1.
</event>
<event>
 5    1  0.1709463E-003  0.9118800E+02  0.7818608E-02  0.1130116E+00
         25   -1    0    0    0    0  0.00000000000E+00  0.00000000000E+00  0.99999998245E-14  0.12500000000E+03  0.12500000000E+03 0.  0.
        -13    1    3    3    0    0  0.23210080564E+02  0.31183097100E+02  0.24249043621E+02  0.45816161614E+02  0.10566000000E+00 0.  1.
         23    2    1    0    0    0 -0.13504272600E+02 -0.23005401478E+01  0.26081226791E+02  0.95540056783E+02  0.90884620238E+02 0.  0.
         13    1    3    3    0    0 -0.36714353164E+02 -0.33483637247E+02  0.18321831700E+01  0.49723895169E+02  0.10566000000E+00 0. -1.
         22    1    1    0    0    0  0.13504272600E+02  0.23005401478E+01 -0.26081226791E+02  0.29459943217E+02  0.00000000000E+00 0. -1.
</event>
<event>
 5    1  0.1709463E-003  0.9118800E+02  0.7818608E-02  0.1130116E+00
         25   -1    0    0    0    0  0.00000000000E+00  0.00000000000E+00  0.99999998245E-14  0.12500000000E+03  0.12500000000E+03 0.  0.
        -13    1    3    3    0    0  0.42363376612E+02  0.18178909939E+02  0.39625465636E+02  0.60789120206E+02  0.10566000000E+00 0.  1.
         23    2    1    0    0    0  0.22395936803E+02 -0.15433384700E+01  0.18282510686E+02  0.96048142100E+02  0.91580759578E+02 0.  0.
         13    1    3    3    0    0 -0.19967439809E+02 -0.19722248409E+02 -0.21342954950E+02  0.35259021893E+02  0.10566000000E+00 0. -1.
         22    1    1    0    0    0 -0.22395936803E+02  0.15433384700E+01 -0.18282510686E+02  0.28951857900E+02  0.00000000000E+00 0.  1.
</event>
<event>
 5    1  0.1709463E-003  0.9118800E+02  0.7818608E-02  0.1130116E+00
         25   -1    0    0    0    0  0.00000000000E+00  0.00000000000E+00  0.99999998245E-14  0.12500000000E+03  0.12500000000E+03 0.  0.
        -13    1    3    3    0    0 -0.14891457143E+01  0.35843629077E+02 -0.15464402517E+02  0.39065870137E+02  0.10566000000E+00 0.  1.
         23    2    1    0    0    0  0.18668272991E+02  0.45176851062E+01  0.24611474236E+02  0.93780798228E+02  0.88431892195E+02 0.  0.
         13    1    3    3    0    0  0.20157418706E+02 -0.31325943970E+02  0.40075876752E+02  0.54714928091E+02  0.10566000000E+00 0. -1.
         22    1    1    0    0    0 -0.18668272991E+02 -0.45176851062E+01 -0.24611474236E+02  0.31219201772E+02  0.00000000000E+00 0. -1.
</event>
<event>
 5    1  0.1709463E-003  0.9118800E+02  0.7818608E-02  0.1130116E+00
         25   -1    0    0    0    0  0.00000000000E+00  0.00000000000E+00  0.99999998245E-14  0.12500000000E+03  0.12500000000E+03 0.  0.
        -13    1    3    3    0    0 -0.24872727764E+01 -0.86215219850E+01  0.36863356589E+02  0.37939891806E+02  0.10566000000E+00 0.  1.
         23    2    1    0    0    0 -0.20720407559E+02  0.92192864445E+01 -0.16410555201E+02  0.97006485502E+02  0.92879606887E+02 0.  0.
         13    1    3    3    0    0 -0.18233134783E+02  0.17840808429E+02 -0.53273911790E+02  0.59066593696E+02  0.10566000000E+00 0. -1.
         22    1    1    0    0    0  0.20720407559E+02 -0.92192864445E+01  0.16410555201E+02  0.27993514498E+02  0.00000000000E+00 0. -1.
</event>
<event>
 5    1  0.1709463E-003  0.9118800E+02  0.7818608E-02  0.1130116E+00
         25   -1    0    0    0    0  0.00000000000E+00  0.00000000000E+00  0.99999998245E-14  0.12500000000E+03  0.12500000000E+03 0.  0.
        -13    1    3    3    0    0 -0.22827015558E+02 -0.25484682065E+02 -0.24282953045E+02  0.41954911891E+02  0.10566000000E+00 0. -1.
         23    2    1    0    0    0  0.24501401944E+02 -0.17294964640E+02 -0.18908906820E+01  0.94949875762E+02  0.90069245253E+02 0.  0.
         13    1    3    3    0    0  0.47328417502E+02  0.81897174243E+01  0.22392062363E+02  0.52994963870E+02  0.10566000000E+00 0.  1.
         22    1    1    0    0    0 -0.24501401944E+02  0.17294964640E+02  0.18908906820E+01  0.30050124238E+02  0.00000000000E+00 0.  1.
</event>
<event>
 5    1  0.1709463E-003  0.9118800E+02  0.7818608E-02  0.1130116E+00
         25   -1    0    0    0    0  0.00000000000E+00  0.00000000000E+00  0.99999998245E-14  0.12500000000E+03  0.12500000000E+03 0.  0.
        -13    1    3    3    0    0 -0.35696950100E+02  0.86049629527E+01 -0.18839047786E+02  0.41270310386E+02  0.10566000000E+00 0. -1.
         23    2    1    0    0    0  0.18889553680E+02  0.23810978002E+01 -0.21508546516E+02  0.96275403603E+02  0.91890428776E+02 0.  0.
         13    1    3    3    0    0  0.54586503779E+02 -0.62238651525E+01 -0.26694987305E+01  0.55005093217E+02  0.10566000000E+00 0.  1.
         22    1    1    0    0    0 -0.18889553680E+02 -0.23810978002E+01  0.21508546516E+02  0.28724596397E+02  0.00000000000E+00 0.  1.
</event>
<event>
 5    1  0.1709463E-003  0.9118800E+02  0.7818608E-02  0.1130116E+00
         25   -1    0    0    0    0  0.00000000000E+00  0.00000000000E+00  0.99999998245E-14  0.12500000000E+03  0.12500000000E+03 0.  0.
        -13    1    3    3    0    0 -0.32318376525E+02  0.53360282802E+01 -0.17276163485E+02  0.37032791520E+02  0.10566000000E+00 0. -1.
         23    2    1    0    0    0  0.21183165796E+02 -0.18000859497E+02 -0.37462909117E+01  0.96950184468E+02  0.92803804432E+02 0.  0.
         13    1    3    3    0    0  0.53501542320E+02 -0.23336887777E+02  0.13529872573E+02  0.59917392948E+02  0.10566000000E+00 0.  1.
         22    1    1    0    0    0 -0.21183165796E+02  0.18000859497E+02  0.37462909117E+01  0.28049815532E+02  0.00000000000E+00 0.  1.
</event>
<event>
 5    1  0.1709463E-003  0.9118800E+02  0.7818608E-02  0.1130116E+00
         25   -1    0    0    0    0  0.00000000000E+00  0.00000000000E+00  0.99999998245E-14  0.12500000000E+03  0.12500000000E+03 0.  0.
        -13    1    3    3    0    0 -0.16923329634E+02  0.16193172849E+02 -0.25178508857E+02  0.34388754050E+02  0.10566000000E+00 0.  1.
         23    2    1    0    0    0  0.21744485066E+02 -0.27593623124E+01  0.18934105247E+02  0.96035589896E+02  0.91563625278E+02 0.  0.
         13    1    3    3    0    0  0.38667814700E+02 -0.18952535161E+02  0.44112614104E+02  0.61646835846E+02  0.10566000000E+00 0. -1.
         22    1    1    0    0    0 -0.21744485066E+02  0.27593623124E+01 -0.18934105247E+02  0.28964410104E+02  0.00000000000E+00 0. -1.
</event>
<event>
 5    1  0.1709463E-003  0.9118800E+02  0.7818608E-02  0.1130116E+00
         25   -1    0    0    0    0  0.00000000000E+00  0.00000000000E+00  0.99999998245E-14  0.12500000000E+03  0.12500000000E+03 0.  0.
        -13    1    3    3    0    0 -0.27015009533E+02  0.16300023675E+02  0.10310257755E+02  0.33193585086E+02  0.10566000000E+00 0. -1.
         23    2    1    0    0    0  0.13085287489E+02 -0.25817250095E+02 -0.93533419025E+01  0.94582239466E+02  0.89557578499E+02 0.  0.
         13    1    3    3    0    0  0.40100297022E+02 -0.42117273770E+02 -0.19663599658E+02  0.61388654380E+02  0.10566000000E+00 0.  1.
         22    1    1    0    0    0 -0.13085287489E+02  0.25817250095E+02  0.93533419025E+01  0.30417760534E+02  0.00000000000E+00 0.  1.
</event>
<event>
 5    1  0.1709463E-003  0.9118800E+02  0.7818608E-02  0.1130116E+00
         25   -1    0    0    0    0  0.00000000000E+00  0.00000000000E+00  0.99999998245E-14  0.12500000000E+03  0.12500000000E+03 0.  0.
        -13    1    3    3    0    0  0.25000848639E+01  0.35161839312E+02 -0.40051204512E+01  0.35477563642E+02  0.10566000000E+00 0.  1.
         23    2    1    0    0    0 -0.21589182860E+01 -0.23956085543E+02  0.13640186513E+02  0.97348424081E+02  0.93338663051E+02 0.  0.
         13    1    3    3    0    0 -0.46590031499E+01 -0.59117924855E+02  0.17645306964E+02  0.61870860438E+02  0.10566000000E+00 0. -1.
         22    1    1    0    0    0  0.21589182860E+01  0.23956085543E+02 -0.13640186513E+02  0.27651575919E+02  0.00000000000E+00 0. -1.
</event>
<event>
 5    1  0.1709463E-003  0.9118800E+02  0.7818608E-02  0.1130116E+00
         25   -1    0    0    0    0  0.00000000000E+00  0.00000000000E+00  0.99999998245E-14  0.12500000000E+03  0.12500000000E+03 0.  0.
        -13    1    3    3    0    0 -0.86290370138E+01 -0.30854430212E+02  0.17841923334E+02  0.36671535770E+02  0.10566000000E+00 0.  1.
         23    2    1    0    0    0 -0.31600758572E+02 -0.16188260027E+02 -0.20718449004E+02  0.83891341129E+02  0.73128894988E+02 0.  0.
         13    1    3    3    0    0 -0.22971721559E+02  0.14666170184E+02 -0.38560372337E+02  0.47219805358E+02  0.10566000000E+00 0. -1.
         22    1    1    0    0    0  0.31600758572E+02  0.16188260027E+02  0.20718449004E+02  0.41108658871E+02  0.00000000000E+00 0.  1.
</event>
<event>
 5    1  0.1709463E-003  0.9118800E+02  0.7818608E-02  0.1130116E+00
         25   -1    0    0    0    0  0.00000000000E+00  0.00000000000E+00  0.99999998245E-14  0.12500000000E+03  0.12500000000E+03 0.  0.
        -13    1    3    3    0    0  0.13383255080E+02 -0.10793962221E+02  0.32613580933E+02  0.36868387031E+02  0.10566000000E+00 0.  1.
         23    2    1    0    0    0  0.13876788425E+02  0.43899630815E+01 -0.24792638497E+02  0.96250879031E+02  0.91857061556E+02 0.  0.
         13    1    3    3    0    0  0.49353334510E+00  0.15183925303E+02 -0.57406219430E+02  0.59382491999E+02  0.10566000000E+00 0. -1.
         22    1    1    0    0    0 -0.13876788425E+02 -0.43899630815E+01  0.24792638497E+02  0.28749120969E+02  0.00000000000E+00 0. -1.
</event>
<event>
 5    1  0.1709463E-003  0.9118800E+02  0.7818608E-02  0.1130116E+00
         25   -1    0    0    0    0  0.00000000000E+00  0.00000000000E+00  0.99999998245E-14  0.12500000000E+03  0.12500000000E+03 0.  0.
        -13    1    3    3    0    0 -0.67510356938E+01 -0.32607918700E+02  0.86909032471E+01  0.34415052058E+02  0.10566000000E+00 0. -1.
         23    2    1    0    0    0 -0.89827156816E+01  0.20756997091E+02 -0.19791040546E+02  0.94946258218E+02  0.90064224609E+02 0.  0.
         13    1    3    3    0    0 -0.22316799878E+01  0.53364915790E+02 -0.28481943793E+02  0.60531206160E+02  0.10566000000E+00 0.  1.
         22    1    1    0    0    0  0.89827156816E+01 -0.20756997091E+02  0.19791040546E+02  0.30053741782E+02  0.00000000000E+00 0.  1.
</event>
<event>
 5    1  0.1709463E-003  0.9118800E+02  0.7818608E-02  0.1130116E+00
         25   -1    0    0    0    0  0.00000000000E+00  0.00000000000E+00  0.99999998245E-14  0.12500000000E+03  0.12500000000E+03 0.  0.
        -13    1    3    3    0    0  0.16932644482E+02 -0.28269240296E+02 -0.14372196376E+02  0.35950460203E+02  0.10566000000E+00 0. -1.
         23    2    1    0    0    0 -0.19928264975E+02  0.17447179092E+02 -0.14761650053E+02  0.94677630115E+02  0.89690621185E+02 0.  0.
         13    1    3    3    0    0 -0.36860909457E+02  0.45716419388E+02 -0.38945367736E+00  0.58727169912E+02  0.10566000000E+00 0.  1.
         22    1    1    0    0    0  0.19928264975E+02 -0.17447179092E+02  0.14761650053E+02  0.30322369885E+02  0.00000000000E+00 0.  1.
</event>
<event>
 5    1  0.1709463E-003  0.9118800E+02  0.7818608E-02  0.1130116E+00
         25   -1    0    0    0    0  0.00000000000E+00  0.00000000000E+00  0.99999998245E-14  0.12500000000E+03  0.12500000000E+03 0.  0.
        -13    1    3    3    0    0 -0.55589218637E+02 -0.81104107707E+01 -0.18662083766E+02  0.59196490826E+02  0.10566000000E+00 0. -1.
         23    2    1    0    0    0 -0.24714928413E+02 -0.15817415603E+02 -0.89303736361E+00  0.95643299937E+02  0.91026507042E+02 0.  0.
         13    1    3    3    0    0  0.30874290224E+02 -0.77070048323E+01  0.17769046402E+02  0.36446809111E+02  0.10566000000E+00 0.  1.
         22    1    1    0    0    0  0.24714928413E+02  0.15817415603E+02  0.89303736361E+00  0.29356700063E+02  0.00000000000E+00 0. -1.
</event>
<event>
 5    1  0.1709463E-003  0.9118800E+02  0.7818608E-02  0.1130116E+00
         25   -1    0    0    0    0  0.00000000000E+00  0.00000000000E+00  0.99999998245E-14  0.12500000000E+03  0.12500000000E+03 0.  0.
        -13    1    3    3    0    0  0.45845650438E+02  0.13996853439E+02 -0.12971104956E+02  0.49658798798E+02  0.10566000000E+00 0.  1.
         23    2    1    0    0    0  0.22690859938E+02 -0.15503951347E+02  0.12310188700E+02  0.94887072910E+02  0.89982043917E+02 0.  0.
         13    1    3    3    0    0 -0.23154790499E+02 -0.29500804787E+02  0.25281293656E+02  0.45228274111E+02  0.10566000000E+00 0. -1.
         22    1    1    0    0    0 -0.22690859938E+02  0.15503951347E+02 -0.12310188700E+02  0.30112927090E+02  0.00000000000E+00 0.  1.
</event>
<event>
 5    1  0.1709463E-003  0.9118800E+02  0.7818608E-02  0.1130116E+00
         25   -1    0    0    0    0  0.00000000000E+00  0.00000000000E+00  0.99999998245E-14  0.12500000000E+03  0.12500000000E+03 0.  0.
        -13    1    3    3    0    0  0.49569630939E+02  0.11770433389E+02  0.44891297723E+01  0.51145428571E+02  0.10566000000E+00 0. -1.
         23    2    1    0    0    0  0.14945612791E+02 -0.40710115932E+01  0.25894654844E+02  0.94825878197E+02  0.89896994106E+02 0.  0.
         13    1    3    3    0    0 -0.34624018149E+02 -0.15841444982E+02  0.21405525072E+02  0.43680449626E+02  0.10566000000E+00 0.  1.
         22    1    1    0    0    0 -0.14945612791E+02  0.40710115932E+01 -0.25894654844E+02  0.30174121803E+02  0.00000000000E+00 0. -1.
</event>
<event>
 5    1  0.1709463E-003  0.9118800E+02  0.7818608E-02  0.1130116E+00
         25   -1    0    0    0    0  0.00000000000E+00  0.00000000000E+00  0.99999998245E-14  0.12500000000E+03  0.12500000000E+03 0.  0.
        -13    1    3    3    0    0  0.37018958152E+01 -0.18862973206E+02 -0.29949461514E+02  0.35587879956E+02  0.10566000000E+00 0.  1.
         23    2    1    0    0    0 -0.22475707712E+02 -0.74284847803E+01  0.20580039114E+02  0.93633173045E+02  0.88222974679E+02 0.  0.
         13    1    3    3    0    0 -0.26177603527E+02  0.11434488425E+02  0.50529500628E+02  0.58045293089E+02  0.10566000000E+00 0. -1.
         22    1    1    0    0    0  0.22475707712E+02  0.74284847803E+01 -0.20580039114E+02  0.31366826955E+02  0.00000000000E+00 0. -1.
</event>
<event>
 5    1  0.1709463E-003  0.9118800E+02  0.7818608E-02  0.1130116E+00
         25   -1    0    0    0    0  0.00000000000E+00  0.00000000000E+00  0.99999998245E-14  0.12500000000E+03  0.12500000000E+03 0.  0.
        -13    1    3    3    0    0 -0.32272863737E+02 -0.23114514508E+02  0.39557031342E+02  0.56040952948E+02  0.10566000000E+00 0. -1.
         23    2    1    0    0    0  0.31494258877E+01 -0.73851523452E+01  0.27075979438E+02  0.96758753195E+02  0.92545601185E+02 0.  0.
         13    1    3    3    0    0  0.35422289624E+02  0.15729362163E+02 -0.12481051904E+02  0.40717800247E+02  0.10566000000E+00 0.  1.
         22    1    1    0    0    0 -0.31494258877E+01  0.73851523452E+01 -0.27075979438E+02  0.28241246805E+02  0.00000000000E+00 0. -1.
</event>
<event>
 5    1  0.1709463E-003  0.9118800E+02  0.7818608E-02  0.1130116E+00
         25   -1    0    0    0    0  0.00000000000E+00  0.00000000000E+00  0.99999998245E-14  0.12500000000E+03  0.12500000000E+03 0.  0.
        -13    1    3    3    0    0 -0.85702011274E+01 -0.38465175669E+02 -0.21330392926E+02  0.44810879405E+02  0.10566000000E+00 0. -1.
         23    2    1    0    0    0 -0.79712000681E+01 -0.13184155382E+02  0.23861444308E+02  0.96596998255E+02  0.92326862634E+02 0.  0.
         13    1    3    3    0    0  0.59900105935E+00  0.25281020287E+02  0.45191837234E+02  0.51786118851E+02  0.10566000000E+00 0.  1.
         22    1    1    0    0    0  0.79712000681E+01  0.13184155382E+02 -0.23861444308E+02  0.28403001745E+02  0.00000000000E+00 0.  1.
</event>
<event>
 5    1  0.1709463E-003  0.9118800E+02  0.7818608E-02  0.1130116E+00
         25   -1    0    0    0    0  0.00000000000E+00  0.00000000000E+00  0.99999998245E-14  0.12500000000E+03  0.12500000000E+03 0.  0.
        -13    1    3    3    0    0  0.55411655664E+02  0.22003391211E+02 -0.16945765107E+02  0.61982021000E+02  0.10566000000E+00 0.  1.
         23    2    1    0    0    0  0.29524693944E+02  0.99611034323E+01 -0.31799721137E+01  0.93678388345E+02  0.88287015388E+02 0.  0.
         13    1    3    3    0    0 -0.25886961720E+02 -0.12042287779E+02  0.13765792993E+02  0.31696367344E+02  0.10566000000E+00 0. -1.
         22    1    1    0    0    0 -0.29524693944E+02 -0.99611034323E+01  0.31799721137E+01  0.31321611655E+02  0.00000000000E+00 0.  1.
</event>
<event>
 5    1  0.1709463E-003  0.9118800E+02  0.7818608E-02  0.1130116E+00
         25   -1    0    0    0    0  0.00000000000E+00  0.00000000000E+00  0.99999998245E-14  0.12500000000E+03  0.12500000000E+03 0.  0.
        -13    1    3    3    0    0  0.89474218167E+01 -0.30124473947E+02 -0.89203101519E+01  0.32666854531E+02  0.10566000000E+00 0.  1.
         23    2    1    0    0    0 -0.14999269294E+02  0.26481756080E+02 -0.33353040141E+01  0.94383244174E+02  0.89279398763E+02 0.  0.
         13    1    3    3    0    0 -0.23946691111E+02  0.56606230026E+02  0.55850061378E+01  0.61716389643E+02  0.10566000000E+00 0. -1.
         22    1    1    0    0    0  0.14999269294E+02 -0.26481756080E+02  0.33353040141E+01  0.30616755826E+02  0.00000000000E+00 0. -1.
</event>
<event>
 5    1  0.1709463E-003  0.9118800E+02  0.7818608E-02  0.1130116E+00
         25   -1    0    0    0    0  0.00000000000E+00  0.00000000000E+00  0.99999998245E-14  0.12500000000E+03  0.12500000000E+03 0.  0.
        -13    1    3    3    0    0  0.55444019730E+02 -0.20022824667E+02  0.19582342400E+02  0.62116279102E+02  0.10566000000E+00 0.  1.
         23    2    1    0    0    0  0.24837261961E+02 -0.13532593088E+02  0.68328295013E+01  0.95901748912E+02  0.91380726786E+02 0.  0.
         13    1    3    3    0    0 -0.30606757770E+02  0.64902315792E+01 -0.12749512899E+02  0.33785469811E+02  0.10566000000E+00 0. -1.
         22    1    1    0    0    0 -0.24837261961E+02  0.13532593088E+02 -0.68328295013E+01  0.29098251088E+02  0.00000000000E+00 0.  1.
</event>
<event>
 5    1  0.1709463E-003  0.9118800E+02  0.7818608E-02  0.1130116E+00
         25   -1    0    0    0    0  0.00000000000E+00  0.00000000000E+00  0.99999998245E-14  0.12500000000E+03  0.12500000000E+03 0.  0.
        -13    1    3    3    0    0 -0.15637253015E+02  0.56980850999E+02  0.16697975998E+02  0.61401747768E+02  0.10566000000E+00 0.  1.
         23    2    1    0    0    0  0.21682109768E+00  0.25975575164E+02  0.11423615208E+02  0.96622605812E+02  0.92361525826E+02 0.  0.
         13    1    3    3    0    0  0.15854074113E+02 -0.31005275835E+02 -0.52743607897E+01  0.35220858044E+02  0.10566000000E+00 0. -1.
         22    1    1    0    0    0 -0.21682109768E+00 -0.25975575164E+02 -0.11423615208E+02  0.28377394188E+02  0.00000000000E+00 0.  1.
</event>
<event>
 5    1  0.1709463E-003  0.9118800E+02  0.7818608E-02  0.1130116E+00
         25   -1    0    0    0    0  0.00000000000E+00  0.00000000000E+00  0.99999998245E-14  0.12500000000E+03  0.12500000000E+03 0.  0.
        -13    1    3    3    0    0  0.16512446825E+02 -0.12036735468E+02  0.33445994595E+02  0.39194254928E+02  0.10566000000E+00 0. -1.
         23    2    1    0    0    0 -0.31888919268E+00 -0.21254638490E+02 -0.19896766006E+02  0.95883979579E+02  0.91356416823E+02 0.  0.
         13    1    3    3    0    0 -0.16831336018E+02 -0.92179030221E+01 -0.53342760602E+02  0.56689724650E+02  0.10566000000E+00 0.  1.
         22    1    1    0    0    0  0.31888919268E+00  0.21254638490E+02  0.19896766006E+02  0.29116020421E+02  0.00000000000E+00 0.  1.
</event>
<event>
 5    1  0.1709463E-003  0.9118800E+02  0.7818608E-02  0.1130116E+00
         25   -1    0    0    0    0  0.00000000000E+00  0.00000000000E+00  0.99999998245E-14  0.12500000000E+03  0.12500000000E+03 0.  0.
        -13    1    3    3    0    0  0.28123484641E+02  0.45389808210E+02  0.31516407892E+02  0.62003711245E+02  0.10566000000E+00 0. -1.
         23    2    1    0    0    0  0.18303636082E+02  0.19019954135E+02  0.14649110503E+02  0.94810959147E+02  0.89876247066E+02 0.  0.
         13    1    3    3    0    0 -0.98198485592E+01 -0.26369854075E+02 -0.16867297389E+02  0.32807247902E+02  0.10566000000E+00 0.  1.
         22    1    1    0    0    0 -0.18303636082E+02 -0.19019954135E+02 -0.14649110503E+02  0.30189040853E+02  0.00000000000E+00 0. -1.
</event>
<event>
 5    1  0.1709463E-003  0.9118800E+02  0.7818608E-02  0.1130116E+00
         25   -1    0    0    0    0  0.00000000000E+00  0.00000000000E+00  0.99999998245E-14  0.12500000000E+03  0.12500000000E+03 0.  0.
        -13    1    3    3    0    0 -0.61258053516E+02 -0.98113313265E+01  0.39620431860E+01  0.62165265971E+02  0.10566000000E+00 0. -1.
         23    2    1    0    0    0 -0.29756625759E+02 -0.56765432568E+01 -0.25572379064E+01  0.94599023278E+02  0.89581001443E+02 0.  0.
         13    1    3    3    0    0  0.31501427757E+02  0.41347880697E+01 -0.65192810924E+01  0.32433757308E+02  0.10566000000E+00 0.  1.
         22    1    1    0    0    0  0.29756625759E+02  0.56765432568E+01  0.25572379064E+01  0.30400976722E+02  0.00000000000E+00 0. -1.
</event>
<event>
 5    1  0.1709463E-003  0.9118800E+02  0.7818608E-02  0.1130116E+00
         25   -1    0    0    0    0  0.00000000000E+00  0.00000000000E+00  0.99999998245E-14  0.12500000000E+03  0.12500000000E+03 0.  0.
        -13    1    3    3    0    0  0.37534559869E+02  0.41101885337E+02 -0.18330668433E+02  0.58602327019E+02  0.10566000000E+00 0. -1.
         23    2    1    0    0    0  0.22718398928E+02  0.66740482296E+01 -0.16522779059E+02  0.96126642082E+02  0.91687842817E+02 0.  0.
         13    1    3    3    0    0 -0.14816160941E+02 -0.34427837107E+02  0.18078893736E+01  0.37524315063E+02  0.10566000000E+00 0.  1.
         22    1    1    0    0    0 -0.22718398928E+02 -0.66740482296E+01  0.16522779059E+02  0.28873357918E+02  0.00000000000E+00 0. -1.
</event>
<event>
 5    1  0.1709463E-003  0.9118800E+02  0.7818608E-02  0.1130116E+00
         25   -1    0    0    0    0  0.00000000000E+00  0.00000000000E+00  0.99999998245E-14  0.12500000000E+03  0.12500000000E+03 0.  0.
        -13    1    3    3    0    0  0.12109910387E+02 -0.13309800579E+02  0.33912609378E+02  0.38391105218E+02  0.10566000000E+00 0. -1.
         23    2    1    0    0    0 -0.15863679861E+02 -0.24894493471E+02 -0.11790023880E+02  0.93213260516E+02  0.87625995737E+02 0.  0.
         13    1    3    3    0    0 -0.27973590248E+02 -0.11584692892E+02 -0.45702633258E+02  0.54822155298E+02  0.10566000000E+00 0.  1.
         22    1    1    0    0    0  0.15863679861E+02  0.24894493471E+02  0.11790023880E+02  0.31786739484E+02  0.00000000000E+00 0.  1.
</event>
<event>
 5    1  0.1709463E-003  0.9118800E+02  0.7818608E-02  0.1130116E+00
         25   -1    0    0    0    0  0.00000000000E+00  0.00000000000E+00  0.99999998245E-14  0.12500000000E+03  0.12500000000E+03 0.  0.
        -13    1    3    3    0    0 -0.10198022249E+02  0.33429927619E+02  0.46748045635E+02  0.58369089877E+02  0.10566000000E+00 0. -1.
         23    2    1    0    0    0 -0.18921709434E+02  0.18337827679E+02  0.14762098486E+02  0.94796911357E+02  0.89856707257E+02 0.  0.
         13    1    3    3    0    0 -0.87236871850E+01 -0.15092099940E+02 -0.31985947148E+02  0.36427821479E+02  0.10566000000E+00 0.  1.
         22    1    1    0    0    0  0.18921709434E+02 -0.18337827679E+02 -0.14762098486E+02  0.30203088643E+02  0.00000000000E+00 0. -1.
</event>
<event>
 5    1  0.1709463E-003  0.9118800E+02  0.7818608E-02  0.1130116E+00
         25   -1    0    0    0    0  0.00000000000E+00  0.00000000000E+00  0.99999998245E-14  0.12500000000E+03  0.12500000000E+03 0.  0.
        -13    1    3    3    0    0  0.22117646570E+01 -0.59340961294E+02  0.30313236407E+01  0.59459580197E+02  0.10566000000E+00 0.  1.
         23    2    1    0    0    0  0.42359295045E+00 -0.25677604777E+02  0.15032093958E+02  0.95242939211E+02  0.90475050719E+02 0.  0.
         13    1    3    3    0    0 -0.17881717065E+01  0.33663356517E+02  0.12000770317E+02  0.35783359013E+02  0.10566000000E+00 0. -1.
         22    1    1    0    0    0 -0.42359295045E+00  0.25677604777E+02 -0.15032093958E+02  0.29757060789E+02  0.00000000000E+00 0.  1.
</event>
<event>
 5    1  0.1709463E-003  0.9118800E+02  0.7818608E-02  0.1130116E+00
         25   -1    0    0    0    0  0.00000000000E+00  0.00000000000E+00  0.99999998245E-14  0.12500000000E+03  0.12500000000E+03 0.  0.
        -13    1    3    3    0    0 -0.47536561928E+01 -0.16877778818E+02 -0.61817209032E+01  0.18592511998E+02  0.10566000000E+00 0.  1.
         23    2    1    0    0    0  0.94669372800E+01  0.85877104308E+01  0.45392071591E+02  0.77842690543E+02  0.61932807427E+02 0.  0.
         13    1    3    3    0    0  0.14220593473E+02  0.25465489249E+02  0.51573792494E+02  0.59250178545E+02  0.10566000000E+00 0. -1.
         22    1    1    0    0    0 -0.94669372800E+01 -0.85877104308E+01 -0.45392071591E+02  0.47157309457E+02  0.00000000000E+00 0. -1.
</event>
<event>
 5    1  0.1709463E-003  0.9118800E+02  0.7818608E-02  0.1130116E+00
         25   -1    0    0    0    0  0.00000000000E+00  0.00000000000E+00  0.99999998245E-14  0.12500000000E+03  0.12500000000E+03 0.  0.
        -13    1    3    3    0    0  0.33579606961E+02  0.49906132531E+01 -0.14123811872E+02  0.36769409161E+02  0.10566000000E+00 0. -1.
         23    2    1    0    0    0 -0.18638766273E+02 -0.21500809321E+02 -0.64394756968E+01  0.95825434761E+02  0.91276276711E+02 0.  0.
         13    1    3    3    0    0 -0.52218373234E+02 -0.26491422574E+02  0.76843361747E+01  0.59056025600E+02  0.10566000000E+00 0.  1.
         22    1    1    0    0    0  0.18638766273E+02  0.21500809321E+02  0.64394756968E+01  0.29174565239E+02  0.00000000000E+00 0.  1.
</event>
<event>
 5    1  0.1709463E-003  0.9118800E+02  0.7818608E-02  0.1130116E+00
         25   -1    0    0    0    0  0.00000000000E+00  0.00000000000E+00  0.99999998245E-14  0.12500000000E+03  0.12500000000E+03 0.  0.
        -13    1    3    3    0    0 -0.34698052977E+02 -0.30629719987E+01 -0.26399607850E+02  0.43706831692E+02  0.10566000000E+00 0.  1.
         23    2    1    0    0    0  0.17463273402E+02 -0.66766950651E+01 -0.21927270629E+02  0.96184216614E+02  0.91766301841E+02 0.  0.
         13    1    3    3    0    0  0.52161326379E+02 -0.36137230664E+01  0.44723372210E+01  0.52477384923E+02  0.10566000000E+00 0. -1.
         22    1    1    0    0    0 -0.17463273402E+02  0.66766950651E+01  0.21927270629E+02  0.28815783386E+02  0.00000000000E+00 0. -1.
</event>
<event>
 5    1  0.1709463E-003  0.9118800E+02  0.7818608E-02  0.1130116E+00
         25   -1    0    0    0    0  0.00000000000E+00  0.00000000000E+00  0.99999998245E-14  0.12500000000E+03  0.12500000000E+03 0.  0.
        -13    1    3    3    0    0 -0.29383983694E+02  0.16637118256E+02  0.55750032959E+01  0.34224319239E+02  0.10566000000E+00 0. -1.
         23    2    1    0    0    0  0.27711402482E+02 -0.55184339520E+01 -0.47978917994E+01  0.96340015588E+02  0.91978279484E+02 0.  0.
         13    1    3    3    0    0  0.57095386176E+02 -0.22155552208E+02 -0.10372895095E+02  0.62115696349E+02  0.10566000000E+00 0.  1.
         22    1    1    0    0    0 -0.27711402482E+02  0.55184339520E+01  0.47978917994E+01  0.28659984412E+02  0.00000000000E+00 0.  1.
</event>
<event>
 5    1  0.1709463E-003  0.9118800E+02  0.7818608E-02  0.1130116E+00
         25   -1    0    0    0    0  0.00000000000E+00  0.00000000000E+00  0.99999998245E-14  0.12500000000E+03  0.12500000000E+03 0.  0.
        -13    1    3    3    0    0 -0.94315932465E+01 -0.26920491629E+02  0.16284004915E+02  0.32845818620E+02  0.10566000000E+00 0.  1.
         23    2    1    0    0    0  0.15570585465E+02  0.22696524025E+02 -0.11743540642E+02  0.95075326546E+02  0.90243180553E+02 0.  0.
         13    1    3    3    0    0  0.25002178711E+02  0.49617015654E+02 -0.28027545557E+02  0.62229507926E+02  0.10566000000E+00 0. -1.
         22    1    1    0    0    0 -0.15570585465E+02 -0.22696524025E+02  0.11743540642E+02  0.29924673454E+02  0.00000000000E+00 0. -1.
</event>
