<event>
 5    1  0.1315753E-009  0.9118800E+02  0.7818608E-02  0.1130116E+00
         25   -1    0    0    0    0  0.00000000000E+00  0.00000000000E+00  0.99999998245E-14  0.12500000000E+03  0.12500000000E+03 0.  0.
        -13    1    3    3    0    0 -0.26623834035E+02  0.23910179847E+02  0.40173927687E+02  0.53800379821E+02  0.10566000000E+00 0. -1.
         23    2    1    0    0    0 -0.27552822844E+02 -0.37123172179E+01  0.83056106511E+01  0.95984098944E+02  0.91493304324E+02 0.  0.
         13    1    3    3    0    0 -0.92898880833E+00 -0.27622497065E+02 -0.31868317036E+02  0.42183719123E+02  0.10566000000E+00 0.  1.
         22    1    1    0    0    0  0.27552822844E+02  0.37123172179E+01 -0.83056106511E+01  0.29015901056E+02  0.00000000000E+00 0. -1.
</event>
<event>
 5    1  0.1315753E-009  0.9118800E+02  0.7818608E-02  0.1130116E+00
         25   -1    0    0    0    0  0.00000000000E+00  0.00000000000E+00  0.99999998245E-14  0.12500000000E+03  0.12500000000E+03 0.  0.
        -13    1    3    3    0    0  0.17907231667E+02  0.36319856605E+02 -0.74250539536E+01  0.41169691765E+02  0.10566000000E+00 0.  1.
         23    2    1    0    0    0 -0.24029832559E+02  0.95483578124E+01  0.14290950963E+02  0.95456214374E+02  0.90769232636E+02 0.  0.
         13    1    3    3    0    0 -0.41937064225E+02 -0.26771498792E+02  0.21716004917E+02  0.54286522609E+02  0.10566000000E+00 0. -1.
         22    1    1    0    0    0  0.24029832559E+02 -0.95483578124E+01 -0.14290950963E+02  0.29543785626E+02  0.00000000000E+00 0. -1.
</event>
<event>
 5    1  0.1315753E-009  0.9118800E+02  0.7818608E-02  0.1130116E+00
         25   -1    0    0    0    0  0.00000000000E+00  0.00000000000E+00  0.99999998245E-14  0.12500000000E+03  0.12500000000E+03 0.  0.
        -13    1    3    3    0    0  0.15098023929E+02 -0.11280397500E+02  0.59171789188E+02  0.62100801075E+02  0.10566000000E+00 0.  1.
         23    2    1    0    0    0  0.84426024013E+01 -0.46511985763E+00  0.27699913776E+02  0.96038316779E+02  0.91567347864E+02 0.  0.
         13    1    3    3    0    0 -0.66554215277E+01  0.10815277642E+02 -0.31471875412E+02  0.33937515705E+02  0.10566000000E+00 0. -1.
         22    1    1    0    0    0 -0.84426024013E+01  0.46511985763E+00 -0.27699913776E+02  0.28961683221E+02  0.00000000000E+00 0.  1.
</event>
<event>
 5    1  0.1315753E-009  0.9118800E+02  0.7818608E-02  0.1130116E+00
         25   -1    0    0    0    0  0.00000000000E+00  0.00000000000E+00  0.99999998245E-14  0.12500000000E+03  0.12500000000E+03 0.  0.
        -13    1    3    3    0    0  0.38331675673E+02  0.67337947084E+01  0.24717680334E+02  0.46104622721E+02  0.10566000000E+00 0. -1.
         23    2    1    0    0    0  0.18568813303E+02  0.20188730049E+02 -0.15943028426E+02  0.93273578773E+02  0.87711998570E+02 0.  0.
         13    1    3    3    0    0 -0.19762862370E+02  0.13454935341E+02 -0.40660708760E+02  0.47168956052E+02  0.10566000000E+00 0.  1.
         22    1    1    0    0    0 -0.18568813303E+02 -0.20188730049E+02  0.15943028426E+02  0.31726421227E+02  0.00000000000E+00 0. -1.
</event>
<event>
 5    1  0.1315753E-009  0.9118800E+02  0.7818608E-02  0.1130116E+00
         25   -1    0    0    0    0  0.00000000000E+00  0.00000000000E+00  0.99999998245E-14  0.12500000000E+03  0.12500000000E+03 0.  0.
        -13    1    3    3    0    0 -0.14689640575E+01 -0.56926974767E+02  0.52080116592E+00  0.56948403923E+02  0.10566000000E+00 0.  1.
         23    2    1    0    0    0 -0.10795144958E+00 -0.23437315029E+02 -0.18187380917E+02  0.95333516995E+02  0.90600106229E+02 0.  0.
         13    1    3    3    0    0  0.13610126079E+01  0.33489659738E+02 -0.18708182082E+02  0.38385113072E+02  0.10566000000E+00 0. -1.
         22    1    1    0    0    0  0.10795144958E+00  0.23437315029E+02  0.18187380917E+02  0.29666483005E+02  0.00000000000E+00 0.  1.
</event>
<event>
 5    1  0.1315753E-009  0.9118800E+02  0.7818608E-02  0.1130116E+00
         25   -1    0    0    0    0  0.00000000000E+00  0.00000000000E+00  0.99999998245E-14  0.12500000000E+03  0.12500000000E+03 0.  0.
        -13    1    3    3    0    0  0.47055450758E+02 -0.28740759791E+02  0.28571059563E+02  0.62101234513E+02  0.10566000000E+00 0. -1.
         23    2    1    0    0    0  0.18893576512E+02 -0.14659616973E+02  0.17055562574E+02  0.95627158498E+02  0.91004338492E+02 0.  0.
         13    1    3    3    0    0 -0.28161874246E+02  0.14081142818E+02 -0.11515496989E+02  0.33525923985E+02  0.10566000000E+00 0.  1.
         22    1    1    0    0    0 -0.18893576512E+02  0.14659616973E+02 -0.17055562574E+02  0.29372841502E+02  0.00000000000E+00 0. -1.
</event>
<event>
 5    1  0.1315753E-009  0.9118800E+02  0.7818608E-02  0.1130116E+00
         25   -1    0    0    0    0  0.00000000000E+00  0.00000000000E+00  0.99999998245E-14  0.12500000000E+03  0.12500000000E+03 0.  0.
        -13    1    3    3    0    0  0.51550099265E+02  0.28531559303E+02 -0.85066598134E+01  0.59530135526E+02  0.10566000000E+00 0.  1.
         23    2    1    0    0    0  0.28301268104E+02  0.11102569150E+02  0.88005823589E+01  0.93350686139E+02  0.87821816964E+02 0.  0.
         13    1    3    3    0    0 -0.23248831161E+02 -0.17428990154E+02  0.17307242172E+02  0.33820550613E+02  0.10566000000E+00 0. -1.
         22    1    1    0    0    0 -0.28301268104E+02 -0.11102569150E+02 -0.88005823589E+01  0.31649313861E+02  0.00000000000E+00 0.  1.
</event>
<event>
 5    1  0.1315753E-009  0.9118800E+02  0.7818608E-02  0.1130116E+00
         25   -1    0    0    0    0  0.00000000000E+00  0.00000000000E+00  0.99999998245E-14  0.12500000000E+03  0.12500000000E+03 0.  0.
        -13    1    3    3    0    0  0.57366014732E+02 -0.13171306003E+02  0.13676813558E+02  0.60426892533E+02  0.10566000000E+00 0.  1.
         23    2    1    0    0    0  0.28745294286E+02  0.50041468621E+01  0.53999160601E+01  0.95326905741E+02  0.90590984294E+02 0.  0.
         13    1    3    3    0    0 -0.28620720446E+02  0.18175452865E+02 -0.82768974979E+01  0.34900013208E+02  0.10566000000E+00 0. -1.
         22    1    1    0    0    0 -0.28745294286E+02 -0.50041468621E+01 -0.53999160601E+01  0.29673094259E+02  0.00000000000E+00 0.  1.
</event>
<event>
 5    1  0.1315753E-009  0.9118800E+02  0.7818608E-02  0.1130116E+00
         25   -1    0    0    0    0  0.00000000000E+00  0.00000000000E+00  0.99999998245E-14  0.12500000000E+03  0.12500000000E+03 0.  0.
        -13    1    3    3    0    0 -0.16067183175E+02 -0.28255821683E+02 -0.48327002603E+02  0.58241361409E+02  0.10566000000E+00 0.  1.
         23    2    1    0    0    0  0.78685373504E+01 -0.17772048899E+02 -0.25489970689E+02  0.92945387106E+02  0.87243032824E+02 0.  0.
         13    1    3    3    0    0  0.23935720526E+02  0.10483772784E+02  0.22837031914E+02  0.34704025697E+02  0.10566000000E+00 0. -1.
         22    1    1    0    0    0 -0.78685373504E+01  0.17772048899E+02  0.25489970689E+02  0.32054612894E+02  0.00000000000E+00 0.  1.
</event>
<event>
 5    1  0.1315753E-009  0.9118800E+02  0.7818608E-02  0.1130116E+00
         25   -1    0    0    0    0  0.00000000000E+00  0.00000000000E+00  0.99999998245E-14  0.12500000000E+03  0.12500000000E+03 0.  0.
        -13    1    3    3    0    0 -0.33956115889E+02  0.20197179974E+02  0.45437180569E+02  0.60212062141E+02  0.10566000000E+00 0. -1.
         23    2    1    0    0    0 -0.17961640397E+02 -0.25090686086E+01  0.21448068843E+02  0.96912002418E+02  0.92752361720E+02 0.  0.
         13    1    3    3    0    0  0.15994475492E+02 -0.22706248582E+02 -0.23989111726E+02  0.36699940277E+02  0.10566000000E+00 0.  1.
         22    1    1    0    0    0  0.17961640397E+02  0.25090686086E+01 -0.21448068843E+02  0.28087997582E+02  0.00000000000E+00 0. -1.
</event>
<event>
 5    1  0.1315753E-009  0.9118800E+02  0.7818608E-02  0.1130116E+00
         25   -1    0    0    0    0  0.00000000000E+00  0.00000000000E+00  0.99999998245E-14  0.12500000000E+03  0.12500000000E+03 0.  0.
        -13    1    3    3    0    0  0.11990208005E+02  0.20297345158E+02  0.10081750988E+02  0.25639816214E+02  0.10566000000E+00 0.  1.
         23    2    1    0    0    0  0.23208393266E+01 -0.38362502276E+02  0.10739712483E+02  0.85094996551E+02  0.75158160819E+02 0.  0.
         13    1    3    3    0    0 -0.96693686779E+01 -0.58659847434E+02  0.65796149500E+00  0.59455180337E+02  0.10566000000E+00 0. -1.
         22    1    1    0    0    0 -0.23208393266E+01  0.38362502276E+02 -0.10739712483E+02  0.39905003449E+02  0.00000000000E+00 0. -1.
</event>
<event>
 5    1  0.1315753E-009  0.9118800E+02  0.7818608E-02  0.1130116E+00
         25   -1    0    0    0    0  0.00000000000E+00  0.00000000000E+00  0.99999998245E-14  0.12500000000E+03  0.12500000000E+03 0.  0.
        -13    1    3    3    0    0 -0.30014054113E+02  0.89490627846E+01 -0.16401025800E+02  0.35354405388E+02  0.10566000000E+00 0.  1.
         23    2    1    0    0    0  0.22123189569E+02 -0.12495752808E+02  0.10112517530E+02  0.97653293329E+02  0.93746057689E+02 0.  0.
         13    1    3    3    0    0  0.52137243683E+02 -0.21444815593E+02  0.26513543330E+02  0.62298887940E+02  0.10566000000E+00 0. -1.
         22    1    1    0    0    0 -0.22123189569E+02  0.12495752808E+02 -0.10112517530E+02  0.27346706671E+02  0.00000000000E+00 0. -1.
</event>
<event>
 5    1  0.1315753E-009  0.9118800E+02  0.7818608E-02  0.1130116E+00
         25   -1    0    0    0    0  0.00000000000E+00  0.00000000000E+00  0.99999998245E-14  0.12500000000E+03  0.12500000000E+03 0.  0.
        -13    1    3    3    0    0  0.12317526657E+02 -0.25462374798E+02 -0.17124574649E+02  0.33065332513E+02  0.10566000000E+00 0.  1.
         23    2    1    0    0    0  0.28927183111E+02 -0.96093243569E+01  0.27945378150E+02  0.83647065433E+02  0.72710153062E+02 0.  0.
         13    1    3    3    0    0  0.16609656454E+02  0.15853050441E+02  0.45069952799E+02  0.50581732920E+02  0.10566000000E+00 0. -1.
         22    1    1    0    0    0 -0.28927183111E+02  0.96093243569E+01 -0.27945378150E+02  0.41352934567E+02  0.00000000000E+00 0. -1.
</event>
<event>
 5    1  0.1315753E-009  0.9118800E+02  0.7818608E-02  0.1130116E+00
         25   -1    0    0    0    0  0.00000000000E+00  0.00000000000E+00  0.99999998245E-14  0.12500000000E+03  0.12500000000E+03 0.  0.
        -13    1    3    3    0    0  0.56819653938E+00 -0.45558885735E+02  0.38074892908E+02  0.59377129862E+02  0.10566000000E+00 0.  1.
         23    2    1    0    0    0 -0.12115474525E+02 -0.29845421975E+02  0.16949027082E+02  0.88602150409E+02  0.80780799713E+02 0.  0.
         13    1    3    3    0    0 -0.12683671064E+02  0.15713463760E+02 -0.21125865826E+02  0.29225020546E+02  0.10566000000E+00 0. -1.
         22    1    1    0    0    0  0.12115474525E+02  0.29845421975E+02 -0.16949027082E+02  0.36397849591E+02  0.00000000000E+00 0.  1.
</event>
<event>
 5    1  0.1315753E-009  0.9118800E+02  0.7818608E-02  0.1130116E+00
         25   -1    0    0    0    0  0.00000000000E+00  0.00000000000E+00  0.99999998245E-14  0.12500000000E+03  0.12500000000E+03 0.  0.
        -13    1    3    3    0    0 -0.25995579695E+02 -0.33845213644E+02  0.23264862635E+02  0.48605901368E+02  0.10566000000E+00 0.  1.
         23    2    1    0    0    0  0.13689914539E+02 -0.10013750725E+02  0.24837085106E+02  0.94923933763E+02  0.90033235202E+02 0.  0.
         13    1    3    3    0    0  0.39685494234E+02  0.23831462919E+02  0.15722224710E+01  0.46318032396E+02  0.10566000000E+00 0. -1.
         22    1    1    0    0    0 -0.13689914539E+02  0.10013750725E+02 -0.24837085106E+02  0.30076066237E+02  0.00000000000E+00 0. -1.
</event>
<event>
 5    1  0.1315753E-009  0.9118800E+02  0.7818608E-02  0.1130116E+00
         25   -1    0    0    0    0  0.00000000000E+00  0.00000000000E+00  0.99999998245E-14  0.12500000000E+03  0.12500000000E+03 0.  0.
        -13    1    3    3    0    0  0.31966016163E+02  0.38351319023E+02  0.33657514873E+02  0.60212036434E+02  0.10566000000E+00 0.  1.
         23    2    1    0    0    0  0.18439898837E+02  0.84605169091E+01  0.22106244683E+02  0.94995062582E+02  0.90131934659E+02 0.  0.
         13    1    3    3    0    0 -0.13526117326E+02 -0.29890802114E+02 -0.11551270190E+02  0.34783026147E+02  0.10566000000E+00 0. -1.
         22    1    1    0    0    0 -0.18439898837E+02 -0.84605169091E+01 -0.22106244683E+02  0.30004937418E+02  0.00000000000E+00 0.  1.
</event>
<event>
 5    1  0.1315753E-009  0.9118800E+02  0.7818608E-02  0.1130116E+00
         25   -1    0    0    0    0  0.00000000000E+00  0.00000000000E+00  0.99999998245E-14  0.12500000000E+03  0.12500000000E+03 0.  0.
        -13    1    3    3    0    0  0.36333780989E+01 -0.32621476974E+02 -0.21960400037E+02  0.39492183154E+02  0.10566000000E+00 0. -1.
         23    2    1    0    0    0  0.14589436812E+02  0.22274664050E+02 -0.59423058403E+01  0.97717710438E+02  0.93831911467E+02 0.  0.
         13    1    3    3    0    0  0.10956058713E+02  0.54896141024E+02  0.16018094197E+02  0.58225527285E+02  0.10566000000E+00 0.  1.
         22    1    1    0    0    0 -0.14589436812E+02 -0.22274664050E+02  0.59423058403E+01  0.27282289562E+02  0.00000000000E+00 0.  1.
</event>
<event>
 5    1  0.1315753E-009  0.9118800E+02  0.7818608E-02  0.1130116E+00
         25   -1    0    0    0    0  0.00000000000E+00  0.00000000000E+00  0.99999998245E-14  0.12500000000E+03  0.12500000000E+03 0.  0.
        -13    1    3    3    0    0  0.31985475970E+02  0.24204285681E+02 -0.91170847644E+00  0.40121820681E+02  0.10566000000E+00 0.  1.
         23    2    1    0    0    0 -0.15283923021E+02  0.87658393285E+00  0.22488949139E+02  0.97794861962E+02  0.93934634137E+02 0.  0.
         13    1    3    3    0    0 -0.47269398991E+02 -0.23327701748E+02  0.23400657615E+02  0.57673041281E+02  0.10566000000E+00 0. -1.
         22    1    1    0    0    0  0.15283923021E+02 -0.87658393285E+00 -0.22488949139E+02  0.27205138038E+02  0.00000000000E+00 0. -1.
</event>
<event>
 5    1  0.1315753E-009  0.9118800E+02  0.7818608E-02  0.1130116E+00
         25   -1    0    0    0    0  0.00000000000E+00  0.00000000000E+00  0.99999998245E-14  0.12500000000E+03  0.12500000000E+03 0.  0.
        -13    1    3    3    0    0  0.23283589713E+02 -0.55140161121E+02 -0.15704726956E+02  0.61880631309E+02  0.10566000000E+00 0.  1.
         23    2    1    0    0    0  0.14185693225E+02 -0.32293916971E+02 -0.28927188952E+01  0.89609340382E+02  0.82324571638E+02 0.  0.
         13    1    3    3    0    0 -0.90978964880E+01  0.22846244150E+02  0.12812008061E+02  0.27728709073E+02  0.10566000000E+00 0. -1.
         22    1    1    0    0    0 -0.14185693225E+02  0.32293916971E+02  0.28927188952E+01  0.35390659618E+02  0.00000000000E+00 0.  1.
</event>
<event>
 5    1  0.1315753E-009  0.9118800E+02  0.7818608E-02  0.1130116E+00
         25   -1    0    0    0    0  0.00000000000E+00  0.00000000000E+00  0.99999998245E-14  0.12500000000E+03  0.12500000000E+03 0.  0.
        -13    1    3    3    0    0  0.69511864987E+01 -0.58492841742E+02 -0.11377577631E+02  0.59993266002E+02  0.10566000000E+00 0. -1.
         23    2    1    0    0    0 -0.91867354329E+01 -0.22820343781E+02 -0.71955935906E+01  0.99369144272E+02  0.96006698038E+02 0.  0.
         13    1    3    3    0    0 -0.16137921932E+02  0.35672497961E+02  0.41819840404E+01  0.39375878271E+02  0.10566000000E+00 0.  1.
         22    1    1    0    0    0  0.91867354329E+01  0.22820343781E+02  0.71955935906E+01  0.25630855728E+02  0.00000000000E+00 0. -1.
</event>
<event>
 5    1  0.1315753E-009  0.9118800E+02  0.7818608E-02  0.1130116E+00
         25   -1    0    0    0    0  0.00000000000E+00  0.00000000000E+00  0.99999998245E-14  0.12500000000E+03  0.12500000000E+03 0.  0.
        -13    1    3    3    0    0 -0.12187455764E+01  0.21266943898E+02 -0.41682191635E+02  0.46810089800E+02  0.10566000000E+00 0.  1.
         23    2    1    0    0    0  0.12886186975E+02  0.26112534009E+02  0.46755929776E+01  0.95507977065E+02  0.90840488034E+02 0.  0.
         13    1    3    3    0    0  0.14104932551E+02  0.48455901109E+01  0.46357784613E+02  0.48697887265E+02  0.10566000000E+00 0. -1.
         22    1    1    0    0    0 -0.12886186975E+02 -0.26112534009E+02 -0.46755929776E+01  0.29492022935E+02  0.00000000000E+00 0. -1.
</event>
<event>
 5    1  0.1315753E-009  0.9118800E+02  0.7818608E-02  0.1130116E+00
         25   -1    0    0    0    0  0.00000000000E+00  0.00000000000E+00  0.99999998245E-14  0.12500000000E+03  0.12500000000E+03 0.  0.
        -13    1    3    3    0    0  0.11669443957E+01  0.19314974232E+02  0.53475289425E+02  0.56868688502E+02  0.10566000000E+00 0.  1.
         23    2    1    0    0    0  0.16141091391E+02  0.17777195464E+02  0.19366327174E+02  0.94151691488E+02  0.88954611303E+02 0.  0.
         13    1    3    3    0    0  0.14974146995E+02 -0.15377787679E+01 -0.34108962252E+02  0.37283002986E+02  0.10566000000E+00 0. -1.
         22    1    1    0    0    0 -0.16141091391E+02 -0.17777195464E+02 -0.19366327174E+02  0.30848308512E+02  0.00000000000E+00 0.  1.
</event>
<event>
 5    1  0.1315753E-009  0.9118800E+02  0.7818608E-02  0.1130116E+00
         25   -1    0    0    0    0  0.00000000000E+00  0.00000000000E+00  0.99999998245E-14  0.12500000000E+03  0.12500000000E+03 0.  0.
        -13    1    3    3    0    0  0.42621186474E+01 -0.39990895734E+01  0.32606872356E+02  0.33126691076E+02  0.10566000000E+00 0.  1.
         23    2    1    0    0    0 -0.27436123156E+01 -0.84004781575E+01 -0.28690160518E+02  0.94979661022E+02  0.90110572384E+02 0.  0.
         13    1    3    3    0    0 -0.70057309630E+01 -0.44013885841E+01 -0.61297032874E+02  0.61852969945E+02  0.10566000000E+00 0. -1.
         22    1    1    0    0    0  0.27436123156E+01  0.84004781575E+01  0.28690160518E+02  0.30020338978E+02  0.00000000000E+00 0. -1.
</event>
<event>
 5    1  0.1315753E-009  0.9118800E+02  0.7818608E-02  0.1130116E+00
         25   -1    0    0    0    0  0.00000000000E+00  0.00000000000E+00  0.99999998245E-14  0.12500000000E+03  0.12500000000E+03 0.  0.
        -13    1    3    3    0    0 -0.63490070255E+00 -0.24834656857E+02 -0.26187824907E+02  0.36096767411E+02  0.10566000000E+00 0.  1.
         23    2    1    0    0    0 -0.17208408204E+02  0.23692788512E+01  0.23898833795E+02  0.95455168778E+02  0.90767792716E+02 0.  0.
         13    1    3    3    0    0 -0.16573507501E+02  0.27203935708E+02  0.50086658702E+02  0.59358401367E+02  0.10566000000E+00 0. -1.
         22    1    1    0    0    0  0.17208408204E+02 -0.23692788512E+01 -0.23898833795E+02  0.29544831222E+02  0.00000000000E+00 0. -1.
</event>
<event>
 5    1  0.1315753E-009  0.9118800E+02  0.7818608E-02  0.1130116E+00
         25   -1    0    0    0    0  0.00000000000E+00  0.00000000000E+00  0.99999998245E-14  0.12500000000E+03  0.12500000000E+03 0.  0.
        -13    1    3    3    0    0  0.42795579865E+02 -0.24307479526E+02  0.23966668190E+02  0.54742374492E+02  0.10566000000E+00 0. -1.
         23    2    1    0    0    0  0.39650540072E+01 -0.22046109938E+02 -0.34579100076E+01  0.10233483381E+03  0.99793328700E+02 0.  0.
         13    1    3    3    0    0 -0.38830525858E+02  0.22613695880E+01 -0.27424578197E+02  0.47592459320E+02  0.10566000000E+00 0.  1.
         22    1    1    0    0    0 -0.39650540072E+01  0.22046109938E+02  0.34579100076E+01  0.22665166188E+02  0.00000000000E+00 0. -1.
</event>
<event>
 5    1  0.1315753E-009  0.9118800E+02  0.7818608E-02  0.1130116E+00
         25   -1    0    0    0    0  0.00000000000E+00  0.00000000000E+00  0.99999998245E-14  0.12500000000E+03  0.12500000000E+03 0.  0.
        -13    1    3    3    0    0  0.46124672610E+02  0.19090276594E+02 -0.32617658219E+02  0.59630922142E+02  0.10566000000E+00 0.  1.
         23    2    1    0    0    0  0.23629606070E+02  0.22788221182E+02 -0.25235406367E+02  0.83593635246E+02  0.72618240212E+02 0.  0.
         13    1    3    3    0    0 -0.22495066540E+02  0.36979445883E+01  0.73822518520E+01  0.23962713103E+02  0.10566000000E+00 0. -1.
         22    1    1    0    0    0 -0.23629606070E+02 -0.22788221182E+02  0.25235406367E+02  0.41406364754E+02  0.00000000000E+00 0.  1.
</event>
<event>
 5    1  0.1315753E-009  0.9118800E+02  0.7818608E-02  0.1130116E+00
         25   -1    0    0    0    0  0.00000000000E+00  0.00000000000E+00  0.99999998245E-14  0.12500000000E+03  0.12500000000E+03 0.  0.
        -13    1    3    3    0    0 -0.43791028900E+02 -0.28745799214E+02  0.16371789081E+02  0.54881889784E+02  0.10566000000E+00 0. -1.
         23    2    1    0    0    0 -0.18111005700E+02  0.21614725336E+01  0.23039044447E+02  0.95615002807E+02  0.90987640380E+02 0.  0.
         13    1    3    3    0    0  0.25680023200E+02  0.30907271747E+02  0.66672553658E+01  0.40733113023E+02  0.10566000000E+00 0.  1.
         22    1    1    0    0    0  0.18111005700E+02 -0.21614725336E+01 -0.23039044447E+02  0.29384997193E+02  0.00000000000E+00 0. -1.
</event>
<event>
 5    1  0.1315753E-009  0.9118800E+02  0.7818608E-02  0.1130116E+00
         25   -1    0    0    0    0  0.00000000000E+00  0.00000000000E+00  0.99999998245E-14  0.12500000000E+03  0.12500000000E+03 0.  0.
        -13    1    3    3    0    0 -0.50322655853E+02 -0.27088450820E+02  0.10520278362E+02  0.58110595254E+02  0.10566000000E+00 0.  1.
         23    2    1    0    0    0 -0.20633570816E+02 -0.61141303804E+01  0.19939802336E+02  0.95661926578E+02  0.91052082043E+02 0.  0.
         13    1    3    3    0    0  0.29689085037E+02  0.20974320439E+02  0.94195239740E+01  0.37551331324E+02  0.10566000000E+00 0. -1.
         22    1    1    0    0    0  0.20633570816E+02  0.61141303804E+01 -0.19939802336E+02  0.29338073422E+02  0.00000000000E+00 0.  1.
</event>
<event>
 5    1  0.1315753E-009  0.9118800E+02  0.7818608E-02  0.1130116E+00
         25   -1    0    0    0    0  0.00000000000E+00  0.00000000000E+00  0.99999998245E-14  0.12500000000E+03  0.12500000000E+03 0.  0.
        -13    1    3    3    0    0  0.24966150809E+02 -0.54504907943E+02 -0.10251548072E+02  0.60821041408E+02  0.10566000000E+00 0. -1.
         23    2    1    0    0    0  0.90937333684E+01 -0.23304386714E+02 -0.14502848976E+02  0.96084207514E+02  0.91629972599E+02 0.  0.
         13    1    3    3    0    0 -0.15872417441E+02  0.31200521229E+02 -0.42513009045E+01  0.35263166106E+02  0.10566000000E+00 0.  1.
         22    1    1    0    0    0 -0.90937333684E+01  0.23304386714E+02  0.14502848976E+02  0.28915792486E+02  0.00000000000E+00 0. -1.
</event>
<event>
 5    1  0.1315753E-009  0.9118800E+02  0.7818608E-02  0.1130116E+00
         25   -1    0    0    0    0  0.00000000000E+00  0.00000000000E+00  0.99999998245E-14  0.12500000000E+03  0.12500000000E+03 0.  0.
        -13    1    3    3    0    0 -0.36788429322E+02  0.10705239075E+02  0.18123854570E+02  0.42384855127E+02  0.10566000000E+00 0. -1.
         23    2    1    0    0    0  0.10091905263E+02  0.26386996992E+02 -0.38600596839E+01  0.96486490520E+02  0.92177126393E+02 0.  0.
         13    1    3    3    0    0  0.46880334585E+02  0.15681757917E+02 -0.21983914254E+02  0.54101635393E+02  0.10566000000E+00 0.  1.
         22    1    1    0    0    0 -0.10091905263E+02 -0.26386996992E+02  0.38600596839E+01  0.28513509480E+02  0.00000000000E+00 0.  1.
</event>
<event>
 5    1  0.1315753E-009  0.9118800E+02  0.7818608E-02  0.1130116E+00
         25   -1    0    0    0    0  0.00000000000E+00  0.00000000000E+00  0.99999998245E-14  0.12500000000E+03  0.12500000000E+03 0.  0.
        -13    1    3    3    0    0 -0.27564346450E+02  0.14093833720E+02 -0.46871886023E+02  0.56173073688E+02  0.10566000000E+00 0. -1.
         23    2    1    0    0    0  0.67047774626E+01  0.10654283192E+02 -0.25103240186E+02  0.96917256918E+02  0.92759442806E+02 0.  0.
         13    1    3    3    0    0  0.34269123912E+02 -0.34395505285E+01  0.21768645837E+02  0.40744183231E+02  0.10566000000E+00 0.  1.
         22    1    1    0    0    0 -0.67047774626E+01 -0.10654283192E+02  0.25103240186E+02  0.28082743082E+02  0.00000000000E+00 0.  1.
</event>
<event>
 5    1  0.1315753E-009  0.9118800E+02  0.7818608E-02  0.1130116E+00
         25   -1    0    0    0    0  0.00000000000E+00  0.00000000000E+00  0.99999998245E-14  0.12500000000E+03  0.12500000000E+03 0.  0.
        -13    1    3    3    0    0  0.77022434879E+01  0.17442491734E+02 -0.50058385050E+02  0.53566950170E+02  0.10566000000E+00 0.  1.
         23    2    1    0    0    0  0.12608436436E+02 -0.13738121040E+02 -0.24675006653E+02  0.94071621569E+02  0.88842024922E+02 0.  0.
         13    1    3    3    0    0  0.49061929483E+01 -0.31180612774E+02  0.25383378398E+02  0.40504671399E+02  0.10566000000E+00 0. -1.
         22    1    1    0    0    0 -0.12608436436E+02  0.13738121040E+02  0.24675006653E+02  0.30928378431E+02  0.00000000000E+00 0. -1.
</event>
<event>
 5    1  0.1315753E-009  0.9118800E+02  0.7818608E-02  0.1130116E+00
         25   -1    0    0    0    0  0.00000000000E+00  0.00000000000E+00  0.99999998245E-14  0.12500000000E+03  0.12500000000E+03 0.  0.
        -13    1    3    3    0    0 -0.54375945441E+01 -0.31570923195E+02  0.12068430678E+02  0.34233737874E+02  0.10566000000E+00 0.  1.
         23    2    1    0    0    0  0.18158279777E+02  0.23550455833E+02  0.72784349918E+01  0.94384273480E+02  0.89280839882E+02 0.  0.
         13    1    3    3    0    0  0.23595874322E+02  0.55121379028E+02 -0.47899956859E+01  0.60150535606E+02  0.10566000000E+00 0. -1.
         22    1    1    0    0    0 -0.18158279777E+02 -0.23550455833E+02 -0.72784349918E+01  0.30615726520E+02  0.00000000000E+00 0. -1.
</event>
<event>
 5    1  0.1315753E-009  0.9118800E+02  0.7818608E-02  0.1130116E+00
         25   -1    0    0    0    0  0.00000000000E+00  0.00000000000E+00  0.99999998245E-14  0.12500000000E+03  0.12500000000E+03 0.  0.
        -13    1    3    3    0    0  0.49034305578E+02  0.21963999753E+02  0.27991517340E+02  0.60583138047E+02  0.10566000000E+00 0. -1.
         23    2    1    0    0    0  0.16918600306E+02  0.18655654773E+02  0.16676905115E+02  0.94794178450E+02  0.89852905420E+02 0.  0.
         13    1    3    3    0    0 -0.32115705272E+02 -0.33083449801E+01 -0.11314612225E+02  0.34211040403E+02  0.10566000000E+00 0.  1.
         22    1    1    0    0    0 -0.16918600306E+02 -0.18655654773E+02 -0.16676905115E+02  0.30205821550E+02  0.00000000000E+00 0. -1.
</event>
<event>
 5    1  0.1315753E-009  0.9118800E+02  0.7818608E-02  0.1130116E+00
         25   -1    0    0    0    0  0.00000000000E+00  0.00000000000E+00  0.99999998245E-14  0.12500000000E+03  0.12500000000E+03 0.  0.
        -13    1    3    3    0    0  0.43444367863E+02  0.23385154791E+02 -0.37892971677E+02  0.62210666531E+02  0.10566000000E+00 0. -1.
         23    2    1    0    0    0  0.22805790498E+02  0.16333728858E+02 -0.18487294795E+02  0.91404243609E+02  0.85006240372E+02 0.  0.
         13    1    3    3    0    0 -0.20638577365E+02 -0.70514259323E+01  0.19405676882E+02  0.29193577078E+02  0.10566000000E+00 0.  1.
         22    1    1    0    0    0 -0.22805790498E+02 -0.16333728858E+02  0.18487294795E+02  0.33595756391E+02  0.00000000000E+00 0. -1.
</event>
<event>
 5    1  0.1315753E-009  0.9118800E+02  0.7818608E-02  0.1130116E+00
         25   -1    0    0    0    0  0.00000000000E+00  0.00000000000E+00  0.99999998245E-14  0.12500000000E+03  0.12500000000E+03 0.  0.
        -13    1    3    3    0    0  0.45441843040E+02  0.29222772490E+02  0.26937264300E+02  0.60370182234E+02  0.10566000000E+00 0. -1.
         23    2    1    0    0    0  0.28713609714E+02  0.10713864042E+02  0.43103753417E+01  0.94051048465E+02  0.88813074017E+02 0.  0.
         13    1    3    3    0    0 -0.16728233327E+02 -0.18508908448E+02 -0.22626888958E+02  0.33680866232E+02  0.10566000000E+00 0.  1.
         22    1    1    0    0    0 -0.28713609714E+02 -0.10713864042E+02 -0.43103753417E+01  0.30948951535E+02  0.00000000000E+00 0. -1.
</event>
<event>
 5    1  0.1315753E-009  0.9118800E+02  0.7818608E-02  0.1130116E+00
         25   -1    0    0    0    0  0.00000000000E+00  0.00000000000E+00  0.99999998245E-14  0.12500000000E+03  0.12500000000E+03 0.  0.
        -13    1    3    3    0    0  0.14959330810E+02  0.13860520846E+02 -0.13136577702E+02  0.24258533636E+02  0.10566000000E+00 0. -1.
         23    2    1    0    0    0 -0.68164893230E+01 -0.94814754568E+01  0.38390506477E+02  0.84872778677E+02  0.74787663884E+02 0.  0.
         13    1    3    3    0    0 -0.21775820133E+02 -0.23341996302E+02  0.51527084180E+02  0.60614245041E+02  0.10566000000E+00 0.  1.
         22    1    1    0    0    0  0.68164893230E+01  0.94814754568E+01 -0.38390506477E+02  0.40127221323E+02  0.00000000000E+00 0.  1.
</event>
<event>
 5    1  0.1315753E-009  0.9118800E+02  0.7818608E-02  0.1130116E+00
         25   -1    0    0    0    0  0.00000000000E+00  0.00000000000E+00  0.99999998245E-14  0.12500000000E+03  0.12500000000E+03 0.  0.
        -13    1    3    3    0    0  0.34131473885E+02  0.10055151618E+02 -0.15362016119E+02  0.38756499931E+02  0.10566000000E+00 0. -1.
         23    2    1    0    0    0 -0.56262657997E+01  0.67909760539E+01  0.26792185420E+02  0.96793734345E+02  0.92592837662E+02 0.  0.
         13    1    3    3    0    0 -0.39757739685E+02 -0.32641755641E+01  0.42154201539E+02  0.58037234414E+02  0.10566000000E+00 0.  1.
         22    1    1    0    0    0  0.56262657997E+01 -0.67909760539E+01 -0.26792185420E+02  0.28206265655E+02  0.00000000000E+00 0.  1.
</event>
<event>
 5    1  0.1315753E-009  0.9118800E+02  0.7818608E-02  0.1130116E+00
         25   -1    0    0    0    0  0.00000000000E+00  0.00000000000E+00  0.99999998245E-14  0.12500000000E+03  0.12500000000E+03 0.  0.
        -13    1    3    3    0    0  0.14147238574E+01  0.39746532920E+02 -0.36738492654E+02  0.54143479102E+02  0.10566000000E+00 0. -1.
         23    2    1    0    0    0 -0.12983061128E+02  0.72394369970E+00 -0.24100820410E+02  0.97615085993E+02  0.93695098582E+02 0.  0.
         13    1    3    3    0    0 -0.14397784985E+02 -0.39022589220E+02  0.12637672244E+02  0.43471606891E+02  0.10566000000E+00 0.  1.
         22    1    1    0    0    0  0.12983061128E+02 -0.72394369970E+00  0.24100820410E+02  0.27384914007E+02  0.00000000000E+00 0. -1.
</event>
<event>
 5    1  0.1315753E-009  0.9118800E+02  0.7818608E-02  0.1130116E+00
         25   -1    0    0    0    0  0.00000000000E+00  0.00000000000E+00  0.99999998245E-14  0.12500000000E+03  0.12500000000E+03 0.  0.
        -13    1    3    3    0    0  0.44376496466E+02 -0.67274149481E+01  0.27053634293E+02  0.52406505732E+02  0.10566000000E+00 0. -1.
         23    2    1    0    0    0  0.19987629114E+02 -0.28390829017E+02  0.14877086145E+02  0.87226038307E+02  0.78622576762E+02 0.  0.
         13    1    3    3    0    0 -0.24388867353E+02 -0.21663414069E+02 -0.12176548148E+02  0.34819532575E+02  0.10566000000E+00 0.  1.
         22    1    1    0    0    0 -0.19987629114E+02  0.28390829017E+02 -0.14877086145E+02  0.37773961693E+02  0.00000000000E+00 0. -1.
</event>
<event>
 5    1  0.1315753E-009  0.9118800E+02  0.7818608E-02  0.1130116E+00
         25   -1    0    0    0    0  0.00000000000E+00  0.00000000000E+00  0.99999998245E-14  0.12500000000E+03  0.12500000000E+03 0.  0.
        -13    1    3    3    0    0  0.25185983560E+02 -0.13388269722E+02  0.19597985156E+02  0.34607394011E+02  0.10566000000E+00 0.  1.
         23    2    1    0    0    0 -0.14967480667E+02  0.22235795381E+02 -0.10575417945E+02  0.96185150730E+02  0.91767574244E+02 0.  0.
         13    1    3    3    0    0 -0.40153464226E+02  0.35624065103E+02 -0.30173403102E+02  0.61577756719E+02  0.10566000000E+00 0. -1.
         22    1    1    0    0    0  0.14967480667E+02 -0.22235795381E+02  0.10575417945E+02  0.28814849270E+02  0.00000000000E+00 0. -1.
</event>
<event>
 5    1  0.1315753E-009  0.9118800E+02  0.7818608E-02  0.1130116E+00
         25   -1    0    0    0    0  0.00000000000E+00  0.00000000000E+00  0.99999998245E-14  0.12500000000E+03  0.12500000000E+03 0.  0.
        -13    1    3    3    0    0  0.52351133092E+02 -0.24148821719E+02 -0.16066320437E+02  0.59849348726E+02  0.10566000000E+00 0.  1.
         23    2    1    0    0    0  0.26378215551E+02  0.10498341657E+01 -0.11042478431E+02  0.96384466852E+02  0.92038669661E+02 0.  0.
         13    1    3    3    0    0 -0.25972917541E+02  0.25198655884E+02  0.50238420066E+01  0.36535118126E+02  0.10566000000E+00 0. -1.
         22    1    1    0    0    0 -0.26378215551E+02 -0.10498341657E+01  0.11042478431E+02  0.28615533148E+02  0.00000000000E+00 0.  1.
</event>
<event>
 5    1  0.1315753E-009  0.9118800E+02  0.7818608E-02  0.1130116E+00
         25   -1    0    0    0    0  0.00000000000E+00  0.00000000000E+00  0.99999998245E-14  0.12500000000E+03  0.12500000000E+03 0.  0.
        -13    1    3    3    0    0  0.64284501619E+01  0.26403490504E+00 -0.51176974332E+02  0.51579923922E+02  0.10566000000E+00 0. -1.
         23    2    1    0    0    0  0.21277314287E+02 -0.15693840665E+02 -0.13009042573E+02  0.95533817234E+02  0.90876038143E+02 0.  0.
         13    1    3    3    0    0  0.14848864125E+02 -0.15957875570E+02  0.38167931759E+02  0.43953893313E+02  0.10566000000E+00 0.  1.
         22    1    1    0    0    0 -0.21277314287E+02  0.15693840665E+02  0.13009042573E+02  0.29466182766E+02  0.00000000000E+00 0. -1.
</event>
<event>
 5    1  0.1315753E-009  0.9118800E+02  0.7818608E-02  0.1130116E+00
         25   -1    0    0    0    0  0.00000000000E+00  0.00000000000E+00  0.99999998245E-14  0.12500000000E+03  0.12500000000E+03 0.  0.
        -13    1    3    3    0    0  0.18682290080E+02  0.25246370792E+02  0.16169423304E+02  0.35325183861E+02  0.10566000000E+00 0.  1.
         23    2    1    0    0    0 -0.16087968515E+02 -0.21501673363E+02 -0.56855428160E+01  0.97550590435E+02  0.93609014570E+02 0.  0.
         13    1    3    3    0    0 -0.34770258594E+02 -0.46748044156E+02 -0.21854966120E+02  0.62225406574E+02  0.10566000000E+00 0. -1.
         22    1    1    0    0    0  0.16087968515E+02  0.21501673363E+02  0.56855428160E+01  0.27449409565E+02  0.00000000000E+00 0. -1.
</event>
<event>
 5    1  0.1315753E-009  0.9118800E+02  0.7818608E-02  0.1130116E+00
         25   -1    0    0    0    0  0.00000000000E+00  0.00000000000E+00  0.99999998245E-14  0.12500000000E+03  0.12500000000E+03 0.  0.
        -13    1    3    3    0    0 -0.28256687259E+02  0.38487430106E+02  0.20974509612E+02  0.52150396628E+02  0.10566000000E+00 0.  1.
         23    2    1    0    0    0  0.61331815922E+01  0.12826412709E+02  0.26014329396E+02  0.95354121478E+02  0.90628529556E+02 0.  0.
         13    1    3    3    0    0  0.34389868851E+02 -0.25661017397E+02  0.50398197836E+01  0.43203724850E+02  0.10566000000E+00 0. -1.
         22    1    1    0    0    0 -0.61331815922E+01 -0.12826412709E+02 -0.26014329396E+02  0.29645878522E+02  0.00000000000E+00 0.  1.
</event>
<event>
 5    1  0.1315753E-009  0.9118800E+02  0.7818608E-02  0.1130116E+00
         25   -1    0    0    0    0  0.00000000000E+00  0.00000000000E+00  0.99999998245E-14  0.12500000000E+03  0.12500000000E+03 0.  0.
        -13    1    3    3    0    0  0.28141501264E+02  0.18517747872E+02 -0.39861448884E+02  0.52190011983E+02  0.10566000000E+00 0.  1.
         23    2    1    0    0    0 -0.86789309334E+01  0.86544364607E+01 -0.31478328269E+02  0.91219705993E+02  0.84734446940E+02 0.  0.
         13    1    3    3    0    0 -0.36820432197E+02 -0.98633114115E+01  0.83831206153E+01  0.39029694009E+02  0.10566000000E+00 0. -1.
         22    1    1    0    0    0  0.86789309334E+01 -0.86544364607E+01  0.31478328269E+02  0.33780294007E+02  0.00000000000E+00 0.  1.
</event>
<event>
 5    1  0.1315753E-009  0.9118800E+02  0.7818608E-02  0.1130116E+00
         25   -1    0    0    0    0  0.00000000000E+00  0.00000000000E+00  0.99999998245E-14  0.12500000000E+03  0.12500000000E+03 0.  0.
        -13    1    3    3    0    0  0.11208251586E+02  0.18826431003E+02  0.32298527945E+02  0.39029033800E+02  0.10566000000E+00 0.  1.
         23    2    1    0    0    0 -0.26967726777E+02  0.11792089193E+02 -0.75021924577E+01  0.94625758500E+02  0.89618299610E+02 0.  0.
         13    1    3    3    0    0 -0.38175978363E+02 -0.70343418104E+01 -0.39800720403E+02  0.55596724699E+02  0.10566000000E+00 0. -1.
         22    1    1    0    0    0  0.26967726777E+02 -0.11792089193E+02  0.75021924577E+01  0.30374241500E+02  0.00000000000E+00 0. -1.
</event>
<event>
 5    1  0.1315753E-009  0.9118800E+02  0.7818608E-02  0.1130116E+00
         25   -1    0    0    0    0  0.00000000000E+00  0.00000000000E+00  0.99999998245E-14  0.12500000000E+03  0.12500000000E+03 0.  0.
        -13    1    3    3    0    0 -0.51943690365E+02  0.78882185308E+01 -0.13460359625E+02  0.54236181702E+02  0.10566000000E+00 0. -1.
         23    2    1    0    0    0 -0.23096184205E+02 -0.18610671818E+02 -0.10731170772E+01  0.95319325975E+02  0.90580524914E+02 0.  0.
         13    1    3    3    0    0  0.28847506160E+02 -0.26498890349E+02  0.12387242548E+02  0.41083144273E+02  0.10566000000E+00 0.  1.
         22    1    1    0    0    0  0.23096184205E+02  0.18610671818E+02  0.10731170772E+01  0.29680674025E+02  0.00000000000E+00 0. -1.
</event>
<event>
 5    1  0.1315753E-009  0.9118800E+02  0.7818608E-02  0.1130116E+00
         25   -1    0    0    0    0  0.00000000000E+00  0.00000000000E+00  0.99999998245E-14  0.12500000000E+03  0.12500000000E+03 0.  0.
        -13    1    3    3    0    0 -0.38204519465E+02 -0.11167514354E+02  0.37525298835E+02  0.54703362795E+02  0.10566000000E+00 0. -1.
         23    2    1    0    0    0 -0.17768312688E+02  0.16964635737E+02  0.13491291772E+02  0.96972749775E+02  0.92834193289E+02 0.  0.
         13    1    3    3    0    0  0.20436206776E+02  0.28132150092E+02 -0.24034007062E+02  0.42269386980E+02  0.10566000000E+00 0.  1.
         22    1    1    0    0    0  0.17768312688E+02 -0.16964635737E+02 -0.13491291772E+02  0.28027250225E+02  0.00000000000E+00 0. -1.
</event>
<event>
 5    1  0.1315753E-009  0.9118800E+02  0.7818608E-02  0.1130116E+00
         25   -1    0    0    0    0  0.00000000000E+00  0.00000000000E+00  0.99999998245E-14  0.12500000000E+03  0.12500000000E+03 0.  0.
        -13    1    3    3    0    0 -0.98866761353E+01  0.10747458075E+02 -0.54675758720E+02  0.56592437443E+02  0.10566000000E+00 0.  1.
         23    2    1    0    0    0  0.12589944731E+02  0.13491725627E+02 -0.23658759709E+02  0.94995495677E+02  0.90132535298E+02 0.  0.
         13    1    3    3    0    0  0.22476620867E+02  0.27442675524E+01  0.31016999012E+02  0.38403058234E+02  0.10566000000E+00 0. -1.
         22    1    1    0    0    0 -0.12589944731E+02 -0.13491725627E+02  0.23658759709E+02  0.30004504323E+02  0.00000000000E+00 0.  1.
</event>
<event>
 5    1  0.1315753E-009  0.9118800E+02  0.7818608E-02  0.1130116E+00
         25   -1    0    0    0    0  0.00000000000E+00  0.00000000000E+00  0.99999998245E-14  0.12500000000E+03  0.12500000000E+03 0.  0.
        -13    1    3    3    0    0  0.25485177576E+02 -0.25352384592E+02 -0.95293902578E+01  0.37189489419E+02  0.10566000000E+00 0.  1.
         23    2    1    0    0    0  0.23983013404E+01  0.22927835250E+02  0.16451326142E+02  0.96678919329E+02  0.92437707848E+02 0.  0.
         13    1    3    3    0    0 -0.23086876235E+02  0.48280219842E+02  0.25980716400E+02  0.59489429909E+02  0.10566000000E+00 0. -1.
         22    1    1    0    0    0 -0.23983013404E+01 -0.22927835250E+02 -0.16451326142E+02  0.28321080671E+02  0.00000000000E+00 0. -1.
</event>
<event>
 5    1  0.1315753E-009  0.9118800E+02  0.7818608E-02  0.1130116E+00
         25   -1    0    0    0    0  0.00000000000E+00  0.00000000000E+00  0.99999998245E-14  0.12500000000E+03  0.12500000000E+03 0.  0.
        -13    1    3    3    0    0  0.41725242497E+02  0.30189691491E+02  0.21344099192E+02  0.55749395226E+02  0.10566000000E+00 0. -1.
         23    2    1    0    0    0  0.29414556340E+02 -0.36704423325E+01  0.69057809452E+01  0.94563540251E+02  0.89531475263E+02 0.  0.
         13    1    3    3    0    0 -0.12310686157E+02 -0.33860133823E+02 -0.14438318246E+02  0.38814145025E+02  0.10566000000E+00 0.  1.
         22    1    1    0    0    0 -0.29414556340E+02  0.36704423325E+01 -0.69057809452E+01  0.30436459749E+02  0.00000000000E+00 0. -1.
</event>
<event>
 5    1  0.1315753E-009  0.9118800E+02  0.7818608E-02  0.1130116E+00
         25   -1    0    0    0    0  0.00000000000E+00  0.00000000000E+00  0.99999998245E-14  0.12500000000E+03  0.12500000000E+03 0.  0.
        -13    1    3    3    0    0 -0.16787270225E+02 -0.40577919870E+02 -0.35382984625E+01  0.44055768551E+02  0.10566000000E+00 0. -1.
         23    2    1    0    0    0 -0.12774337597E+02  0.11343082726E+01  0.26463017619E+02  0.95593169879E+02  0.90957641073E+02 0.  0.
         13    1    3    3    0    0  0.40129326282E+01  0.41712228143E+02  0.30001316081E+02  0.51537401327E+02  0.10566000000E+00 0.  1.
         22    1    1    0    0    0  0.12774337597E+02 -0.11343082726E+01 -0.26463017619E+02  0.29406830121E+02  0.00000000000E+00 0. -1.
</event>
<event>
 5    1  0.1315753E-009  0.9118800E+02  0.7818608E-02  0.1130116E+00
         25   -1    0    0    0    0  0.00000000000E+00  0.00000000000E+00  0.99999998245E-14  0.12500000000E+03  0.12500000000E+03 0.  0.
        -13    1    3    3    0    0  0.20326229343E+01 -0.30751799806E+02 -0.29905023649E+02  0.42943292268E+02  0.10566000000E+00 0.  1.
         23    2    1    0    0    0 -0.28641808512E+02 -0.24105618549E+01  0.29846611451E+01  0.96102384087E+02  0.91654765407E+02 0.  0.
         13    1    3    3    0    0 -0.30674431446E+02  0.28341237951E+02  0.32889684794E+02  0.53159091819E+02  0.10566000000E+00 0. -1.
         22    1    1    0    0    0  0.28641808512E+02  0.24105618549E+01 -0.29846611451E+01  0.28897615913E+02  0.00000000000E+00 0. -1.
</event>
<event>
 5    1  0.1315753E-009  0.9118800E+02  0.7818608E-02  0.1130116E+00
         25   -1    0    0    0    0  0.00000000000E+00  0.00000000000E+00  0.99999998245E-14  0.12500000000E+03  0.12500000000E+03 0.  0.
        -13    1    3    3    0    0 -0.77619469653E+01  0.18660246418E+02 -0.30759729128E+02  0.36805226764E+02  0.10566000000E+00 0.  1.
         23    2    1    0    0    0  0.10455524341E+02 -0.24716308000E+02  0.71522171282E+01  0.97226485994E+02  0.93175219337E+02 0.  0.
         13    1    3    3    0    0  0.18217471306E+02 -0.43376554418E+02  0.37911946256E+02  0.60421259230E+02  0.10566000000E+00 0. -1.
         22    1    1    0    0    0 -0.10455524341E+02  0.24716308000E+02 -0.71522171282E+01  0.27773514006E+02  0.00000000000E+00 0. -1.
</event>
<event>
 5    1  0.1315753E-009  0.9118800E+02  0.7818608E-02  0.1130116E+00
         25   -1    0    0    0    0  0.00000000000E+00  0.00000000000E+00  0.99999998245E-14  0.12500000000E+03  0.12500000000E+03 0.  0.
        -13    1    3    3    0    0 -0.34089605192E+02 -0.17528768677E+02  0.41307155385E+02  0.56352916193E+02  0.10566000000E+00 0. -1.
         23    2    1    0    0    0 -0.79509787304E+01 -0.25612551347E+02  0.15183837406E+02  0.94181665073E+02  0.88996720548E+02 0.  0.
         13    1    3    3    0    0  0.26138626461E+02 -0.80837826706E+01 -0.26123317979E+02  0.37828748880E+02  0.10566000000E+00 0.  1.
         22    1    1    0    0    0  0.79509787304E+01  0.25612551347E+02 -0.15183837406E+02  0.30818334927E+02  0.00000000000E+00 0. -1.
</event>
<event>
 5    1  0.1315753E-009  0.9118800E+02  0.7818608E-02  0.1130116E+00
         25   -1    0    0    0    0  0.00000000000E+00  0.00000000000E+00  0.99999998245E-14  0.12500000000E+03  0.12500000000E+03 0.  0.
        -13    1    3    3    0    0  0.36587452617E+02  0.44440185948E+02 -0.88540271675E+01  0.58240679746E+02  0.10566000000E+00 0.  1.
         23    2    1    0    0    0  0.47181244774E+01  0.28788465393E+02 -0.11027815304E+02  0.93812676475E+02  0.88476941170E+02 0.  0.
         13    1    3    3    0    0 -0.31869328140E+02 -0.15651720555E+02 -0.21737881362E+01  0.35571996729E+02  0.10566000000E+00 0. -1.
         22    1    1    0    0    0 -0.47181244774E+01 -0.28788465393E+02  0.11027815304E+02  0.31187323525E+02  0.00000000000E+00 0.  1.
</event>
<event>
 5    1  0.1315753E-009  0.9118800E+02  0.7818608E-02  0.1130116E+00
         25   -1    0    0    0    0  0.00000000000E+00  0.00000000000E+00  0.99999998245E-14  0.12500000000E+03  0.12500000000E+03 0.  0.
        -13    1    3    3    0    0  0.50307654008E+01 -0.16291323502E+02  0.44289387803E+02  0.47458159024E+02  0.10566000000E+00 0.  1.
         23    2    1    0    0    0  0.30666952793E+02 -0.74486632767E+01  0.85833233343E+01  0.92294984824E+02  0.86306119169E+02 0.  0.
         13    1    3    3    0    0  0.25636187392E+02  0.88426602254E+01 -0.35706064469E+02  0.44836825799E+02  0.10566000000E+00 0. -1.
         22    1    1    0    0    0 -0.30666952793E+02  0.74486632767E+01 -0.85833233343E+01  0.32705015176E+02  0.00000000000E+00 0. -1.
</event>
<event>
 5    1  0.1315753E-009  0.9118800E+02  0.7818608E-02  0.1130116E+00
         25   -1    0    0    0    0  0.00000000000E+00  0.00000000000E+00  0.99999998245E-14  0.12500000000E+03  0.12500000000E+03 0.  0.
        -13    1    3    3    0    0  0.13919164148E+02 -0.18758540425E+02 -0.37791388131E+02  0.44427763283E+02  0.10566000000E+00 0. -1.
         23    2    1    0    0    0 -0.22589116989E+02  0.99358602027E+01 -0.14510943801E+02  0.96372093784E+02  0.92021863956E+02 0.  0.
         13    1    3    3    0    0 -0.36508281138E+02  0.28694400627E+02  0.23280444329E+02  0.51944330501E+02  0.10566000000E+00 0.  1.
         22    1    1    0    0    0  0.22589116989E+02 -0.99358602027E+01  0.14510943801E+02  0.28627906216E+02  0.00000000000E+00 0.  1.
</event>
<event>
 5    1  0.1315753E-009  0.9118800E+02  0.7818608E-02  0.1130116E+00
         25   -1    0    0    0    0  0.00000000000E+00  0.00000000000E+00  0.99999998245E-14  0.12500000000E+03  0.12500000000E+03 0.  0.
        -13    1    3    3    0    0 -0.66818462025E+01 -0.46201289803E+02 -0.91155502149E+01  0.47563753720E+02  0.10566000000E+00 0. -1.
         23    2    1    0    0    0 -0.19697415325E+01  0.89252778749E+01  0.14612131386E+02  0.10776472076E+03  0.10637753612E+03 0.  0.
         13    1    3    3    0    0  0.47121046700E+01  0.55126567678E+02  0.23727681601E+02  0.60200967040E+02  0.10566000000E+00 0.  1.
         22    1    1    0    0    0  0.19697415325E+01 -0.89252778749E+01 -0.14612131386E+02  0.17235279240E+02  0.00000000000E+00 0.  1.
</event>
<event>
 5    1  0.1315753E-009  0.9118800E+02  0.7818608E-02  0.1130116E+00
         25   -1    0    0    0    0  0.00000000000E+00  0.00000000000E+00  0.99999998245E-14  0.12500000000E+03  0.12500000000E+03 0.  0.
        -13    1    3    3    0    0  0.33894612946E+02 -0.14069083560E+02 -0.38822325772E+02  0.53422542446E+02  0.10566000000E+00 0. -1.
         23    2    1    0    0    0  0.99639509895E-03 -0.24517986053E+02 -0.18358406276E+02  0.94370557921E+02  0.89261634986E+02 0.  0.
         13    1    3    3    0    0 -0.33893616551E+02 -0.10448902493E+02  0.20463919496E+02  0.40948015476E+02  0.10566000000E+00 0.  1.
         22    1    1    0    0    0 -0.99639509896E-03  0.24517986053E+02  0.18358406276E+02  0.30629442079E+02  0.00000000000E+00 0.  1.
</event>
<event>
 5    1  0.1315753E-009  0.9118800E+02  0.7818608E-02  0.1130116E+00
         25   -1    0    0    0    0  0.00000000000E+00  0.00000000000E+00  0.99999998245E-14  0.12500000000E+03  0.12500000000E+03 0.  0.
        -13    1    3    3    0    0  0.44516413334E+02  0.89971519499E+01 -0.30865524707E+02  0.54912217027E+02  0.10566000000E+00 0.  1.
         23    2    1    0    0    0  0.25350221039E+01  0.15121704556E+02 -0.21885280369E+02  0.98278140361E+02  0.94575552286E+02 0.  0.
         13    1    3    3    0    0 -0.41981391230E+02  0.61245526058E+01  0.89802443376E+01  0.43365923334E+02  0.10566000000E+00 0. -1.
         22    1    1    0    0    0 -0.25350221039E+01 -0.15121704556E+02  0.21885280369E+02  0.26721859639E+02  0.00000000000E+00 0.  1.
</event>
<event>
 5    1  0.1315753E-009  0.9118800E+02  0.7818608E-02  0.1130116E+00
         25   -1    0    0    0    0  0.00000000000E+00  0.00000000000E+00  0.99999998245E-14  0.12500000000E+03  0.12500000000E+03 0.  0.
        -13    1    3    3    0    0 -0.39760060823E+02  0.46405850304E+02 -0.41798016297E+01  0.61252324730E+02  0.10566000000E+00 0. -1.
         23    2    1    0    0    0 -0.15265228267E+02  0.23273745972E+02 -0.99647892085E+01  0.95436653275E+02  0.90742290685E+02 0.  0.
         13    1    3    3    0    0  0.24494832556E+02 -0.23132104333E+02 -0.57849875789E+01  0.34184328546E+02  0.10566000000E+00 0.  1.
         22    1    1    0    0    0  0.15265228267E+02 -0.23273745972E+02  0.99647892085E+01  0.29563346725E+02  0.00000000000E+00 0. -1.
</event>
<event>
 5    1  0.1315753E-009  0.9118800E+02  0.7818608E-02  0.1130116E+00
         25   -1    0    0    0    0  0.00000000000E+00  0.00000000000E+00  0.99999998245E-14  0.12500000000E+03  0.12500000000E+03 0.  0.
        -13    1    3    3    0    0 -0.32438596694E+02 -0.19026737569E+02 -0.42445463254E+01  0.37845827188E+02  0.10566000000E+00 0. -1.
         23    2    1    0    0    0  0.28168024509E+01  0.26814547509E+02 -0.10609421224E+02  0.96025629379E+02  0.91550026459E+02 0.  0.
         13    1    3    3    0    0  0.35255399144E+02  0.45841285078E+02 -0.63648748991E+01  0.58179802191E+02  0.10566000000E+00 0.  1.
         22    1    1    0    0    0 -0.28168024509E+01 -0.26814547509E+02  0.10609421224E+02  0.28974370621E+02  0.00000000000E+00 0.  1.
</event>
<event>
 5    1  0.1315753E-009  0.9118800E+02  0.7818608E-02  0.1130116E+00
         25   -1    0    0    0    0  0.00000000000E+00  0.00000000000E+00  0.99999998245E-14  0.12500000000E+03  0.12500000000E+03 0.  0.
        -13    1    3    3    0    0  0.17537848552E+02  0.14029136405E+01  0.26939246432E+02  0.32175743362E+02  0.10566000000E+00 0.  1.
         23    2    1    0    0    0 -0.21733087396E+02  0.68547682816E+01 -0.20740568748E+02  0.94186267218E+02  0.89003184238E+02 0.  0.
         13    1    3    3    0    0 -0.39270935948E+02  0.54518546412E+01 -0.47679815180E+02  0.62010523856E+02  0.10566000000E+00 0. -1.
         22    1    1    0    0    0  0.21733087396E+02 -0.68547682816E+01  0.20740568748E+02  0.30813732782E+02  0.00000000000E+00 0. -1.
</event>
<event>
 5    1  0.1315753E-009  0.9118800E+02  0.7818608E-02  0.1130116E+00
         25   -1    0    0    0    0  0.00000000000E+00  0.00000000000E+00  0.99999998245E-14  0.12500000000E+03  0.12500000000E+03 0.  0.
        -13    1    3    3    0    0  0.24928955755E+02  0.22395019744E+02  0.22268050692E+02  0.40235146203E+02  0.10566000000E+00 0. -1.
         23    2    1    0    0    0 -0.17427124613E-01 -0.25564547708E+02  0.16434188021E+02  0.94608735809E+02  0.89594553139E+02 0.  0.
         13    1    3    3    0    0 -0.24946382879E+02 -0.47959567452E+02 -0.58338626708E+01  0.54373589606E+02  0.10566000000E+00 0.  1.
         22    1    1    0    0    0  0.17427124613E-01  0.25564547708E+02 -0.16434188021E+02  0.30391264191E+02  0.00000000000E+00 0.  1.
</event>
<event>
 5    1  0.1315753E-009  0.9118800E+02  0.7818608E-02  0.1130116E+00
         25   -1    0    0    0    0  0.00000000000E+00  0.00000000000E+00  0.99999998245E-14  0.12500000000E+03  0.12500000000E+03 0.  0.
        -13    1    3    3    0    0  0.29068854375E+02  0.35897697590E+02  0.31683663010E+02  0.56013468494E+02  0.10566000000E+00 0. -1.
         23    2    1    0    0    0  0.26322483496E+02  0.11952344856E+02 -0.33380851883E+00  0.96089048562E+02  0.91636576433E+02 0.  0.
         13    1    3    3    0    0 -0.27463708792E+01 -0.23945352735E+02 -0.32017471529E+02  0.40075580067E+02  0.10566000000E+00 0.  1.
         22    1    1    0    0    0 -0.26322483496E+02 -0.11952344856E+02  0.33380851883E+00  0.28910951438E+02  0.00000000000E+00 0. -1.
</event>
<event>
 5    1  0.1315753E-009  0.9118800E+02  0.7818608E-02  0.1130116E+00
         25   -1    0    0    0    0  0.00000000000E+00  0.00000000000E+00  0.99999998245E-14  0.12500000000E+03  0.12500000000E+03 0.  0.
        -13    1    3    3    0    0 -0.33432905418E+02  0.37469694509E+02 -0.26680410193E+02  0.56864686962E+02  0.10566000000E+00 0.  1.
         23    2    1    0    0    0 -0.36334232576E+01  0.25920732809E+02  0.50294647774E+00  0.98821017799E+02  0.95290369135E+02 0.  0.
         13    1    3    3    0    0  0.29799482160E+02 -0.11548961700E+02  0.27183356671E+02  0.41956330837E+02  0.10566000000E+00 0. -1.
         22    1    1    0    0    0  0.36334232576E+01 -0.25920732809E+02 -0.50294647774E+00  0.26178982201E+02  0.00000000000E+00 0.  1.
</event>
<event>
 5    1  0.1315753E-009  0.9118800E+02  0.7818608E-02  0.1130116E+00
         25   -1    0    0    0    0  0.00000000000E+00  0.00000000000E+00  0.99999998245E-14  0.12500000000E+03  0.12500000000E+03 0.  0.
        -13    1    3    3    0    0  0.42129013062E+02  0.36291256595E+01 -0.40191110387E+02  0.58338330562E+02  0.10566000000E+00 0.  1.
         23    2    1    0    0    0  0.28992022680E+02 -0.97057558110E+00 -0.58300206733E+01  0.95411682422E+02  0.90707886126E+02 0.  0.
         13    1    3    3    0    0 -0.13136990382E+02 -0.45997012406E+01  0.34361089714E+02  0.37073351860E+02  0.10566000000E+00 0. -1.
         22    1    1    0    0    0 -0.28992022680E+02  0.97057558110E+00  0.58300206733E+01  0.29588317578E+02  0.00000000000E+00 0.  1.
</event>
<event>
 5    1  0.1315753E-009  0.9118800E+02  0.7818608E-02  0.1130116E+00
         25   -1    0    0    0    0  0.00000000000E+00  0.00000000000E+00  0.99999998245E-14  0.12500000000E+03  0.12500000000E+03 0.  0.
        -13    1    3    3    0    0 -0.39491508990E+02 -0.10420804641E+02 -0.15675304121E+02  0.43748128817E+02  0.10566000000E+00 0. -1.
         23    2    1    0    0    0 -0.75733694618E+01 -0.89773152361E+01  0.26122147379E+02  0.96358863543E+02  0.92003890602E+02 0.  0.
         13    1    3    3    0    0  0.31918139528E+02  0.14434894050E+01  0.41797451499E+02  0.52610734727E+02  0.10566000000E+00 0.  1.
         22    1    1    0    0    0  0.75733694618E+01  0.89773152361E+01 -0.26122147379E+02  0.28641136457E+02  0.00000000000E+00 0.  1.
</event>
<event>
 5    1  0.1315753E-009  0.9118800E+02  0.7818608E-02  0.1130116E+00
         25   -1    0    0    0    0  0.00000000000E+00  0.00000000000E+00  0.99999998245E-14  0.12500000000E+03  0.12500000000E+03 0.  0.
        -13    1    3    3    0    0  0.30796326972E+02  0.15372950231E+02  0.42374115192E+01  0.34680083249E+02  0.10566000000E+00 0. -1.
         23    2    1    0    0    0 -0.28719529412E+02  0.58252826603E+01  0.64365203903E+01  0.94997098766E+02  0.90134758510E+02 0.  0.
         13    1    3    3    0    0 -0.59515856383E+02 -0.95476675705E+01  0.21991088711E+01  0.60317015517E+02  0.10566000000E+00 0.  1.
         22    1    1    0    0    0  0.28719529412E+02 -0.58252826603E+01 -0.64365203903E+01  0.30002901234E+02  0.00000000000E+00 0.  1.
</event>
<event>
 5    1  0.1315753E-009  0.9118800E+02  0.7818608E-02  0.1130116E+00
         25   -1    0    0    0    0  0.00000000000E+00  0.00000000000E+00  0.99999998245E-14  0.12500000000E+03  0.12500000000E+03 0.  0.
        -13    1    3    3    0    0 -0.37883247419E+02 -0.27584400156E+02  0.22375510081E+01  0.46915427799E+02  0.10566000000E+00 0. -1.
         23    2    1    0    0    0 -0.20715375925E+02  0.18685507410E+02  0.61838580372E+01  0.96425271880E+02  0.92094071308E+02 0.  0.
         13    1    3    3    0    0  0.17167871494E+02  0.46269907566E+02  0.39463070291E+01  0.49509844081E+02  0.10566000000E+00 0.  1.
         22    1    1    0    0    0  0.20715375925E+02 -0.18685507410E+02 -0.61838580372E+01  0.28574728120E+02  0.00000000000E+00 0.  1.
</event>
<event>
 5    1  0.1315753E-009  0.9118800E+02  0.7818608E-02  0.1130116E+00
         25   -1    0    0    0    0  0.00000000000E+00  0.00000000000E+00  0.99999998245E-14  0.12500000000E+03  0.12500000000E+03 0.  0.
        -13    1    3    3    0    0  0.40538272612E+02 -0.28992667883E+02 -0.18122312089E+02  0.53031648068E+02  0.10566000000E+00 0.  1.
         23    2    1    0    0    0  0.36886835742E+02  0.11082690076E+01 -0.19256288434E+02  0.83374628464E+02  0.72240273505E+02 0.  0.
         13    1    3    3    0    0 -0.36514368704E+01  0.30100936891E+02 -0.11339763447E+01  0.30342980396E+02  0.10566000000E+00 0. -1.
         22    1    1    0    0    0 -0.36886835742E+02 -0.11082690076E+01  0.19256288434E+02  0.41625371536E+02  0.00000000000E+00 0.  1.
</event>
<event>
 5    1  0.1315753E-009  0.9118800E+02  0.7818608E-02  0.1130116E+00
         25   -1    0    0    0    0  0.00000000000E+00  0.00000000000E+00  0.99999998245E-14  0.12500000000E+03  0.12500000000E+03 0.  0.
        -13    1    3    3    0    0 -0.34412980986E+02  0.29420552500E+02 -0.24900664178E+02  0.51670846813E+02  0.10566000000E+00 0. -1.
         23    2    1    0    0    0 -0.22939964137E+02 -0.11719890001E+02 -0.13689229586E+02  0.95828219408E+02  0.91280090118E+02 0.  0.
         13    1    3    3    0    0  0.11473016849E+02 -0.41140442502E+02  0.11211434592E+02  0.44157372595E+02  0.10566000000E+00 0.  1.
         22    1    1    0    0    0  0.22939964137E+02  0.11719890001E+02  0.13689229586E+02  0.29171780592E+02  0.00000000000E+00 0. -1.
</event>
<event>
 5    1  0.1315753E-009  0.9118800E+02  0.7818608E-02  0.1130116E+00
         25   -1    0    0    0    0  0.00000000000E+00  0.00000000000E+00  0.99999998245E-14  0.12500000000E+03  0.12500000000E+03 0.  0.
        -13    1    3    3    0    0 -0.23534293390E+02  0.47637653256E+02  0.11431909098E+02  0.54349872887E+02  0.10566000000E+00 0. -1.
         23    2    1    0    0    0 -0.37513198372E+01  0.14066871220E+02  0.25382959368E+02  0.95738354579E+02  0.91156945127E+02 0.  0.
         13    1    3    3    0    0  0.19782973553E+02 -0.33570782037E+02  0.13951050271E+02  0.41388481693E+02  0.10566000000E+00 0.  1.
         22    1    1    0    0    0  0.37513198372E+01 -0.14066871220E+02 -0.25382959368E+02  0.29261645421E+02  0.00000000000E+00 0. -1.
</event>
<event>
 5    1  0.1315753E-009  0.9118800E+02  0.7818608E-02  0.1130116E+00
         25   -1    0    0    0    0  0.00000000000E+00  0.00000000000E+00  0.99999998245E-14  0.12500000000E+03  0.12500000000E+03 0.  0.
        -13    1    3    3    0    0 -0.38464441015E+02  0.34063579505E+02  0.53974733935E+01  0.51662215926E+02  0.10566000000E+00 0.  1.
         23    2    1    0    0    0 -0.33839850931E+01  0.20142942044E+02 -0.19406970532E+02  0.96825189007E+02  0.92635291610E+02 0.  0.
         13    1    3    3    0    0  0.35080455922E+02 -0.13920637461E+02 -0.24804443925E+02  0.45162973081E+02  0.10566000000E+00 0. -1.
         22    1    1    0    0    0  0.33839850931E+01 -0.20142942044E+02  0.19406970532E+02  0.28174810993E+02  0.00000000000E+00 0.  1.
</event>
<event>
 5    1  0.1315753E-009  0.9118800E+02  0.7818608E-02  0.1130116E+00
         25   -1    0    0    0    0  0.00000000000E+00  0.00000000000E+00  0.99999998245E-14  0.12500000000E+03  0.12500000000E+03 0.  0.
        -13    1    3    3    0    0 -0.14559085976E+02 -0.24582079635E+02 -0.24873343767E+02  0.37880602131E+02  0.10566000000E+00 0. -1.
         23    2    1    0    0    0  0.10629213261E+02 -0.13669316031E+02  0.24870058811E+02  0.94695706566E+02  0.89715810432E+02 0.  0.
         13    1    3    3    0    0  0.25188299237E+02  0.10912763604E+02  0.49743402578E+02  0.56815104435E+02  0.10566000000E+00 0.  1.
         22    1    1    0    0    0 -0.10629213261E+02  0.13669316031E+02 -0.24870058811E+02  0.30304293434E+02  0.00000000000E+00 0.  1.
</event>
<event>
 5    1  0.1315753E-009  0.9118800E+02  0.7818608E-02  0.1130116E+00
         25   -1    0    0    0    0  0.00000000000E+00  0.00000000000E+00  0.99999998245E-14  0.12500000000E+03  0.12500000000E+03 0.  0.
        -13    1    3    3    0    0 -0.12558435937E+02 -0.16799086815E+02  0.32529376761E+02  0.38705234110E+02  0.10566000000E+00 0.  1.
         23    2    1    0    0    0  0.11259261991E+01  0.31055951887E+01 -0.24311186969E+02  0.10046540721E+03  0.97423569036E+02 0.  0.
         13    1    3    3    0    0  0.13684362136E+02  0.19904682004E+02 -0.56840563730E+02  0.61760173105E+02  0.10566000000E+00 0. -1.
         22    1    1    0    0    0 -0.11259261991E+01 -0.31055951887E+01  0.24311186969E+02  0.24534592785E+02  0.00000000000E+00 0. -1.
</event>
<event>
 5    1  0.1315753E-009  0.9118800E+02  0.7818608E-02  0.1130116E+00
         25   -1    0    0    0    0  0.00000000000E+00  0.00000000000E+00  0.99999998245E-14  0.12500000000E+03  0.12500000000E+03 0.  0.
        -13    1    3    3    0    0  0.29421526801E+00 -0.40073659277E+02 -0.41215810151E+01  0.40286267196E+02  0.10566000000E+00 0.  1.
         23    2    1    0    0    0  0.27256922162E+02  0.75827272433E+01  0.62768363409E+01  0.96020071900E+02  0.91542438110E+02 0.  0.
         13    1    3    3    0    0  0.26962706894E+02  0.47656386521E+02  0.10398417356E+02  0.55733804704E+02  0.10566000000E+00 0. -1.
         22    1    1    0    0    0 -0.27256922162E+02 -0.75827272433E+01 -0.62768363409E+01  0.28979928100E+02  0.00000000000E+00 0. -1.
</event>
<event>
 5    1  0.1315753E-009  0.9118800E+02  0.7818608E-02  0.1130116E+00
         25   -1    0    0    0    0  0.00000000000E+00  0.00000000000E+00  0.99999998245E-14  0.12500000000E+03  0.12500000000E+03 0.  0.
        -13    1    3    3    0    0 -0.22231137248E+02 -0.37966606687E+02  0.70357624012E+01  0.44555581056E+02  0.10566000000E+00 0.  1.
         23    2    1    0    0    0 -0.46821976282E+01  0.56225031122E+01  0.28036708202E+02  0.96024277012E+02  0.91548179955E+02 0.  0.
         13    1    3    3    0    0  0.17548939620E+02  0.43589109799E+02  0.21000945801E+02  0.51468695956E+02  0.10566000000E+00 0. -1.
         22    1    1    0    0    0  0.46821976282E+01 -0.56225031122E+01 -0.28036708202E+02  0.28975722988E+02  0.00000000000E+00 0.  1.
</event>
<event>
 5    1  0.1315753E-009  0.9118800E+02  0.7818608E-02  0.1130116E+00
         25   -1    0    0    0    0  0.00000000000E+00  0.00000000000E+00  0.99999998245E-14  0.12500000000E+03  0.12500000000E+03 0.  0.
        -13    1    3    3    0    0 -0.23798777827E+02  0.41432730532E+02 -0.10136947936E+02  0.48844875503E+02  0.10566000000E+00 0.  1.
         23    2    1    0    0    0 -0.21978797918E+02  0.35116258255E+01  0.18224015799E+02  0.96233459963E+02  0.91833354456E+02 0.  0.
         13    1    3    3    0    0  0.18199799092E+01 -0.37921104707E+02  0.28360963736E+02  0.47388584460E+02  0.10566000000E+00 0. -1.
         22    1    1    0    0    0  0.21978797918E+02 -0.35116258255E+01 -0.18224015799E+02  0.28766540037E+02  0.00000000000E+00 0. -1.
</event>
<event>
 5    1  0.1315753E-009  0.9118800E+02  0.7818608E-02  0.1130116E+00
         25   -1    0    0    0    0  0.00000000000E+00  0.00000000000E+00  0.99999998245E-14  0.12500000000E+03  0.12500000000E+03 0.  0.
        -13    1    3    3    0    0  0.55965915064E+02 -0.76541930987E+01  0.66902245629E+01  0.56881812468E+02  0.10566000000E+00 0.  1.
         23    2    1    0    0    0  0.18694250794E+02 -0.20177452789E+02  0.84032733255E+01  0.96238574159E+02  0.91840315438E+02 0.  0.
         13    1    3    3    0    0 -0.37271664270E+02 -0.12523259690E+02  0.17130487626E+01  0.39356761691E+02  0.10566000000E+00 0. -1.
         22    1    1    0    0    0 -0.18694250794E+02  0.20177452789E+02 -0.84032733255E+01  0.28761425841E+02  0.00000000000E+00 0.  1.
</event>
<event>
 5    1  0.1315753E-009  0.9118800E+02  0.7818608E-02  0.1130116E+00
         25   -1    0    0    0    0  0.00000000000E+00  0.00000000000E+00  0.99999998245E-14  0.12500000000E+03  0.12500000000E+03 0.  0.
        -13    1    3    3    0    0 -0.55871898106E+01 -0.10550453473E+02  0.31425676754E+02  0.33617154579E+02  0.10566000000E+00 0. -1.
         23    2    1    0    0    0  0.93802926413E+01  0.18229952548E+02 -0.21244787279E+02  0.95476076709E+02  0.90796581309E+02 0.  0.
         13    1    3    3    0    0  0.14967482452E+02  0.28780406021E+02 -0.52670464033E+02  0.61858922131E+02  0.10566000000E+00 0.  1.
         22    1    1    0    0    0 -0.93802926413E+01 -0.18229952548E+02  0.21244787279E+02  0.29523923291E+02  0.00000000000E+00 0.  1.
</event>
<event>
 5    1  0.1315753E-009  0.9118800E+02  0.7818608E-02  0.1130116E+00
         25   -1    0    0    0    0  0.00000000000E+00  0.00000000000E+00  0.99999998245E-14  0.12500000000E+03  0.12500000000E+03 0.  0.
        -13    1    3    3    0    0 -0.12658555405E+02 -0.27526134977E+02  0.14337748224E+02  0.33518790549E+02  0.10566000000E+00 0.  1.
         23    2    1    0    0    0  0.81560950420E+01  0.23127344201E+02 -0.15604081739E+02  0.95933123611E+02  0.91423634267E+02 0.  0.
         13    1    3    3    0    0  0.20814650447E+02  0.50653479178E+02 -0.29941829962E+02  0.62414333062E+02  0.10566000000E+00 0. -1.
         22    1    1    0    0    0 -0.81560950420E+01 -0.23127344201E+02  0.15604081739E+02  0.29066876389E+02  0.00000000000E+00 0. -1.
</event>
<event>
 5    1  0.1315753E-009  0.9118800E+02  0.7818608E-02  0.1130116E+00
         25   -1    0    0    0    0  0.00000000000E+00  0.00000000000E+00  0.99999998245E-14  0.12500000000E+03  0.12500000000E+03 0.  0.
        -13    1    3    3    0    0  0.17480125833E+02  0.81687887570E+00  0.38257866538E+02  0.42070151014E+02  0.10566000000E+00 0. -1.
         23    2    1    0    0    0  0.24558595189E+02 -0.53841395347E+01 -0.14712306998E+02  0.95869851813E+02  0.91337084217E+02 0.  0.
         13    1    3    3    0    0  0.70784693557E+01 -0.62010184104E+01 -0.52970173535E+02  0.53799700800E+02  0.10566000000E+00 0.  1.
         22    1    1    0    0    0 -0.24558595189E+02  0.53841395347E+01  0.14712306998E+02  0.29130148187E+02  0.00000000000E+00 0.  1.
</event>
<event>
 5    1  0.1315753E-009  0.9118800E+02  0.7818608E-02  0.1130116E+00
         25   -1    0    0    0    0  0.00000000000E+00  0.00000000000E+00  0.99999998245E-14  0.12500000000E+03  0.12500000000E+03 0.  0.
        -13    1    3    3    0    0 -0.22251350153E+02  0.65272449230E+01  0.26066654474E+02  0.34888524610E+02  0.10566000000E+00 0. -1.
         23    2    1    0    0    0  0.17929791841E+02 -0.60586156614E+01 -0.20113099489E+02  0.97382595519E+02  0.93384414544E+02 0.  0.
         13    1    3    3    0    0  0.40181141994E+02 -0.12585860584E+02 -0.46179753964E+02  0.62494070909E+02  0.10566000000E+00 0.  1.
         22    1    1    0    0    0 -0.17929791841E+02  0.60586156614E+01  0.20113099489E+02  0.27617404481E+02  0.00000000000E+00 0.  1.
</event>
<event>
 5    1  0.1315753E-009  0.9118800E+02  0.7818608E-02  0.1130116E+00
         25   -1    0    0    0    0  0.00000000000E+00  0.00000000000E+00  0.99999998245E-14  0.12500000000E+03  0.12500000000E+03 0.  0.
        -13    1    3    3    0    0  0.48119105008E+02 -0.34518111276E+02 -0.64995113577E+01  0.59575188499E+02  0.10566000000E+00 0. -1.
         23    2    1    0    0    0  0.19572682954E+02 -0.13240154104E+02 -0.16045505701E+02  0.96436914524E+02  0.92109872604E+02 0.  0.
         13    1    3    3    0    0 -0.28546422054E+02  0.21277957172E+02 -0.95459943430E+01  0.36861726025E+02  0.10566000000E+00 0.  1.
         22    1    1    0    0    0 -0.19572682954E+02  0.13240154104E+02  0.16045505701E+02  0.28563085476E+02  0.00000000000E+00 0. -1.
</event>
<event>
 5    1  0.1315753E-009  0.9118800E+02  0.7818608E-02  0.1130116E+00
         25   -1    0    0    0    0  0.00000000000E+00  0.00000000000E+00  0.99999998245E-14  0.12500000000E+03  0.12500000000E+03 0.  0.
        -13    1    3    3    0    0 -0.53877672565E+01 -0.83131975969E+01 -0.39561381316E+02  0.40782978630E+02  0.10566000000E+00 0. -1.
         23    2    1    0    0    0  0.21820936944E+02  0.18102891588E+02  0.14115454555E+01  0.96612318983E+02  0.92347602816E+02 0.  0.
         13    1    3    3    0    0  0.27208704200E+02  0.26416089185E+02  0.40972926771E+02  0.55829340353E+02  0.10566000000E+00 0.  1.
         22    1    1    0    0    0 -0.21820936944E+02 -0.18102891588E+02 -0.14115454555E+01  0.28387681017E+02  0.00000000000E+00 0.  1.
</event>
<event>
 5    1  0.1315753E-009  0.9118800E+02  0.7818608E-02  0.1130116E+00
         25   -1    0    0    0    0  0.00000000000E+00  0.00000000000E+00  0.99999998245E-14  0.12500000000E+03  0.12500000000E+03 0.  0.
        -13    1    3    3    0    0 -0.27135640548E+02 -0.25309686431E+02  0.61938455312E+01  0.37620447920E+02  0.10566000000E+00 0.  1.
         23    2    1    0    0    0 -0.94186541658E+01  0.26987154199E+02 -0.92516463323E+01  0.94956523206E+02  0.90078470243E+02 0.  0.
         13    1    3    3    0    0  0.17716986382E+02  0.52296840629E+02 -0.15445491863E+02  0.57336075286E+02  0.10566000000E+00 0. -1.
         22    1    1    0    0    0  0.94186541658E+01 -0.26987154199E+02  0.92516463323E+01  0.30043476794E+02  0.00000000000E+00 0.  1.
</event>
<event>
 5    1  0.1315753E-009  0.9118800E+02  0.7818608E-02  0.1130116E+00
         25   -1    0    0    0    0  0.00000000000E+00  0.00000000000E+00  0.99999998245E-14  0.12500000000E+03  0.12500000000E+03 0.  0.
        -13    1    3    3    0    0  0.33156543164E+02 -0.39572263416E+01  0.41657655671E+02  0.53389019798E+02  0.10566000000E+00 0. -1.
         23    2    1    0    0    0 -0.72235608847E+01 -0.25058284310E+01  0.27896979338E+02  0.96074224917E+02  0.91616353503E+02 0.  0.
         13    1    3    3    0    0 -0.40380104049E+02  0.14513979106E+01 -0.13760676334E+02  0.42685205119E+02  0.10566000000E+00 0.  1.
         22    1    1    0    0    0  0.72235608847E+01  0.25058284310E+01 -0.27896979338E+02  0.28925775083E+02  0.00000000000E+00 0. -1.
</event>
<event>
 5    1  0.1315753E-009  0.9118800E+02  0.7818608E-02  0.1130116E+00
         25   -1    0    0    0    0  0.00000000000E+00  0.00000000000E+00  0.99999998245E-14  0.12500000000E+03  0.12500000000E+03 0.  0.
        -13    1    3    3    0    0  0.33608576000E+02  0.19520972133E+01  0.19936114366E+02  0.39125527272E+02  0.10566000000E+00 0.  1.
         23    2    1    0    0    0 -0.21437540231E+02 -0.42706361558E+00  0.22023475438E+02  0.94262661389E+02  0.89110410993E+02 0.  0.
         13    1    3    3    0    0 -0.55046116231E+02 -0.23791608289E+01  0.20873610718E+01  0.55137134117E+02  0.10566000000E+00 0. -1.
         22    1    1    0    0    0  0.21437540231E+02  0.42706361558E+00 -0.22023475438E+02  0.30737338611E+02  0.00000000000E+00 0. -1.
</event>
<event>
 5    1  0.1315753E-009  0.9118800E+02  0.7818608E-02  0.1130116E+00
         25   -1    0    0    0    0  0.00000000000E+00  0.00000000000E+00  0.99999998245E-14  0.12500000000E+03  0.12500000000E+03 0.  0.
        -13    1    3    3    0    0  0.41044354667E+02 -0.31301128969E+02 -0.27050992618E+02  0.58276642752E+02  0.10566000000E+00 0. -1.
         23    2    1    0    0    0  0.70831886464E+01 -0.13195127489E+02 -0.23773935481E+02  0.96902260605E+02  0.92739231996E+02 0.  0.
         13    1    3    3    0    0 -0.33961166020E+02  0.18106001480E+02  0.32770571372E+01  0.38625617854E+02  0.10566000000E+00 0.  1.
         22    1    1    0    0    0 -0.70831886464E+01  0.13195127489E+02  0.23773935481E+02  0.28097739395E+02  0.00000000000E+00 0. -1.
</event>
<event>
 5    1  0.1315753E-009  0.9118800E+02  0.7818608E-02  0.1130116E+00
         25   -1    0    0    0    0  0.00000000000E+00  0.00000000000E+00  0.99999998245E-14  0.12500000000E+03  0.12500000000E+03 0.  0.
        -13    1    3    3    0    0 -0.28759169346E+02  0.28329832753E+02  0.14601580731E+02  0.42928854738E+02  0.10566000000E+00 0.  1.
         23    2    1    0    0    0 -0.19234748165E+02 -0.60689429819E+01 -0.22752684012E+02  0.94594536089E+02  0.89574739867E+02 0.  0.
         13    1    3    3    0    0  0.95244211809E+01 -0.34398775735E+02 -0.37354264743E+02  0.51665681350E+02  0.10566000000E+00 0. -1.
         22    1    1    0    0    0  0.19234748165E+02  0.60689429819E+01  0.22752684012E+02  0.30405463911E+02  0.00000000000E+00 0.  1.
</event>
<event>
 5    1  0.1315753E-009  0.9118800E+02  0.7818608E-02  0.1130116E+00
         25   -1    0    0    0    0  0.00000000000E+00  0.00000000000E+00  0.99999998245E-14  0.12500000000E+03  0.12500000000E+03 0.  0.
        -13    1    3    3    0    0 -0.27883215271E+02  0.18195869166E+00 -0.30513507306E+02  0.41335119390E+02  0.10566000000E+00 0. -1.
         23    2    1    0    0    0 -0.40385970823E+01 -0.27673974603E+02  0.93625542453E+01  0.95507347378E+02  0.90839621556E+02 0.  0.
         13    1    3    3    0    0  0.23844618189E+02 -0.27855933294E+02  0.39876061552E+02  0.54172227988E+02  0.10566000000E+00 0.  1.
         22    1    1    0    0    0  0.40385970823E+01  0.27673974603E+02 -0.93625542453E+01  0.29492652622E+02  0.00000000000E+00 0. -1.
</event>
<event>
 4    1  0.1315753E-009  0.9118800E+02  0.7818608E-02  0.1130116E+00
         25   -1    0    0    0    0  0.00000000000E+00  0.00000000000E+00  0.99999998245E-14  0.12500000000E+03  0.12500000000E+03 0.  0.
        -13    1    1    0    0    0 -0.95434784265E+01  0.15673288278E+02 -0.79751200384E+01  0.20008589395E+02  0.10566000000E+00 0. -1.
         13    1    1    0    0    0 -0.40141941861E+01  0.77261601796E+01  0.52326150644E+02  0.53045683249E+02  0.10566000000E+00 0.  1.
         22    1    1    0    0    0  0.13557672613E+02 -0.23399448457E+02 -0.44351030606E+02  0.51945727356E+02  0.00000000000E+00 0.  1.
</event>
<event>
 5    1  0.1315753E-009  0.9118800E+02  0.7818608E-02  0.1130116E+00
         25   -1    0    0    0    0  0.00000000000E+00  0.00000000000E+00  0.99999998245E-14  0.12500000000E+03  0.12500000000E+03 0.  0.
        -13    1    3    3    0    0 -0.28606346243E+02 -0.17368549573E+02  0.18055932510E+02  0.38026535768E+02  0.10566000000E+00 0. -1.
         23    2    1    0    0    0 -0.28469193285E+01  0.65891532446E+01 -0.28064611353E+02  0.96032012487E+02  0.91558741373E+02 0.  0.
         13    1    3    3    0    0  0.25759426915E+02  0.23957702817E+02 -0.46120543863E+02  0.58005476720E+02  0.10566000000E+00 0.  1.
         22    1    1    0    0    0  0.28469193285E+01 -0.65891532446E+01  0.28064611353E+02  0.28967987513E+02  0.00000000000E+00 0.  1.
</event>
<event>
 5    1  0.1315753E-009  0.9118800E+02  0.7818608E-02  0.1130116E+00
         25   -1    0    0    0    0  0.00000000000E+00  0.00000000000E+00  0.99999998245E-14  0.12500000000E+03  0.12500000000E+03 0.  0.
        -13    1    3    3    0    0  0.48003408352E+02  0.17247158955E+02 -0.18611552456E+02  0.54297262862E+02  0.10566000000E+00 0. -1.
         23    2    1    0    0    0  0.24133181615E+02 -0.13743688890E+02 -0.14609113093E+02  0.93619661816E+02  0.88203829021E+02 0.  0.
         13    1    3    3    0    0 -0.23870226737E+02 -0.30990847845E+02  0.40024393627E+01  0.39322398954E+02  0.10566000000E+00 0.  1.
         22    1    1    0    0    0 -0.24133181615E+02  0.13743688890E+02  0.14609113093E+02  0.31380338184E+02  0.00000000000E+00 0. -1.
</event>
<event>
 5    1  0.1315753E-009  0.9118800E+02  0.7818608E-02  0.1130116E+00
         25   -1    0    0    0    0  0.00000000000E+00  0.00000000000E+00  0.99999998245E-14  0.12500000000E+03  0.12500000000E+03 0.  0.
        -13    1    3    3    0    0  0.34077341429E+02  0.96752488655E+01  0.21327511647E+02  0.41349117966E+02  0.10566000000E+00 0.  1.
         23    2    1    0    0    0 -0.83290282228E+01 -0.23069836780E+02  0.17114161520E+02  0.95092064519E+02  0.90266362117E+02 0.  0.
         13    1    3    3    0    0 -0.42406369651E+02 -0.32745085645E+02 -0.42133501268E+01  0.53742946554E+02  0.10566000000E+00 0. -1.
         22    1    1    0    0    0  0.83290282228E+01  0.23069836780E+02 -0.17114161520E+02  0.29907935481E+02  0.00000000000E+00 0. -1.
</event>
<event>
 5    1  0.1315753E-009  0.9118800E+02  0.7818608E-02  0.1130116E+00
         25   -1    0    0    0    0  0.00000000000E+00  0.00000000000E+00  0.99999998245E-14  0.12500000000E+03  0.12500000000E+03 0.  0.
        -13    1    3    3    0    0  0.11936800783E+02  0.47430485788E+02  0.83015754289E+01  0.49609127322E+02  0.10566000000E+00 0.  1.
         23    2    1    0    0    0 -0.19010055941E+01  0.16790038264E+02 -0.23612246870E+02  0.95964549092E+02  0.91466591021E+02 0.  0.
         13    1    3    3    0    0 -0.13837806377E+02 -0.30640447523E+02 -0.31913822299E+02  0.46355421770E+02  0.10566000000E+00 0. -1.
         22    1    1    0    0    0  0.19010055941E+01 -0.16790038264E+02  0.23612246870E+02  0.29035450908E+02  0.00000000000E+00 0.  1.
</event>
<event>
 5    1  0.1315753E-009  0.9118800E+02  0.7818608E-02  0.1130116E+00
         25   -1    0    0    0    0  0.00000000000E+00  0.00000000000E+00  0.99999998245E-14  0.12500000000E+03  0.12500000000E+03 0.  0.
        -13    1    3    3    0    0  0.11957626369E+02  0.46216789285E+02  0.22266384173E+02  0.52676175530E+02  0.10566000000E+00 0.  1.
         23    2    1    0    0    0  0.24263303017E+02  0.56039255888E+01  0.15552313801E+02  0.95640396463E+02  0.91022519827E+02 0.  0.
         13    1    3    3    0    0  0.12305676648E+02 -0.40612863697E+02 -0.67140703724E+01  0.42964220933E+02  0.10566000000E+00 0. -1.
         22    1    1    0    0    0 -0.24263303017E+02 -0.56039255888E+01 -0.15552313801E+02  0.29359603537E+02  0.00000000000E+00 0.  1.
</event>
<event>
 5    1  0.1315753E-009  0.9118800E+02  0.7818608E-02  0.1130116E+00
         25   -1    0    0    0    0  0.00000000000E+00  0.00000000000E+00  0.99999998245E-14  0.12500000000E+03  0.12500000000E+03 0.  0.
        -13    1    3    3    0    0  0.46049056175E+02 -0.32917429484E+02  0.12910889329E+02  0.58058375500E+02  0.10566000000E+00 0.  1.
         23    2    1    0    0    0  0.21104553946E+02 -0.37059981528E+01  0.18267124686E+02  0.96842861227E+02  0.92659135043E+02 0.  0.
         13    1    3    3    0    0 -0.24944502229E+02  0.29211431331E+02  0.53562353570E+01  0.38784485727E+02  0.10566000000E+00 0. -1.
         22    1    1    0    0    0 -0.21104553946E+02  0.37059981528E+01 -0.18267124686E+02  0.28157138773E+02  0.00000000000E+00 0.  1.
</event>
<event>
 5    1  0.1315753E-009  0.9118800E+02  0.7818608E-02  0.1130116E+00
         25   -1    0    0    0    0  0.00000000000E+00  0.00000000000E+00  0.99999998245E-14  0.12500000000E+03  0.12500000000E+03 0.  0.
        -13    1    3    3    0    0 -0.48025706043E+02 -0.17887062897E+02  0.26589779229E+02  0.57735976510E+02  0.10566000000E+00 0.  1.
         23    2    1    0    0    0 -0.10800312381E+02 -0.16096309982E+02  0.22612809695E+02  0.95216160341E+02  0.90438045563E+02 0.  0.
         13    1    3    3    0    0  0.37225393662E+02  0.17907529152E+01 -0.39769695341E+01  0.37480183831E+02  0.10566000000E+00 0. -1.
         22    1    1    0    0    0  0.10800312381E+02  0.16096309982E+02 -0.22612809695E+02  0.29783839659E+02  0.00000000000E+00 0.  1.
</event>
<event>
 5    1  0.1315753E-009  0.9118800E+02  0.7818608E-02  0.1130116E+00
         25   -1    0    0    0    0  0.00000000000E+00  0.00000000000E+00  0.99999998245E-14  0.12500000000E+03  0.12500000000E+03 0.  0.
        -13    1    3    3    0    0 -0.28756028550E+02 -0.38783706877E+01  0.73854511354E+01  0.29941726565E+02  0.10566000000E+00 0.  1.
         23    2    1    0    0    0  0.30999868321E+02  0.89246894957E+01  0.10337484541E+02  0.91125149371E+02  0.84594842294E+02 0.  0.
         13    1    3    3    0    0  0.59755896872E+02  0.12803060183E+02  0.29520334053E+01  0.61183422806E+02  0.10566000000E+00 0. -1.
         22    1    1    0    0    0 -0.30999868321E+02 -0.89246894957E+01 -0.10337484541E+02  0.33874850629E+02  0.00000000000E+00 0. -1.
</event>
<event>
 5    1  0.1315753E-009  0.9118800E+02  0.7818608E-02  0.1130116E+00
         25   -1    0    0    0    0  0.00000000000E+00  0.00000000000E+00  0.99999998245E-14  0.12500000000E+03  0.12500000000E+03 0.  0.
        -13    1    3    3    0    0 -0.51684730528E+02 -0.21561611658E+01 -0.14884846997E+02  0.53828711993E+02  0.10566000000E+00 0. -1.
         23    2    1    0    0    0 -0.24396613383E+02 -0.31776804242E+01  0.16458959529E+02  0.95399497534E+02  0.90691093188E+02 0.  0.
         13    1    3    3    0    0  0.27288117145E+02 -0.10215192585E+01  0.31343806526E+02  0.41570785541E+02  0.10566000000E+00 0.  1.
         22    1    1    0    0    0  0.24396613383E+02  0.31776804242E+01 -0.16458959529E+02  0.29600502466E+02  0.00000000000E+00 0. -1.
</event>
<event>
 5    1  0.1315753E-009  0.9118800E+02  0.7818608E-02  0.1130116E+00
         25   -1    0    0    0    0  0.00000000000E+00  0.00000000000E+00  0.99999998245E-14  0.12500000000E+03  0.12500000000E+03 0.  0.
        -13    1    3    3    0    0 -0.45596545343E+02  0.34674182190E+02 -0.14356586038E+02  0.59054776136E+02  0.10566000000E+00 0. -1.
         23    2    1    0    0    0 -0.12198770290E+02  0.26400184928E+02 -0.11968009966E+01  0.95893091998E+02  0.91368884197E+02 0.  0.
         13    1    3    3    0    0  0.33397775053E+02 -0.82739972616E+01  0.13159785042E+02  0.36838315862E+02  0.10566000000E+00 0.  1.
         22    1    1    0    0    0  0.12198770290E+02 -0.26400184928E+02  0.11968009966E+01  0.29106908002E+02  0.00000000000E+00 0.  1.
</event>
<event>
 5    1  0.1315753E-009  0.9118800E+02  0.7818608E-02  0.1130116E+00
         25   -1    0    0    0    0  0.00000000000E+00  0.00000000000E+00  0.99999998245E-14  0.12500000000E+03  0.12500000000E+03 0.  0.
        -13    1    3    3    0    0 -0.49447847630E+00  0.46335186925E+02 -0.13574000134E+02  0.48285180957E+02  0.10566000000E+00 0. -1.
         23    2    1    0    0    0  0.23802553913E+02  0.14294139516E+02  0.10687724532E+02  0.95249177272E+02  0.90483668792E+02 0.  0.
         13    1    3    3    0    0  0.24297032390E+02 -0.32041047410E+02  0.24261724667E+02  0.46963996315E+02  0.10566000000E+00 0.  1.
         22    1    1    0    0    0 -0.23802553913E+02 -0.14294139516E+02 -0.10687724532E+02  0.29750822728E+02  0.00000000000E+00 0. -1.
</event>
<event>
 5    1  0.1315753E-009  0.9118800E+02  0.7818608E-02  0.1130116E+00
         25   -1    0    0    0    0  0.00000000000E+00  0.00000000000E+00  0.99999998245E-14  0.12500000000E+03  0.12500000000E+03 0.  0.
        -13    1    3    3    0    0  0.10903002577E+02 -0.40414027515E+02 -0.17710624853E+02  0.45451583932E+02  0.10566000000E+00 0. -1.
         23    2    1    0    0    0  0.20029134094E+02 -0.41142208517E+01  0.18423430584E+02  0.97476994709E+02  0.93510687503E+02 0.  0.
         13    1    3    3    0    0  0.91261315165E+01  0.36299806663E+02  0.36134055437E+02  0.52025410778E+02  0.10566000000E+00 0.  1.
         22    1    1    0    0    0 -0.20029134094E+02  0.41142208517E+01 -0.18423430584E+02  0.27523005291E+02  0.00000000000E+00 0.  1.
</event>
<event>
 5    1  0.1315753E-009  0.9118800E+02  0.7818608E-02  0.1130116E+00
         25   -1    0    0    0    0  0.00000000000E+00  0.00000000000E+00  0.99999998245E-14  0.12500000000E+03  0.12500000000E+03 0.  0.
        -13    1    3    3    0    0  0.46922020667E+02 -0.32159803454E+02  0.76426538902E+01  0.57396431110E+02  0.10566000000E+00 0.  1.
         23    2    1    0    0    0  0.24640988043E+02  0.22303259759E+01  0.96986980684E+01  0.98425249015E+02  0.94769785553E+02 0.  0.
         13    1    3    3    0    0 -0.22281032624E+02  0.34390129430E+02  0.20560441782E+01  0.41028817905E+02  0.10566000000E+00 0. -1.
         22    1    1    0    0    0 -0.24640988043E+02 -0.22303259759E+01 -0.96986980684E+01  0.26574750985E+02  0.00000000000E+00 0.  1.
</event>
<event>
 5    1  0.1315753E-009  0.9118800E+02  0.7818608E-02  0.1130116E+00
         25   -1    0    0    0    0  0.00000000000E+00  0.00000000000E+00  0.99999998245E-14  0.12500000000E+03  0.12500000000E+03 0.  0.
        -13    1    3    3    0    0 -0.50458714126E+02  0.17092998216E+01  0.17500040094E+02  0.53434690085E+02  0.10566000000E+00 0.  1.
         23    2    1    0    0    0 -0.81499980599E+01  0.11996210944E+02  0.23497484980E+02  0.97387261168E+02  0.93390659555E+02 0.  0.
         13    1    3    3    0    0  0.42308716066E+02  0.10286911122E+02  0.59974448862E+01  0.43952571083E+02  0.10566000000E+00 0. -1.
         22    1    1    0    0    0  0.81499980599E+01 -0.11996210944E+02 -0.23497484980E+02  0.27612738832E+02  0.00000000000E+00 0. -1.
</event>
<event>
 5    1  0.1315753E-009  0.9118800E+02  0.7818608E-02  0.1130116E+00
         25   -1    0    0    0    0  0.00000000000E+00  0.00000000000E+00  0.99999998245E-14  0.12500000000E+03  0.12500000000E+03 0.  0.
        -13    1    3    3    0    0  0.20622916209E+02 -0.11681452982E+02 -0.33730987103E+02  0.41225619118E+02  0.10566000000E+00 0.  1.
         23    2    1    0    0    0 -0.24392969802E+02 -0.18850564969E+02 -0.10170669161E+02  0.92537663568E+02  0.86656886005E+02 0.  0.
         13    1    3    3    0    0 -0.45015886011E+02 -0.71691119869E+01  0.23560317942E+02  0.51312044450E+02  0.10566000000E+00 0. -1.
         22    1    1    0    0    0  0.24392969802E+02  0.18850564969E+02  0.10170669161E+02  0.32462336432E+02  0.00000000000E+00 0. -1.
</event>
<event>
 5    1  0.1315753E-009  0.9118800E+02  0.7818608E-02  0.1130116E+00
         25   -1    0    0    0    0  0.00000000000E+00  0.00000000000E+00  0.99999998245E-14  0.12500000000E+03  0.12500000000E+03 0.  0.
        -13    1    3    3    0    0 -0.15171215054E+02 -0.34034857382E+02 -0.42886915497E+02  0.56814047278E+02  0.10566000000E+00 0. -1.
         23    2    1    0    0    0  0.10378002270E+02 -0.11462674612E+02 -0.25733027369E+02  0.94978598668E+02  0.90109098691E+02 0.  0.
         13    1    3    3    0    0  0.25549217324E+02  0.22572182770E+02  0.17153888128E+02  0.38164551390E+02  0.10566000000E+00 0.  1.
         22    1    1    0    0    0 -0.10378002270E+02  0.11462674612E+02  0.25733027369E+02  0.30021401332E+02  0.00000000000E+00 0. -1.
</event>
<event>
 5    1  0.1315753E-009  0.9118800E+02  0.7818608E-02  0.1130116E+00
         25   -1    0    0    0    0  0.00000000000E+00  0.00000000000E+00  0.99999998245E-14  0.12500000000E+03  0.12500000000E+03 0.  0.
        -13    1    3    3    0    0 -0.22700760636E+02 -0.14910652922E+02 -0.55145526056E+02  0.61471068903E+02  0.10566000000E+00 0.  1.
         23    2    1    0    0    0 -0.15556675532E+02 -0.64752056441E+00 -0.26130334852E+02  0.94582507730E+02  0.89557952927E+02 0.  0.
         13    1    3    3    0    0  0.71440851037E+01  0.14263132358E+02  0.29015191203E+02  0.33111438828E+02  0.10566000000E+00 0. -1.
         22    1    1    0    0    0  0.15556675532E+02  0.64752056441E+00  0.26130334852E+02  0.30417492270E+02  0.00000000000E+00 0.  1.
</event>
<event>
 5    1  0.1315753E-009  0.9118800E+02  0.7818608E-02  0.1130116E+00
         25   -1    0    0    0    0  0.00000000000E+00  0.00000000000E+00  0.99999998245E-14  0.12500000000E+03  0.12500000000E+03 0.  0.
        -13    1    3    3    0    0 -0.28361648974E+02  0.35385049848E+02 -0.13485747633E+02  0.47311324633E+02  0.10566000000E+00 0. -1.
         23    2    1    0    0    0  0.58303191651E+01  0.53814004564E+01 -0.28657475354E+02  0.95264449120E+02  0.90504763853E+02 0.  0.
         13    1    3    3    0    0  0.34191968139E+02 -0.30003649392E+02 -0.15171727721E+02  0.47953124487E+02  0.10566000000E+00 0.  1.
         22    1    1    0    0    0 -0.58303191651E+01 -0.53814004564E+01  0.28657475354E+02  0.29735550880E+02  0.00000000000E+00 0. -1.
</event>
<event>
 5    1  0.1315753E-009  0.9118800E+02  0.7818608E-02  0.1130116E+00
         25   -1    0    0    0    0  0.00000000000E+00  0.00000000000E+00  0.99999998245E-14  0.12500000000E+03  0.12500000000E+03 0.  0.
        -13    1    3    3    0    0  0.46151391045E+02  0.12200304015E+01  0.55318302076E+01  0.46497867468E+02  0.10566000000E+00 0.  1.
         23    2    1    0    0    0  0.10657571763E+02 -0.10775758091E+02 -0.25626412137E+02  0.95227297782E+02  0.90453437998E+02 0.  0.
         13    1    3    3    0    0 -0.35493819282E+02 -0.11995788492E+02 -0.31158242345E+02  0.48729430315E+02  0.10566000000E+00 0. -1.
         22    1    1    0    0    0 -0.10657571763E+02  0.10775758091E+02  0.25626412137E+02  0.29772702218E+02  0.00000000000E+00 0. -1.
</event>
<event>
 5    1  0.1315753E-009  0.9118800E+02  0.7818608E-02  0.1130116E+00
         25   -1    0    0    0    0  0.00000000000E+00  0.00000000000E+00  0.99999998245E-14  0.12500000000E+03  0.12500000000E+03 0.  0.
        -13    1    3    3    0    0 -0.36531050988E+01 -0.25117234374E+02  0.17246024443E+02  0.30686432875E+02  0.10566000000E+00 0.  1.
         23    2    1    0    0    0  0.22026683090E+02  0.46318118435E+01 -0.26988683594E+02  0.89857184361E+02  0.82700036821E+02 0.  0.
         13    1    3    3    0    0  0.25679788188E+02  0.29749046218E+02 -0.44234708037E+02  0.59170751486E+02  0.10566000000E+00 0. -1.
         22    1    1    0    0    0 -0.22026683090E+02 -0.46318118435E+01  0.26988683594E+02  0.35142815639E+02  0.00000000000E+00 0. -1.
</event>
<event>
 5    1  0.1315753E-009  0.9118800E+02  0.7818608E-02  0.1130116E+00
         25   -1    0    0    0    0  0.00000000000E+00  0.00000000000E+00  0.99999998245E-14  0.12500000000E+03  0.12500000000E+03 0.  0.
        -13    1    3    3    0    0  0.15038879563E+02  0.14047811422E+02 -0.34720132822E+02  0.40360967425E+02  0.10566000000E+00 0. -1.
         23    2    1    0    0    0 -0.18087633136E+02  0.10821769840E+02  0.14239871385E+02  0.99562879251E+02  0.96258609032E+02 0.  0.
         13    1    3    3    0    0 -0.33126512698E+02 -0.32260415816E+01  0.48960004207E+02  0.59201911826E+02  0.10566000000E+00 0.  1.
         22    1    1    0    0    0  0.18087633136E+02 -0.10821769840E+02 -0.14239871385E+02  0.25437120749E+02  0.00000000000E+00 0.  1.
</event>
<event>
 5    1  0.1315753E-009  0.9118800E+02  0.7818608E-02  0.1130116E+00
         25   -1    0    0    0    0  0.00000000000E+00  0.00000000000E+00  0.99999998245E-14  0.12500000000E+03  0.12500000000E+03 0.  0.
        -13    1    3    3    0    0  0.59971170725E+01  0.38375789047E+02  0.83733892321E+01  0.39734008222E+02  0.10566000000E+00 0.  1.
         23    2    1    0    0    0 -0.90508418661E+01 -0.18386105649E+02  0.16067964393E+02  0.98958761566E+02  0.95470887665E+02 0.  0.
         13    1    3    3    0    0 -0.15047958939E+02 -0.56761894696E+02  0.76945751607E+01  0.59224753344E+02  0.10566000000E+00 0. -1.
         22    1    1    0    0    0  0.90508418661E+01  0.18386105649E+02 -0.16067964393E+02  0.26041238434E+02  0.00000000000E+00 0. -1.
</event>
<event>
 5    1  0.1315753E-009  0.9118800E+02  0.7818608E-02  0.1130116E+00
         25   -1    0    0    0    0  0.00000000000E+00  0.00000000000E+00  0.99999998245E-14  0.12500000000E+03  0.12500000000E+03 0.  0.
        -13    1    3    3    0    0 -0.25428980869E+02  0.50395477995E+01 -0.30357919499E+02  0.39920477832E+02  0.10566000000E+00 0. -1.
         23    2    1    0    0    0  0.14349550246E+02  0.25620287372E+02  0.25891142696E+01  0.95520986618E+02  0.90858387914E+02 0.  0.
         13    1    3    3    0    0  0.39778531115E+02  0.20580739573E+02  0.32947033768E+02  0.55600508785E+02  0.10566000000E+00 0.  1.
         22    1    1    0    0    0 -0.14349550246E+02 -0.25620287372E+02 -0.25891142696E+01  0.29479013382E+02  0.00000000000E+00 0.  1.
</event>
<event>
 5    1  0.1315753E-009  0.9118800E+02  0.7818608E-02  0.1130116E+00
         25   -1    0    0    0    0  0.00000000000E+00  0.00000000000E+00  0.99999998245E-14  0.12500000000E+03  0.12500000000E+03 0.  0.
        -13    1    3    3    0    0 -0.43297099144E+01  0.32838127123E+02 -0.18959285602E+02  0.38164835325E+02  0.10566000000E+00 0.  1.
         23    2    1    0    0    0 -0.15379572466E+02 -0.22951309418E+02 -0.92760754224E+01  0.95856571435E+02  0.91318907455E+02 0.  0.
         13    1    3    3    0    0 -0.11049862552E+02 -0.55789436541E+02  0.96832101792E+01  0.57691736110E+02  0.10566000000E+00 0. -1.
         22    1    1    0    0    0  0.15379572466E+02  0.22951309418E+02  0.92760754224E+01  0.29143428565E+02  0.00000000000E+00 0. -1.
</event>
<event>
 5    1  0.1315753E-009  0.9118800E+02  0.7818608E-02  0.1130116E+00
         25   -1    0    0    0    0  0.00000000000E+00  0.00000000000E+00  0.99999998245E-14  0.12500000000E+03  0.12500000000E+03 0.  0.
        -13    1    3    3    0    0 -0.56284843589E+02 -0.78546241900E+01 -0.93257406498E+01  0.57590444882E+02  0.10566000000E+00 0.  1.
         23    2    1    0    0    0 -0.24146900103E+02 -0.20606808817E+02 -0.83314056396E+01  0.92180407161E+02  0.86140012713E+02 0.  0.
         13    1    3    3    0    0  0.32137943486E+02 -0.12752184627E+02  0.99433501027E+00  0.34589962279E+02  0.10566000000E+00 0. -1.
         22    1    1    0    0    0  0.24146900103E+02  0.20606808817E+02  0.83314056396E+01  0.32819592839E+02  0.00000000000E+00 0.  1.
</event>
<event>
 5    1  0.1315753E-009  0.9118800E+02  0.7818608E-02  0.1130116E+00
         25   -1    0    0    0    0  0.00000000000E+00  0.00000000000E+00  0.99999998245E-14  0.12500000000E+03  0.12500000000E+03 0.  0.
        -13    1    3    3    0    0  0.85846707987E+01  0.29253494334E+02 -0.42620988433E+02  0.52402512559E+02  0.10566000000E+00 0. -1.
         23    2    1    0    0    0  0.85139640492E+01  0.25408079674E+02  0.28647603062E+01  0.98050696704E+02  0.94274461950E+02 0.  0.
         13    1    3    3    0    0 -0.70706749460E-01 -0.38454146606E+01  0.45485748739E+02  0.45648184145E+02  0.10566000000E+00 0.  1.
         22    1    1    0    0    0 -0.85139640492E+01 -0.25408079674E+02 -0.28647603062E+01  0.26949303296E+02  0.00000000000E+00 0. -1.
</event>
<event>
 5    1  0.1315753E-009  0.9118800E+02  0.7818608E-02  0.1130116E+00
         25   -1    0    0    0    0  0.00000000000E+00  0.00000000000E+00  0.99999998245E-14  0.12500000000E+03  0.12500000000E+03 0.  0.
        -13    1    3    3    0    0 -0.53247346472E+02 -0.20971275721E+02 -0.42347071473E+01  0.57384825698E+02  0.10566000000E+00 0.  1.
         23    2    1    0    0    0 -0.19978775420E+02 -0.39334809991E+01 -0.18593515780E+02  0.97425690052E+02  0.93442081061E+02 0.  0.
         13    1    3    3    0    0  0.33268571052E+02  0.17037794722E+02 -0.14358808633E+02  0.40040864354E+02  0.10566000000E+00 0. -1.
         22    1    1    0    0    0  0.19978775420E+02  0.39334809991E+01  0.18593515780E+02  0.27574309948E+02  0.00000000000E+00 0.  1.
</event>
<event>
 5    1  0.1315753E-009  0.9118800E+02  0.7818608E-02  0.1130116E+00
         25   -1    0    0    0    0  0.00000000000E+00  0.00000000000E+00  0.99999998245E-14  0.12500000000E+03  0.12500000000E+03 0.  0.
        -13    1    3    3    0    0  0.31796952549E+02 -0.27895454615E+02  0.97933094039E+01  0.43417999179E+02  0.10566000000E+00 0.  1.
         23    2    1    0    0    0 -0.17753153961E+02 -0.12287865690E+02  0.19073902115E+02  0.96190628944E+02  0.91775036017E+02 0.  0.
         13    1    3    3    0    0 -0.49550106510E+02  0.15607588925E+02  0.92805927107E+01  0.52772629765E+02  0.10566000000E+00 0. -1.
         22    1    1    0    0    0  0.17753153961E+02  0.12287865690E+02 -0.19073902115E+02  0.28809371056E+02  0.00000000000E+00 0.  1.
</event>
<event>
 5    1  0.1315753E-009  0.9118800E+02  0.7818608E-02  0.1130116E+00
         25   -1    0    0    0    0  0.00000000000E+00  0.00000000000E+00  0.99999998245E-14  0.12500000000E+03  0.12500000000E+03 0.  0.
        -13    1    3    3    0    0  0.46359996206E+02 -0.72342944714E+01  0.11996177402E+02  0.48430400587E+02  0.10566000000E+00 0. -1.
         23    2    1    0    0    0  0.11901470339E+02  0.18303340982E+02  0.23587414183E+02  0.92859318688E+02  0.87119628512E+02 0.  0.
         13    1    3    3    0    0 -0.34458525867E+02  0.25537635454E+02  0.11591236781E+02  0.44428918101E+02  0.10566000000E+00 0.  1.
         22    1    1    0    0    0 -0.11901470339E+02 -0.18303340982E+02 -0.23587414183E+02  0.32140681312E+02  0.00000000000E+00 0.  1.
</event>
<event>
 5    1  0.1315753E-009  0.9118800E+02  0.7818608E-02  0.1130116E+00
         25   -1    0    0    0    0  0.00000000000E+00  0.00000000000E+00  0.99999998245E-14  0.12500000000E+03  0.12500000000E+03 0.  0.
        -13    1    3    3    0    0 -0.71020950536E+01 -0.11897918637E+02 -0.43301907705E+02  0.45465004091E+02  0.10566000000E+00 0. -1.
         23    2    1    0    0    0 -0.72408042208E+01 -0.18951767101E+02  0.12142103103E+02  0.10135619765E+03  0.98559877290E+02 0.  0.
         13    1    3    3    0    0 -0.13870916722E+00 -0.70538484641E+01  0.55444010808E+02  0.55891193555E+02  0.10566000000E+00 0.  1.
         22    1    1    0    0    0  0.72408042208E+01  0.18951767101E+02 -0.12142103103E+02  0.23643802355E+02  0.00000000000E+00 0. -1.
</event>
<event>
 5    1  0.1315753E-009  0.9118800E+02  0.7818608E-02  0.1130116E+00
         25   -1    0    0    0    0  0.00000000000E+00  0.00000000000E+00  0.99999998245E-14  0.12500000000E+03  0.12500000000E+03 0.  0.
        -13    1    3    3    0    0  0.19178311006E+02 -0.11230391562E+02  0.37504201086E+02  0.43594788344E+02  0.10566000000E+00 0.  1.
         23    2    1    0    0    0 -0.18580744091E+02  0.16165022144E+02  0.19452404082E+02  0.93616118525E+02  0.88198807425E+02 0.  0.
         13    1    3    3    0    0 -0.37759055097E+02  0.27395413706E+02 -0.18051797004E+02  0.50021330180E+02  0.10566000000E+00 0. -1.
         22    1    1    0    0    0  0.18580744091E+02 -0.16165022144E+02 -0.19452404082E+02  0.31383881475E+02  0.00000000000E+00 0. -1.
</event>
<event>
 5    1  0.1315753E-009  0.9118800E+02  0.7818608E-02  0.1130116E+00
         25   -1    0    0    0    0  0.00000000000E+00  0.00000000000E+00  0.99999998245E-14  0.12500000000E+03  0.12500000000E+03 0.  0.
        -13    1    3    3    0    0  0.48293621178E+02 -0.19279003303E+02  0.75782968575E+00  0.52005185172E+02  0.10566000000E+00 0. -1.
         23    2    1    0    0    0  0.35226237524E+02 -0.63013244795E+01 -0.23295944524E+02  0.82299935228E+02  0.70356121319E+02 0.  0.
         13    1    3    3    0    0 -0.13067383654E+02  0.12977678824E+02 -0.24053774210E+02  0.30294750056E+02  0.10566000000E+00 0.  1.
         22    1    1    0    0    0 -0.35226237524E+02  0.63013244795E+01  0.23295944524E+02  0.42700064772E+02  0.00000000000E+00 0. -1.
</event>
<event>
 5    1  0.1315753E-009  0.9118800E+02  0.7818608E-02  0.1130116E+00
         25   -1    0    0    0    0  0.00000000000E+00  0.00000000000E+00  0.99999998245E-14  0.12500000000E+03  0.12500000000E+03 0.  0.
        -13    1    3    3    0    0 -0.33108796296E+02  0.26723090345E+02  0.34404922939E+02  0.54717692169E+02  0.10566000000E+00 0.  1.
         23    2    1    0    0    0 -0.13486980629E+02 -0.33998425267E+01  0.31235916639E+02  0.90807309788E+02  0.84123881549E+02 0.  0.
         13    1    3    3    0    0  0.19621815667E+02 -0.30122932872E+02 -0.31690063004E+01  0.36089617619E+02  0.10566000000E+00 0. -1.
         22    1    1    0    0    0  0.13486980629E+02  0.33998425267E+01 -0.31235916639E+02  0.34192690212E+02  0.00000000000E+00 0.  1.
</event>
<event>
 5    1  0.1315753E-009  0.9118800E+02  0.7818608E-02  0.1130116E+00
         25   -1    0    0    0    0  0.00000000000E+00  0.00000000000E+00  0.99999998245E-14  0.12500000000E+03  0.12500000000E+03 0.  0.
        -13    1    3    3    0    0 -0.40026838206E+02 -0.14791022251E+02  0.36741802960E+02  0.56310686062E+02  0.10566000000E+00 0. -1.
         23    2    1    0    0    0 -0.18575997469E+02 -0.22367207564E+02  0.47914795094E+01  0.95532765110E+02  0.90874590934E+02 0.  0.
         13    1    3    3    0    0  0.21450840737E+02 -0.75761853132E+01 -0.31950323450E+02  0.39222079048E+02  0.10566000000E+00 0.  1.
         22    1    1    0    0    0  0.18575997469E+02  0.22367207564E+02 -0.47914795094E+01  0.29467234890E+02  0.00000000000E+00 0.  1.
</event>
<event>
 5    1  0.1315753E-009  0.9118800E+02  0.7818608E-02  0.1130116E+00
         25   -1    0    0    0    0  0.00000000000E+00  0.00000000000E+00  0.99999998245E-14  0.12500000000E+03  0.12500000000E+03 0.  0.
        -13    1    3    3    0    0 -0.63906567179E+01  0.21380265729E+02  0.23438689401E+02  0.32362626296E+02  0.10566000000E+00 0.  1.
         23    2    1    0    0    0  0.19747240635E+02 -0.13542671173E+02 -0.19909246883E+02  0.93859422506E+02  0.88542959215E+02 0.  0.
         13    1    3    3    0    0  0.26137897353E+02 -0.34922936902E+02 -0.43347936284E+02  0.61496796210E+02  0.10566000000E+00 0. -1.
         22    1    1    0    0    0 -0.19747240635E+02  0.13542671173E+02  0.19909246883E+02  0.31140577494E+02  0.00000000000E+00 0. -1.
</event>
<event>
 5    1  0.1315753E-009  0.9118800E+02  0.7818608E-02  0.1130116E+00
         25   -1    0    0    0    0  0.00000000000E+00  0.00000000000E+00  0.99999998245E-14  0.12500000000E+03  0.12500000000E+03 0.  0.
        -13    1    3    3    0    0  0.25651390053E+02 -0.33591301954E+02 -0.29320726772E+02  0.51440116262E+02  0.10566000000E+00 0. -1.
         23    2    1    0    0    0 -0.23322800422E+01  0.11866909308E+01 -0.28799586919E+02  0.96081770935E+02  0.91626648600E+02 0.  0.
         13    1    3    3    0    0 -0.27983670096E+02  0.34777992884E+02  0.52113985276E+00  0.44641654672E+02  0.10566000000E+00 0.  1.
         22    1    1    0    0    0  0.23322800422E+01 -0.11866909308E+01  0.28799586919E+02  0.28918229065E+02  0.00000000000E+00 0.  1.
</event>
<event>
 5    1  0.1315753E-009  0.9118800E+02  0.7818608E-02  0.1130116E+00
         25   -1    0    0    0    0  0.00000000000E+00  0.00000000000E+00  0.99999998245E-14  0.12500000000E+03  0.12500000000E+03 0.  0.
        -13    1    3    3    0    0 -0.49612859692E+02  0.26493206407E+02 -0.13038600036E+02  0.57735102732E+02  0.10566000000E+00 0.  1.
         23    2    1    0    0    0 -0.11658840145E+02  0.21696718039E+02 -0.15207762522E+02  0.96052596522E+02  0.91586839287E+02 0.  0.
         13    1    3    3    0    0  0.37954019547E+02 -0.47964883679E+01 -0.21691624853E+01  0.38317493790E+02  0.10566000000E+00 0. -1.
         22    1    1    0    0    0  0.11658840145E+02 -0.21696718039E+02  0.15207762522E+02  0.28947403478E+02  0.00000000000E+00 0.  1.
</event>
<event>
 5    1  0.1315753E-009  0.9118800E+02  0.7818608E-02  0.1130116E+00
         25   -1    0    0    0    0  0.00000000000E+00  0.00000000000E+00  0.99999998245E-14  0.12500000000E+03  0.12500000000E+03 0.  0.
        -13    1    3    3    0    0 -0.53055986490E+02  0.13398617087E+02  0.12866828111E+02  0.56214118084E+02  0.10566000000E+00 0. -1.
         23    2    1    0    0    0 -0.36480148792E+02 -0.57135488546E+01 -0.57571204392E+01  0.87629017512E+02  0.79260673590E+02 0.  0.
         13    1    3    3    0    0  0.16575837698E+02 -0.19112165942E+02 -0.18623948550E+02  0.31414899427E+02  0.10566000000E+00 0.  1.
         22    1    1    0    0    0  0.36480148792E+02  0.57135488546E+01  0.57571204392E+01  0.37370982488E+02  0.00000000000E+00 0. -1.
</event>
<event>
 5    1  0.1315753E-009  0.9118800E+02  0.7818608E-02  0.1130116E+00
         25   -1    0    0    0    0  0.00000000000E+00  0.00000000000E+00  0.99999998245E-14  0.12500000000E+03  0.12500000000E+03 0.  0.
        -13    1    3    3    0    0  0.91022927874E+00  0.27102921627E+02 -0.35142611635E+02  0.44389313969E+02  0.10566000000E+00 0. -1.
         23    2    1    0    0    0 -0.23308576221E+02  0.19287952942E+02  0.73007217885E+01  0.93877413463E+02  0.88568354200E+02 0.  0.
         13    1    3    3    0    0 -0.24218805500E+02 -0.78149686852E+01  0.42443333424E+02  0.49488099494E+02  0.10566000000E+00 0.  1.
         22    1    1    0    0    0  0.23308576221E+02 -0.19287952942E+02 -0.73007217885E+01  0.31122586537E+02  0.00000000000E+00 0.  1.
</event>
<event>
 5    1  0.1315753E-009  0.9118800E+02  0.7818608E-02  0.1130116E+00
         25   -1    0    0    0    0  0.00000000000E+00  0.00000000000E+00  0.99999998245E-14  0.12500000000E+03  0.12500000000E+03 0.  0.
        -13    1    3    3    0    0  0.25434091630E+02 -0.35357920703E+02  0.31143581018E+02  0.53544461676E+02  0.10566000000E+00 0. -1.
         23    2    1    0    0    0  0.10761384509E+02  0.52992112518E+01  0.25089754956E+02  0.97190202443E+02  0.93126530112E+02 0.  0.
         13    1    3    3    0    0 -0.14672707121E+02  0.40657131955E+02 -0.60538260619E+01  0.43645740767E+02  0.10566000000E+00 0.  1.
         22    1    1    0    0    0 -0.10761384509E+02 -0.52992112518E+01 -0.25089754956E+02  0.27809797557E+02  0.00000000000E+00 0. -1.
</event>
<event>
 5    1  0.1315753E-009  0.9118800E+02  0.7818608E-02  0.1130116E+00
         25   -1    0    0    0    0  0.00000000000E+00  0.00000000000E+00  0.99999998245E-14  0.12500000000E+03  0.12500000000E+03 0.  0.
        -13    1    3    3    0    0 -0.31305281536E+02  0.19594704369E+01  0.47428799382E+02  0.56862662189E+02  0.10566000000E+00 0.  1.
         23    2    1    0    0    0  0.21160830633E+01  0.92183006164E+01  0.26269714704E+02  0.97079527503E+02  0.92977856912E+02 0.  0.
         13    1    3    3    0    0  0.33421364599E+02  0.72588301795E+01 -0.21159084677E+02  0.40216865314E+02  0.10566000000E+00 0. -1.
         22    1    1    0    0    0 -0.21160830633E+01 -0.92183006164E+01 -0.26269714704E+02  0.27920472497E+02  0.00000000000E+00 0.  1.
</event>
<event>
 5    1  0.1315753E-009  0.9118800E+02  0.7818608E-02  0.1130116E+00
         25   -1    0    0    0    0  0.00000000000E+00  0.00000000000E+00  0.99999998245E-14  0.12500000000E+03  0.12500000000E+03 0.  0.
        -13    1    3    3    0    0 -0.11065440794E+02  0.48080974539E+02 -0.24767490518E+02  0.55205650464E+02  0.10566000000E+00 0.  1.
         23    2    1    0    0    0 -0.25376696387E+02  0.15881125991E+02 -0.13084660641E+02  0.92328984921E+02  0.86355348591E+02 0.  0.
         13    1    3    3    0    0 -0.14311255592E+02 -0.32199848549E+02  0.11682829877E+02  0.37123334456E+02  0.10566000000E+00 0. -1.
         22    1    1    0    0    0  0.25376696387E+02 -0.15881125991E+02  0.13084660641E+02  0.32671015079E+02  0.00000000000E+00 0.  1.
</event>
<event>
 5    1  0.1315753E-009  0.9118800E+02  0.7818608E-02  0.1130116E+00
         25   -1    0    0    0    0  0.00000000000E+00  0.00000000000E+00  0.99999998245E-14  0.12500000000E+03  0.12500000000E+03 0.  0.
        -13    1    3    3    0    0  0.25501048315E+02 -0.27188339197E+02 -0.28728527704E+02  0.47062179311E+02  0.10566000000E+00 0.  1.
         23    2    1    0    0    0 -0.18262658458E+02  0.26598374950E+01 -0.13348732732E+02  0.10222307977E+03  0.99653248534E+02 0.  0.
         13    1    3    3    0    0 -0.43763706773E+02  0.29848176692E+02  0.15379794972E+02  0.55160900462E+02  0.10566000000E+00 0. -1.
         22    1    1    0    0    0  0.18262658458E+02 -0.26598374950E+01  0.13348732732E+02  0.22776920226E+02  0.00000000000E+00 0. -1.
</event>
<event>
 5    1  0.1315753E-009  0.9118800E+02  0.7818608E-02  0.1130116E+00
         25   -1    0    0    0    0  0.00000000000E+00  0.00000000000E+00  0.99999998245E-14  0.12500000000E+03  0.12500000000E+03 0.  0.
        -13    1    3    3    0    0 -0.51835802986E+01 -0.37574871643E+02 -0.34778604372E+02  0.51461665051E+02  0.10566000000E+00 0. -1.
         23    2    1    0    0    0  0.12851825472E+02 -0.26180016152E+02  0.38427406521E+01  0.95583519596E+02  0.90944378050E+02 0.  0.
         13    1    3    3    0    0  0.18035405771E+02  0.11394855491E+02  0.38621345024E+02  0.44121854545E+02  0.10566000000E+00 0.  1.
         22    1    1    0    0    0 -0.12851825472E+02  0.26180016152E+02 -0.38427406521E+01  0.29416480404E+02  0.00000000000E+00 0. -1.
</event>
<event>
 5    1  0.1315753E-009  0.9118800E+02  0.7818608E-02  0.1130116E+00
         25   -1    0    0    0    0  0.00000000000E+00  0.00000000000E+00  0.99999998245E-14  0.12500000000E+03  0.12500000000E+03 0.  0.
        -13    1    3    3    0    0 -0.46448076348E+02 -0.32898874020E+02  0.21613106519E+02  0.60884293916E+02  0.10566000000E+00 0.  1.
         23    2    1    0    0    0 -0.24769491039E+02 -0.18650056031E+02  0.10691863607E+01  0.93975889445E+02  0.88707228348E+02 0.  0.
         13    1    3    3    0    0  0.21678585309E+02  0.14248817989E+02 -0.20543920159E+02  0.33091595529E+02  0.10566000000E+00 0. -1.
         22    1    1    0    0    0  0.24769491039E+02  0.18650056031E+02 -0.10691863607E+01  0.31024110555E+02  0.00000000000E+00 0.  1.
</event>
<event>
 5    1  0.1315753E-009  0.9118800E+02  0.7818608E-02  0.1130116E+00
         25   -1    0    0    0    0  0.00000000000E+00  0.00000000000E+00  0.99999998245E-14  0.12500000000E+03  0.12500000000E+03 0.  0.
        -13    1    3    3    0    0 -0.11619734984E+02  0.29456203803E+02 -0.25480981809E+02  0.40644529541E+02  0.10566000000E+00 0. -1.
         23    2    1    0    0    0  0.28710690579E+01  0.13996977908E+02  0.25453285989E+02  0.95810477981E+02  0.91255791571E+02 0.  0.
         13    1    3    3    0    0  0.14490804042E+02 -0.15459225896E+02  0.50934267798E+02  0.55165948440E+02  0.10566000000E+00 0.  1.
         22    1    1    0    0    0 -0.28710690579E+01 -0.13996977908E+02 -0.25453285989E+02  0.29189522019E+02  0.00000000000E+00 0.  1.
</event>
<event>
 5    1  0.1315753E-009  0.9118800E+02  0.7818608E-02  0.1130116E+00
         25   -1    0    0    0    0  0.00000000000E+00  0.00000000000E+00  0.99999998245E-14  0.12500000000E+03  0.12500000000E+03 0.  0.
        -13    1    3    3    0    0  0.33688857135E+02  0.24266512715E+02 -0.26490021028E+01  0.41603258412E+02  0.10566000000E+00 0.  1.
         23    2    1    0    0    0  0.11958327686E+02 -0.24604972527E+02  0.87270112577E+01  0.96284725326E+02  0.91903108389E+02 0.  0.
         13    1    3    3    0    0 -0.21730529449E+02 -0.48871485242E+02  0.11376013361E+02  0.54681466914E+02  0.10566000000E+00 0. -1.
         22    1    1    0    0    0 -0.11958327686E+02  0.24604972527E+02 -0.87270112577E+01  0.28715274674E+02  0.00000000000E+00 0. -1.
</event>
<event>
 5    1  0.1315753E-009  0.9118800E+02  0.7818608E-02  0.1130116E+00
         25   -1    0    0    0    0  0.00000000000E+00  0.00000000000E+00  0.99999998245E-14  0.12500000000E+03  0.12500000000E+03 0.  0.
        -13    1    3    3    0    0  0.16896064387E+02 -0.15918169424E+02  0.26207375211E+02  0.35010038404E+02  0.10566000000E+00 0. -1.
         23    2    1    0    0    0 -0.24995900551E+02  0.12985806523E+02 -0.72450942615E+01  0.95915337268E+02  0.91399312453E+02 0.  0.
         13    1    3    3    0    0 -0.41891964938E+02  0.28903975947E+02 -0.33452469472E+02  0.60905298864E+02  0.10566000000E+00 0.  1.
         22    1    1    0    0    0  0.24995900551E+02 -0.12985806523E+02  0.72450942615E+01  0.29084662732E+02  0.00000000000E+00 0.  1.
</event>
<event>
 5    1  0.1315753E-009  0.9118800E+02  0.7818608E-02  0.1130116E+00
         25   -1    0    0    0    0  0.00000000000E+00  0.00000000000E+00  0.99999998245E-14  0.12500000000E+03  0.12500000000E+03 0.  0.
        -13    1    3    3    0    0  0.14748950564E+02 -0.52637295943E+02  0.69449352018E+01  0.55104081119E+02  0.10566000000E+00 0.  1.
         23    2    1    0    0    0  0.70378891211E+01 -0.21925988578E+02 -0.18288499506E+02  0.95593366861E+02  0.90957911779E+02 0.  0.
         13    1    3    3    0    0 -0.77110614426E+01  0.30711307366E+02 -0.25233434708E+02  0.40489285742E+02  0.10566000000E+00 0. -1.
         22    1    1    0    0    0 -0.70378891211E+01  0.21925988578E+02  0.18288499506E+02  0.29406633139E+02  0.00000000000E+00 0.  1.
</event>
<event>
 5    1  0.1315753E-009  0.9118800E+02  0.7818608E-02  0.1130116E+00
         25   -1    0    0    0    0  0.00000000000E+00  0.00000000000E+00  0.99999998245E-14  0.12500000000E+03  0.12500000000E+03 0.  0.
        -13    1    3    3    0    0  0.20480041448E+02  0.30268008650E+02  0.62249193341E+01  0.37072162469E+02  0.10566000000E+00 0.  1.
         23    2    1    0    0    0 -0.15978728076E+02 -0.33997994549E+01  0.29031125842E+02  0.91688070382E+02  0.85422582467E+02 0.  0.
         13    1    3    3    0    0 -0.36458769524E+02 -0.33667808105E+02  0.22806206507E+02  0.54615907913E+02  0.10566000000E+00 0. -1.
         22    1    1    0    0    0  0.15978728076E+02  0.33997994549E+01 -0.29031125842E+02  0.33311929618E+02  0.00000000000E+00 0. -1.
</event>
<event>
 5    1  0.1315753E-009  0.9118800E+02  0.7818608E-02  0.1130116E+00
         25   -1    0    0    0    0  0.00000000000E+00  0.00000000000E+00  0.99999998245E-14  0.12500000000E+03  0.12500000000E+03 0.  0.
        -13    1    3    3    0    0  0.10623205910E+02 -0.17038459641E+02  0.33262413571E+02  0.38853068494E+02  0.10566000000E+00 0.  1.
         23    2    1    0    0    0 -0.52643921360E+01  0.12000676623E+02 -0.19718268558E+02  0.10132427026E+03  0.98519376592E+02 0.  0.
         13    1    3    3    0    0 -0.15887598046E+02  0.29039136264E+02 -0.52980682130E+02  0.62471201762E+02  0.10566000000E+00 0. -1.
         22    1    1    0    0    0  0.52643921360E+01 -0.12000676623E+02  0.19718268558E+02  0.23675729744E+02  0.00000000000E+00 0. -1.
</event>
<event>
 5    1  0.1315753E-009  0.9118800E+02  0.7818608E-02  0.1130116E+00
         25   -1    0    0    0    0  0.00000000000E+00  0.00000000000E+00  0.99999998245E-14  0.12500000000E+03  0.12500000000E+03 0.  0.
        -13    1    3    3    0    0  0.22672887072E+02 -0.14549096576E+02 -0.41763682709E+02  0.49698615441E+02  0.10566000000E+00 0.  1.
         23    2    1    0    0    0 -0.13517992312E+02 -0.21708069150E+02 -0.14214750224E+02  0.95741915540E+02  0.91161828003E+02 0.  0.
         13    1    3    3    0    0 -0.36190879384E+02 -0.71589725738E+01  0.27548932484E+02  0.46043300098E+02  0.10566000000E+00 0. -1.
         22    1    1    0    0    0  0.13517992312E+02  0.21708069150E+02  0.14214750224E+02  0.29258084460E+02  0.00000000000E+00 0.  1.
</event>
<event>
 5    1  0.1315753E-009  0.9118800E+02  0.7818608E-02  0.1130116E+00
         25   -1    0    0    0    0  0.00000000000E+00  0.00000000000E+00  0.99999998245E-14  0.12500000000E+03  0.12500000000E+03 0.  0.
        -13    1    3    3    0    0 -0.54948613013E+01 -0.34187026757E+02 -0.16317483302E+02  0.38278162502E+02  0.10566000000E+00 0.  1.
         23    2    1    0    0    0 -0.25004508258E+02  0.12418348170E+02  0.10123289390E+02  0.95302831910E+02  0.90557760449E+02 0.  0.
         13    1    3    3    0    0 -0.19509646957E+02  0.46605374927E+02  0.26440772692E+02  0.57024669408E+02  0.10566000000E+00 0. -1.
         22    1    1    0    0    0  0.25004508258E+02 -0.12418348170E+02 -0.10123289390E+02  0.29697168090E+02  0.00000000000E+00 0. -1.
</event>
<event>
 5    1  0.1315753E-009  0.9118800E+02  0.7818608E-02  0.1130116E+00
         25   -1    0    0    0    0  0.00000000000E+00  0.00000000000E+00  0.99999998245E-14  0.12500000000E+03  0.12500000000E+03 0.  0.
        -13    1    3    3    0    0  0.13060358013E+02 -0.23862231657E+02  0.27134324833E+02  0.38422152455E+02  0.10566000000E+00 0. -1.
         23    2    1    0    0    0 -0.18982921910E+02  0.19961407955E+02  0.52413088112E+01  0.96959307251E+02  0.92816091347E+02 0.  0.
         13    1    3    3    0    0 -0.32043279922E+02  0.43823639612E+02 -0.21893016022E+02  0.58537154796E+02  0.10566000000E+00 0.  1.
         22    1    1    0    0    0  0.18982921910E+02 -0.19961407955E+02 -0.52413088112E+01  0.28040692749E+02  0.00000000000E+00 0.  1.
</event>
<event>
 5    1  0.1315753E-009  0.9118800E+02  0.7818608E-02  0.1130116E+00
         25   -1    0    0    0    0  0.00000000000E+00  0.00000000000E+00  0.99999998245E-14  0.12500000000E+03  0.12500000000E+03 0.  0.
        -13    1    3    3    0    0  0.28002818672E+02  0.17073165546E+02  0.15444973189E+02  0.36252023339E+02  0.10566000000E+00 0. -1.
         23    2    1    0    0    0 -0.27010664471E+02 -0.29624914595E+01  0.13066950117E+02  0.94848755645E+02  0.89928799120E+02 0.  0.
         13    1    3    3    0    0 -0.55013483143E+02 -0.20035657005E+02 -0.23780230728E+01  0.58596732306E+02  0.10566000000E+00 0.  1.
         22    1    1    0    0    0  0.27010664471E+02  0.29624914595E+01 -0.13066950117E+02  0.30151244355E+02  0.00000000000E+00 0.  1.
</event>
<event>
 5    1  0.1315753E-009  0.9118800E+02  0.7818608E-02  0.1130116E+00
         25   -1    0    0    0    0  0.00000000000E+00  0.00000000000E+00  0.99999998245E-14  0.12500000000E+03  0.12500000000E+03 0.  0.
        -13    1    3    3    0    0  0.48111868027E+02  0.54994436921E+00 -0.59306346720E+01  0.48479252010E+02  0.10566000000E+00 0. -1.
         23    2    1    0    0    0  0.23390763210E+02 -0.79655824867E+01  0.25586088518E+02  0.89429981255E+02  0.82051784342E+02 0.  0.
         13    1    3    3    0    0 -0.24721104817E+02 -0.85155268559E+01  0.31516723190E+02  0.40950729244E+02  0.10566000000E+00 0.  1.
         22    1    1    0    0    0 -0.23390763210E+02  0.79655824867E+01 -0.25586088518E+02  0.35570018745E+02  0.00000000000E+00 0. -1.
</event>
<event>
 5    1  0.1315753E-009  0.9118800E+02  0.7818608E-02  0.1130116E+00
         25   -1    0    0    0    0  0.00000000000E+00  0.00000000000E+00  0.99999998245E-14  0.12500000000E+03  0.12500000000E+03 0.  0.
        -13    1    3    3    0    0 -0.57197257833E+02 -0.10131110636E+02  0.13068953532E+02  0.59539687745E+02  0.10566000000E+00 0. -1.
         23    2    1    0    0    0 -0.19918728477E+02 -0.19287101319E+01  0.18070930089E+02  0.98036428627E+02  0.94255541783E+02 0.  0.
         13    1    3    3    0    0  0.37278529356E+02  0.82024005041E+01  0.50019765565E+01  0.38496740882E+02  0.10566000000E+00 0.  1.
         22    1    1    0    0    0  0.19918728477E+02  0.19287101319E+01 -0.18070930089E+02  0.26963571373E+02  0.00000000000E+00 0. -1.
</event>
<event>
 5    1  0.1315753E-009  0.9118800E+02  0.7818608E-02  0.1130116E+00
         25   -1    0    0    0    0  0.00000000000E+00  0.00000000000E+00  0.99999998245E-14  0.12500000000E+03  0.12500000000E+03 0.  0.
        -13    1    3    3    0    0  0.36987042077E+01 -0.59601072522E+02 -0.78300414770E+01  0.60226978773E+02  0.10566000000E+00 0.  1.
         23    2    1    0    0    0 -0.64365236107E+01 -0.28130103142E+02  0.50393009808E+01  0.95706210669E+02  0.91112856762E+02 0.  0.
         13    1    3    3    0    0 -0.10135227818E+02  0.31470969380E+02  0.12869342458E+02  0.35479231896E+02  0.10566000000E+00 0. -1.
         22    1    1    0    0    0  0.64365236107E+01  0.28130103142E+02 -0.50393009808E+01  0.29293789331E+02  0.00000000000E+00 0.  1.
</event>
<event>
 5    1  0.1315753E-009  0.9118800E+02  0.7818608E-02  0.1130116E+00
         25   -1    0    0    0    0  0.00000000000E+00  0.00000000000E+00  0.99999998245E-14  0.12500000000E+03  0.12500000000E+03 0.  0.
        -13    1    3    3    0    0 -0.95382132695E+01  0.39163592176E+02 -0.88771011739E+01  0.41274429781E+02  0.10566000000E+00 0. -1.
         23    2    1    0    0    0 -0.20950666832E+02 -0.14933531560E+02 -0.11917062527E+02  0.96645861240E+02  0.92392993836E+02 0.  0.
         13    1    3    3    0    0 -0.11412453562E+02 -0.54097123735E+02 -0.30399613526E+01  0.55371431459E+02  0.10566000000E+00 0.  1.
         22    1    1    0    0    0  0.20950666832E+02  0.14933531560E+02  0.11917062527E+02  0.28354138760E+02  0.00000000000E+00 0.  1.
</event>
<event>
 5    1  0.1315753E-009  0.9118800E+02  0.7818608E-02  0.1130116E+00
         25   -1    0    0    0    0  0.00000000000E+00  0.00000000000E+00  0.99999998245E-14  0.12500000000E+03  0.12500000000E+03 0.  0.
        -13    1    3    3    0    0 -0.22824330149E+02  0.25673932847E+02  0.38466052816E+02  0.51572756935E+02  0.10566000000E+00 0. -1.
         23    2    1    0    0    0  0.15260127793E+02  0.17955523647E+02  0.16764078462E+02  0.96081032931E+02  0.91625641786E+02 0.  0.
         13    1    3    3    0    0  0.38084457941E+02 -0.77184092005E+01 -0.21701974354E+02  0.44508275996E+02  0.10566000000E+00 0.  1.
         22    1    1    0    0    0 -0.15260127793E+02 -0.17955523647E+02 -0.16764078462E+02  0.28918967069E+02  0.00000000000E+00 0. -1.
</event>
<event>
 5    1  0.1315753E-009  0.9118800E+02  0.7818608E-02  0.1130116E+00
         25   -1    0    0    0    0  0.00000000000E+00  0.00000000000E+00  0.99999998245E-14  0.12500000000E+03  0.12500000000E+03 0.  0.
        -13    1    3    3    0    0  0.12837172213E+02 -0.38943457046E+02 -0.10623943498E+02  0.42358767411E+02  0.10566000000E+00 0. -1.
         23    2    1    0    0    0 -0.23794639871E+02  0.52260826951E+01 -0.46925896304E+00  0.10063369066E+03  0.97639247563E+02 0.  0.
         13    1    3    3    0    0 -0.36631812084E+02  0.44169539741E+02  0.10154684535E+02  0.58274923248E+02  0.10566000000E+00 0.  1.
         22    1    1    0    0    0  0.23794639871E+02 -0.52260826951E+01  0.46925896304E+00  0.24366309341E+02  0.00000000000E+00 0.  1.
</event>
<event>
 5    1  0.1315753E-009  0.9118800E+02  0.7818608E-02  0.1130116E+00
         25   -1    0    0    0    0  0.00000000000E+00  0.00000000000E+00  0.99999998245E-14  0.12500000000E+03  0.12500000000E+03 0.  0.
        -13    1    3    3    0    0 -0.45614493461E+02  0.23827225526E+02  0.10557937358E+02  0.52534749407E+02  0.10566000000E+00 0.  1.
         23    2    1    0    0    0 -0.10167277513E+02  0.22904157442E+02 -0.14586571969E+02  0.96004447894E+02  0.91521101247E+02 0.  0.
         13    1    3    3    0    0  0.35447215948E+02 -0.92306808421E+00 -0.25144509327E+02  0.43469698486E+02  0.10566000000E+00 0. -1.
         22    1    1    0    0    0  0.10167277513E+02 -0.22904157442E+02  0.14586571969E+02  0.28995552106E+02  0.00000000000E+00 0. -1.
</event>
<event>
 5    1  0.1315753E-009  0.9118800E+02  0.7818608E-02  0.1130116E+00
         25   -1    0    0    0    0  0.00000000000E+00  0.00000000000E+00  0.99999998245E-14  0.12500000000E+03  0.12500000000E+03 0.  0.
        -13    1    3    3    0    0  0.22252831555E+02  0.51183584392E+02 -0.24395260921E+02  0.60910489597E+02  0.10566000000E+00 0. -1.
         23    2    1    0    0    0  0.12706645753E+02  0.26836619261E+02 -0.21747193542E+01  0.95227657400E+02  0.90453934961E+02 0.  0.
         13    1    3    3    0    0 -0.95461858024E+01 -0.24346965132E+02  0.22220541566E+02  0.34317167803E+02  0.10566000000E+00 0.  1.
         22    1    1    0    0    0 -0.12706645753E+02 -0.26836619261E+02  0.21747193542E+01  0.29772342600E+02  0.00000000000E+00 0. -1.
</event>
<event>
 5    1  0.1315753E-009  0.9118800E+02  0.7818608E-02  0.1130116E+00
         25   -1    0    0    0    0  0.00000000000E+00  0.00000000000E+00  0.99999998245E-14  0.12500000000E+03  0.12500000000E+03 0.  0.
        -13    1    3    3    0    0  0.49553960115E+02  0.36668940503E+02 -0.15792247800E+00  0.61646105021E+02  0.10566000000E+00 0.  1.
         23    2    1    0    0    0  0.20123155757E+02  0.20993516209E+02 -0.54637251535E+01  0.95410788909E+02  0.90706654812E+02 0.  0.
         13    1    3    3    0    0 -0.29430804358E+02 -0.15675424294E+02 -0.53058026755E+01  0.33764683888E+02  0.10566000000E+00 0. -1.
         22    1    1    0    0    0 -0.20123155757E+02 -0.20993516209E+02  0.54637251535E+01  0.29589211091E+02  0.00000000000E+00 0.  1.
</event>
<event>
 5    1  0.1315753E-009  0.9118800E+02  0.7818608E-02  0.1130116E+00
         25   -1    0    0    0    0  0.00000000000E+00  0.00000000000E+00  0.99999998245E-14  0.12500000000E+03  0.12500000000E+03 0.  0.
        -13    1    3    3    0    0  0.80131412894E+01 -0.29318990263E+02 -0.37292121536E+02  0.48109532487E+02  0.10566000000E+00 0.  1.
         23    2    1    0    0    0 -0.15493879100E+02 -0.22364668076E+02  0.53270610712E+01  0.97276070853E+02  0.93241716593E+02 0.  0.
         13    1    3    3    0    0 -0.23507020390E+02  0.69543221878E+01  0.42619182608E+02  0.49166538366E+02  0.10566000000E+00 0. -1.
         22    1    1    0    0    0  0.15493879100E+02  0.22364668076E+02 -0.53270610712E+01  0.27723929147E+02  0.00000000000E+00 0.  1.
</event>
<event>
 5    1  0.1315753E-009  0.9118800E+02  0.7818608E-02  0.1130116E+00
         25   -1    0    0    0    0  0.00000000000E+00  0.00000000000E+00  0.99999998245E-14  0.12500000000E+03  0.12500000000E+03 0.  0.
        -13    1    3    3    0    0 -0.37009486589E+02 -0.35170280502E+02  0.35095737244E+02  0.61954601644E+02  0.10566000000E+00 0. -1.
         23    2    1    0    0    0 -0.13133387186E+02 -0.15570996921E+02  0.20431321080E+02  0.96148991609E+02  0.91718307345E+02 0.  0.
         13    1    3    3    0    0  0.23876099403E+02  0.19599283581E+02 -0.14664416164E+02  0.34194389965E+02  0.10566000000E+00 0.  1.
         22    1    1    0    0    0  0.13133387186E+02  0.15570996921E+02 -0.20431321080E+02  0.28851008391E+02  0.00000000000E+00 0. -1.
</event>
<event>
 5    1  0.1315753E-009  0.9118800E+02  0.7818608E-02  0.1130116E+00
         25   -1    0    0    0    0  0.00000000000E+00  0.00000000000E+00  0.99999998245E-14  0.12500000000E+03  0.12500000000E+03 0.  0.
        -13    1    3    3    0    0 -0.30207467730E+02  0.49620526527E+01 -0.50145974723E+02  0.58751536304E+02  0.10566000000E+00 0.  1.
         23    2    1    0    0    0 -0.19844826640E+02  0.14320021842E+02 -0.15687640094E+02  0.95931422091E+02  0.91421307816E+02 0.  0.
         13    1    3    3    0    0  0.10362641090E+02  0.93579691889E+01  0.34458334629E+02  0.37179885787E+02  0.10566000000E+00 0. -1.
         22    1    1    0    0    0  0.19844826640E+02 -0.14320021842E+02  0.15687640094E+02  0.29068577909E+02  0.00000000000E+00 0.  1.
</event>
<event>
 5    1  0.1315753E-009  0.9118800E+02  0.7818608E-02  0.1130116E+00
         25   -1    0    0    0    0  0.00000000000E+00  0.00000000000E+00  0.99999998245E-14  0.12500000000E+03  0.12500000000E+03 0.  0.
        -13    1    3    3    0    0 -0.18926058461E+01 -0.24615113437E+02 -0.20896521663E+02  0.32344420664E+02  0.10566000000E+00 0. -1.
         23    2    1    0    0    0 -0.85077885806E+01  0.26434255134E+02  0.13366404033E+02  0.94180962575E+02  0.88995733851E+02 0.  0.
         13    1    3    3    0    0 -0.66151827345E+01  0.51049368572E+02  0.34262925697E+02  0.61836541911E+02  0.10566000000E+00 0.  1.
         22    1    1    0    0    0  0.85077885806E+01 -0.26434255134E+02 -0.13366404033E+02  0.30819037425E+02  0.00000000000E+00 0.  1.
</event>
<event>
 5    1  0.1315753E-009  0.9118800E+02  0.7818608E-02  0.1130116E+00
         25   -1    0    0    0    0  0.00000000000E+00  0.00000000000E+00  0.99999998245E-14  0.12500000000E+03  0.12500000000E+03 0.  0.
        -13    1    3    3    0    0  0.22478606694E+02  0.32974098717E+02 -0.39958417696E+02  0.56473580141E+02  0.10566000000E+00 0.  1.
         23    2    1    0    0    0 -0.66140812216E+01  0.10077070576E+02 -0.26536803945E+02  0.95853895879E+02  0.91315245002E+02 0.  0.
         13    1    3    3    0    0 -0.29092687916E+02 -0.22897028141E+02  0.13421613751E+02  0.39380315738E+02  0.10566000000E+00 0. -1.
         22    1    1    0    0    0  0.66140812216E+01 -0.10077070576E+02  0.26536803945E+02  0.29146104121E+02  0.00000000000E+00 0.  1.
</event>
<event>
 5    1  0.1315753E-009  0.9118800E+02  0.7818608E-02  0.1130116E+00
         25   -1    0    0    0    0  0.00000000000E+00  0.00000000000E+00  0.99999998245E-14  0.12500000000E+03  0.12500000000E+03 0.  0.
        -13    1    3    3    0    0 -0.21395050695E+02 -0.26201761237E+02 -0.18272223584E+02  0.38446921917E+02  0.10566000000E+00 0.  1.
         23    2    1    0    0    0  0.15040280117E+02  0.19044382641E+02 -0.14652520712E+02  0.96652250541E+02  0.92401637622E+02 0.  0.
         13    1    3    3    0    0  0.36435330812E+02  0.45246143878E+02  0.36197028718E+01  0.58205328623E+02  0.10566000000E+00 0. -1.
         22    1    1    0    0    0 -0.15040280117E+02 -0.19044382641E+02  0.14652520712E+02  0.28347749459E+02  0.00000000000E+00 0. -1.
</event>
<event>
 5    1  0.1315753E-009  0.9118800E+02  0.7818608E-02  0.1130116E+00
         25   -1    0    0    0    0  0.00000000000E+00  0.00000000000E+00  0.99999998245E-14  0.12500000000E+03  0.12500000000E+03 0.  0.
        -13    1    3    3    0    0 -0.46481911540E+02  0.84334148850E+01  0.29070818974E+02  0.55469038813E+02  0.10566000000E+00 0.  1.
         23    2    1    0    0    0 -0.29467242160E+02 -0.60679765577E+01 -0.32188925018E+01  0.94742769972E+02  0.89781359385E+02 0.  0.
         13    1    3    3    0    0  0.17014669380E+02 -0.14501391443E+02 -0.32289711476E+02  0.39273731159E+02  0.10566000000E+00 0. -1.
         22    1    1    0    0    0  0.29467242160E+02  0.60679765577E+01  0.32188925018E+01  0.30257230028E+02  0.00000000000E+00 0.  1.
</event>
<event>
 5    1  0.1315753E-009  0.9118800E+02  0.7818608E-02  0.1130116E+00
         25   -1    0    0    0    0  0.00000000000E+00  0.00000000000E+00  0.99999998245E-14  0.12500000000E+03  0.12500000000E+03 0.  0.
        -13    1    3    3    0    0  0.34933035780E+02  0.17874212791E+02  0.33751569119E+02  0.51758903135E+02  0.10566000000E+00 0. -1.
         23    2    1    0    0    0  0.28566985693E+02 -0.12070251686E+02  0.53281202149E+01  0.93533311067E+02  0.88081370146E+02 0.  0.
         13    1    3    3    0    0 -0.63660500862E+01 -0.29944464477E+02 -0.28423448904E+02  0.41774407933E+02  0.10566000000E+00 0.  1.
         22    1    1    0    0    0 -0.28566985693E+02  0.12070251686E+02 -0.53281202149E+01  0.31466688933E+02  0.00000000000E+00 0. -1.
</event>
<event>
 5    1  0.1315753E-009  0.9118800E+02  0.7818608E-02  0.1130116E+00
         25   -1    0    0    0    0  0.00000000000E+00  0.00000000000E+00  0.99999998245E-14  0.12500000000E+03  0.12500000000E+03 0.  0.
        -13    1    3    3    0    0 -0.45758635171E+02 -0.32802168292E+02 -0.24677396595E+02  0.61472107530E+02  0.10566000000E+00 0. -1.
         23    2    1    0    0    0 -0.16084073688E+02 -0.21331034203E+02 -0.11817040612E+02  0.95787795437E+02  0.91224716274E+02 0.  0.
         13    1    3    3    0    0  0.29674561483E+02  0.11471134089E+02  0.12860355983E+02  0.34315687907E+02  0.10566000000E+00 0.  1.
         22    1    1    0    0    0  0.16084073688E+02  0.21331034203E+02  0.11817040612E+02  0.29212204563E+02  0.00000000000E+00 0. -1.
</event>
<event>
 5    1  0.1315753E-009  0.9118800E+02  0.7818608E-02  0.1130116E+00
         25   -1    0    0    0    0  0.00000000000E+00  0.00000000000E+00  0.99999998245E-14  0.12500000000E+03  0.12500000000E+03 0.  0.
        -13    1    3    3    0    0  0.30962973815E+02  0.84505742170E+01  0.23662565708E+02  0.39875382531E+02  0.10566000000E+00 0.  1.
         23    2    1    0    0    0 -0.21678277644E+02  0.16907130745E+02  0.14313841912E+02  0.94005083289E+02  0.88748356730E+02 0.  0.
         13    1    3    3    0    0 -0.52641251459E+02  0.84565565278E+01 -0.93487237964E+01  0.54129700758E+02  0.10566000000E+00 0. -1.
         22    1    1    0    0    0  0.21678277644E+02 -0.16907130745E+02 -0.14313841912E+02  0.30994916711E+02  0.00000000000E+00 0. -1.
</event>
<event>
 5    1  0.1315753E-009  0.9118800E+02  0.7818608E-02  0.1130116E+00
         25   -1    0    0    0    0  0.00000000000E+00  0.00000000000E+00  0.99999998245E-14  0.12500000000E+03  0.12500000000E+03 0.  0.
        -13    1    3    3    0    0 -0.20775847702E+02  0.69536885421E+01  0.37557394622E+02  0.43480555274E+02  0.10566000000E+00 0. -1.
         23    2    1    0    0    0 -0.74853679697E+01 -0.28015416494E+02  0.70502524461E+00  0.95993253275E+02  0.91505810300E+02 0.  0.
         13    1    3    3    0    0  0.13290479732E+02 -0.34969105037E+02 -0.36852369377E+02  0.52512698001E+02  0.10566000000E+00 0.  1.
         22    1    1    0    0    0  0.74853679697E+01  0.28015416494E+02 -0.70502524461E+00  0.29006746725E+02  0.00000000000E+00 0.  1.
</event>
<event>
 5    1  0.1315753E-009  0.9118800E+02  0.7818608E-02  0.1130116E+00
         25   -1    0    0    0    0  0.00000000000E+00  0.00000000000E+00  0.99999998245E-14  0.12500000000E+03  0.12500000000E+03 0.  0.
        -13    1    3    3    0    0 -0.62219168075E+02  0.17100908587E+00 -0.29181653648E+01  0.62287887853E+02  0.10566000000E+00 0.  1.
         23    2    1    0    0    0 -0.23998461147E+02  0.32012246677E+01 -0.27887183203E+01  0.10062889156E+03  0.97633103452E+02 0.  0.
         13    1    3    3    0    0  0.38220706928E+02  0.30302155819E+01  0.12944704457E+00  0.38341003706E+02  0.10566000000E+00 0. -1.
         22    1    1    0    0    0  0.23998461147E+02 -0.32012246677E+01  0.27887183203E+01  0.24371108441E+02  0.00000000000E+00 0.  1.
</event>
<event>
 5    1  0.1315753E-009  0.9118800E+02  0.7818608E-02  0.1130116E+00
         25   -1    0    0    0    0  0.00000000000E+00  0.00000000000E+00  0.99999998245E-14  0.12500000000E+03  0.12500000000E+03 0.  0.
        -13    1    3    3    0    0  0.20958917554E+02 -0.50341646705E+02  0.68826497295E+01  0.54963075326E+02  0.10566000000E+00 0. -1.
         23    2    1    0    0    0  0.24196709326E+02 -0.10254260863E+02  0.13061847204E+02  0.95653067274E+02  0.91039918818E+02 0.  0.
         13    1    3    3    0    0  0.32377917727E+01  0.40087385842E+02  0.61791974741E+01  0.40689991947E+02  0.10566000000E+00 0.  1.
         22    1    1    0    0    0 -0.24196709326E+02  0.10254260863E+02 -0.13061847204E+02  0.29346932726E+02  0.00000000000E+00 0. -1.
</event>
<event>
 5    1  0.1315753E-009  0.9118800E+02  0.7818608E-02  0.1130116E+00
         25   -1    0    0    0    0  0.00000000000E+00  0.00000000000E+00  0.99999998245E-14  0.12500000000E+03  0.12500000000E+03 0.  0.
        -13    1    3    3    0    0  0.14446933457E+02 -0.10859681925E+02 -0.29435310804E+02  0.34541211097E+02  0.10566000000E+00 0.  1.
         23    2    1    0    0    0 -0.26083569941E+02  0.21634461660E+01  0.13964144227E+02  0.95334692919E+02  0.90601728625E+02 0.  0.
         13    1    3    3    0    0 -0.40530503398E+02  0.13023128091E+02  0.43399455032E+02  0.60793481823E+02  0.10566000000E+00 0. -1.
         22    1    1    0    0    0  0.26083569941E+02 -0.21634461660E+01 -0.13964144227E+02  0.29665307081E+02  0.00000000000E+00 0. -1.
</event>
<event>
 5    1  0.1315753E-009  0.9118800E+02  0.7818608E-02  0.1130116E+00
         25   -1    0    0    0    0  0.00000000000E+00  0.00000000000E+00  0.99999998245E-14  0.12500000000E+03  0.12500000000E+03 0.  0.
        -13    1    3    3    0    0  0.19195901440E+02  0.37694552203E+02  0.44462502780E+01  0.42534012313E+02  0.10566000000E+00 0.  1.
         23    2    1    0    0    0  0.10000645821E+02 -0.12625219295E+02  0.22977021946E+02  0.96940195714E+02  0.92790349328E+02 0.  0.
         13    1    3    3    0    0 -0.91952556191E+01 -0.50319771498E+02  0.18530771668E+02  0.54406183400E+02  0.10566000000E+00 0. -1.
         22    1    1    0    0    0 -0.10000645821E+02  0.12625219295E+02 -0.22977021946E+02  0.28059804286E+02  0.00000000000E+00 0. -1.
</event>
<event>
 5    1  0.1315753E-009  0.9118800E+02  0.7818608E-02  0.1130116E+00
         25   -1    0    0    0    0  0.00000000000E+00  0.00000000000E+00  0.99999998245E-14  0.12500000000E+03  0.12500000000E+03 0.  0.
        -13    1    3    3    0    0  0.19503687879E+02 -0.40485995177E+02 -0.21933877195E+02  0.50006157413E+02  0.10566000000E+00 0. -1.
         23    2    1    0    0    0  0.12098864089E+02  0.10335224677E+02 -0.17179114762E+02  0.10158373716E+03  0.98848036349E+02 0.  0.
         13    1    3    3    0    0 -0.74048237898E+01  0.50821219854E+02  0.47547624336E+01  0.51577579747E+02  0.10566000000E+00 0.  1.
         22    1    1    0    0    0 -0.12098864089E+02 -0.10335224677E+02  0.17179114762E+02  0.23416262839E+02  0.00000000000E+00 0.  1.
</event>
<event>
 5    1  0.1315753E-009  0.9118800E+02  0.7818608E-02  0.1130116E+00
         25   -1    0    0    0    0  0.00000000000E+00  0.00000000000E+00  0.99999998245E-14  0.12500000000E+03  0.12500000000E+03 0.  0.
        -13    1    3    3    0    0 -0.56660855342E+02  0.16648326760E+02  0.17786103502E+02  0.61676380843E+02  0.10566000000E+00 0. -1.
         23    2    1    0    0    0 -0.27652964955E+02  0.15454366218E+02  0.78356394474E+01  0.92366870338E+02  0.86410170608E+02 0.  0.
         13    1    3    3    0    0  0.29007890388E+02 -0.11939605415E+01 -0.99504640549E+01  0.30690489495E+02  0.10566000000E+00 0.  1.
         22    1    1    0    0    0  0.27652964955E+02 -0.15454366218E+02 -0.78356394474E+01  0.32633129662E+02  0.00000000000E+00 0. -1.
</event>
<event>
 5    1  0.1315753E-009  0.9118800E+02  0.7818608E-02  0.1130116E+00
         25   -1    0    0    0    0  0.00000000000E+00  0.00000000000E+00  0.99999998245E-14  0.12500000000E+03  0.12500000000E+03 0.  0.
        -13    1    3    3    0    0  0.12346601193E+02 -0.13915486675E+02  0.47024972480E+02  0.50571123492E+02  0.10566000000E+00 0. -1.
         23    2    1    0    0    0  0.15777993834E+02  0.17194343712E+02  0.86016555240E+01  0.10012875108E+03  0.96990658158E+02 0.  0.
         13    1    3    3    0    0  0.34313926403E+01  0.31109830388E+02 -0.38423316956E+02  0.49557627588E+02  0.10566000000E+00 0.  1.
         22    1    1    0    0    0 -0.15777993834E+02 -0.17194343712E+02 -0.86016555240E+01  0.24871248920E+02  0.00000000000E+00 0. -1.
</event>
<event>
 5    1  0.1315753E-009  0.9118800E+02  0.7818608E-02  0.1130116E+00
         25   -1    0    0    0    0  0.00000000000E+00  0.00000000000E+00  0.99999998245E-14  0.12500000000E+03  0.12500000000E+03 0.  0.
        -13    1    3    3    0    0  0.28380404796E+02 -0.17037337691E+02 -0.33720633465E+02  0.47252624660E+02  0.10566000000E+00 0.  1.
         23    2    1    0    0    0  0.10218225945E+02 -0.22527883158E+02  0.12549286661E+02  0.97261898826E+02  0.93222715614E+02 0.  0.
         13    1    3    3    0    0 -0.18162178850E+02 -0.54905454672E+01  0.46269920126E+02  0.50009274166E+02  0.10566000000E+00 0. -1.
         22    1    1    0    0    0 -0.10218225945E+02  0.22527883158E+02 -0.12549286661E+02  0.27738101174E+02  0.00000000000E+00 0. -1.
</event>
<event>
 5    1  0.1315753E-009  0.9118800E+02  0.7818608E-02  0.1130116E+00
         25   -1    0    0    0    0  0.00000000000E+00  0.00000000000E+00  0.99999998245E-14  0.12500000000E+03  0.12500000000E+03 0.  0.
        -13    1    3    3    0    0  0.17423605517E+02 -0.67180212739E+01 -0.57559583907E+02  0.60513062248E+02  0.10566000000E+00 0. -1.
         23    2    1    0    0    0  0.26105058777E+01 -0.12799722144E+02 -0.25994555902E+02  0.95907654538E+02  0.91388804755E+02 0.  0.
         13    1    3    3    0    0 -0.14813099639E+02 -0.60817008703E+01  0.31565028005E+02  0.35394592290E+02  0.10566000000E+00 0.  1.
         22    1    1    0    0    0 -0.26105058777E+01  0.12799722144E+02  0.25994555902E+02  0.29092345462E+02  0.00000000000E+00 0. -1.
</event>
<event>
 5    1  0.1315753E-009  0.9118800E+02  0.7818608E-02  0.1130116E+00
         25   -1    0    0    0    0  0.00000000000E+00  0.00000000000E+00  0.99999998245E-14  0.12500000000E+03  0.12500000000E+03 0.  0.
        -13    1    3    3    0    0  0.15759665425E+01  0.11008662262E+02  0.32590780698E+02  0.34436092489E+02  0.10566000000E+00 0. -1.
         23    2    1    0    0    0  0.18206658920E+02 -0.71213871569E+01 -0.22752870814E+02  0.95001838151E+02  0.90141330907E+02 0.  0.
         13    1    3    3    0    0  0.16630692377E+02 -0.18130049419E+02 -0.55343651512E+02  0.60565745662E+02  0.10566000000E+00 0.  1.
         22    1    1    0    0    0 -0.18206658920E+02  0.71213871569E+01  0.22752870814E+02  0.29998161849E+02  0.00000000000E+00 0.  1.
</event>
<event>
 5    1  0.1315753E-009  0.9118800E+02  0.7818608E-02  0.1130116E+00
         25   -1    0    0    0    0  0.00000000000E+00  0.00000000000E+00  0.99999998245E-14  0.12500000000E+03  0.12500000000E+03 0.  0.
        -13    1    3    3    0    0  0.46136002117E+02 -0.79811795939E+01  0.35956959401E+02  0.59035108304E+02  0.10566000000E+00 0.  1.
         23    2    1    0    0    0  0.24697696579E+02 -0.14404050728E+02  0.71236298779E+01  0.95534783280E+02  0.90877366930E+02 0.  0.
         13    1    3    3    0    0 -0.21438305539E+02 -0.64228711345E+01 -0.28833329523E+02  0.36499674976E+02  0.10566000000E+00 0. -1.
         22    1    1    0    0    0 -0.24697696579E+02  0.14404050728E+02 -0.71236298779E+01  0.29465216720E+02  0.00000000000E+00 0.  1.
</event>
<event>
 5    1  0.1315753E-009  0.9118800E+02  0.7818608E-02  0.1130116E+00
         25   -1    0    0    0    0  0.00000000000E+00  0.00000000000E+00  0.99999998245E-14  0.12500000000E+03  0.12500000000E+03 0.  0.
        -13    1    3    3    0    0 -0.47092604039E+02 -0.28875818316E+02 -0.10123025316E+01  0.55249996914E+02  0.10566000000E+00 0.  1.
         23    2    1    0    0    0 -0.10910703132E+02 -0.17826895929E+02 -0.18647409128E+02  0.96989867396E+02  0.92857239076E+02 0.  0.
         13    1    3    3    0    0  0.36181900906E+02  0.11048922386E+02 -0.17635106597E+02  0.41739870482E+02  0.10566000000E+00 0. -1.
         22    1    1    0    0    0  0.10910703132E+02  0.17826895929E+02  0.18647409128E+02  0.28010132604E+02  0.00000000000E+00 0.  1.
</event>
<event>
 5    1  0.1315753E-009  0.9118800E+02  0.7818608E-02  0.1130116E+00
         25   -1    0    0    0    0  0.00000000000E+00  0.00000000000E+00  0.99999998245E-14  0.12500000000E+03  0.12500000000E+03 0.  0.
        -13    1    3    3    0    0 -0.39773660312E+02  0.10899954918E+02 -0.14270044711E+02  0.43639413515E+02  0.10566000000E+00 0. -1.
         23    2    1    0    0    0 -0.38426871023E+01  0.15867465458E+02  0.23745350954E+02  0.96183608898E+02  0.91765474033E+02 0.  0.
         13    1    3    3    0    0  0.35930973210E+02  0.49675105395E+01  0.38015395665E+02  0.52544195383E+02  0.10566000000E+00 0.  1.
         22    1    1    0    0    0  0.38426871023E+01 -0.15867465458E+02 -0.23745350954E+02  0.28816391102E+02  0.00000000000E+00 0. -1.
</event>
<event>
 5    1  0.1315753E-009  0.9118800E+02  0.7818608E-02  0.1130116E+00
         25   -1    0    0    0    0  0.00000000000E+00  0.00000000000E+00  0.99999998245E-14  0.12500000000E+03  0.12500000000E+03 0.  0.
        -13    1    3    3    0    0  0.35030941537E+02  0.35653408875E+02 -0.23534826745E+02  0.55247005922E+02  0.10566000000E+00 0. -1.
         23    2    1    0    0    0  0.16037572527E+02  0.24682246075E+02  0.87624140444E+01  0.94288489067E+02  0.89146633514E+02 0.  0.
         13    1    3    3    0    0 -0.18993369010E+02 -0.10971162800E+02  0.32297240790E+02  0.39041483145E+02  0.10566000000E+00 0.  1.
         22    1    1    0    0    0 -0.16037572527E+02 -0.24682246075E+02 -0.87624140444E+01  0.30711510933E+02  0.00000000000E+00 0. -1.
</event>
<event>
 5    1  0.1315753E-009  0.9118800E+02  0.7818608E-02  0.1130116E+00
         25   -1    0    0    0    0  0.00000000000E+00  0.00000000000E+00  0.99999998245E-14  0.12500000000E+03  0.12500000000E+03 0.  0.
        -13    1    3    3    0    0  0.18213506114E+02  0.29734044948E+02  0.50821895020E+02  0.61633768434E+02  0.10566000000E+00 0. -1.
         23    2    1    0    0    0  0.17052267828E+02  0.15302272307E+02  0.26219647622E+02  0.90180331747E+02  0.83187035870E+02 0.  0.
         13    1    3    3    0    0 -0.11612382860E+01 -0.14431772641E+02 -0.24602247398E+02  0.28546563313E+02  0.10566000000E+00 0.  1.
         22    1    1    0    0    0 -0.17052267828E+02 -0.15302272307E+02 -0.26219647622E+02  0.34819668253E+02  0.00000000000E+00 0. -1.
</event>
<event>
 5    1  0.1315753E-009  0.9118800E+02  0.7818608E-02  0.1130116E+00
         25   -1    0    0    0    0  0.00000000000E+00  0.00000000000E+00  0.99999998245E-14  0.12500000000E+03  0.12500000000E+03 0.  0.
        -13    1    3    3    0    0  0.10373782072E+01 -0.15476801895E+02  0.47032247146E+02  0.49524246447E+02  0.10566000000E+00 0. -1.
         23    2    1    0    0    0 -0.22654465295E+02 -0.16593102405E+02  0.69933478917E+01  0.96061051160E+02  0.91598377660E+02 0.  0.
         13    1    3    3    0    0 -0.23691843502E+02 -0.11163005101E+01 -0.40038899255E+02  0.46536804713E+02  0.10566000000E+00 0.  1.
         22    1    1    0    0    0  0.22654465295E+02  0.16593102405E+02 -0.69933478917E+01  0.28938948840E+02  0.00000000000E+00 0. -1.
</event>
<event>
 5    1  0.1315753E-009  0.9118800E+02  0.7818608E-02  0.1130116E+00
         25   -1    0    0    0    0  0.00000000000E+00  0.00000000000E+00  0.99999998245E-14  0.12500000000E+03  0.12500000000E+03 0.  0.
        -13    1    3    3    0    0 -0.28820169460E+02 -0.42653821290E+02  0.13988797934E+01  0.51496783075E+02  0.10566000000E+00 0. -1.
         23    2    1    0    0    0 -0.13834050719E+02 -0.13400548231E+02 -0.24849626303E+02  0.93560222971E+02  0.88119553692E+02 0.  0.
         13    1    3    3    0    0  0.14986118740E+02  0.29253273059E+02 -0.26248506097E+02  0.42063439897E+02  0.10566000000E+00 0.  1.
         22    1    1    0    0    0  0.13834050719E+02  0.13400548231E+02  0.24849626303E+02  0.31439777029E+02  0.00000000000E+00 0. -1.
</event>
<event>
 5    1  0.1315753E-009  0.9118800E+02  0.7818608E-02  0.1130116E+00
         25   -1    0    0    0    0  0.00000000000E+00  0.00000000000E+00  0.99999998245E-14  0.12500000000E+03  0.12500000000E+03 0.  0.
        -13    1    3    3    0    0 -0.35752560651E+02  0.62756674501E+01  0.27890702459E+01  0.36406313627E+02  0.10566000000E+00 0. -1.
         23    2    1    0    0    0  0.21789639929E+02 -0.76022499202E-01  0.18526303742E+02  0.96398983969E+02  0.92058383607E+02 0.  0.
         13    1    3    3    0    0  0.57542200579E+02 -0.63516899493E+01  0.15737233496E+02  0.59992670343E+02  0.10566000000E+00 0.  1.
         22    1    1    0    0    0 -0.21789639929E+02  0.76022499202E-01 -0.18526303742E+02  0.28601016031E+02  0.00000000000E+00 0.  1.
</event>
<event>
 5    1  0.1315753E-009  0.9118800E+02  0.7818608E-02  0.1130116E+00
         25   -1    0    0    0    0  0.00000000000E+00  0.00000000000E+00  0.99999998245E-14  0.12500000000E+03  0.12500000000E+03 0.  0.
        -13    1    3    3    0    0  0.49107723302E+02 -0.28340964748E+02 -0.99912510721E+01  0.57572693464E+02  0.10566000000E+00 0. -1.
         23    2    1    0    0    0  0.24873853585E+02 -0.95405992037E+01  0.12466044230E+02  0.95586841651E+02  0.90948943989E+02 0.  0.
         13    1    3    3    0    0 -0.24233869716E+02  0.18800365544E+02  0.22457295302E+02  0.38014148186E+02  0.10566000000E+00 0.  1.
         22    1    1    0    0    0 -0.24873853585E+02  0.95405992037E+01 -0.12466044230E+02  0.29413158349E+02  0.00000000000E+00 0. -1.
</event>
<event>
 5    1  0.1315753E-009  0.9118800E+02  0.7818608E-02  0.1130116E+00
         25   -1    0    0    0    0  0.00000000000E+00  0.00000000000E+00  0.99999998245E-14  0.12500000000E+03  0.12500000000E+03 0.  0.
        -13    1    3    3    0    0 -0.23744932374E+01  0.56518154394E+02 -0.10080243823E+02  0.57459224445E+02  0.10566000000E+00 0. -1.
         23    2    1    0    0    0 -0.18789600079E+02  0.25389167780E+02 -0.52393070189E+01  0.92982672664E+02  0.87296438449E+02 0.  0.
         13    1    3    3    0    0 -0.16415106842E+02 -0.31128986613E+02  0.48409368038E+01  0.35523448219E+02  0.10566000000E+00 0.  1.
         22    1    1    0    0    0  0.18789600079E+02 -0.25389167780E+02  0.52393070189E+01  0.32017327336E+02  0.00000000000E+00 0. -1.
</event>
<event>
 5    1  0.1315753E-009  0.9118800E+02  0.7818608E-02  0.1130116E+00
         25   -1    0    0    0    0  0.00000000000E+00  0.00000000000E+00  0.99999998245E-14  0.12500000000E+03  0.12500000000E+03 0.  0.
        -13    1    3    3    0    0  0.36407846588E+02 -0.13765960905E+02 -0.10401395278E+02  0.40289367836E+02  0.10566000000E+00 0.  1.
         23    2    1    0    0    0 -0.17068544046E+02  0.15329974809E+02 -0.57618094889E+01  0.10134536468E+03  0.98546137266E+02 0.  0.
         13    1    3    3    0    0 -0.53476390635E+02  0.29095935714E+02  0.46395857889E+01  0.61055996845E+02  0.10566000000E+00 0. -1.
         22    1    1    0    0    0  0.17068544046E+02 -0.15329974809E+02  0.57618094889E+01  0.23654635320E+02  0.00000000000E+00 0. -1.
</event>
<event>
 5    1  0.1315753E-009  0.9118800E+02  0.7818608E-02  0.1130116E+00
         25   -1    0    0    0    0  0.00000000000E+00  0.00000000000E+00  0.99999998245E-14  0.12500000000E+03  0.12500000000E+03 0.  0.
        -13    1    3    3    0    0 -0.48617136071E+02 -0.81670603957E+01  0.13375299151E+02  0.51080687022E+02  0.10566000000E+00 0.  1.
         23    2    1    0    0    0 -0.21819759866E+02  0.31907459854E+01 -0.19905484115E+02  0.95292911984E+02  0.90544066597E+02 0.  0.
         13    1    3    3    0    0  0.26797376205E+02  0.11357806381E+02 -0.33280783266E+02  0.44212224962E+02  0.10566000000E+00 0. -1.
         22    1    1    0    0    0  0.21819759866E+02 -0.31907459854E+01  0.19905484115E+02  0.29707088016E+02  0.00000000000E+00 0.  1.
</event>
<event>
 5    1  0.1315753E-009  0.9118800E+02  0.7818608E-02  0.1130116E+00
         25   -1    0    0    0    0  0.00000000000E+00  0.00000000000E+00  0.99999998245E-14  0.12500000000E+03  0.12500000000E+03 0.  0.
        -13    1    3    3    0    0  0.51583691362E+01 -0.40673775257E+02  0.41883502666E+01  0.41213082968E+02  0.10566000000E+00 0.  1.
         23    2    1    0    0    0 -0.25066623604E+02 -0.82119485390E+01 -0.20150260577E+02  0.91806556083E+02  0.85595788570E+02 0.  0.
         13    1    3    3    0    0 -0.30224992740E+02  0.32461826718E+02 -0.24338610844E+02  0.50593473115E+02  0.10566000000E+00 0. -1.
         22    1    1    0    0    0  0.25066623604E+02  0.82119485390E+01  0.20150260577E+02  0.33193443917E+02  0.00000000000E+00 0. -1.
</event>
<event>
 5    1  0.1315753E-009  0.9118800E+02  0.7818608E-02  0.1130116E+00
         25   -1    0    0    0    0  0.00000000000E+00  0.00000000000E+00  0.99999998245E-14  0.12500000000E+03  0.12500000000E+03 0.  0.
        -13    1    3    3    0    0  0.25584631816E+02  0.35645963537E+02 -0.32560682140E+02  0.54638972237E+02  0.10566000000E+00 0.  1.
         23    2    1    0    0    0  0.87485874526E+01  0.24036448394E+02  0.63923973135E+01  0.98634276471E+02  0.95045089919E+02 0.  0.
         13    1    3    3    0    0 -0.16836044364E+02 -0.11609515143E+02  0.38953079453E+02  0.43995304234E+02  0.10566000000E+00 0. -1.
         22    1    1    0    0    0 -0.87485874526E+01 -0.24036448394E+02 -0.63923973135E+01  0.26365723529E+02  0.00000000000E+00 0.  1.
</event>
<event>
 5    1  0.1315753E-009  0.9118800E+02  0.7818608E-02  0.1130116E+00
         25   -1    0    0    0    0  0.00000000000E+00  0.00000000000E+00  0.99999998245E-14  0.12500000000E+03  0.12500000000E+03 0.  0.
        -13    1    3    3    0    0  0.33023546518E+01 -0.24213745154E+02  0.24614215055E+02  0.34685468823E+02  0.10566000000E+00 0. -1.
         23    2    1    0    0    0 -0.14129239495E+02  0.25880364575E+01 -0.26431615237E+02  0.94917386659E+02  0.90024144899E+02 0.  0.
         13    1    3    3    0    0 -0.17431594147E+02  0.26801781611E+02 -0.51045830292E+02  0.60231917836E+02  0.10566000000E+00 0.  1.
         22    1    1    0    0    0  0.14129239495E+02 -0.25880364575E+01  0.26431615237E+02  0.30082613341E+02  0.00000000000E+00 0.  1.
</event>
<event>
 5    1  0.1315753E-009  0.9118800E+02  0.7818608E-02  0.1130116E+00
         25   -1    0    0    0    0  0.00000000000E+00  0.00000000000E+00  0.99999998245E-14  0.12500000000E+03  0.12500000000E+03 0.  0.
        -13    1    3    3    0    0  0.64810893700E+01 -0.18430068653E+02  0.23874937959E+02  0.30849566878E+02  0.10566000000E+00 0.  1.
         23    2    1    0    0    0  0.26849364040E+01  0.28541428922E+02 -0.15635351410E+02  0.92345961014E+02  0.86379918115E+02 0.  0.
         13    1    3    3    0    0 -0.37961529659E+01  0.46971497575E+02 -0.39510289368E+02  0.61496394136E+02  0.10566000000E+00 0. -1.
         22    1    1    0    0    0 -0.26849364040E+01 -0.28541428922E+02  0.15635351410E+02  0.32654038986E+02  0.00000000000E+00 0. -1.
</event>
<event>
 5    1  0.1315753E-009  0.9118800E+02  0.7818608E-02  0.1130116E+00
         25   -1    0    0    0    0  0.00000000000E+00  0.00000000000E+00  0.99999998245E-14  0.12500000000E+03  0.12500000000E+03 0.  0.
        -13    1    3    3    0    0  0.13779245352E+02 -0.25126435623E+02  0.29269281939E+02  0.40962267989E+02  0.10566000000E+00 0. -1.
         23    2    1    0    0    0  0.16813522914E+01  0.23728781542E+02 -0.34053523313E+01  0.10096921883E+03  0.98067857671E+02 0.  0.
         13    1    3    3    0    0 -0.12097893061E+02  0.48855217165E+02 -0.32674634270E+02  0.60006950843E+02  0.10566000000E+00 0.  1.
         22    1    1    0    0    0 -0.16813522914E+01 -0.23728781542E+02  0.34053523313E+01  0.24030781167E+02  0.00000000000E+00 0.  1.
</event>
<event>
 5    1  0.1315753E-009  0.9118800E+02  0.7818608E-02  0.1130116E+00
         25   -1    0    0    0    0  0.00000000000E+00  0.00000000000E+00  0.99999998245E-14  0.12500000000E+03  0.12500000000E+03 0.  0.
        -13    1    3    3    0    0 -0.15448598809E+02 -0.32598773128E+02 -0.40360657235E+02  0.54132550569E+02  0.10566000000E+00 0.  1.
         23    2    1    0    0    0  0.16334966164E+02 -0.11490919902E+02 -0.16101071807E+02  0.99346211330E+02  0.95976834875E+02 0.  0.
         13    1    3    3    0    0  0.31783564973E+02  0.21107853227E+02  0.24259585428E+02  0.45213660761E+02  0.10566000000E+00 0. -1.
         22    1    1    0    0    0 -0.16334966164E+02  0.11490919902E+02  0.16101071807E+02  0.25653788670E+02  0.00000000000E+00 0.  1.
</event>
<event>
 5    1  0.1315753E-009  0.9118800E+02  0.7818608E-02  0.1130116E+00
         25   -1    0    0    0    0  0.00000000000E+00  0.00000000000E+00  0.99999998245E-14  0.12500000000E+03  0.12500000000E+03 0.  0.
        -13    1    3    3    0    0 -0.30181132726E+02 -0.13790514148E+02  0.43836433298E+02  0.54979297025E+02  0.10566000000E+00 0.  1.
         23    2    1    0    0    0 -0.21042900102E+02 -0.21964636138E+02  0.70216407688E+01  0.93782179377E+02  0.88433844450E+02 0.  0.
         13    1    3    3    0    0  0.91382326239E+01 -0.81741219900E+01 -0.36814792529E+02  0.38802882352E+02  0.10566000000E+00 0. -1.
         22    1    1    0    0    0  0.21042900102E+02  0.21964636138E+02 -0.70216407688E+01  0.31217820623E+02  0.00000000000E+00 0.  1.
</event>
<event>
 5    1  0.1315753E-009  0.9118800E+02  0.7818608E-02  0.1130116E+00
         25   -1    0    0    0    0  0.00000000000E+00  0.00000000000E+00  0.99999998245E-14  0.12500000000E+03  0.12500000000E+03 0.  0.
        -13    1    3    3    0    0  0.23981554063E+02  0.11209423703E+02  0.30108002381E+02  0.40090760612E+02  0.10566000000E+00 0. -1.
         23    2    1    0    0    0  0.63042191176E+01 -0.27482925062E+02 -0.63287457698E+01  0.96101775632E+02  0.91653935583E+02 0.  0.
         13    1    3    3    0    0 -0.17677334945E+02 -0.38692348765E+02 -0.36436748151E+02  0.56011015020E+02  0.10566000000E+00 0.  1.
         22    1    1    0    0    0 -0.63042191176E+01  0.27482925062E+02  0.63287457698E+01  0.28898224368E+02  0.00000000000E+00 0. -1.
</event>
<event>
 5    1  0.1315753E-009  0.9118800E+02  0.7818608E-02  0.1130116E+00
         25   -1    0    0    0    0  0.00000000000E+00  0.00000000000E+00  0.99999998245E-14  0.12500000000E+03  0.12500000000E+03 0.  0.
        -13    1    3    3    0    0 -0.13718434004E+02  0.32782800521E+02  0.12418233822E+02  0.37644802255E+02  0.10566000000E+00 0.  1.
         23    2    1    0    0    0  0.64750458709E+01 -0.24177191602E+02  0.97544824332E+01  0.98137149438E+02  0.94389021392E+02 0.  0.
         13    1    3    3    0    0  0.20193479875E+02 -0.56959992123E+02 -0.26637513888E+01  0.60492347182E+02  0.10566000000E+00 0. -1.
         22    1    1    0    0    0 -0.64750458709E+01  0.24177191602E+02 -0.97544824332E+01  0.26862850562E+02  0.00000000000E+00 0. -1.
</event>
<event>
 5    1  0.1315753E-009  0.9118800E+02  0.7818608E-02  0.1130116E+00
         25   -1    0    0    0    0  0.00000000000E+00  0.00000000000E+00  0.99999998245E-14  0.12500000000E+03  0.12500000000E+03 0.  0.
        -13    1    3    3    0    0  0.40511041927E+02 -0.23434852691E+02 -0.96702666511E+01  0.47789769405E+02  0.10566000000E+00 0.  1.
         23    2    1    0    0    0  0.22770597868E+02  0.16258229859E+02  0.97004182346E+01  0.95387025153E+02  0.90673900810E+02 0.  0.
         13    1    3    3    0    0 -0.17740444059E+02  0.39693082550E+02  0.19370684886E+02  0.47597255748E+02  0.10566000000E+00 0. -1.
         22    1    1    0    0    0 -0.22770597868E+02 -0.16258229859E+02 -0.97004182346E+01  0.29612974847E+02  0.00000000000E+00 0.  1.
</event>
<event>
 5    1  0.1315753E-009  0.9118800E+02  0.7818608E-02  0.1130116E+00
         25   -1    0    0    0    0  0.00000000000E+00  0.00000000000E+00  0.99999998245E-14  0.12500000000E+03  0.12500000000E+03 0.  0.
        -13    1    3    3    0    0 -0.27749416254E+02  0.25307228878E+02  0.85936606333E+01  0.38527238456E+02  0.10566000000E+00 0.  1.
         23    2    1    0    0    0  0.64301744413E+01 -0.21804055566E+02  0.16000859939E+02  0.97200872293E+02  0.93140850722E+02 0.  0.
         13    1    3    3    0    0  0.34179590695E+02 -0.47111284444E+02  0.74071993058E+01  0.58673633837E+02  0.10566000000E+00 0. -1.
         22    1    1    0    0    0 -0.64301744413E+01  0.21804055566E+02 -0.16000859939E+02  0.27799127707E+02  0.00000000000E+00 0. -1.
</event>
<event>
 5    1  0.1315753E-009  0.9118800E+02  0.7818608E-02  0.1130116E+00
         25   -1    0    0    0    0  0.00000000000E+00  0.00000000000E+00  0.99999998245E-14  0.12500000000E+03  0.12500000000E+03 0.  0.
        -13    1    3    3    0    0  0.74600282479E+01 -0.45976977315E+02  0.36861402692E+02  0.59399567650E+02  0.10566000000E+00 0. -1.
         23    2    1    0    0    0  0.90771502127E+01 -0.10746966578E+02  0.24459173028E+02  0.96783992277E+02  0.92579684970E+02 0.  0.
         13    1    3    3    0    0  0.16171219647E+01  0.35230010738E+02 -0.12402229663E+02  0.37384424627E+02  0.10566000000E+00 0.  1.
         22    1    1    0    0    0 -0.90771502127E+01  0.10746966578E+02 -0.24459173028E+02  0.28216007723E+02  0.00000000000E+00 0. -1.
</event>
<event>
 5    1  0.1315753E-009  0.9118800E+02  0.7818608E-02  0.1130116E+00
         25   -1    0    0    0    0  0.00000000000E+00  0.00000000000E+00  0.99999998245E-14  0.12500000000E+03  0.12500000000E+03 0.  0.
        -13    1    3    3    0    0 -0.13008926658E+02 -0.17749279215E+02  0.11117895453E+02  0.24655381741E+02  0.10566000000E+00 0.  1.
         23    2    1    0    0    0  0.21416859715E+02  0.23143292373E+02 -0.21091751708E+02  0.87063792334E+02  0.78364201543E+02 0.  0.
         13    1    3    3    0    0  0.34425786373E+02  0.40892571588E+02 -0.32209647162E+02  0.62408410593E+02  0.10566000000E+00 0. -1.
         22    1    1    0    0    0 -0.21416859715E+02 -0.23143292373E+02  0.21091751708E+02  0.37936207666E+02  0.00000000000E+00 0. -1.
</event>
<event>
 5    1  0.1315753E-009  0.9118800E+02  0.7818608E-02  0.1130116E+00
         25   -1    0    0    0    0  0.00000000000E+00  0.00000000000E+00  0.99999998245E-14  0.12500000000E+03  0.12500000000E+03 0.  0.
        -13    1    3    3    0    0  0.15471816566E+02 -0.52480478299E+02 -0.78059210145E+01  0.55267723648E+02  0.10566000000E+00 0.  1.
         23    2    1    0    0    0  0.17328661778E+02 -0.13582624264E+02  0.13011701542E+02  0.99425118222E+02  0.96079548061E+02 0.  0.
         13    1    3    3    0    0  0.18568452125E+01  0.38897854034E+02  0.20817622557E+02  0.44157394574E+02  0.10566000000E+00 0. -1.
         22    1    1    0    0    0 -0.17328661778E+02  0.13582624264E+02 -0.13011701542E+02  0.25574881778E+02  0.00000000000E+00 0.  1.
</event>
<event>
 5    1  0.1315753E-009  0.9118800E+02  0.7818608E-02  0.1130116E+00
         25   -1    0    0    0    0  0.00000000000E+00  0.00000000000E+00  0.99999998245E-14  0.12500000000E+03  0.12500000000E+03 0.  0.
        -13    1    3    3    0    0  0.11285321636E+02  0.55215205147E+02  0.67565347615E+01  0.56760367246E+02  0.10566000000E+00 0. -1.
         23    2    1    0    0    0  0.19849713746E+02  0.19822363223E+02 -0.76533740059E+01  0.95922322081E+02  0.91408864560E+02 0.  0.
         13    1    3    3    0    0  0.85643921096E+01 -0.35392841925E+02 -0.14409908767E+02  0.39161954834E+02  0.10566000000E+00 0.  1.
         22    1    1    0    0    0 -0.19849713746E+02 -0.19822363223E+02  0.76533740059E+01  0.29077677919E+02  0.00000000000E+00 0. -1.
</event>
<event>
 5    1  0.1315753E-009  0.9118800E+02  0.7818608E-02  0.1130116E+00
         25   -1    0    0    0    0  0.00000000000E+00  0.00000000000E+00  0.99999998245E-14  0.12500000000E+03  0.12500000000E+03 0.  0.
        -13    1    3    3    0    0  0.35245216176E+02 -0.46220901356E+02 -0.11642624373E+02  0.59280341191E+02  0.10566000000E+00 0.  1.
         23    2    1    0    0    0  0.18252990713E+02 -0.15546987884E+02 -0.18128579071E+02  0.94941292752E+02  0.90057332783E+02 0.  0.
         13    1    3    3    0    0 -0.16992225463E+02  0.30673913472E+02 -0.64859546985E+01  0.35660951561E+02  0.10566000000E+00 0. -1.
         22    1    1    0    0    0 -0.18252990713E+02  0.15546987884E+02  0.18128579071E+02  0.30058707248E+02  0.00000000000E+00 0.  1.
</event>
<event>
 5    1  0.1315753E-009  0.9118800E+02  0.7818608E-02  0.1130116E+00
         25   -1    0    0    0    0  0.00000000000E+00  0.00000000000E+00  0.99999998245E-14  0.12500000000E+03  0.12500000000E+03 0.  0.
        -13    1    3    3    0    0  0.29009065925E+02 -0.41891994458E+02 -0.15667137525E+02  0.53309806488E+02  0.10566000000E+00 0. -1.
         23    2    1    0    0    0  0.21545685070E+02 -0.13834173716E+02  0.14824678122E+02  0.95413313992E+02  0.90710134483E+02 0.  0.
         13    1    3    3    0    0 -0.74633808554E+01  0.28057820742E+02  0.30491815647E+02  0.42103507503E+02  0.10566000000E+00 0.  1.
         22    1    1    0    0    0 -0.21545685070E+02  0.13834173716E+02 -0.14824678122E+02  0.29586686008E+02  0.00000000000E+00 0.  1.
</event>
<event>
 4    1  0.1315753E-009  0.9118800E+02  0.7818608E-02  0.1130116E+00
         25   -1    0    0    0    0  0.00000000000E+00  0.00000000000E+00  0.99999998245E-14  0.12500000000E+03  0.12500000000E+03 0.  0.
        -13    1    1    0    0    0  0.18153190624E+01  0.29487471457E+01 -0.14098768196E+02  0.14518158344E+02  0.10566000000E+00 0.  1.
         13    1    1    0    0    0  0.51468454602E+02  0.14224244602E+02  0.10200299259E+02  0.54363482436E+02  0.10566000000E+00 0. -1.
         22    1    1    0    0    0 -0.53283773664E+02 -0.17172991748E+02  0.38984689369E+01  0.56118359220E+02  0.00000000000E+00 0. -1.
</event>
<event>
 5    1  0.1315753E-009  0.9118800E+02  0.7818608E-02  0.1130116E+00
         25   -1    0    0    0    0  0.00000000000E+00  0.00000000000E+00  0.99999998245E-14  0.12500000000E+03  0.12500000000E+03 0.  0.
        -13    1    3    3    0    0 -0.18108579479E+02  0.41466998612E+00  0.25678660342E+02  0.31424470766E+02  0.10566000000E+00 0.  1.
         23    2    1    0    0    0 -0.16521559695E+02  0.28917313866E+02 -0.20629140268E+02  0.85824313609E+02  0.76361498167E+02 0.  0.
         13    1    3    3    0    0  0.15870197844E+01  0.28502643880E+02 -0.46307800610E+02  0.54399842843E+02  0.10566000000E+00 0. -1.
         22    1    1    0    0    0  0.16521559695E+02 -0.28917313866E+02  0.20629140268E+02  0.39175686391E+02  0.00000000000E+00 0. -1.
</event>
<event>
 5    1  0.1315753E-009  0.9118800E+02  0.7818608E-02  0.1130116E+00
         25   -1    0    0    0    0  0.00000000000E+00  0.00000000000E+00  0.99999998245E-14  0.12500000000E+03  0.12500000000E+03 0.  0.
        -13    1    3    3    0    0 -0.83516320197E+01 -0.37168341299E+02 -0.31537095578E+02  0.49455383062E+02  0.10566000000E+00 0.  1.
         23    2    1    0    0    0 -0.28101750377E+02 -0.18777444015E+01 -0.11663716941E+02  0.94515961698E+02  0.89465023471E+02 0.  0.
         13    1    3    3    0    0 -0.19750118357E+02  0.35290596898E+02  0.19873378637E+02  0.45060578636E+02  0.10566000000E+00 0. -1.
         22    1    1    0    0    0  0.28101750377E+02  0.18777444015E+01  0.11663716941E+02  0.30484038302E+02  0.00000000000E+00 0.  1.
</event>
<event>
 5    1  0.1315753E-009  0.9118800E+02  0.7818608E-02  0.1130116E+00
         25   -1    0    0    0    0  0.00000000000E+00  0.00000000000E+00  0.99999998245E-14  0.12500000000E+03  0.12500000000E+03 0.  0.
        -13    1    3    3    0    0 -0.44064147902E+02  0.16291180103E+02  0.31872020785E+02  0.56770490155E+02  0.10566000000E+00 0. -1.
         23    2    1    0    0    0 -0.59464418588E+01  0.16478129527E+02  0.23314276772E+02  0.95837619697E+02  0.91292962075E+02 0.  0.
         13    1    3    3    0    0  0.38117706043E+02  0.18694942379E+00 -0.85577440126E+01  0.39067129543E+02  0.10566000000E+00 0.  1.
         22    1    1    0    0    0  0.59464418588E+01 -0.16478129527E+02 -0.23314276772E+02  0.29162380303E+02  0.00000000000E+00 0. -1.
</event>
<event>
 5    1  0.1315753E-009  0.9118800E+02  0.7818608E-02  0.1130116E+00
         25   -1    0    0    0    0  0.00000000000E+00  0.00000000000E+00  0.99999998245E-14  0.12500000000E+03  0.12500000000E+03 0.  0.
        -13    1    3    3    0    0 -0.61414481750E+01  0.13869653266E+02 -0.41351603574E+02  0.44046009463E+02  0.10566000000E+00 0. -1.
         23    2    1    0    0    0 -0.94093573063E+01 -0.17313008317E+02  0.89807502394E+01  0.10334520522E+03  0.10105098370E+03 0.  0.
         13    1    3    3    0    0 -0.32679091313E+01 -0.31182661583E+02  0.50332353814E+02  0.59299195762E+02  0.10566000000E+00 0.  1.
         22    1    1    0    0    0  0.94093573063E+01  0.17313008317E+02 -0.89807502394E+01  0.21654794775E+02  0.00000000000E+00 0.  1.
</event>
<event>
 5    1  0.1315753E-009  0.9118800E+02  0.7818608E-02  0.1130116E+00
         25   -1    0    0    0    0  0.00000000000E+00  0.00000000000E+00  0.99999998245E-14  0.12500000000E+03  0.12500000000E+03 0.  0.
        -13    1    3    3    0    0  0.31222372358E+01  0.49687343983E+02  0.30407722532E+02  0.58337134580E+02  0.10566000000E+00 0.  1.
         23    2    1    0    0    0  0.12391941504E+02  0.23928317993E+02  0.17091207131E+01  0.97999153535E+02  0.94206095258E+02 0.  0.
         13    1    3    3    0    0  0.92697042685E+01 -0.25759025990E+02 -0.28698601819E+02  0.39662018955E+02  0.10566000000E+00 0. -1.
         22    1    1    0    0    0 -0.12391941504E+02 -0.23928317993E+02 -0.17091207131E+01  0.27000846465E+02  0.00000000000E+00 0.  1.
</event>
<event>
 5    1  0.1315753E-009  0.9118800E+02  0.7818608E-02  0.1130116E+00
         25   -1    0    0    0    0  0.00000000000E+00  0.00000000000E+00  0.99999998245E-14  0.12500000000E+03  0.12500000000E+03 0.  0.
        -13    1    3    3    0    0 -0.25130173848E+02  0.42105230572E+02  0.11171995147E+02  0.50291159450E+02  0.10566000000E+00 0.  1.
         23    2    1    0    0    0  0.15894681444E+02  0.22700842774E+02  0.95002623119E+01  0.95704537129E+02  0.91110560762E+02 0.  0.
         13    1    3    3    0    0  0.41024855292E+02 -0.19404387799E+02 -0.16717328346E+01  0.45413377680E+02  0.10566000000E+00 0. -1.
         22    1    1    0    0    0 -0.15894681444E+02 -0.22700842774E+02 -0.95002623119E+01  0.29295462871E+02  0.00000000000E+00 0.  1.
</event>
<event>
 5    1  0.1315753E-009  0.9118800E+02  0.7818608E-02  0.1130116E+00
         25   -1    0    0    0    0  0.00000000000E+00  0.00000000000E+00  0.99999998245E-14  0.12500000000E+03  0.12500000000E+03 0.  0.
        -13    1    3    3    0    0  0.25627066369E+02 -0.13342179673E+01 -0.23320579839E+02  0.34675456396E+02  0.10566000000E+00 0.  1.
         23    2    1    0    0    0 -0.13891445407E+02  0.15626148850E+02  0.20248997241E+02  0.95893803535E+02  0.91369857633E+02 0.  0.
         13    1    3    3    0    0 -0.39518511775E+02  0.16960366817E+02  0.43569577080E+02  0.61218347139E+02  0.10566000000E+00 0. -1.
         22    1    1    0    0    0  0.13891445407E+02 -0.15626148850E+02 -0.20248997241E+02  0.29106196465E+02  0.00000000000E+00 0. -1.
</event>
<event>
 5    1  0.1315753E-009  0.9118800E+02  0.7818608E-02  0.1130116E+00
         25   -1    0    0    0    0  0.00000000000E+00  0.00000000000E+00  0.99999998245E-14  0.12500000000E+03  0.12500000000E+03 0.  0.
        -13    1    3    3    0    0  0.24663149058E+02  0.55298926267E+02  0.91833516426E+01  0.61242038496E+02  0.10566000000E+00 0. -1.
         23    2    1    0    0    0  0.10135685710E+02  0.25653489546E+02 -0.46331319011E+01  0.97030381449E+02  0.92911761162E+02 0.  0.
         13    1    3    3    0    0 -0.14527463348E+02 -0.29645436722E+02 -0.13816483544E+02  0.35788342952E+02  0.10566000000E+00 0.  1.
         22    1    1    0    0    0 -0.10135685710E+02 -0.25653489546E+02  0.46331319011E+01  0.27969618551E+02  0.00000000000E+00 0. -1.
</event>
<event>
 5    1  0.1315753E-009  0.9118800E+02  0.7818608E-02  0.1130116E+00
         25   -1    0    0    0    0  0.00000000000E+00  0.00000000000E+00  0.99999998245E-14  0.12500000000E+03  0.12500000000E+03 0.  0.
        -13    1    3    3    0    0  0.81915131658E+01  0.92635723983E+01 -0.57246835170E+02  0.58567277234E+02  0.10566000000E+00 0.  1.
         23    2    1    0    0    0  0.56601763996E+01 -0.79996385669E+01 -0.42415482724E+02  0.81467196406E+02  0.68860722487E+02 0.  0.
         13    1    3    3    0    0 -0.25313367662E+01 -0.17263210965E+02  0.14831352446E+02  0.22899919172E+02  0.10566000000E+00 0. -1.
         22    1    1    0    0    0 -0.56601763996E+01  0.79996385669E+01  0.42415482724E+02  0.43532803594E+02  0.00000000000E+00 0.  1.
</event>
<event>
 5    1  0.1315753E-009  0.9118800E+02  0.7818608E-02  0.1130116E+00
         25   -1    0    0    0    0  0.00000000000E+00  0.00000000000E+00  0.99999998245E-14  0.12500000000E+03  0.12500000000E+03 0.  0.
        -13    1    3    3    0    0  0.76893383087E+01  0.26631548801E+02 -0.21228743223E+02  0.34914696304E+02  0.10566000000E+00 0. -1.
         23    2    1    0    0    0 -0.12704551608E+02 -0.23243752416E+02  0.93965648553E+01  0.96893540084E+02  0.92727477163E+02 0.  0.
         13    1    3    3    0    0 -0.20393889917E+02 -0.49875301216E+02  0.30625308079E+02  0.61978843780E+02  0.10566000000E+00 0.  1.
         22    1    1    0    0    0  0.12704551608E+02  0.23243752416E+02 -0.93965648553E+01  0.28106459916E+02  0.00000000000E+00 0.  1.
</event>
<event>
 5    1  0.1315753E-009  0.9118800E+02  0.7818608E-02  0.1130116E+00
         25   -1    0    0    0    0  0.00000000000E+00  0.00000000000E+00  0.99999998245E-14  0.12500000000E+03  0.12500000000E+03 0.  0.
        -13    1    3    3    0    0 -0.71817790467E+01 -0.27421944066E+00 -0.33758445497E+02  0.34515169897E+02  0.10566000000E+00 0.  1.
         23    2    1    0    0    0  0.21279547930E+02  0.16586431426E+02  0.15525199107E+02  0.93871866827E+02  0.88560525668E+02 0.  0.
         13    1    3    3    0    0  0.28461326976E+02  0.16860650867E+02  0.49283644604E+02  0.59356696930E+02  0.10566000000E+00 0. -1.
         22    1    1    0    0    0 -0.21279547930E+02 -0.16586431426E+02 -0.15525199107E+02  0.31128133173E+02  0.00000000000E+00 0. -1.
</event>
<event>
 5    1  0.1315753E-009  0.9118800E+02  0.7818608E-02  0.1130116E+00
         25   -1    0    0    0    0  0.00000000000E+00  0.00000000000E+00  0.99999998245E-14  0.12500000000E+03  0.12500000000E+03 0.  0.
        -13    1    3    3    0    0  0.26608101996E+02  0.28409059703E+01  0.25161713277E+02  0.36731251240E+02  0.10566000000E+00 0. -1.
         23    2    1    0    0    0 -0.23469010565E+01  0.48443939372E+01 -0.27562666932E+02  0.96916611572E+02  0.92758573151E+02 0.  0.
         13    1    3    3    0    0 -0.28955003053E+02  0.20034879669E+01 -0.52724380209E+02  0.60185360332E+02  0.10566000000E+00 0.  1.
         22    1    1    0    0    0  0.23469010565E+01 -0.48443939372E+01  0.27562666932E+02  0.28083388428E+02  0.00000000000E+00 0.  1.
</event>
<event>
 5    1  0.1315753E-009  0.9118800E+02  0.7818608E-02  0.1130116E+00
         25   -1    0    0    0    0  0.00000000000E+00  0.00000000000E+00  0.99999998245E-14  0.12500000000E+03  0.12500000000E+03 0.  0.
        -13    1    3    3    0    0 -0.34758928225E+02 -0.25073149032E+02  0.17212065064E+02  0.46185628085E+02  0.10566000000E+00 0.  1.
         23    2    1    0    0    0  0.14431402178E+00  0.10471721778E+02  0.26180091854E+02  0.96802925808E+02  0.92605245272E+02 0.  0.
         13    1    3    3    0    0  0.34903242247E+02  0.35544870810E+02  0.89680267895E+01  0.50617297723E+02  0.10566000000E+00 0. -1.
         22    1    1    0    0    0 -0.14431402178E+00 -0.10471721778E+02 -0.26180091854E+02  0.28197074192E+02  0.00000000000E+00 0. -1.
</event>
<event>
 5    1  0.1315753E-009  0.9118800E+02  0.7818608E-02  0.1130116E+00
         25   -1    0    0    0    0  0.00000000000E+00  0.00000000000E+00  0.99999998245E-14  0.12500000000E+03  0.12500000000E+03 0.  0.
        -13    1    3    3    0    0 -0.47709785123E+02  0.19474065793E+02  0.12429017106E+02  0.53009003625E+02  0.10566000000E+00 0. -1.
         23    2    1    0    0    0 -0.26270673344E+02 -0.10206154172E+02 -0.89773193747E+01  0.95421187920E+02  0.90720984232E+02 0.  0.
         13    1    3    3    0    0  0.21439111780E+02 -0.29680219965E+02 -0.21406336481E+02  0.42412184295E+02  0.10566000000E+00 0.  1.
         22    1    1    0    0    0  0.26270673344E+02  0.10206154172E+02  0.89773193747E+01  0.29578812080E+02  0.00000000000E+00 0. -1.
</event>
<event>
 5    1  0.1315753E-009  0.9118800E+02  0.7818608E-02  0.1130116E+00
         25   -1    0    0    0    0  0.00000000000E+00  0.00000000000E+00  0.99999998245E-14  0.12500000000E+03  0.12500000000E+03 0.  0.
        -13    1    3    3    0    0 -0.10946505470E+02  0.33741831507E+02 -0.19585724947E+02  0.40520969401E+02  0.10566000000E+00 0.  1.
         23    2    1    0    0    0 -0.25614397921E+01  0.10480108522E+02  0.28464069372E+02  0.94559945899E+02  0.89526456842E+02 0.  0.
         13    1    3    3    0    0  0.83850656782E+01 -0.23261722986E+02  0.48049794320E+02  0.54038976498E+02  0.10566000000E+00 0. -1.
         22    1    1    0    0    0  0.25614397921E+01 -0.10480108522E+02 -0.28464069372E+02  0.30440054101E+02  0.00000000000E+00 0. -1.
</event>
<event>
 5    1  0.1315753E-009  0.9118800E+02  0.7818608E-02  0.1130116E+00
         25   -1    0    0    0    0  0.00000000000E+00  0.00000000000E+00  0.99999998245E-14  0.12500000000E+03  0.12500000000E+03 0.  0.
        -13    1    3    3    0    0  0.18635863495E+02 -0.20602084562E+01  0.57878527006E+02  0.60839747858E+02  0.10566000000E+00 0.  1.
         23    2    1    0    0    0  0.16258400995E+01  0.59172603849E+01  0.29461813253E+02  0.94905884850E+02  0.90008173032E+02 0.  0.
         13    1    3    3    0    0 -0.17010023395E+02  0.79774688411E+01 -0.28416713752E+02  0.34066136992E+02  0.10566000000E+00 0. -1.
         22    1    1    0    0    0 -0.16258400995E+01 -0.59172603849E+01 -0.29461813253E+02  0.30094115150E+02  0.00000000000E+00 0.  1.
</event>
<event>
 5    1  0.1315753E-009  0.9118800E+02  0.7818608E-02  0.1130116E+00
         25   -1    0    0    0    0  0.00000000000E+00  0.00000000000E+00  0.99999998245E-14  0.12500000000E+03  0.12500000000E+03 0.  0.
        -13    1    3    3    0    0 -0.17525685982E+02 -0.36888250960E+02 -0.39714431169E+02  0.56966129719E+02  0.10566000000E+00 0. -1.
         23    2    1    0    0    0 -0.59049422911E+00 -0.68698393283E+01 -0.31974257264E+02  0.92290727562E+02  0.86299953015E+02 0.  0.
         13    1    3    3    0    0  0.16935191753E+02  0.30018411632E+02  0.77401739052E+01  0.35324597843E+02  0.10566000000E+00 0.  1.
         22    1    1    0    0    0  0.59049422911E+00  0.68698393283E+01  0.31974257264E+02  0.32709272438E+02  0.00000000000E+00 0. -1.
</event>
<event>
 5    1  0.1315753E-009  0.9118800E+02  0.7818608E-02  0.1130116E+00
         25   -1    0    0    0    0  0.00000000000E+00  0.00000000000E+00  0.99999998245E-14  0.12500000000E+03  0.12500000000E+03 0.  0.
        -13    1    3    3    0    0 -0.19986764465E+02  0.11153644113E+02  0.40780667799E+02  0.46764821831E+02  0.10566000000E+00 0.  1.
         23    2    1    0    0    0  0.11371388240E+02  0.10703736156E+02 -0.10004929241E+02  0.10645338178E+03  0.10482530918E+03 0.  0.
         13    1    3    3    0    0  0.31358152705E+02 -0.44990795719E+00 -0.50785597040E+02  0.59688559951E+02  0.10566000000E+00 0. -1.
         22    1    1    0    0    0 -0.11371388240E+02 -0.10703736156E+02  0.10004929241E+02  0.18546618218E+02  0.00000000000E+00 0. -1.
</event>
<event>
 5    1  0.1315753E-009  0.9118800E+02  0.7818608E-02  0.1130116E+00
         25   -1    0    0    0    0  0.00000000000E+00  0.00000000000E+00  0.99999998245E-14  0.12500000000E+03  0.12500000000E+03 0.  0.
        -13    1    3    3    0    0  0.23818369073E+02  0.44894658592E+02  0.18449916614E+02  0.54067140321E+02  0.10566000000E+00 0. -1.
         23    2    1    0    0    0  0.22592311519E+02  0.21662003867E+02 -0.11201649585E+02  0.91756475747E+02  0.85522622368E+02 0.  0.
         13    1    3    3    0    0 -0.12260575537E+01 -0.23232654725E+02 -0.29651566200E+02  0.37689335426E+02  0.10566000000E+00 0.  1.
         22    1    1    0    0    0 -0.22592311519E+02 -0.21662003867E+02  0.11201649585E+02  0.33243524253E+02  0.00000000000E+00 0. -1.
</event>
<event>
 5    1  0.1315753E-009  0.9118800E+02  0.7818608E-02  0.1130116E+00
         25   -1    0    0    0    0  0.00000000000E+00  0.00000000000E+00  0.99999998245E-14  0.12500000000E+03  0.12500000000E+03 0.  0.
        -13    1    3    3    0    0 -0.35848565176E+02  0.19789231197E+02  0.15002480446E+01  0.40975543984E+02  0.10566000000E+00 0. -1.
         23    2    1    0    0    0 -0.16645968227E+02 -0.25478845806E+02 -0.12493988382E+02  0.92100766157E+02  0.86024365962E+02 0.  0.
         13    1    3    3    0    0  0.19202596948E+02 -0.45268077002E+02 -0.13994236426E+02  0.51125222173E+02  0.10566000000E+00 0.  1.
         22    1    1    0    0    0  0.16645968227E+02  0.25478845806E+02  0.12493988382E+02  0.32899233843E+02  0.00000000000E+00 0. -1.
</event>
<event>
 5    1  0.1315753E-009  0.9118800E+02  0.7818608E-02  0.1130116E+00
         25   -1    0    0    0    0  0.00000000000E+00  0.00000000000E+00  0.99999998245E-14  0.12500000000E+03  0.12500000000E+03 0.  0.
        -13    1    3    3    0    0  0.40535312397E+02 -0.32977138576E+02  0.28625023204E+01  0.52333624978E+02  0.10566000000E+00 0. -1.
         23    2    1    0    0    0 -0.31765919771E+01 -0.28174383122E+02 -0.19995909448E+01  0.96576682726E+02  0.92299353635E+02 0.  0.
         13    1    3    3    0    0 -0.43711904374E+02  0.48027554540E+01 -0.48620932652E+01  0.44243057748E+02  0.10566000000E+00 0.  1.
         22    1    1    0    0    0  0.31765919771E+01  0.28174383122E+02  0.19995909448E+01  0.28423317274E+02  0.00000000000E+00 0. -1.
</event>
<event>
 5    1  0.1315753E-009  0.9118800E+02  0.7818608E-02  0.1130116E+00
         25   -1    0    0    0    0  0.00000000000E+00  0.00000000000E+00  0.99999998245E-14  0.12500000000E+03  0.12500000000E+03 0.  0.
        -13    1    3    3    0    0 -0.49638146481E+01  0.86029739014E+01 -0.34121952231E+02  0.35538280824E+02  0.10566000000E+00 0. -1.
         23    2    1    0    0    0  0.13144652760E+02  0.14185913558E+02  0.22548930343E+02  0.95293497357E+02  0.90544874726E+02 0.  0.
         13    1    3    3    0    0  0.18108467408E+02  0.55829396565E+01  0.56670882575E+02  0.59755216533E+02  0.10566000000E+00 0.  1.
         22    1    1    0    0    0 -0.13144652760E+02 -0.14185913558E+02 -0.22548930343E+02  0.29706502643E+02  0.00000000000E+00 0.  1.
</event>
<event>
 5    1  0.1315753E-009  0.9118800E+02  0.7818608E-02  0.1130116E+00
         25   -1    0    0    0    0  0.00000000000E+00  0.00000000000E+00  0.99999998245E-14  0.12500000000E+03  0.12500000000E+03 0.  0.
        -13    1    3    3    0    0 -0.34310761373E+02  0.32661843142E+02  0.90298642397E+01  0.48224205080E+02  0.10566000000E+00 0. -1.
         23    2    1    0    0    0 -0.13495568254E+02 -0.12777286240E+02  0.18142471533E+02  0.99028117521E+02  0.95561652247E+02 0.  0.
         13    1    3    3    0    0  0.20815193118E+02 -0.45439129382E+02  0.91126072935E+01  0.50803912441E+02  0.10566000000E+00 0.  1.
         22    1    1    0    0    0  0.13495568254E+02  0.12777286240E+02 -0.18142471533E+02  0.25971882479E+02  0.00000000000E+00 0.  1.
</event>
<event>
 5    1  0.1315753E-009  0.9118800E+02  0.7818608E-02  0.1130116E+00
         25   -1    0    0    0    0  0.00000000000E+00  0.00000000000E+00  0.99999998245E-14  0.12500000000E+03  0.12500000000E+03 0.  0.
        -13    1    3    3    0    0 -0.53136187779E+02 -0.15285373114E+02  0.36015219947E+00  0.55292295634E+02  0.10566000000E+00 0. -1.
         23    2    1    0    0    0 -0.22632582884E+02  0.34967682586E+00  0.19997661117E+02  0.94796315919E+02  0.89855878938E+02 0.  0.
         13    1    3    3    0    0  0.30503604894E+02  0.15635049940E+02  0.19637508918E+02  0.39504020285E+02  0.10566000000E+00 0.  1.
         22    1    1    0    0    0  0.22632582884E+02 -0.34967682586E+00 -0.19997661117E+02  0.30203684081E+02  0.00000000000E+00 0. -1.
</event>
<event>
 5    1  0.1315753E-009  0.9118800E+02  0.7818608E-02  0.1130116E+00
         25   -1    0    0    0    0  0.00000000000E+00  0.00000000000E+00  0.99999998245E-14  0.12500000000E+03  0.12500000000E+03 0.  0.
        -13    1    3    3    0    0  0.26665068484E+02 -0.20384924089E+02  0.49749480253E+02  0.60013273172E+02  0.10566000000E+00 0.  1.
         23    2    1    0    0    0  0.16120184793E+02  0.22365483338E+01  0.25050981758E+02  0.95126697650E+02  0.90314309013E+02 0.  0.
         13    1    3    3    0    0 -0.10544883690E+02  0.22621472423E+02 -0.24698498495E+02  0.35113424478E+02  0.10566000000E+00 0. -1.
         22    1    1    0    0    0 -0.16120184793E+02 -0.22365483338E+01 -0.25050981758E+02  0.29873302350E+02  0.00000000000E+00 0.  1.
</event>
<event>
 5    1  0.1315753E-009  0.9118800E+02  0.7818608E-02  0.1130116E+00
         25   -1    0    0    0    0  0.00000000000E+00  0.00000000000E+00  0.99999998245E-14  0.12500000000E+03  0.12500000000E+03 0.  0.
        -13    1    3    3    0    0 -0.88551619030E+01 -0.33223988914E+02  0.13102984476E+02  0.36796014701E+02  0.10566000000E+00 0.  1.
         23    2    1    0    0    0  0.28977973534E+02 -0.10897783726E+02 -0.16644440671E+02  0.89850006464E+02  0.82689186815E+02 0.  0.
         13    1    3    3    0    0  0.37833135437E+02  0.22326205188E+02 -0.29747425147E+02  0.53053991763E+02  0.10566000000E+00 0. -1.
         22    1    1    0    0    0 -0.28977973534E+02  0.10897783726E+02  0.16644440671E+02  0.35149993536E+02  0.00000000000E+00 0. -1.
</event>
<event>
 5    1  0.1315753E-009  0.9118800E+02  0.7818608E-02  0.1130116E+00
         25   -1    0    0    0    0  0.00000000000E+00  0.00000000000E+00  0.99999998245E-14  0.12500000000E+03  0.12500000000E+03 0.  0.
        -13    1    3    3    0    0 -0.29761449419E+02  0.18485611151E+02 -0.42084228916E+02  0.54759064807E+02  0.10566000000E+00 0.  1.
         23    2    1    0    0    0 -0.28871520754E+02 -0.35299521941E+01 -0.89183514196E+01  0.94576945170E+02  0.89550188679E+02 0.  0.
         13    1    3    3    0    0  0.88992866428E+00 -0.22015563346E+02  0.33165877496E+02  0.39817880362E+02  0.10566000000E+00 0. -1.
         22    1    1    0    0    0  0.28871520754E+02  0.35299521941E+01  0.89183514196E+01  0.30423054830E+02  0.00000000000E+00 0. -1.
</event>
<event>
 5    1  0.1315753E-009  0.9118800E+02  0.7818608E-02  0.1130116E+00
         25   -1    0    0    0    0  0.00000000000E+00  0.00000000000E+00  0.99999998245E-14  0.12500000000E+03  0.12500000000E+03 0.  0.
        -13    1    3    3    0    0  0.26060043207E+02 -0.20512905615E+02  0.28210642400E+02  0.43540287750E+02  0.10566000000E+00 0. -1.
         23    2    1    0    0    0  0.18171421301E+01  0.24232651364E+02  0.16091787016E+02  0.95854348403E+02  0.91315864452E+02 0.  0.
         13    1    3    3    0    0 -0.24242901077E+02  0.44745556980E+02 -0.12118855384E+02  0.52314060652E+02  0.10566000000E+00 0.  1.
         22    1    1    0    0    0 -0.18171421301E+01 -0.24232651364E+02 -0.16091787016E+02  0.29145651597E+02  0.00000000000E+00 0. -1.
</event>
<event>
 5    1  0.1315753E-009  0.9118800E+02  0.7818608E-02  0.1130116E+00
         25   -1    0    0    0    0  0.00000000000E+00  0.00000000000E+00  0.99999998245E-14  0.12500000000E+03  0.12500000000E+03 0.  0.
        -13    1    3    3    0    0  0.20295402262E+02  0.55796175185E+02  0.73927616781E+01  0.59831267808E+02  0.10566000000E+00 0. -1.
         23    2    1    0    0    0  0.18039836134E+02  0.13874750139E+02  0.21264071954E+01  0.10214248511E+03  0.99552103336E+02 0.  0.
         13    1    3    3    0    0 -0.22555661276E+01 -0.41921425046E+02 -0.52663544827E+01  0.42311217307E+02  0.10566000000E+00 0.  1.
         22    1    1    0    0    0 -0.18039836134E+02 -0.13874750139E+02 -0.21264071954E+01  0.22857514885E+02  0.00000000000E+00 0. -1.
</event>
<event>
 5    1  0.1315753E-009  0.9118800E+02  0.7818608E-02  0.1130116E+00
         25   -1    0    0    0    0  0.00000000000E+00  0.00000000000E+00  0.99999998245E-14  0.12500000000E+03  0.12500000000E+03 0.  0.
        -13    1    3    3    0    0  0.15488195140E+02 -0.14047566599E+02  0.26755563632E+02  0.33957173990E+02  0.10566000000E+00 0.  1.
         23    2    1    0    0    0 -0.15143050931E+02  0.16030158961E+02 -0.18412671821E+02  0.96271887090E+02  0.91885645083E+02 0.  0.
         13    1    3    3    0    0 -0.30631246072E+02  0.30077725560E+02 -0.45168235453E+02  0.62314713100E+02  0.10566000000E+00 0. -1.
         22    1    1    0    0    0  0.15143050931E+02 -0.16030158961E+02  0.18412671821E+02  0.28728112910E+02  0.00000000000E+00 0. -1.
</event>
<event>
 5    1  0.1315753E-009  0.9118800E+02  0.7818608E-02  0.1130116E+00
         25   -1    0    0    0    0  0.00000000000E+00  0.00000000000E+00  0.99999998245E-14  0.12500000000E+03  0.12500000000E+03 0.  0.
        -13    1    3    3    0    0  0.28851466697E+02  0.35275470551E+02 -0.41630033678E+02  0.61723875618E+02  0.10566000000E+00 0.  1.
         23    2    1    0    0    0  0.16787397280E+02  0.20650061979E+02 -0.14884985099E+02  0.94507303357E+02  0.89452925269E+02 0.  0.
         13    1    3    3    0    0 -0.12064069417E+02 -0.14625408572E+02  0.26745048579E+02  0.32783427739E+02  0.10566000000E+00 0. -1.
         22    1    1    0    0    0 -0.16787397280E+02 -0.20650061979E+02  0.14884985099E+02  0.30492696643E+02  0.00000000000E+00 0.  1.
</event>
<event>
 5    1  0.1315753E-009  0.9118800E+02  0.7818608E-02  0.1130116E+00
         25   -1    0    0    0    0  0.00000000000E+00  0.00000000000E+00  0.99999998245E-14  0.12500000000E+03  0.12500000000E+03 0.  0.
        -13    1    3    3    0    0 -0.12529938511E+02 -0.84471087242E+00 -0.57996817290E+02  0.59341005008E+02  0.10566000000E+00 0.  1.
         23    2    1    0    0    0  0.80991156935E+01 -0.13553764590E+01 -0.28507407361E+02  0.95333436418E+02  0.90599995057E+02 0.  0.
         13    1    3    3    0    0  0.20629054204E+02 -0.51066558662E+00  0.29489409930E+02  0.35992431409E+02  0.10566000000E+00 0. -1.
         22    1    1    0    0    0 -0.80991156935E+01  0.13553764590E+01  0.28507407361E+02  0.29666563582E+02  0.00000000000E+00 0.  1.
</event>
<event>
 5    1  0.1315753E-009  0.9118800E+02  0.7818608E-02  0.1130116E+00
         25   -1    0    0    0    0  0.00000000000E+00  0.00000000000E+00  0.99999998245E-14  0.12500000000E+03  0.12500000000E+03 0.  0.
        -13    1    3    3    0    0  0.65966513690E+01 -0.33036577283E+02 -0.10316721980E+02  0.35233182716E+02  0.10566000000E+00 0.  1.
         23    2    1    0    0    0  0.34981195723E+01  0.27907434589E+02 -0.42108065083E+01  0.96560720169E+02  0.92277733187E+02 0.  0.
         13    1    3    3    0    0 -0.30985317967E+01  0.60944011871E+02  0.61059154717E+01  0.61327537453E+02  0.10566000000E+00 0. -1.
         22    1    1    0    0    0 -0.34981195723E+01 -0.27907434589E+02  0.42108065083E+01  0.28439279831E+02  0.00000000000E+00 0. -1.
</event>
<event>
 5    1  0.1315753E-009  0.9118800E+02  0.7818608E-02  0.1130116E+00
         25   -1    0    0    0    0  0.00000000000E+00  0.00000000000E+00  0.99999998245E-14  0.12500000000E+03  0.12500000000E+03 0.  0.
        -13    1    3    3    0    0  0.16275374702E+02  0.23671448449E+02  0.26858789230E+02  0.39327229959E+02  0.10566000000E+00 0. -1.
         23    2    1    0    0    0  0.20679627506E+02 -0.64686495790E+01 -0.20195293320E+02  0.95380069321E+02  0.90664311227E+02 0.  0.
         13    1    3    3    0    0  0.44042528044E+01 -0.30140098028E+02 -0.47054082549E+02  0.56052839361E+02  0.10566000000E+00 0.  1.
         22    1    1    0    0    0 -0.20679627506E+02  0.64686495790E+01  0.20195293320E+02  0.29619930679E+02  0.00000000000E+00 0.  1.
</event>
<event>
 5    1  0.1315753E-009  0.9118800E+02  0.7818608E-02  0.1130116E+00
         25   -1    0    0    0    0  0.00000000000E+00  0.00000000000E+00  0.99999998245E-14  0.12500000000E+03  0.12500000000E+03 0.  0.
        -13    1    3    3    0    0  0.32198738446E+02 -0.15078523656E+02 -0.21055540434E+02  0.41321514737E+02  0.10566000000E+00 0.  1.
         23    2    1    0    0    0  0.18683009817E+02 -0.42839150325E-01 -0.47121829412E+02  0.74309532472E+02  0.54335836407E+02 0.  0.
         13    1    3    3    0    0 -0.13515728629E+02  0.15035684506E+02 -0.26066288979E+02  0.32988017735E+02  0.10566000000E+00 0. -1.
         22    1    1    0    0    0 -0.18683009817E+02  0.42839150325E-01  0.47121829412E+02  0.50690467528E+02  0.00000000000E+00 0.  1.
</event>
<event>
 5    1  0.1315753E-009  0.9118800E+02  0.7818608E-02  0.1130116E+00
         25   -1    0    0    0    0  0.00000000000E+00  0.00000000000E+00  0.99999998245E-14  0.12500000000E+03  0.12500000000E+03 0.  0.
        -13    1    3    3    0    0 -0.47559918352E+02  0.21656096755E+02 -0.28393359384E+02  0.59473745312E+02  0.10566000000E+00 0.  1.
         23    2    1    0    0    0 -0.25995164960E+02 -0.31473673792E+01 -0.12906267642E+02  0.95807085326E+02  0.91251144275E+02 0.  0.
         13    1    3    3    0    0  0.21564753392E+02 -0.24803464134E+02  0.15487091742E+02  0.36333340014E+02  0.10566000000E+00 0. -1.
         22    1    1    0    0    0  0.25995164960E+02  0.31473673792E+01  0.12906267642E+02  0.29192914674E+02  0.00000000000E+00 0.  1.
</event>
<event>
 5    1  0.1315753E-009  0.9118800E+02  0.7818608E-02  0.1130116E+00
         25   -1    0    0    0    0  0.00000000000E+00  0.00000000000E+00  0.99999998245E-14  0.12500000000E+03  0.12500000000E+03 0.  0.
        -13    1    3    3    0    0  0.48921594192E+02  0.35646733301E+02  0.12408534655E+02  0.61789925309E+02  0.10566000000E+00 0.  1.
         23    2    1    0    0    0  0.22687012634E+02  0.18668393025E+02  0.12579422434E+02  0.93039848105E+02  0.87378269760E+02 0.  0.
         13    1    3    3    0    0 -0.26234581558E+02 -0.16978340276E+02  0.17088777959E+00  0.31249922796E+02  0.10566000000E+00 0. -1.
         22    1    1    0    0    0 -0.22687012634E+02 -0.18668393025E+02 -0.12579422434E+02  0.31960151895E+02  0.00000000000E+00 0.  1.
</event>
<event>
 5    1  0.1315753E-009  0.9118800E+02  0.7818608E-02  0.1130116E+00
         25   -1    0    0    0    0  0.00000000000E+00  0.00000000000E+00  0.99999998245E-14  0.12500000000E+03  0.12500000000E+03 0.  0.
        -13    1    3    3    0    0  0.59764154824E+01  0.35523008605E+02  0.19744675357E+01  0.36076465576E+02  0.10566000000E+00 0.  1.
         23    2    1    0    0    0  0.29578314947E+02 -0.99309254965E+01 -0.15459852598E+02  0.90178928238E+02  0.83184926877E+02 0.  0.
         13    1    3    3    0    0  0.23601899464E+02 -0.45453934101E+02 -0.17434320133E+02  0.54102462662E+02  0.10566000000E+00 0. -1.
         22    1    1    0    0    0 -0.29578314947E+02  0.99309254965E+01  0.15459852598E+02  0.34821071762E+02  0.00000000000E+00 0. -1.
</event>
<event>
 5    1  0.1315753E-009  0.9118800E+02  0.7818608E-02  0.1130116E+00
         25   -1    0    0    0    0  0.00000000000E+00  0.00000000000E+00  0.99999998245E-14  0.12500000000E+03  0.12500000000E+03 0.  0.
        -13    1    3    3    0    0 -0.29384070056E+02  0.34878484668E+02  0.19320812132E+02  0.49530164660E+02  0.10566000000E+00 0.  1.
         23    2    1    0    0    0  0.13920237063E+02  0.23576883225E+02  0.12865933842E+02  0.94748145906E+02  0.89788843831E+02 0.  0.
         13    1    3    3    0    0  0.43304307119E+02 -0.11301601444E+02 -0.64548782899E+01  0.45217981246E+02  0.10566000000E+00 0. -1.
         22    1    1    0    0    0 -0.13920237063E+02 -0.23576883225E+02 -0.12865933842E+02  0.30251854094E+02  0.00000000000E+00 0.  1.
</event>
<event>
 5    1  0.1315753E-009  0.9118800E+02  0.7818608E-02  0.1130116E+00
         25   -1    0    0    0    0  0.00000000000E+00  0.00000000000E+00  0.99999998245E-14  0.12500000000E+03  0.12500000000E+03 0.  0.
        -13    1    3    3    0    0  0.21880093679E+02  0.47079013431E+02  0.34014528246E+02  0.62065862604E+02  0.10566000000E+00 0.  1.
         23    2    1    0    0    0 -0.15941959004E+00  0.86249202296E+01  0.57126021840E+01  0.11465357611E+03  0.11418578733E+03 0.  0.
         13    1    3    3    0    0 -0.22039513269E+02 -0.38454093201E+02 -0.28301926062E+02  0.52587713507E+02  0.10566000000E+00 0. -1.
         22    1    1    0    0    0  0.15941959004E+00 -0.86249202296E+01 -0.57126021840E+01  0.10346423889E+02  0.00000000000E+00 0.  1.
</event>
<event>
 5    1  0.1315753E-009  0.9118800E+02  0.7818608E-02  0.1130116E+00
         25   -1    0    0    0    0  0.00000000000E+00  0.00000000000E+00  0.99999998245E-14  0.12500000000E+03  0.12500000000E+03 0.  0.
        -13    1    3    3    0    0  0.26506150811E+02 -0.93201881422E+01 -0.43632670926E+02  0.51896657638E+02  0.10566000000E+00 0. -1.
         23    2    1    0    0    0  0.10304022010E+02  0.21248925861E+02 -0.13367772365E+02  0.97863547435E+02  0.94025990336E+02 0.  0.
         13    1    3    3    0    0 -0.16202128801E+02  0.30569114003E+02  0.30264898562E+02  0.45966889797E+02  0.10566000000E+00 0.  1.
         22    1    1    0    0    0 -0.10304022010E+02 -0.21248925861E+02  0.13367772365E+02  0.27136452565E+02  0.00000000000E+00 0. -1.
</event>
<event>
 5    1  0.1315753E-009  0.9118800E+02  0.7818608E-02  0.1130116E+00
         25   -1    0    0    0    0  0.00000000000E+00  0.00000000000E+00  0.99999998245E-14  0.12500000000E+03  0.12500000000E+03 0.  0.
        -13    1    3    3    0    0 -0.21078758008E+02 -0.45352053533E+02  0.31728826514E+02  0.59227125498E+02  0.10566000000E+00 0. -1.
         23    2    1    0    0    0 -0.16467087590E+02 -0.91197899988E+01  0.19871359046E+02  0.97628364067E+02  0.93712811381E+02 0.  0.
         13    1    3    3    0    0  0.46116704185E+01  0.36232263534E+02 -0.11857467468E+02  0.38401238569E+02  0.10566000000E+00 0.  1.
         22    1    1    0    0    0  0.16467087590E+02  0.91197899988E+01 -0.19871359046E+02  0.27371635933E+02  0.00000000000E+00 0. -1.
</event>
<event>
 5    1  0.1315753E-009  0.9118800E+02  0.7818608E-02  0.1130116E+00
         25   -1    0    0    0    0  0.00000000000E+00  0.00000000000E+00  0.99999998245E-14  0.12500000000E+03  0.12500000000E+03 0.  0.
        -13    1    3    3    0    0 -0.52256479581E+02  0.21528165018E+01 -0.17339363029E+02  0.55100262716E+02  0.10566000000E+00 0.  1.
         23    2    1    0    0    0 -0.14957696300E+02  0.19216412302E+02 -0.15450310035E+02  0.96160526001E+02  0.91734025859E+02 0.  0.
         13    1    3    3    0    0  0.37298783280E+02  0.17063595800E+02  0.18890529941E+01  0.41060263285E+02  0.10566000000E+00 0. -1.
         22    1    1    0    0    0  0.14957696300E+02 -0.19216412302E+02  0.15450310035E+02  0.28839473999E+02  0.00000000000E+00 0.  1.
</event>
<event>
 5    1  0.1315753E-009  0.9118800E+02  0.7818608E-02  0.1130116E+00
         25   -1    0    0    0    0  0.00000000000E+00  0.00000000000E+00  0.99999998245E-14  0.12500000000E+03  0.12500000000E+03 0.  0.
        -13    1    3    3    0    0  0.16684649852E+02  0.44304083602E+01 -0.35953504612E+02  0.39883226009E+02  0.10566000000E+00 0. -1.
         23    2    1    0    0    0 -0.67098006353E+01 -0.27892263358E+02  0.36249140928E+01  0.96083918281E+02  0.91629578032E+02 0.  0.
         13    1    3    3    0    0 -0.23394450488E+02 -0.32322671718E+02  0.39578418705E+02  0.56200692272E+02  0.10566000000E+00 0.  1.
         22    1    1    0    0    0  0.67098006353E+01  0.27892263358E+02 -0.36249140928E+01  0.28916081719E+02  0.00000000000E+00 0.  1.
</event>
<event>
 5    1  0.1315753E-009  0.9118800E+02  0.7818608E-02  0.1130116E+00
         25   -1    0    0    0    0  0.00000000000E+00  0.00000000000E+00  0.99999998245E-14  0.12500000000E+03  0.12500000000E+03 0.  0.
        -13    1    3    3    0    0  0.41549857761E+02  0.15672279371E+02  0.14753966580E+02  0.46794248734E+02  0.10566000000E+00 0. -1.
         23    2    1    0    0    0 -0.83894023503E+01  0.18393550082E+02  0.19346354466E+02  0.97018109650E+02  0.92895249677E+02 0.  0.
         13    1    3    3    0    0 -0.49939260112E+02  0.27212707116E+01  0.45923878863E+01  0.50223860916E+02  0.10566000000E+00 0.  1.
         22    1    1    0    0    0  0.83894023503E+01 -0.18393550082E+02 -0.19346354466E+02  0.27981890350E+02  0.00000000000E+00 0. -1.
</event>
<event>
 5    1  0.1315753E-009  0.9118800E+02  0.7818608E-02  0.1130116E+00
         25   -1    0    0    0    0  0.00000000000E+00  0.00000000000E+00  0.99999998245E-14  0.12500000000E+03  0.12500000000E+03 0.  0.
        -13    1    3    3    0    0 -0.55422792390E+01  0.40286708560E+02 -0.43748561635E+02  0.59730089192E+02  0.10566000000E+00 0. -1.
         23    2    1    0    0    0 -0.88325901181E+01  0.91747055283E+01 -0.26838153183E+02  0.95293496739E+02  0.90544873873E+02 0.  0.
         13    1    3    3    0    0 -0.32903108792E+01 -0.31112003032E+02  0.16910408451E+02  0.35563407547E+02  0.10566000000E+00 0.  1.
         22    1    1    0    0    0  0.88325901181E+01 -0.91747055283E+01  0.26838153183E+02  0.29706503261E+02  0.00000000000E+00 0. -1.
</event>
<event>
 5    1  0.1315753E-009  0.9118800E+02  0.7818608E-02  0.1130116E+00
         25   -1    0    0    0    0  0.00000000000E+00  0.00000000000E+00  0.99999998245E-14  0.12500000000E+03  0.12500000000E+03 0.  0.
        -13    1    3    3    0    0  0.54036959029E+02  0.14977958833E+02  0.21439950697E+02  0.60033447693E+02  0.10566000000E+00 0.  1.
         23    2    1    0    0    0  0.26541922038E+02  0.20160135658E+02  0.10887168921E+02  0.89936698069E+02  0.82820133526E+02 0.  0.
         13    1    3    3    0    0 -0.27495036992E+02  0.51821768250E+01 -0.10552781777E+02  0.29903250376E+02  0.10566000000E+00 0. -1.
         22    1    1    0    0    0 -0.26541922038E+02 -0.20160135658E+02 -0.10887168921E+02  0.35063301931E+02  0.00000000000E+00 0.  1.
</event>
<event>
 5    1  0.1315753E-009  0.9118800E+02  0.7818608E-02  0.1130116E+00
         25   -1    0    0    0    0  0.00000000000E+00  0.00000000000E+00  0.99999998245E-14  0.12500000000E+03  0.12500000000E+03 0.  0.
        -13    1    3    3    0    0  0.86091596633E+00 -0.57218037003E+02  0.20396620195E+01  0.57260949345E+02  0.10566000000E+00 0.  1.
         23    2    1    0    0    0 -0.16175740121E+02 -0.24226990077E+02 -0.60143910162E+01  0.95254840462E+02  0.90491491951E+02 0.  0.
         13    1    3    3    0    0 -0.17036656087E+02  0.32991046925E+02 -0.80540530358E+01  0.37993891117E+02  0.10566000000E+00 0. -1.
         22    1    1    0    0    0  0.16175740121E+02  0.24226990077E+02  0.60143910162E+01  0.29745159538E+02  0.00000000000E+00 0.  1.
</event>
<event>
 5    1  0.1315753E-009  0.9118800E+02  0.7818608E-02  0.1130116E+00
         25   -1    0    0    0    0  0.00000000000E+00  0.00000000000E+00  0.99999998245E-14  0.12500000000E+03  0.12500000000E+03 0.  0.
        -13    1    3    3    0    0  0.28908976890E+02  0.13587128126E+02 -0.38574810710E+02  0.50083591933E+02  0.10566000000E+00 0.  1.
         23    2    1    0    0    0  0.22403264097E+02 -0.16865059167E+02 -0.39000912291E+01  0.96688391524E+02  0.92450515850E+02 0.  0.
         13    1    3    3    0    0 -0.65057127924E+01 -0.30452187292E+02  0.34674719481E+02  0.46604799591E+02  0.10566000000E+00 0. -1.
         22    1    1    0    0    0 -0.22403264097E+02  0.16865059167E+02  0.39000912291E+01  0.28311608476E+02  0.00000000000E+00 0. -1.
</event>
<event>
 5    1  0.1315753E-009  0.9118800E+02  0.7818608E-02  0.1130116E+00
         25   -1    0    0    0    0  0.00000000000E+00  0.00000000000E+00  0.99999998245E-14  0.12500000000E+03  0.12500000000E+03 0.  0.
        -13    1    3    3    0    0 -0.29326054008E+02 -0.37206873636E+02  0.34833244309E+02  0.58802508132E+02  0.10566000000E+00 0.  1.
         23    2    1    0    0    0 -0.44473783971E+01 -0.27343467002E+02  0.93370593791E+01  0.95766029347E+02  0.91194886571E+02 0.  0.
         13    1    3    3    0    0  0.24878675611E+02  0.98634066338E+01 -0.25496184930E+02  0.36963521215E+02  0.10566000000E+00 0. -1.
         22    1    1    0    0    0  0.44473783971E+01  0.27343467002E+02 -0.93370593791E+01  0.29233970653E+02  0.00000000000E+00 0.  1.
</event>
<event>
 5    1  0.1315753E-009  0.9118800E+02  0.7818608E-02  0.1130116E+00
         25   -1    0    0    0    0  0.00000000000E+00  0.00000000000E+00  0.99999998245E-14  0.12500000000E+03  0.12500000000E+03 0.  0.
        -13    1    3    3    0    0  0.48203167189E+01 -0.43309714371E+02  0.38999203453E+01  0.43751426890E+02  0.10566000000E+00 0.  1.
         23    2    1    0    0    0  0.14663441544E+02 -0.23789807627E+01 -0.25770564131E+02  0.95254444987E+02  0.90490945662E+02 0.  0.
         13    1    3    3    0    0  0.98431248254E+01  0.40930733608E+02 -0.29670484476E+02  0.51503018097E+02  0.10566000000E+00 0. -1.
         22    1    1    0    0    0 -0.14663441544E+02  0.23789807627E+01  0.25770564131E+02  0.29745555013E+02  0.00000000000E+00 0.  1.
</event>
<event>
 5    1  0.1315753E-009  0.9118800E+02  0.7818608E-02  0.1130116E+00
         25   -1    0    0    0    0  0.00000000000E+00  0.00000000000E+00  0.99999998245E-14  0.12500000000E+03  0.12500000000E+03 0.  0.
        -13    1    3    3    0    0  0.37652677098E+02  0.42023726474E+02 -0.42154416231E+01  0.56581788515E+02  0.10566000000E+00 0. -1.
         23    2    1    0    0    0  0.21904480517E+02  0.92727582607E+01  0.14174469815E+02  0.97310545202E+02  0.93287921514E+02 0.  0.
         13    1    3    3    0    0 -0.15748196581E+02 -0.32750968214E+02  0.18389911438E+02  0.40728756687E+02  0.10566000000E+00 0.  1.
         22    1    1    0    0    0 -0.21904480517E+02 -0.92727582607E+01 -0.14174469815E+02  0.27689454798E+02  0.00000000000E+00 0. -1.
</event>
<event>
 5    1  0.1315753E-009  0.9118800E+02  0.7818608E-02  0.1130116E+00
         25   -1    0    0    0    0  0.00000000000E+00  0.00000000000E+00  0.99999998245E-14  0.12500000000E+03  0.12500000000E+03 0.  0.
        -13    1    3    3    0    0  0.99924352517E+01 -0.85209918847E+00  0.37661294916E+02  0.38973826270E+02  0.10566000000E+00 0. -1.
         23    2    1    0    0    0  0.24702469213E+02 -0.85294675395E+01 -0.15466518057E+02  0.94632632934E+02  0.89627887588E+02 0.  0.
         13    1    3    3    0    0  0.14710033961E+02 -0.76773683510E+01 -0.53127812974E+02  0.55658806664E+02  0.10566000000E+00 0.  1.
         22    1    1    0    0    0 -0.24702469213E+02  0.85294675395E+01  0.15466518057E+02  0.30367367066E+02  0.00000000000E+00 0.  1.
</event>
<event>
 5    1  0.1315753E-009  0.9118800E+02  0.7818608E-02  0.1130116E+00
         25   -1    0    0    0    0  0.00000000000E+00  0.00000000000E+00  0.99999998245E-14  0.12500000000E+03  0.12500000000E+03 0.  0.
        -13    1    3    3    0    0 -0.47026365445E+01  0.19669775152E+02 -0.40678630081E+02  0.45428811940E+02  0.10566000000E+00 0. -1.
         23    2    1    0    0    0 -0.28408276301E+02  0.10446419265E+02  0.15118473355E+01  0.94694166894E+02  0.89713665199E+02 0.  0.
         13    1    3    3    0    0 -0.23705639757E+02 -0.92233558869E+01  0.42190477416E+02  0.49265354954E+02  0.10566000000E+00 0.  1.
         22    1    1    0    0    0  0.28408276301E+02 -0.10446419265E+02 -0.15118473355E+01  0.30305833106E+02  0.00000000000E+00 0.  1.
</event>
<event>
 5    1  0.1315753E-009  0.9118800E+02  0.7818608E-02  0.1130116E+00
         25   -1    0    0    0    0  0.00000000000E+00  0.00000000000E+00  0.99999998245E-14  0.12500000000E+03  0.12500000000E+03 0.  0.
        -13    1    3    3    0    0  0.10254144272E+02 -0.34578579153E+02  0.18886400110E+02  0.40712809829E+02  0.10566000000E+00 0. -1.
         23    2    1    0    0    0  0.32903647310E+02  0.77763354946E+01  0.11377363222E+02  0.89326959844E+02  0.81894688235E+02 0.  0.
         13    1    3    3    0    0  0.22649503039E+02  0.42354914648E+02 -0.75090368873E+01  0.48614150016E+02  0.10566000000E+00 0.  1.
         22    1    1    0    0    0 -0.32903647310E+02 -0.77763354946E+01 -0.11377363222E+02  0.35673040156E+02  0.00000000000E+00 0.  1.
</event>
<event>
 5    1  0.1315753E-009  0.9118800E+02  0.7818608E-02  0.1130116E+00
         25   -1    0    0    0    0  0.00000000000E+00  0.00000000000E+00  0.99999998245E-14  0.12500000000E+03  0.12500000000E+03 0.  0.
        -13    1    3    3    0    0  0.11908281017E+02 -0.36534978791E+02 -0.12391561006E+02  0.40375410589E+02  0.10566000000E+00 0.  1.
         23    2    1    0    0    0 -0.28903115320E+02 -0.29627021319E+00 -0.72787838354E+01  0.95192978255E+02  0.90405998494E+02 0.  0.
         13    1    3    3    0    0 -0.40811396336E+02  0.36238708578E+02  0.51127771707E+01  0.54817567665E+02  0.10566000000E+00 0. -1.
         22    1    1    0    0    0  0.28903115320E+02  0.29627021319E+00  0.72787838354E+01  0.29807021745E+02  0.00000000000E+00 0. -1.
</event>
<event>
 5    1  0.1315753E-009  0.9118800E+02  0.7818608E-02  0.1130116E+00
         25   -1    0    0    0    0  0.00000000000E+00  0.00000000000E+00  0.99999998245E-14  0.12500000000E+03  0.12500000000E+03 0.  0.
        -13    1    3    3    0    0  0.33356313447E+02  0.45206506177E+02 -0.58463228858E+01  0.56484179226E+02  0.10566000000E+00 0. -1.
         23    2    1    0    0    0 -0.83451303199E+00  0.26937321342E+02 -0.11571709744E+02  0.95670489955E+02  0.91063837437E+02 0.  0.
         13    1    3    3    0    0 -0.34190826479E+02 -0.18269184835E+02 -0.57253868577E+01  0.39186310729E+02  0.10566000000E+00 0.  1.
         22    1    1    0    0    0  0.83451303199E+00 -0.26937321342E+02  0.11571709744E+02  0.29329510045E+02  0.00000000000E+00 0. -1.
</event>
<event>
 5    1  0.1315753E-009  0.9118800E+02  0.7818608E-02  0.1130116E+00
         25   -1    0    0    0    0  0.00000000000E+00  0.00000000000E+00  0.99999998245E-14  0.12500000000E+03  0.12500000000E+03 0.  0.
        -13    1    3    3    0    0 -0.19192224507E+02  0.27845992535E+02  0.27988278316E+02  0.43898697805E+02  0.10566000000E+00 0.  1.
         23    2    1    0    0    0 -0.21050083380E+02  0.49076136673E+01 -0.19001017935E+02  0.96221025648E+02  0.91816427789E+02 0.  0.
         13    1    3    3    0    0 -0.18578588729E+01 -0.22938378868E+02 -0.46989296252E+02  0.52322327843E+02  0.10566000000E+00 0. -1.
         22    1    1    0    0    0  0.21050083380E+02 -0.49076136673E+01  0.19001017935E+02  0.28778974352E+02  0.00000000000E+00 0. -1.
</event>
<event>
 5    1  0.1315753E-009  0.9118800E+02  0.7818608E-02  0.1130116E+00
         25   -1    0    0    0    0  0.00000000000E+00  0.00000000000E+00  0.99999998245E-14  0.12500000000E+03  0.12500000000E+03 0.  0.
        -13    1    3    3    0    0  0.85168542680E+01 -0.33721870574E+02  0.13564538837E+02  0.37332415399E+02  0.10566000000E+00 0.  1.
         23    2    1    0    0    0 -0.17033502196E+02  0.19099545802E+02  0.13621579115E+02  0.96008962342E+02  0.91527266896E+02 0.  0.
         13    1    3    3    0    0 -0.25550356464E+02  0.52821416376E+02  0.57040277675E-01  0.58676546943E+02  0.10566000000E+00 0. -1.
         22    1    1    0    0    0  0.17033502196E+02 -0.19099545802E+02 -0.13621579115E+02  0.28991037658E+02  0.00000000000E+00 0. -1.
</event>
<event>
 5    1  0.1315753E-009  0.9118800E+02  0.7818608E-02  0.1130116E+00
         25   -1    0    0    0    0  0.00000000000E+00  0.00000000000E+00  0.99999998245E-14  0.12500000000E+03  0.12500000000E+03 0.  0.
        -13    1    3    3    0    0  0.69530017784E+01  0.33182551450E+02  0.16725894039E+02  0.37804664393E+02  0.10566000000E+00 0.  1.
         23    2    1    0    0    0 -0.25600099426E+01 -0.38330904222E+01 -0.27992901492E+02  0.96630143338E+02  0.92371726380E+02 0.  0.
         13    1    3    3    0    0 -0.95130117210E+01 -0.37015641872E+02 -0.44718795531E+02  0.58825478944E+02  0.10566000000E+00 0. -1.
         22    1    1    0    0    0  0.25600099426E+01  0.38330904222E+01  0.27992901492E+02  0.28369856662E+02  0.00000000000E+00 0. -1.
</event>
<event>
 5    1  0.1315753E-009  0.9118800E+02  0.7818608E-02  0.1130116E+00
         25   -1    0    0    0    0  0.00000000000E+00  0.00000000000E+00  0.99999998245E-14  0.12500000000E+03  0.12500000000E+03 0.  0.
        -13    1    3    3    0    0  0.13059486825E+02  0.20785841521E+02  0.22657451369E+02  0.33406177130E+02  0.10566000000E+00 0. -1.
         23    2    1    0    0    0 -0.56643215603E+00 -0.26787294046E+02 -0.13790320427E+02  0.94866083807E+02  0.89952881842E+02 0.  0.
         13    1    3    3    0    0 -0.13625918981E+02 -0.47573135567E+02 -0.36447771796E+02  0.61459906676E+02  0.10566000000E+00 0.  1.
         22    1    1    0    0    0  0.56643215603E+00  0.26787294046E+02  0.13790320427E+02  0.30133916193E+02  0.00000000000E+00 0.  1.
</event>
<event>
 5    1  0.1315753E-009  0.9118800E+02  0.7818608E-02  0.1130116E+00
         25   -1    0    0    0    0  0.00000000000E+00  0.00000000000E+00  0.99999998245E-14  0.12500000000E+03  0.12500000000E+03 0.  0.
        -13    1    3    3    0    0 -0.78558530517E+00 -0.50093819692E+02  0.19872044718E+02  0.53897284170E+02  0.10566000000E+00 0.  1.
         23    2    1    0    0    0 -0.22566795404E+02 -0.17741925571E+02  0.39486452769E+01  0.96023665220E+02  0.91547344610E+02 0.  0.
         13    1    3    3    0    0 -0.21781210098E+02  0.32351894121E+02 -0.15923399441E+02  0.42126381050E+02  0.10566000000E+00 0. -1.
         22    1    1    0    0    0  0.22566795404E+02  0.17741925571E+02 -0.39486452769E+01  0.28976334780E+02  0.00000000000E+00 0.  1.
</event>
<event>
 5    1  0.1315753E-009  0.9118800E+02  0.7818608E-02  0.1130116E+00
         25   -1    0    0    0    0  0.00000000000E+00  0.00000000000E+00  0.99999998245E-14  0.12500000000E+03  0.12500000000E+03 0.  0.
        -13    1    3    3    0    0 -0.34203178460E+02 -0.49436408979E+02 -0.10909850384E+02  0.61097069888E+02  0.10566000000E+00 0.  1.
         23    2    1    0    0    0 -0.16979211539E+02 -0.19831967398E+02 -0.13800615168E+02  0.95469379716E+02  0.90787361064E+02 0.  0.
         13    1    3    3    0    0  0.17223966921E+02  0.29604441581E+02 -0.28907647838E+01  0.34372309828E+02  0.10566000000E+00 0. -1.
         22    1    1    0    0    0  0.16979211539E+02  0.19831967398E+02  0.13800615168E+02  0.29530620284E+02  0.00000000000E+00 0.  1.
</event>
<event>
 5    1  0.1315753E-009  0.9118800E+02  0.7818608E-02  0.1130116E+00
         25   -1    0    0    0    0  0.00000000000E+00  0.00000000000E+00  0.99999998245E-14  0.12500000000E+03  0.12500000000E+03 0.  0.
        -13    1    3    3    0    0 -0.32205632713E+01  0.22380751935E+02  0.38320919278E+02  0.44494652525E+02  0.10566000000E+00 0. -1.
         23    2    1    0    0    0  0.17234721839E+02  0.14199091703E+02 -0.12159793756E+02  0.99573430703E+02  0.96272310015E+02 0.  0.
         13    1    3    3    0    0  0.20455285110E+02 -0.81816602323E+01 -0.50480713034E+02  0.55078778178E+02  0.10566000000E+00 0.  1.
         22    1    1    0    0    0 -0.17234721839E+02 -0.14199091703E+02  0.12159793756E+02  0.25426569297E+02  0.00000000000E+00 0.  1.
</event>
<event>
 5    1  0.1315753E-009  0.9118800E+02  0.7818608E-02  0.1130116E+00
         25   -1    0    0    0    0  0.00000000000E+00  0.00000000000E+00  0.99999998245E-14  0.12500000000E+03  0.12500000000E+03 0.  0.
        -13    1    3    3    0    0  0.28442928915E+02  0.24078771856E+02 -0.11086058005E+02  0.38880577484E+02  0.10566000000E+00 0.  1.
         23    2    1    0    0    0 -0.26101858150E+02  0.13606874636E+02  0.23408386148E+00  0.95563477932E+02  0.90916827282E+02 0.  0.
         13    1    3    3    0    0 -0.54544787064E+02 -0.10471897220E+02  0.11320141867E+02  0.56682900448E+02  0.10566000000E+00 0. -1.
         22    1    1    0    0    0  0.26101858150E+02 -0.13606874636E+02 -0.23408386148E+00  0.29436522068E+02  0.00000000000E+00 0. -1.
</event>
<event>
 5    1  0.1315753E-009  0.9118800E+02  0.7818608E-02  0.1130116E+00
         25   -1    0    0    0    0  0.00000000000E+00  0.00000000000E+00  0.99999998245E-14  0.12500000000E+03  0.12500000000E+03 0.  0.
        -13    1    3    3    0    0 -0.30519862703E+02  0.37909982396E+02  0.16804717879E+02  0.51488236440E+02  0.10566000000E+00 0.  1.
         23    2    1    0    0    0 -0.12760312499E+02 -0.11300041483E+01  0.26594421398E+02  0.95481095313E+02  0.90803490176E+02 0.  0.
         13    1    3    3    0    0  0.17759550204E+02 -0.39039986544E+02  0.97897035186E+01  0.43992858873E+02  0.10566000000E+00 0. -1.
         22    1    1    0    0    0  0.12760312499E+02  0.11300041483E+01 -0.26594421398E+02  0.29518904687E+02  0.00000000000E+00 0.  1.
</event>
<event>
 5    1  0.1315753E-009  0.9118800E+02  0.7818608E-02  0.1130116E+00
         25   -1    0    0    0    0  0.00000000000E+00  0.00000000000E+00  0.99999998245E-14  0.12500000000E+03  0.12500000000E+03 0.  0.
        -13    1    3    3    0    0 -0.98775088606E+01  0.41066005210E+02  0.22355124622E+02  0.47788541787E+02  0.10566000000E+00 0. -1.
         23    2    1    0    0    0 -0.16626030598E+01 -0.74473851548E+01  0.26744644391E+02  0.97188063746E+02  0.93123659381E+02 0.  0.
         13    1    3    3    0    0  0.82149058008E+01 -0.48513390365E+02  0.43895197692E+01  0.49399521960E+02  0.10566000000E+00 0.  1.
         22    1    1    0    0    0  0.16626030598E+01  0.74473851548E+01 -0.26744644391E+02  0.27811936254E+02  0.00000000000E+00 0. -1.
</event>
<event>
 5    1  0.1315753E-009  0.9118800E+02  0.7818608E-02  0.1130116E+00
         25   -1    0    0    0    0  0.00000000000E+00  0.00000000000E+00  0.99999998245E-14  0.12500000000E+03  0.12500000000E+03 0.  0.
        -13    1    3    3    0    0  0.36950761552E+02  0.29411053023E+02  0.17801983908E+02  0.50470690646E+02  0.10566000000E+00 0.  1.
         23    2    1    0    0    0 -0.14814449145E+01  0.82883017287E+01  0.28224283563E+02  0.95546633346E+02  0.90893664997E+02 0.  0.
         13    1    3    3    0    0 -0.38432206467E+02 -0.21122751295E+02  0.10422299655E+02  0.45075942700E+02  0.10566000000E+00 0. -1.
         22    1    1    0    0    0  0.14814449145E+01 -0.82883017287E+01 -0.28224283563E+02  0.29453366654E+02  0.00000000000E+00 0.  1.
</event>
<event>
 5    1  0.1315753E-009  0.9118800E+02  0.7818608E-02  0.1130116E+00
         25   -1    0    0    0    0  0.00000000000E+00  0.00000000000E+00  0.99999998245E-14  0.12500000000E+03  0.12500000000E+03 0.  0.
        -13    1    3    3    0    0 -0.18071353128E+02  0.20590735703E+02 -0.21111106727E+02  0.34586734335E+02  0.10566000000E+00 0. -1.
         23    2    1    0    0    0  0.18982079280E+02 -0.22982757190E+02 -0.11435285481E+01  0.95169912515E+02  0.90374100984E+02 0.  0.
         13    1    3    3    0    0  0.37053432408E+02 -0.43573492892E+02  0.19967578179E+02  0.60583178180E+02  0.10566000000E+00 0.  1.
         22    1    1    0    0    0 -0.18982079280E+02  0.22982757190E+02  0.11435285481E+01  0.29830087485E+02  0.00000000000E+00 0.  1.
</event>
<event>
 5    1  0.1315753E-009  0.9118800E+02  0.7818608E-02  0.1130116E+00
         25   -1    0    0    0    0  0.00000000000E+00  0.00000000000E+00  0.99999998245E-14  0.12500000000E+03  0.12500000000E+03 0.  0.
        -13    1    3    3    0    0 -0.24439914966E+02 -0.13433171075E+02  0.21635848123E+02  0.35297034107E+02  0.10566000000E+00 0.  1.
         23    2    1    0    0    0  0.37783217000E+01  0.36616899589E+01 -0.28886672341E+02  0.95638059888E+02  0.91019310984E+02 0.  0.
         13    1    3    3    0    0  0.28218236666E+02  0.17094861034E+02 -0.50522520464E+02  0.60341025781E+02  0.10566000000E+00 0. -1.
         22    1    1    0    0    0 -0.37783217000E+01 -0.36616899589E+01  0.28886672341E+02  0.29361940112E+02  0.00000000000E+00 0. -1.
</event>
<event>
 5    1  0.1315753E-009  0.9118800E+02  0.7818608E-02  0.1130116E+00
         25   -1    0    0    0    0  0.00000000000E+00  0.00000000000E+00  0.99999998245E-14  0.12500000000E+03  0.12500000000E+03 0.  0.
        -13    1    3    3    0    0 -0.18286748124E+02 -0.34196842540E+01 -0.37012585332E+02  0.41425137711E+02  0.10566000000E+00 0.  1.
         23    2    1    0    0    0 -0.19189473043E+02  0.65781308396E+01  0.18323188024E+02  0.97664182830E+02  0.93760576509E+02 0.  0.
         13    1    3    3    0    0 -0.90272491840E+00  0.99978150936E+01  0.55335773356E+02  0.56239045119E+02  0.10566000000E+00 0. -1.
         22    1    1    0    0    0  0.19189473043E+02 -0.65781308396E+01 -0.18323188024E+02  0.27335817170E+02  0.00000000000E+00 0. -1.
</event>
<event>
 5    1  0.1315753E-009  0.9118800E+02  0.7818608E-02  0.1130116E+00
         25   -1    0    0    0    0  0.00000000000E+00  0.00000000000E+00  0.99999998245E-14  0.12500000000E+03  0.12500000000E+03 0.  0.
        -13    1    3    3    0    0 -0.94270748576E+01  0.59795932693E+02  0.87528315530E+01  0.61164095115E+02  0.10566000000E+00 0. -1.
         23    2    1    0    0    0  0.46079857145E+01  0.29267709761E+02  0.44880553031E+01  0.95033768883E+02  0.90185598743E+02 0.  0.
         13    1    3    3    0    0  0.14035060572E+02 -0.30528222932E+02 -0.42647762499E+01  0.33869673768E+02  0.10566000000E+00 0.  1.
         22    1    1    0    0    0 -0.46079857145E+01 -0.29267709761E+02 -0.44880553031E+01  0.29966231117E+02  0.00000000000E+00 0. -1.
</event>
<event>
 5    1  0.1315753E-009  0.9118800E+02  0.7818608E-02  0.1130116E+00
         25   -1    0    0    0    0  0.00000000000E+00  0.00000000000E+00  0.99999998245E-14  0.12500000000E+03  0.12500000000E+03 0.  0.
        -13    1    3    3    0    0  0.20385543873E+02  0.32772410237E+02 -0.58944270946E+01  0.39043010982E+02  0.10566000000E+00 0.  1.
         23    2    1    0    0    0  0.14501855391E+02 -0.17583860690E+02  0.18816991742E+02  0.95443695346E+02  0.90751990813E+02 0.  0.
         13    1    3    3    0    0 -0.58836884811E+01 -0.50356270927E+02  0.24711418836E+02  0.56400684365E+02  0.10566000000E+00 0. -1.
         22    1    1    0    0    0 -0.14501855391E+02  0.17583860690E+02 -0.18816991742E+02  0.29556304654E+02  0.00000000000E+00 0. -1.
</event>
<event>
 5    1  0.1315753E-009  0.9118800E+02  0.7818608E-02  0.1130116E+00
         25   -1    0    0    0    0  0.00000000000E+00  0.00000000000E+00  0.99999998245E-14  0.12500000000E+03  0.12500000000E+03 0.  0.
        -13    1    3    3    0    0 -0.32432230735E+01 -0.12347987448E+02 -0.49246949747E+02  0.50874989075E+02  0.10566000000E+00 0.  1.
         23    2    1    0    0    0  0.44498778496E+01 -0.29406348183E+02 -0.11301247244E+02  0.93184077640E+02  0.87584355967E+02 0.  0.
         13    1    3    3    0    0  0.76931009231E+01 -0.17058360734E+02  0.37945702503E+02  0.42309088566E+02  0.10566000000E+00 0. -1.
         22    1    1    0    0    0 -0.44498778496E+01  0.29406348183E+02  0.11301247244E+02  0.31815922360E+02  0.00000000000E+00 0.  1.
</event>
<event>
 5    1  0.1315753E-009  0.9118800E+02  0.7818608E-02  0.1130116E+00
         25   -1    0    0    0    0  0.00000000000E+00  0.00000000000E+00  0.99999998245E-14  0.12500000000E+03  0.12500000000E+03 0.  0.
        -13    1    3    3    0    0  0.12089208338E+02  0.29065541648E+02 -0.30542231563E+02  0.43861073202E+02  0.10566000000E+00 0.  1.
         23    2    1    0    0    0  0.24764992307E+02 -0.15030844877E+02 -0.82096664272E+01  0.94889706668E+02  0.89985702570E+02 0.  0.
         13    1    3    3    0    0  0.12675783969E+02 -0.44096386525E+02  0.22332565136E+02  0.51028633466E+02  0.10566000000E+00 0. -1.
         22    1    1    0    0    0 -0.24764992307E+02  0.15030844877E+02  0.82096664272E+01  0.30110293332E+02  0.00000000000E+00 0. -1.
</event>
<event>
 5    1  0.1315753E-009  0.9118800E+02  0.7818608E-02  0.1130116E+00
         25   -1    0    0    0    0  0.00000000000E+00  0.00000000000E+00  0.99999998245E-14  0.12500000000E+03  0.12500000000E+03 0.  0.
        -13    1    3    3    0    0  0.44455729136E+02 -0.21562305289E+01 -0.19596522919E+02  0.48631225130E+02  0.10566000000E+00 0.  1.
         23    2    1    0    0    0  0.21237521432E+02  0.17048072401E+02  0.14510760498E+02  0.94141755407E+02  0.88940647916E+02 0.  0.
         13    1    3    3    0    0 -0.23218207704E+02  0.19204302930E+02  0.34107283417E+02  0.45510530277E+02  0.10566000000E+00 0. -1.
         22    1    1    0    0    0 -0.21237521432E+02 -0.17048072401E+02 -0.14510760498E+02  0.30858244593E+02  0.00000000000E+00 0.  1.
</event>
<event>
 5    1  0.1315753E-009  0.9118800E+02  0.7818608E-02  0.1130116E+00
         25   -1    0    0    0    0  0.00000000000E+00  0.00000000000E+00  0.99999998245E-14  0.12500000000E+03  0.12500000000E+03 0.  0.
        -13    1    3    3    0    0 -0.93879894367E+00  0.23223693235E+02 -0.30277418168E+02  0.38170073171E+02  0.10566000000E+00 0.  1.
         23    2    1    0    0    0 -0.25674651038E+02 -0.68702545092E+01  0.12156778482E+02  0.95773721311E+02  0.91205429267E+02 0.  0.
         13    1    3    3    0    0 -0.24735852094E+02 -0.30093947744E+02  0.42434196651E+02  0.57603648140E+02  0.10566000000E+00 0. -1.
         22    1    1    0    0    0  0.25674651038E+02  0.68702545092E+01 -0.12156778482E+02  0.29226278689E+02  0.00000000000E+00 0.  1.
</event>
<event>
 5    1  0.1315753E-009  0.9118800E+02  0.7818608E-02  0.1130116E+00
         25   -1    0    0    0    0  0.00000000000E+00  0.00000000000E+00  0.99999998245E-14  0.12500000000E+03  0.12500000000E+03 0.  0.
        -13    1    3    3    0    0 -0.16941274246E+02  0.30390448088E+02 -0.17937086511E+02  0.39145067948E+02  0.10566000000E+00 0. -1.
         23    2    1    0    0    0  0.28953840306E+02  0.15834415787E+01 -0.74690122248E+00  0.95993276346E+02  0.91505841816E+02 0.  0.
         13    1    3    3    0    0  0.45895114552E+02 -0.28807006509E+02  0.17190185289E+02  0.56848208398E+02  0.10566000000E+00 0.  1.
         22    1    1    0    0    0 -0.28953840306E+02 -0.15834415787E+01  0.74690122248E+00  0.29006723654E+02  0.00000000000E+00 0.  1.
</event>
<event>
 5    1  0.1315753E-009  0.9118800E+02  0.7818608E-02  0.1130116E+00
         25   -1    0    0    0    0  0.00000000000E+00  0.00000000000E+00  0.99999998245E-14  0.12500000000E+03  0.12500000000E+03 0.  0.
        -13    1    3    3    0    0 -0.50113679234E+02 -0.10854697439E+02 -0.25793452248E+02  0.57397897573E+02  0.10566000000E+00 0. -1.
         23    2    1    0    0    0 -0.28106461372E+02 -0.74731249340E+01  0.50941397984E+01  0.95474231129E+02  0.90794040456E+02 0.  0.
         13    1    3    3    0    0  0.22007217862E+02  0.33815725049E+01  0.30887592047E+02  0.38076333557E+02  0.10566000000E+00 0.  1.
         22    1    1    0    0    0  0.28106461372E+02  0.74731249340E+01 -0.50941397984E+01  0.29525768871E+02  0.00000000000E+00 0.  1.
</event>
<event>
 5    1  0.1315753E-009  0.9118800E+02  0.7818608E-02  0.1130116E+00
         25   -1    0    0    0    0  0.00000000000E+00  0.00000000000E+00  0.99999998245E-14  0.12500000000E+03  0.12500000000E+03 0.  0.
        -13    1    3    3    0    0  0.11156811046E+01 -0.36720618227E+02  0.10273410352E+02  0.38147118785E+02  0.10566000000E+00 0.  1.
         23    2    1    0    0    0  0.20324178603E+02  0.17646946415E+02 -0.45947616599E+01  0.97694345121E+02  0.93800779742E+02 0.  0.
         13    1    3    3    0    0  0.19208497498E+02  0.54367564642E+02 -0.14868172012E+02  0.59547226336E+02  0.10566000000E+00 0. -1.
         22    1    1    0    0    0 -0.20324178603E+02 -0.17646946415E+02  0.45947616599E+01  0.27305654879E+02  0.00000000000E+00 0. -1.
</event>
<event>
 5    1  0.1315753E-009  0.9118800E+02  0.7818608E-02  0.1130116E+00
         25   -1    0    0    0    0  0.00000000000E+00  0.00000000000E+00  0.99999998245E-14  0.12500000000E+03  0.12500000000E+03 0.  0.
        -13    1    3    3    0    0 -0.10068122065E+02  0.53835536044E+01 -0.55818497056E+02  0.56974253035E+02  0.10566000000E+00 0.  1.
         23    2    1    0    0    0  0.88859509007E+01 -0.10553105389E+02 -0.24293389890E+02  0.97062624513E+02  0.92955129650E+02 0.  0.
         13    1    3    3    0    0  0.18954072965E+02 -0.15936658993E+02  0.31525107166E+02  0.40088371478E+02  0.10566000000E+00 0. -1.
         22    1    1    0    0    0 -0.88859509007E+01  0.10553105389E+02  0.24293389890E+02  0.27937375487E+02  0.00000000000E+00 0.  1.
</event>
<event>
 5    1  0.1315753E-009  0.9118800E+02  0.7818608E-02  0.1130116E+00
         25   -1    0    0    0    0  0.00000000000E+00  0.00000000000E+00  0.99999998245E-14  0.12500000000E+03  0.12500000000E+03 0.  0.
        -13    1    3    3    0    0  0.32309708004E+02  0.76747592167E+01  0.87875584425E+01  0.34351877790E+02  0.10566000000E+00 0. -1.
         23    2    1    0    0    0 -0.27906704015E+02  0.82240053579E+01 -0.31300600501E+01  0.95738836848E+02  0.91157606440E+02 0.  0.
         13    1    3    3    0    0 -0.60216412019E+02  0.54924614115E+00 -0.11917618493E+02  0.61386959057E+02  0.10566000000E+00 0.  1.
         22    1    1    0    0    0  0.27906704015E+02 -0.82240053579E+01  0.31300600501E+01  0.29261163152E+02  0.00000000000E+00 0.  1.
</event>
<event>
 5    1  0.1315753E-009  0.9118800E+02  0.7818608E-02  0.1130116E+00
         25   -1    0    0    0    0  0.00000000000E+00  0.00000000000E+00  0.99999998245E-14  0.12500000000E+03  0.12500000000E+03 0.  0.
        -13    1    3    3    0    0  0.22564816276E+02  0.11355543964E+02 -0.57473891278E+01  0.25906812967E+02  0.10566000000E+00 0.  1.
         23    2    1    0    0    0 -0.15371114203E+02  0.82570645773E+01 -0.42648408590E+02  0.78920318767E+02  0.64070895824E+02 0.  0.
         13    1    3    3    0    0 -0.37935930479E+02 -0.30984793866E+01 -0.36901019463E+02  0.53013505800E+02  0.10566000000E+00 0. -1.
         22    1    1    0    0    0  0.15371114203E+02 -0.82570645773E+01  0.42648408590E+02  0.46079681233E+02  0.00000000000E+00 0. -1.
</event>
<event>
 5    1  0.1315753E-009  0.9118800E+02  0.7818608E-02  0.1130116E+00
         25   -1    0    0    0    0  0.00000000000E+00  0.00000000000E+00  0.99999998245E-14  0.12500000000E+03  0.12500000000E+03 0.  0.
        -13    1    3    3    0    0 -0.49529834175E+02 -0.26781812793E+02  0.27021149336E+02  0.62454972943E+02  0.10566000000E+00 0.  1.
         23    2    1    0    0    0 -0.23235080658E+02 -0.10777939950E+02  0.12900650052E+02  0.96321441205E+02  0.91953033128E+02 0.  0.
         13    1    3    3    0    0  0.26294753517E+02  0.16003872843E+02 -0.14120499284E+02  0.33866468262E+02  0.10566000000E+00 0. -1.
         22    1    1    0    0    0  0.23235080658E+02  0.10777939950E+02 -0.12900650052E+02  0.28678558795E+02  0.00000000000E+00 0.  1.
</event>
<event>
 5    1  0.1315753E-009  0.9118800E+02  0.7818608E-02  0.1130116E+00
         25   -1    0    0    0    0  0.00000000000E+00  0.00000000000E+00  0.99999998245E-14  0.12500000000E+03  0.12500000000E+03 0.  0.
        -13    1    3    3    0    0 -0.32450218422E+02  0.14079710083E+01 -0.23714489059E+02  0.40216752895E+02  0.10566000000E+00 0.  1.
         23    2    1    0    0    0 -0.87386471347E+01  0.10427504665E+02  0.25789042461E+02  0.95842299159E+02  0.91299369055E+02 0.  0.
         13    1    3    3    0    0  0.23711571288E+02  0.90195336566E+01  0.49503531520E+02  0.55625546265E+02  0.10566000000E+00 0. -1.
         22    1    1    0    0    0  0.87386471347E+01 -0.10427504665E+02 -0.25789042461E+02  0.29157700841E+02  0.00000000000E+00 0. -1.
</event>
<event>
 5    1  0.1315753E-009  0.9118800E+02  0.7818608E-02  0.1130116E+00
         25   -1    0    0    0    0  0.00000000000E+00  0.00000000000E+00  0.99999998245E-14  0.12500000000E+03  0.12500000000E+03 0.  0.
        -13    1    3    3    0    0 -0.62362145148E+01  0.37964483098E+02  0.15795659401E+02  0.41589738738E+02  0.10566000000E+00 0. -1.
         23    2    1    0    0    0  0.38621412960E+01 -0.13662314677E+02  0.26187317522E+02  0.95211569751E+02  0.90431700402E+02 0.  0.
         13    1    3    3    0    0  0.10098355811E+02 -0.51626797775E+02  0.10391658121E+02  0.53621831012E+02  0.10566000000E+00 0.  1.
         22    1    1    0    0    0 -0.38621412960E+01  0.13662314677E+02 -0.26187317522E+02  0.29788430249E+02  0.00000000000E+00 0. -1.
</event>
<event>
 5    1  0.1315753E-009  0.9118800E+02  0.7818608E-02  0.1130116E+00
         25   -1    0    0    0    0  0.00000000000E+00  0.00000000000E+00  0.99999998245E-14  0.12500000000E+03  0.12500000000E+03 0.  0.
        -13    1    3    3    0    0 -0.16923159462E+02 -0.43896406180E+02 -0.19484029515E+02  0.50920785264E+02  0.10566000000E+00 0.  1.
         23    2    1    0    0    0 -0.16071425094E+02 -0.15676233584E+02  0.16846230903E+02  0.96931681568E+02  0.92778879019E+02 0.  0.
         13    1    3    3    0    0  0.85173436787E+00  0.28220172596E+02  0.36330260417E+02  0.46010896305E+02  0.10566000000E+00 0. -1.
         22    1    1    0    0    0  0.16071425094E+02  0.15676233584E+02 -0.16846230903E+02  0.28068318432E+02  0.00000000000E+00 0. -1.
</event>
<event>
 5    1  0.1315753E-009  0.9118800E+02  0.7818608E-02  0.1130116E+00
         25   -1    0    0    0    0  0.00000000000E+00  0.00000000000E+00  0.99999998245E-14  0.12500000000E+03  0.12500000000E+03 0.  0.
        -13    1    3    3    0    0 -0.28012851228E+02 -0.52961022449E+01 -0.23145527378E+02  0.36721861806E+02  0.10566000000E+00 0.  1.
         23    2    1    0    0    0 -0.54789985007E+01  0.21614342424E+02  0.21845277144E+02  0.93784373200E+02  0.88436945334E+02 0.  0.
         13    1    3    3    0    0  0.22533852727E+02  0.26910444669E+02  0.44990804522E+02  0.57062511394E+02  0.10566000000E+00 0. -1.
         22    1    1    0    0    0  0.54789985007E+01 -0.21614342424E+02 -0.21845277144E+02  0.31215626800E+02  0.00000000000E+00 0. -1.
</event>
<event>
 5    1  0.1315753E-009  0.9118800E+02  0.7818608E-02  0.1130116E+00
         25   -1    0    0    0    0  0.00000000000E+00  0.00000000000E+00  0.99999998245E-14  0.12500000000E+03  0.12500000000E+03 0.  0.
        -13    1    3    3    0    0  0.35673179286E+02  0.21281737182E+02  0.32255582934E+02  0.52592032213E+02  0.10566000000E+00 0.  1.
         23    2    1    0    0    0  0.46109171205E+01 -0.90310022625E+01  0.26812642983E+02  0.96334037914E+02  0.91970155369E+02 0.  0.
         13    1    3    3    0    0 -0.31062262165E+02 -0.30312739444E+02 -0.54429399508E+01  0.43742005701E+02  0.10566000000E+00 0. -1.
         22    1    1    0    0    0 -0.46109171205E+01  0.90310022625E+01 -0.26812642983E+02  0.28665962086E+02  0.00000000000E+00 0. -1.
</event>
<event>
 5    1  0.1315753E-009  0.9118800E+02  0.7818608E-02  0.1130116E+00
         25   -1    0    0    0    0  0.00000000000E+00  0.00000000000E+00  0.99999998245E-14  0.12500000000E+03  0.12500000000E+03 0.  0.
        -13    1    3    3    0    0  0.41519330045E+02 -0.27382151258E+02 -0.13530591187E+02  0.51543428648E+02  0.10566000000E+00 0.  1.
         23    2    1    0    0    0  0.78799989245E+01 -0.14772739803E+01 -0.27590077332E+02  0.96268674088E+02  0.91881274056E+02 0.  0.
         13    1    3    3    0    0 -0.33639331121E+02  0.25904877277E+02 -0.14059486145E+02  0.44725245440E+02  0.10566000000E+00 0. -1.
         22    1    1    0    0    0 -0.78799989245E+01  0.14772739803E+01  0.27590077332E+02  0.28731325912E+02  0.00000000000E+00 0.  1.
</event>
<event>
 5    1  0.1315753E-009  0.9118800E+02  0.7818608E-02  0.1130116E+00
         25   -1    0    0    0    0  0.00000000000E+00  0.00000000000E+00  0.99999998245E-14  0.12500000000E+03  0.12500000000E+03 0.  0.
        -13    1    3    3    0    0 -0.42512278449E+02  0.21673575328E+02  0.73625178086E+00  0.47724112534E+02  0.10566000000E+00 0.  1.
         23    2    1    0    0    0 -0.14708713000E+02 -0.10930797183E+02 -0.22109129712E+02  0.96283416258E+02  0.91901327871E+02 0.  0.
         13    1    3    3    0    0  0.27803565449E+02 -0.32604372511E+02 -0.22845381493E+02  0.48559303724E+02  0.10566000000E+00 0. -1.
         22    1    1    0    0    0  0.14708713000E+02  0.10930797183E+02  0.22109129712E+02  0.28716583742E+02  0.00000000000E+00 0.  1.
</event>
<event>
 5    1  0.1315753E-009  0.9118800E+02  0.7818608E-02  0.1130116E+00
         25   -1    0    0    0    0  0.00000000000E+00  0.00000000000E+00  0.99999998245E-14  0.12500000000E+03  0.12500000000E+03 0.  0.
        -13    1    3    3    0    0 -0.19825803652E+02 -0.31163002242E+02  0.43731441472E+02  0.57241989278E+02  0.10566000000E+00 0.  1.
         23    2    1    0    0    0 -0.28726042700E+01  0.34867282755E+00  0.28865297470E+02  0.95990021957E+02  0.91501396106E+02 0.  0.
         13    1    3    3    0    0  0.16953199382E+02  0.31511675070E+02 -0.14866144003E+02  0.38748032679E+02  0.10566000000E+00 0. -1.
         22    1    1    0    0    0  0.28726042700E+01 -0.34867282755E+00 -0.28865297470E+02  0.29009978043E+02  0.00000000000E+00 0.  1.
</event>
<event>
 5    1  0.1315753E-009  0.9118800E+02  0.7818608E-02  0.1130116E+00
         25   -1    0    0    0    0  0.00000000000E+00  0.00000000000E+00  0.99999998245E-14  0.12500000000E+03  0.12500000000E+03 0.  0.
        -13    1    3    3    0    0 -0.40225214630E+02 -0.18231486457E+02 -0.18241907156E+02  0.47783190885E+02  0.10566000000E+00 0.  1.
         23    2    1    0    0    0 -0.23614838218E+02  0.10839223986E+02  0.15027654528E+02  0.94983675087E+02  0.90116140462E+02 0.  0.
         13    1    3    3    0    0  0.16610376412E+02  0.29070710443E+02  0.33269561683E+02  0.47200484202E+02  0.10566000000E+00 0. -1.
         22    1    1    0    0    0  0.23614838218E+02 -0.10839223986E+02 -0.15027654528E+02  0.30016324913E+02  0.00000000000E+00 0. -1.
</event>
<event>
 5    1  0.1315753E-009  0.9118800E+02  0.7818608E-02  0.1130116E+00
         25   -1    0    0    0    0  0.00000000000E+00  0.00000000000E+00  0.99999998245E-14  0.12500000000E+03  0.12500000000E+03 0.  0.
        -13    1    3    3    0    0  0.12836616963E+02  0.28778266721E+02 -0.18206887417E+02  0.36393258771E+02  0.10566000000E+00 0. -1.
         23    2    1    0    0    0  0.63889351711E+01 -0.17406129417E+02  0.20761440496E+02  0.97164245199E+02  0.93091682227E+02 0.  0.
         13    1    3    3    0    0 -0.64476817917E+01 -0.46184396138E+02  0.38968327912E+02  0.60770986428E+02  0.10566000000E+00 0.  1.
         22    1    1    0    0    0 -0.63889351711E+01  0.17406129417E+02 -0.20761440496E+02  0.27835754801E+02  0.00000000000E+00 0.  1.
</event>
<event>
 5    1  0.1315753E-009  0.9118800E+02  0.7818608E-02  0.1130116E+00
         25   -1    0    0    0    0  0.00000000000E+00  0.00000000000E+00  0.99999998245E-14  0.12500000000E+03  0.12500000000E+03 0.  0.
        -13    1    3    3    0    0  0.45001640724E+02  0.23655933121E+02  0.18029800326E+01  0.50872514590E+02  0.10566000000E+00 0. -1.
         23    2    1    0    0    0  0.12095038542E+02 -0.17098191444E+02 -0.43369071076E+01  0.10361199235E+03  0.10138046206E+03 0.  0.
         13    1    3    3    0    0 -0.32906602182E+02 -0.40754124565E+02 -0.61398871402E+01  0.52739477759E+02  0.10566000000E+00 0.  1.
         22    1    1    0    0    0 -0.12095038542E+02  0.17098191444E+02  0.43369071076E+01  0.21388007650E+02  0.00000000000E+00 0. -1.
</event>
<event>
 5    1  0.1315753E-009  0.9118800E+02  0.7818608E-02  0.1130116E+00
         25   -1    0    0    0    0  0.00000000000E+00  0.00000000000E+00  0.99999998245E-14  0.12500000000E+03  0.12500000000E+03 0.  0.
        -13    1    3    3    0    0 -0.10903996443E+02 -0.13241035227E+02  0.28005068001E+02  0.32840784858E+02  0.10566000000E+00 0.  1.
         23    2    1    0    0    0  0.67183290743E+01  0.12470374466E+02 -0.26112167977E+02  0.95293241487E+02  0.90544521489E+02 0.  0.
         13    1    3    3    0    0  0.17622325517E+02  0.25711409693E+02 -0.54117235978E+02  0.62452456629E+02  0.10566000000E+00 0. -1.
         22    1    1    0    0    0 -0.67183290743E+01 -0.12470374466E+02  0.26112167977E+02  0.29706758513E+02  0.00000000000E+00 0. -1.
</event>
<event>
 5    1  0.1315753E-009  0.9118800E+02  0.7818608E-02  0.1130116E+00
         25   -1    0    0    0    0  0.00000000000E+00  0.00000000000E+00  0.99999998245E-14  0.12500000000E+03  0.12500000000E+03 0.  0.
        -13    1    3    3    0    0  0.19636314520E+00 -0.26196183693E+02 -0.28412728622E+02  0.38646771021E+02  0.10566000000E+00 0. -1.
         23    2    1    0    0    0 -0.27713127453E+02  0.67827618551E+01  0.82393007700E+01  0.95303041085E+02  0.90558049180E+02 0.  0.
         13    1    3    3    0    0 -0.27909490599E+02  0.32978945548E+02  0.36652029392E+02  0.56656270064E+02  0.10566000000E+00 0.  1.
         22    1    1    0    0    0  0.27713127453E+02 -0.67827618551E+01 -0.82393007700E+01  0.29696958915E+02  0.00000000000E+00 0.  1.
</event>
<event>
 5    1  0.1315753E-009  0.9118800E+02  0.7818608E-02  0.1130116E+00
         25   -1    0    0    0    0  0.00000000000E+00  0.00000000000E+00  0.99999998245E-14  0.12500000000E+03  0.12500000000E+03 0.  0.
        -13    1    3    3    0    0 -0.31708454026E+01  0.36665109681E+02  0.14522713205E+00  0.36802401870E+02  0.10566000000E+00 0.  1.
         23    2    1    0    0    0 -0.55161518043E+01 -0.19099451546E+02 -0.20623137208E+02  0.96355091754E+02  0.91998765962E+02 0.  0.
         13    1    3    3    0    0 -0.23453064017E+01 -0.55764561227E+02 -0.20768364340E+02  0.59552689884E+02  0.10566000000E+00 0. -1.
         22    1    1    0    0    0  0.55161518043E+01  0.19099451546E+02  0.20623137208E+02  0.28644908246E+02  0.00000000000E+00 0. -1.
</event>
<event>
 5    1  0.1315753E-009  0.9118800E+02  0.7818608E-02  0.1130116E+00
         25   -1    0    0    0    0  0.00000000000E+00  0.00000000000E+00  0.99999998245E-14  0.12500000000E+03  0.12500000000E+03 0.  0.
        -13    1    3    3    0    0 -0.30165031422E+02  0.42142266768E+02  0.21277119609E+01  0.51869433111E+02  0.10566000000E+00 0. -1.
         23    2    1    0    0    0 -0.13303828883E+02  0.10910050317E+02 -0.23662889941E+02  0.95743318349E+02  0.91163751499E+02 0.  0.
         13    1    3    3    0    0  0.16861202539E+02 -0.31232216450E+02 -0.25790601902E+02  0.43873885239E+02  0.10566000000E+00 0.  1.
         22    1    1    0    0    0  0.13303828883E+02 -0.10910050317E+02  0.23662889941E+02  0.29256681651E+02  0.00000000000E+00 0.  1.
</event>
<event>
 5    1  0.1315753E-009  0.9118800E+02  0.7818608E-02  0.1130116E+00
         25   -1    0    0    0    0  0.00000000000E+00  0.00000000000E+00  0.99999998245E-14  0.12500000000E+03  0.12500000000E+03 0.  0.
        -13    1    3    3    0    0  0.42008226558E+02  0.37837702074E+02  0.24731288464E+02  0.61709242337E+02  0.10566000000E+00 0.  1.
         23    2    1    0    0    0  0.21726535470E+02  0.21471729295E+02  0.20748506949E+02  0.88073342379E+02  0.79958336618E+02 0.  0.
         13    1    3    3    0    0 -0.20281691088E+02 -0.16365972778E+02 -0.39827815151E+01  0.26364100041E+02  0.10566000000E+00 0. -1.
         22    1    1    0    0    0 -0.21726535470E+02 -0.21471729295E+02 -0.20748506949E+02  0.36926657621E+02  0.00000000000E+00 0.  1.
</event>
<event>
 5    1  0.1315753E-009  0.9118800E+02  0.7818608E-02  0.1130116E+00
         25   -1    0    0    0    0  0.00000000000E+00  0.00000000000E+00  0.99999998245E-14  0.12500000000E+03  0.12500000000E+03 0.  0.
        -13    1    3    3    0    0  0.28089309195E+02  0.24214906752E+02 -0.39793381873E+02  0.54395729658E+02  0.10566000000E+00 0.  1.
         23    2    1    0    0    0  0.72688533413E+01 -0.10239776891E+02 -0.24517737293E+02  0.97453517436E+02  0.93479299093E+02 0.  0.
         13    1    3    3    0    0 -0.20820455854E+02 -0.34454683644E+02  0.15275644580E+02  0.43057787778E+02  0.10566000000E+00 0. -1.
         22    1    1    0    0    0 -0.72688533413E+01  0.10239776891E+02  0.24517737293E+02  0.27546482564E+02  0.00000000000E+00 0.  1.
</event>
<event>
 5    1  0.1315753E-009  0.9118800E+02  0.7818608E-02  0.1130116E+00
         25   -1    0    0    0    0  0.00000000000E+00  0.00000000000E+00  0.99999998245E-14  0.12500000000E+03  0.12500000000E+03 0.  0.
        -13    1    3    3    0    0 -0.28002934703E+02  0.49763618838E+02  0.25160619277E+01  0.57157010449E+02  0.10566000000E+00 0. -1.
         23    2    1    0    0    0  0.11861209784E+01  0.27387517385E+02 -0.97145654741E+01  0.95916400260E+02  0.91400766217E+02 0.  0.
         13    1    3    3    0    0  0.29189055681E+02 -0.22376101454E+02 -0.12230627402E+02  0.38759389811E+02  0.10566000000E+00 0.  1.
         22    1    1    0    0    0 -0.11861209784E+01 -0.27387517385E+02  0.97145654741E+01  0.29083599740E+02  0.00000000000E+00 0. -1.
</event>
<event>
 5    1  0.1315753E-009  0.9118800E+02  0.7818608E-02  0.1130116E+00
         25   -1    0    0    0    0  0.00000000000E+00  0.00000000000E+00  0.99999998245E-14  0.12500000000E+03  0.12500000000E+03 0.  0.
        -13    1    3    3    0    0 -0.94267880741E+01  0.18562756725E+02  0.56779763695E+02  0.60476383820E+02  0.10566000000E+00 0. -1.
         23    2    1    0    0    0 -0.13150128144E+02  0.14123316695E+02  0.21999349741E+02  0.95736279565E+02  0.91154099696E+02 0.  0.
         13    1    3    3    0    0 -0.37233400698E+01 -0.44394400305E+01 -0.34780413955E+02  0.35259895745E+02  0.10566000000E+00 0.  1.
         22    1    1    0    0    0  0.13150128144E+02 -0.14123316695E+02 -0.21999349741E+02  0.29263720435E+02  0.00000000000E+00 0. -1.
</event>
<event>
 5    1  0.1315753E-009  0.9118800E+02  0.7818608E-02  0.1130116E+00
         25   -1    0    0    0    0  0.00000000000E+00  0.00000000000E+00  0.99999998245E-14  0.12500000000E+03  0.12500000000E+03 0.  0.
        -13    1    3    3    0    0  0.42968544494E+02 -0.25172722318E+02  0.35686175678E+02  0.61265618934E+02  0.10566000000E+00 0. -1.
         23    2    1    0    0    0  0.24894896924E+02 -0.44989800982E+01  0.15750569863E+02  0.95199376420E+02  0.90414844494E+02 0.  0.
         13    1    3    3    0    0 -0.18073647571E+02  0.20673742220E+02 -0.19935605815E+02  0.33933757486E+02  0.10566000000E+00 0.  1.
         22    1    1    0    0    0 -0.24894896924E+02  0.44989800982E+01 -0.15750569863E+02  0.29800623580E+02  0.00000000000E+00 0. -1.
</event>
<event>
 5    1  0.1315753E-009  0.9118800E+02  0.7818608E-02  0.1130116E+00
         25   -1    0    0    0    0  0.00000000000E+00  0.00000000000E+00  0.99999998245E-14  0.12500000000E+03  0.12500000000E+03 0.  0.
        -13    1    3    3    0    0 -0.34827287102E+01 -0.38294023473E+02 -0.89311246070E+01  0.39475787311E+02  0.10566000000E+00 0.  1.
         23    2    1    0    0    0 -0.17455183407E+01  0.24482756186E+01  0.29402646566E+02  0.95444010541E+02  0.90752424956E+02 0.  0.
         13    1    3    3    0    0  0.17372103695E+01  0.40742299092E+02  0.38333771173E+02  0.55968223230E+02  0.10566000000E+00 0. -1.
         22    1    1    0    0    0  0.17455183407E+01 -0.24482756186E+01 -0.29402646566E+02  0.29555989459E+02  0.00000000000E+00 0. -1.
</event>
<event>
 5    1  0.1315753E-009  0.9118800E+02  0.7818608E-02  0.1130116E+00
         25   -1    0    0    0    0  0.00000000000E+00  0.00000000000E+00  0.99999998245E-14  0.12500000000E+03  0.12500000000E+03 0.  0.
        -13    1    3    3    0    0 -0.29307598825E+02  0.33546208599E+02 -0.11183009210E+02  0.45927707534E+02  0.10566000000E+00 0.  1.
         23    2    1    0    0    0 -0.43728822110E+01  0.15750004308E+02  0.26113552876E+02  0.94192494773E+02  0.89011930061E+02 0.  0.
         13    1    3    3    0    0  0.24934716614E+02 -0.17796204291E+02  0.37296562086E+02  0.48264787239E+02  0.10566000000E+00 0. -1.
         22    1    1    0    0    0  0.43728822110E+01 -0.15750004308E+02 -0.26113552876E+02  0.30807505227E+02  0.00000000000E+00 0. -1.
</event>
<event>
 5    1  0.1315753E-009  0.9118800E+02  0.7818608E-02  0.1130116E+00
         25   -1    0    0    0    0  0.00000000000E+00  0.00000000000E+00  0.99999998245E-14  0.12500000000E+03  0.12500000000E+03 0.  0.
        -13    1    3    3    0    0  0.20315256982E+02  0.36254537738E+02  0.16562722642E+02  0.44737412958E+02  0.10566000000E+00 0.  1.
         23    2    1    0    0    0  0.24332755276E+01  0.79705228297E+01 -0.25318499095E+02  0.98345235691E+02  0.94664190287E+02 0.  0.
         13    1    3    3    0    0 -0.17881981454E+02 -0.28284014908E+02 -0.41881221736E+02  0.53607822733E+02  0.10566000000E+00 0. -1.
         22    1    1    0    0    0 -0.24332755276E+01 -0.79705228297E+01  0.25318499095E+02  0.26654764309E+02  0.00000000000E+00 0. -1.
</event>
<event>
 5    1  0.1315753E-009  0.9118800E+02  0.7818608E-02  0.1130116E+00
         25   -1    0    0    0    0  0.00000000000E+00  0.00000000000E+00  0.99999998245E-14  0.12500000000E+03  0.12500000000E+03 0.  0.
        -13    1    3    3    0    0  0.22591645830E+02  0.22899081057E+02  0.21411983462E+02  0.38642393487E+02  0.10566000000E+00 0.  1.
         23    2    1    0    0    0  0.29085211980E+01 -0.27973682456E+02  0.10850022515E+01  0.96854598323E+02  0.92674967390E+02 0.  0.
         13    1    3    3    0    0 -0.19683124632E+02 -0.50872763513E+02 -0.20326981210E+02  0.58212204836E+02  0.10566000000E+00 0. -1.
         22    1    1    0    0    0 -0.29085211980E+01  0.27973682456E+02 -0.10850022515E+01  0.28145401677E+02  0.00000000000E+00 0.  1.
</event>
<event>
 5    1  0.1315753E-009  0.9118800E+02  0.7818608E-02  0.1130116E+00
         25   -1    0    0    0    0  0.00000000000E+00  0.00000000000E+00  0.99999998245E-14  0.12500000000E+03  0.12500000000E+03 0.  0.
        -13    1    3    3    0    0  0.33787620500E+02 -0.19922836823E+02 -0.99240748438E+01  0.40460118038E+02  0.10566000000E+00 0. -1.
         23    2    1    0    0    0  0.43097075946E+01  0.27569972431E+02 -0.57164409307E+01  0.96515712115E+02  0.92216744839E+02 0.  0.
         13    1    3    3    0    0 -0.29477912905E+02  0.47492809254E+02  0.42076339131E+01  0.56055594077E+02  0.10566000000E+00 0.  1.
         22    1    1    0    0    0 -0.43097075946E+01 -0.27569972431E+02  0.57164409307E+01  0.28484287885E+02  0.00000000000E+00 0.  1.
</event>
<event>
 5    1  0.1315753E-009  0.9118800E+02  0.7818608E-02  0.1130116E+00
         25   -1    0    0    0    0  0.00000000000E+00  0.00000000000E+00  0.99999998245E-14  0.12500000000E+03  0.12500000000E+03 0.  0.
        -13    1    3    3    0    0 -0.10532129506E+02  0.38808301738E+02 -0.30266363682E+02  0.50329652992E+02  0.10566000000E+00 0.  1.
         23    2    1    0    0    0 -0.23114815006E+02 -0.27113584903E+01 -0.18467074652E+02  0.95290086102E+02  0.90540165261E+02 0.  0.
         13    1    3    3    0    0 -0.12582685500E+02 -0.41519660228E+02  0.11799289030E+02  0.44960433111E+02  0.10566000000E+00 0. -1.
         22    1    1    0    0    0  0.23114815006E+02  0.27113584903E+01  0.18467074652E+02  0.29709913898E+02  0.00000000000E+00 0. -1.
</event>
<event>
 5    1  0.1315753E-009  0.9118800E+02  0.7818608E-02  0.1130116E+00
         25   -1    0    0    0    0  0.00000000000E+00  0.00000000000E+00  0.99999998245E-14  0.12500000000E+03  0.12500000000E+03 0.  0.
        -13    1    3    3    0    0 -0.35985512093E+01 -0.52958218854E+01  0.20966542571E+02  0.21922645180E+02  0.10566000000E+00 0. -1.
         23    2    1    0    0    0  0.46098843047E+02  0.13108284549E+02  0.98148480068E+01  0.76079026016E+02  0.58264538992E+02 0.  0.
         13    1    3    3    0    0  0.49697394257E+02  0.18404106435E+02 -0.11151694565E+02  0.54156380836E+02  0.10566000000E+00 0.  1.
         22    1    1    0    0    0 -0.46098843047E+02 -0.13108284549E+02 -0.98148480068E+01  0.48920973984E+02  0.00000000000E+00 0.  1.
</event>
<event>
 5    1  0.1315753E-009  0.9118800E+02  0.7818608E-02  0.1130116E+00
         25   -1    0    0    0    0  0.00000000000E+00  0.00000000000E+00  0.99999998245E-14  0.12500000000E+03  0.12500000000E+03 0.  0.
        -13    1    3    3    0    0 -0.32819721553E+02  0.19046227782E+02  0.13446630833E+02  0.40258116701E+02  0.10566000000E+00 0. -1.
         23    2    1    0    0    0 -0.90081279351E+01 -0.13098622263E+02 -0.24760091849E+02  0.95575819086E+02  0.90933793342E+02 0.  0.
         13    1    3    3    0    0  0.23811593618E+02 -0.32144850045E+02 -0.38206722682E+02  0.55317702385E+02  0.10566000000E+00 0.  1.
         22    1    1    0    0    0  0.90081279351E+01  0.13098622263E+02  0.24760091849E+02  0.29424180914E+02  0.00000000000E+00 0.  1.
</event>
<event>
 5    1  0.1315753E-009  0.9118800E+02  0.7818608E-02  0.1130116E+00
         25   -1    0    0    0    0  0.00000000000E+00  0.00000000000E+00  0.99999998245E-14  0.12500000000E+03  0.12500000000E+03 0.  0.
        -13    1    3    3    0    0  0.20555239999E+02 -0.16022798231E+02  0.16851597085E+02  0.31036034588E+02  0.10566000000E+00 0.  1.
         23    2    1    0    0    0 -0.97587674221E+01  0.19940430909E+02 -0.23255421515E+02  0.92849277515E+02  0.87105220159E+02 0.  0.
         13    1    3    3    0    0 -0.30314007421E+02  0.35963229140E+02 -0.40107018601E+02  0.61813242927E+02  0.10566000000E+00 0. -1.
         22    1    1    0    0    0  0.97587674221E+01 -0.19940430909E+02  0.23255421515E+02  0.32150722485E+02  0.00000000000E+00 0. -1.
</event>
<event>
 5    1  0.1315753E-009  0.9118800E+02  0.7818608E-02  0.1130116E+00
         25   -1    0    0    0    0  0.00000000000E+00  0.00000000000E+00  0.99999998245E-14  0.12500000000E+03  0.12500000000E+03 0.  0.
        -13    1    3    3    0    0  0.47783267242E+02  0.19024637621E+02  0.21289563748E+02  0.55663580136E+02  0.10566000000E+00 0. -1.
         23    2    1    0    0    0  0.27273299007E+02 -0.67244812179E+01 -0.32493508449E+01  0.96722627999E+02  0.92496794538E+02 0.  0.
         13    1    3    3    0    0 -0.20509968236E+02 -0.25749118839E+02 -0.24538914592E+02  0.41059047863E+02  0.10566000000E+00 0.  1.
         22    1    1    0    0    0 -0.27273299007E+02  0.67244812179E+01  0.32493508449E+01  0.28277372001E+02  0.00000000000E+00 0. -1.
</event>
<event>
 5    1  0.1315753E-009  0.9118800E+02  0.7818608E-02  0.1130116E+00
         25   -1    0    0    0    0  0.00000000000E+00  0.00000000000E+00  0.99999998245E-14  0.12500000000E+03  0.12500000000E+03 0.  0.
        -13    1    3    3    0    0  0.15013979138E+02  0.41456835216E+02  0.31382437488E+02  0.54119842040E+02  0.10566000000E+00 0. -1.
         23    2    1    0    0    0 -0.35567360275E+01  0.39178740174E+01  0.28404266971E+02  0.96107051204E+02  0.91661130262E+02 0.  0.
         13    1    3    3    0    0 -0.18570715166E+02 -0.37538961199E+02 -0.29781705176E+01  0.41987209163E+02  0.10566000000E+00 0.  1.
         22    1    1    0    0    0  0.35567360275E+01 -0.39178740174E+01 -0.28404266971E+02  0.28892948796E+02  0.00000000000E+00 0. -1.
</event>
<event>
 5    1  0.1315753E-009  0.9118800E+02  0.7818608E-02  0.1130116E+00
         25   -1    0    0    0    0  0.00000000000E+00  0.00000000000E+00  0.99999998245E-14  0.12500000000E+03  0.12500000000E+03 0.  0.
        -13    1    3    3    0    0  0.36079864440E+02  0.10582747758E+02  0.36178642948E+02  0.52179081419E+02  0.10566000000E+00 0. -1.
         23    2    1    0    0    0 -0.54756771868E+01  0.15815403782E+02  0.23894411611E+02  0.95827188280E+02  0.91278678069E+02 0.  0.
         13    1    3    3    0    0 -0.41555541627E+02  0.52326560241E+01 -0.12284231337E+02  0.43648106861E+02  0.10566000000E+00 0.  1.
         22    1    1    0    0    0  0.54756771868E+01 -0.15815403782E+02 -0.23894411611E+02  0.29172811720E+02  0.00000000000E+00 0. -1.
</event>
<event>
 5    1  0.1315753E-009  0.9118800E+02  0.7818608E-02  0.1130116E+00
         25   -1    0    0    0    0  0.00000000000E+00  0.00000000000E+00  0.99999998245E-14  0.12500000000E+03  0.12500000000E+03 0.  0.
        -13    1    3    3    0    0 -0.51866720344E+01  0.17640407509E+02  0.31712503090E+02  0.36657598942E+02  0.10566000000E+00 0. -1.
         23    2    1    0    0    0 -0.20027695018E+02 -0.19044439901E+02 -0.11333180237E+02  0.95129609424E+02  0.90318338980E+02 0.  0.
         13    1    3    3    0    0 -0.14841022983E+02 -0.36684847411E+02 -0.43045683327E+02  0.58472010483E+02  0.10566000000E+00 0.  1.
         22    1    1    0    0    0  0.20027695018E+02  0.19044439901E+02  0.11333180237E+02  0.29870390576E+02  0.00000000000E+00 0.  1.
</event>
<event>
 5    1  0.1315753E-009  0.9118800E+02  0.7818608E-02  0.1130116E+00
         25   -1    0    0    0    0  0.00000000000E+00  0.00000000000E+00  0.99999998245E-14  0.12500000000E+03  0.12500000000E+03 0.  0.
        -13    1    3    3    0    0 -0.84775060321E+01  0.23594445339E+02  0.24494046364E+02  0.35050469764E+02  0.10566000000E+00 0. -1.
         23    2    1    0    0    0  0.92308865916E+01  0.12464564403E+01 -0.28384154872E+02  0.95126547425E+02  0.90314101093E+02 0.  0.
         13    1    3    3    0    0  0.17708392624E+02 -0.22347988898E+02 -0.52878201236E+02  0.60076077661E+02  0.10566000000E+00 0.  1.
         22    1    1    0    0    0 -0.92308865916E+01 -0.12464564403E+01  0.28384154872E+02  0.29873452575E+02  0.00000000000E+00 0.  1.
</event>
<event>
 5    1  0.1315753E-009  0.9118800E+02  0.7818608E-02  0.1130116E+00
         25   -1    0    0    0    0  0.00000000000E+00  0.00000000000E+00  0.99999998245E-14  0.12500000000E+03  0.12500000000E+03 0.  0.
        -13    1    3    3    0    0 -0.35354129329E+00  0.29104428432E+02  0.14194823752E+02  0.32383590462E+02  0.10566000000E+00 0.  1.
         23    2    1    0    0    0 -0.11533141144E+02 -0.20739181677E+02 -0.20092559084E+02  0.93905982379E+02  0.88608665461E+02 0.  0.
         13    1    3    3    0    0 -0.11179599851E+02 -0.49843610109E+02 -0.34287382835E+02  0.61522391918E+02  0.10566000000E+00 0. -1.
         22    1    1    0    0    0  0.11533141144E+02  0.20739181677E+02  0.20092559084E+02  0.31094017621E+02  0.00000000000E+00 0. -1.
</event>
<event>
 5    1  0.1315753E-009  0.9118800E+02  0.7818608E-02  0.1130116E+00
         25   -1    0    0    0    0  0.00000000000E+00  0.00000000000E+00  0.99999998245E-14  0.12500000000E+03  0.12500000000E+03 0.  0.
        -13    1    3    3    0    0  0.34944532678E+02  0.56810456035E+01 -0.82356133143E+01  0.36348743224E+02  0.10566000000E+00 0. -1.
         23    2    1    0    0    0  0.69203974756E+01 -0.24304055533E+02  0.25219182266E+02  0.89298653096E+02  0.81851470811E+02 0.  0.
         13    1    3    3    0    0 -0.28024135203E+02 -0.29985101137E+02  0.33454795581E+02  0.52949909872E+02  0.10566000000E+00 0.  1.
         22    1    1    0    0    0 -0.69203974756E+01  0.24304055533E+02 -0.25219182266E+02  0.35701346904E+02  0.00000000000E+00 0.  1.
</event>
<event>
 5    1  0.1315753E-009  0.9118800E+02  0.7818608E-02  0.1130116E+00
         25   -1    0    0    0    0  0.00000000000E+00  0.00000000000E+00  0.99999998245E-14  0.12500000000E+03  0.12500000000E+03 0.  0.
        -13    1    3    3    0    0 -0.15736669219E+02  0.20791605361E+02  0.38150068919E+02  0.46210091259E+02  0.10566000000E+00 0.  1.
         23    2    1    0    0    0 -0.28237568583E+02 -0.50705219536E+00 -0.53725342028E+01  0.96251408640E+02  0.91857782251E+02 0.  0.
         13    1    3    3    0    0 -0.12500899365E+02 -0.21298657557E+02 -0.43522603122E+02  0.50041317381E+02  0.10566000000E+00 0. -1.
         22    1    1    0    0    0  0.28237568583E+02  0.50705219536E+00  0.53725342028E+01  0.28748591360E+02  0.00000000000E+00 0. -1.
</event>
<event>
 5    1  0.1315753E-009  0.9118800E+02  0.7818608E-02  0.1130116E+00
         25   -1    0    0    0    0  0.00000000000E+00  0.00000000000E+00  0.99999998245E-14  0.12500000000E+03  0.12500000000E+03 0.  0.
        -13    1    3    3    0    0 -0.12780927220E+02  0.55949829517E+01 -0.47058968823E+02  0.49083741153E+02  0.10566000000E+00 0. -1.
         23    2    1    0    0    0 -0.35835194066E+00 -0.20622041861E+02 -0.41548455880E+02  0.78613889874E+02  0.63470248688E+02 0.  0.
         13    1    3    3    0    0  0.12422575279E+02 -0.26217024812E+02  0.55105129429E+01  0.29530148721E+02  0.10566000000E+00 0.  1.
         22    1    1    0    0    0  0.35835194066E+00  0.20622041861E+02  0.41548455880E+02  0.46386110126E+02  0.00000000000E+00 0. -1.
</event>
<event>
 5    1  0.1315753E-009  0.9118800E+02  0.7818608E-02  0.1130116E+00
         25   -1    0    0    0    0  0.00000000000E+00  0.00000000000E+00  0.99999998245E-14  0.12500000000E+03  0.12500000000E+03 0.  0.
        -13    1    3    3    0    0  0.41338107905E+02 -0.52452805968E+01 -0.40567758526E+02  0.58155879578E+02  0.10566000000E+00 0.  1.
         23    2    1    0    0    0  0.13943367917E+02  0.12851085455E+02 -0.22299114205E+02  0.95728539488E+02  0.91143485077E+02 0.  0.
         13    1    3    3    0    0 -0.27394739988E+02  0.18096366051E+02  0.18268644321E+02  0.37572659909E+02  0.10566000000E+00 0. -1.
         22    1    1    0    0    0 -0.13943367917E+02 -0.12851085455E+02  0.22299114205E+02  0.29271460512E+02  0.00000000000E+00 0.  1.
</event>
<event>
 5    1  0.1315753E-009  0.9118800E+02  0.7818608E-02  0.1130116E+00
         25   -1    0    0    0    0  0.00000000000E+00  0.00000000000E+00  0.99999998245E-14  0.12500000000E+03  0.12500000000E+03 0.  0.
        -13    1    3    3    0    0 -0.32297760909E+02 -0.55349243638E+00  0.21178279006E+02  0.38626187740E+02  0.10566000000E+00 0.  1.
         23    2    1    0    0    0  0.63440287571E+01  0.26758382936E+02 -0.10492363318E+02  0.95566219302E+02  0.90920596266E+02 0.  0.
         13    1    3    3    0    0  0.38641789666E+02  0.27311875372E+02 -0.31670642324E+02  0.56940031561E+02  0.10566000000E+00 0. -1.
         22    1    1    0    0    0 -0.63440287571E+01 -0.26758382936E+02  0.10492363318E+02  0.29433780698E+02  0.00000000000E+00 0. -1.
</event>
<event>
 5    1  0.1315753E-009  0.9118800E+02  0.7818608E-02  0.1130116E+00
         25   -1    0    0    0    0  0.00000000000E+00  0.00000000000E+00  0.99999998245E-14  0.12500000000E+03  0.12500000000E+03 0.  0.
        -13    1    3    3    0    0  0.12467955543E+02 -0.15944219078E+02  0.45351731510E+02  0.49663454898E+02  0.10566000000E+00 0. -1.
         23    2    1    0    0    0 -0.69515844833E+01  0.18623021156E+02  0.20435284068E+02  0.96491364839E+02  0.92183736146E+02 0.  0.
         13    1    3    3    0    0 -0.19419540026E+02  0.34567240234E+02 -0.24916447442E+02  0.46827909941E+02  0.10566000000E+00 0.  1.
         22    1    1    0    0    0  0.69515844833E+01 -0.18623021156E+02 -0.20435284068E+02  0.28508635161E+02  0.00000000000E+00 0.  1.
</event>
<event>
 5    1  0.1315753E-009  0.9118800E+02  0.7818608E-02  0.1130116E+00
         25   -1    0    0    0    0  0.00000000000E+00  0.00000000000E+00  0.99999998245E-14  0.12500000000E+03  0.12500000000E+03 0.  0.
        -13    1    3    3    0    0  0.37540784779E+02 -0.13338515986E+02  0.31390142013E+02  0.50720594537E+02  0.10566000000E+00 0.  1.
         23    2    1    0    0    0  0.13882290755E+02 -0.24319174147E+02 -0.60510100964E+01  0.96351178890E+02  0.91993449345E+02 0.  0.
         13    1    3    3    0    0 -0.23658494024E+02 -0.10980658161E+02 -0.37441152109E+02  0.45630584353E+02  0.10566000000E+00 0. -1.
         22    1    1    0    0    0 -0.13882290755E+02  0.24319174147E+02  0.60510100964E+01  0.28648821110E+02  0.00000000000E+00 0. -1.
</event>
<event>
 5    1  0.1315753E-009  0.9118800E+02  0.7818608E-02  0.1130116E+00
         25   -1    0    0    0    0  0.00000000000E+00  0.00000000000E+00  0.99999998245E-14  0.12500000000E+03  0.12500000000E+03 0.  0.
        -13    1    3    3    0    0 -0.69397111979E+00 -0.30844352317E+02 -0.15976453548E+02  0.34743544692E+02  0.10566000000E+00 0. -1.
         23    2    1    0    0    0 -0.84987025166E+01  0.25280251561E+02  0.92513592987E+01  0.96770463830E+02  0.92561417219E+02 0.  0.
         13    1    3    3    0    0 -0.78047313968E+01  0.56124603878E+02  0.25227812847E+02  0.62026919138E+02  0.10566000000E+00 0.  1.
         22    1    1    0    0    0  0.84987025166E+01 -0.25280251561E+02 -0.92513592987E+01  0.28229536170E+02  0.00000000000E+00 0.  1.
</event>
<event>
 5    1  0.1315753E-009  0.9118800E+02  0.7818608E-02  0.1130116E+00
         25   -1    0    0    0    0  0.00000000000E+00  0.00000000000E+00  0.99999998245E-14  0.12500000000E+03  0.12500000000E+03 0.  0.
        -13    1    3    3    0    0 -0.23037671583E+02 -0.26468833072E+02 -0.10159126762E+02  0.36531526888E+02  0.10566000000E+00 0. -1.
         23    2    1    0    0    0  0.20033744737E+02  0.14055171079E+02 -0.15692855770E+02  0.95928287211E+02  0.91417021406E+02 0.  0.
         13    1    3    3    0    0  0.43071416320E+02  0.40524004150E+02 -0.55337290085E+01  0.59396760324E+02  0.10566000000E+00 0.  1.
         22    1    1    0    0    0 -0.20033744737E+02 -0.14055171079E+02  0.15692855770E+02  0.29071712789E+02  0.00000000000E+00 0.  1.
</event>
<event>
 5    1  0.1315753E-009  0.9118800E+02  0.7818608E-02  0.1130116E+00
         25   -1    0    0    0    0  0.00000000000E+00  0.00000000000E+00  0.99999998245E-14  0.12500000000E+03  0.12500000000E+03 0.  0.
        -13    1    3    3    0    0 -0.43668875355E+02  0.18139456765E+02 -0.29164273809E+02  0.55556967136E+02  0.10566000000E+00 0. -1.
         23    2    1    0    0    0 -0.27979980349E+02  0.61136874283E+01  0.58523048304E+01  0.95768066329E+02  0.91197678601E+02 0.  0.
         13    1    3    3    0    0  0.15688895005E+02 -0.12025769337E+02  0.35016578640E+02  0.40211099193E+02  0.10566000000E+00 0.  1.
         22    1    1    0    0    0  0.27979980349E+02 -0.61136874283E+01 -0.58523048304E+01  0.29231933671E+02  0.00000000000E+00 0.  1.
</event>
<event>
 5    1  0.1315753E-009  0.9118800E+02  0.7818608E-02  0.1130116E+00
         25   -1    0    0    0    0  0.00000000000E+00  0.00000000000E+00  0.99999998245E-14  0.12500000000E+03  0.12500000000E+03 0.  0.
        -13    1    3    3    0    0  0.49363376421E+02 -0.35387745313E+02 -0.22777182807E+01  0.60780215651E+02  0.10566000000E+00 0.  1.
         23    2    1    0    0    0  0.23738505968E+02 -0.11453888791E+02 -0.10217101610E+02  0.96731689132E+02  0.92509038926E+02 0.  0.
         13    1    3    3    0    0 -0.25624870454E+02  0.23933856522E+02 -0.79393833293E+01  0.35951473481E+02  0.10566000000E+00 0. -1.
         22    1    1    0    0    0 -0.23738505968E+02  0.11453888791E+02  0.10217101610E+02  0.28268310868E+02  0.00000000000E+00 0.  1.
</event>
<event>
 5    1  0.1315753E-009  0.9118800E+02  0.7818608E-02  0.1130116E+00
         25   -1    0    0    0    0  0.00000000000E+00  0.00000000000E+00  0.99999998245E-14  0.12500000000E+03  0.12500000000E+03 0.  0.
        -13    1    3    3    0    0  0.75148390547E+01  0.16000905014E+02 -0.30868708146E+02  0.35572321739E+02  0.10566000000E+00 0.  1.
         23    2    1    0    0    0  0.16566041958E+02 -0.18872528281E+02  0.16400539838E+02  0.95006937855E+02  0.90148402447E+02 0.  0.
         13    1    3    3    0    0  0.90512029028E+01 -0.34873433295E+02  0.47269247984E+02  0.59434616116E+02  0.10566000000E+00 0. -1.
         22    1    1    0    0    0 -0.16566041958E+02  0.18872528281E+02 -0.16400539838E+02  0.29993062145E+02  0.00000000000E+00 0. -1.
</event>
<event>
 5    1  0.1315753E-009  0.9118800E+02  0.7818608E-02  0.1130116E+00
         25   -1    0    0    0    0  0.00000000000E+00  0.00000000000E+00  0.99999998245E-14  0.12500000000E+03  0.12500000000E+03 0.  0.
        -13    1    3    3    0    0  0.15099374237E+02 -0.32232908374E+01  0.56662417592E+02  0.58728369955E+02  0.10566000000E+00 0. -1.
         23    2    1    0    0    0 -0.73128189891E+01 -0.69468697737E+01  0.27581545711E+02  0.95632024499E+02  0.91011021997E+02 0.  0.
         13    1    3    3    0    0 -0.22412193226E+02 -0.37235789364E+01 -0.29080871881E+02  0.36903654544E+02  0.10566000000E+00 0.  1.
         22    1    1    0    0    0  0.73128189891E+01  0.69468697737E+01 -0.27581545711E+02  0.29367975501E+02  0.00000000000E+00 0. -1.
</event>
<event>
 5    1  0.1315753E-009  0.9118800E+02  0.7818608E-02  0.1130116E+00
         25   -1    0    0    0    0  0.00000000000E+00  0.00000000000E+00  0.99999998245E-14  0.12500000000E+03  0.12500000000E+03 0.  0.
        -13    1    3    3    0    0  0.56883611526E+02  0.22488100895E+02 -0.12534304593E+02  0.62438609031E+02  0.10566000000E+00 0.  1.
         23    2    1    0    0    0  0.25631595764E+02  0.10290131164E+02 -0.36784344251E+01  0.97136109737E+02  0.93053895319E+02 0.  0.
         13    1    3    3    0    0 -0.31252015761E+02 -0.12197969732E+02  0.88558701680E+01  0.34697500705E+02  0.10566000000E+00 0. -1.
         22    1    1    0    0    0 -0.25631595764E+02 -0.10290131164E+02  0.36784344251E+01  0.27863890263E+02  0.00000000000E+00 0.  1.
</event>
<event>
 5    1  0.1315753E-009  0.9118800E+02  0.7818608E-02  0.1130116E+00
         25   -1    0    0    0    0  0.00000000000E+00  0.00000000000E+00  0.99999998245E-14  0.12500000000E+03  0.12500000000E+03 0.  0.
        -13    1    3    3    0    0 -0.18834077905E+02  0.17883187709E+02 -0.31918513091E+02  0.41150134084E+02  0.10566000000E+00 0.  1.
         23    2    1    0    0    0 -0.37259472507E+01  0.20163018399E+02  0.20653034849E+02  0.95897116253E+02  0.91374389537E+02 0.  0.
         13    1    3    3    0    0  0.15108130654E+02  0.22798306903E+01  0.52571547940E+02  0.54746982169E+02  0.10566000000E+00 0. -1.
         22    1    1    0    0    0  0.37259472507E+01 -0.20163018399E+02 -0.20653034849E+02  0.29102883747E+02  0.00000000000E+00 0. -1.
</event>
<event>
 5    1  0.1315753E-009  0.9118800E+02  0.7818608E-02  0.1130116E+00
         25   -1    0    0    0    0  0.00000000000E+00  0.00000000000E+00  0.99999998245E-14  0.12500000000E+03  0.12500000000E+03 0.  0.
        -13    1    3    3    0    0 -0.16247492057E+02 -0.91091042659E+01 -0.39958384642E+02  0.44086737755E+02  0.10566000000E+00 0. -1.
         23    2    1    0    0    0  0.16337777522E+02 -0.23473274101E+02 -0.17052420558E+01  0.96349949007E+02  0.91991778175E+02 0.  0.
         13    1    3    3    0    0  0.32585269579E+02 -0.14364169836E+02  0.38253142586E+02  0.52263211252E+02  0.10566000000E+00 0.  1.
         22    1    1    0    0    0 -0.16337777522E+02  0.23473274101E+02  0.17052420558E+01  0.28650050993E+02  0.00000000000E+00 0.  1.
</event>
<event>
 5    1  0.1315753E-009  0.9118800E+02  0.7818608E-02  0.1130116E+00
         25   -1    0    0    0    0  0.00000000000E+00  0.00000000000E+00  0.99999998245E-14  0.12500000000E+03  0.12500000000E+03 0.  0.
        -13    1    3    3    0    0 -0.14194903309E+02 -0.23151993437E+02  0.25935660409E+02  0.37552359779E+02  0.10566000000E+00 0.  1.
         23    2    1    0    0    0 -0.72952580326E+01  0.24668183214E+02 -0.96148532374E+01  0.97537562825E+02  0.93591616645E+02 0.  0.
         13    1    3    3    0    0  0.68996452762E+01  0.47820176651E+02 -0.35550513646E+02  0.59985203046E+02  0.10566000000E+00 0. -1.
         22    1    1    0    0    0  0.72952580326E+01 -0.24668183214E+02  0.96148532374E+01  0.27462437175E+02  0.00000000000E+00 0. -1.
</event>
<event>
 5    1  0.1315753E-009  0.9118800E+02  0.7818608E-02  0.1130116E+00
         25   -1    0    0    0    0  0.00000000000E+00  0.00000000000E+00  0.99999998245E-14  0.12500000000E+03  0.12500000000E+03 0.  0.
        -13    1    3    3    0    0  0.26008180189E+02 -0.43776985835E+01 -0.21866386614E+02  0.34259884839E+02  0.10566000000E+00 0. -1.
         23    2    1    0    0    0 -0.10868875774E+02  0.49515654038E+01  0.26582594141E+02  0.95857509170E+02  0.91320191045E+02 0.  0.
         13    1    3    3    0    0 -0.36877055963E+02  0.93292639873E+01  0.48448980754E+02  0.61597624331E+02  0.10566000000E+00 0.  1.
         22    1    1    0    0    0  0.10868875774E+02 -0.49515654038E+01 -0.26582594141E+02  0.29142490830E+02  0.00000000000E+00 0.  1.
</event>
<event>
 5    1  0.1315753E-009  0.9118800E+02  0.7818608E-02  0.1130116E+00
         25   -1    0    0    0    0  0.00000000000E+00  0.00000000000E+00  0.99999998245E-14  0.12500000000E+03  0.12500000000E+03 0.  0.
        -13    1    3    3    0    0 -0.46826317189E+02 -0.96238778069E+00 -0.10439598850E+02  0.47985691200E+02  0.10566000000E+00 0.  1.
         23    2    1    0    0    0 -0.77060279908E+01 -0.27715240741E+02 -0.16582639582E+01  0.96185641148E+02  0.91768242257E+02 0.  0.
         13    1    3    3    0    0  0.39120289198E+02 -0.26752852960E+02  0.87813348923E+01  0.48199949948E+02  0.10566000000E+00 0. -1.
         22    1    1    0    0    0  0.77060279908E+01  0.27715240741E+02  0.16582639582E+01  0.28814358852E+02  0.00000000000E+00 0.  1.
</event>
<event>
 5    1  0.1315753E-009  0.9118800E+02  0.7818608E-02  0.1130116E+00
         25   -1    0    0    0    0  0.00000000000E+00  0.00000000000E+00  0.99999998245E-14  0.12500000000E+03  0.12500000000E+03 0.  0.
        -13    1    3    3    0    0 -0.11104933677E+02  0.18460780575E+02  0.31081440234E+02  0.37817814089E+02  0.10566000000E+00 0. -1.
         23    2    1    0    0    0 -0.57366974486E+01 -0.27614490268E+02 -0.47068389895E+01  0.96405872917E+02  0.92067737179E+02 0.  0.
         13    1    3    3    0    0  0.53682362280E+01 -0.46075270843E+02 -0.35788279224E+02  0.58588058828E+02  0.10566000000E+00 0.  1.
         22    1    1    0    0    0  0.57366974486E+01  0.27614490268E+02  0.47068389895E+01  0.28594127083E+02  0.00000000000E+00 0.  1.
</event>
<event>
 5    1  0.1315753E-009  0.9118800E+02  0.7818608E-02  0.1130116E+00
         25   -1    0    0    0    0  0.00000000000E+00  0.00000000000E+00  0.99999998245E-14  0.12500000000E+03  0.12500000000E+03 0.  0.
        -13    1    3    3    0    0 -0.34189047493E+01  0.47649635547E+02  0.10493018692E+02  0.48911054812E+02  0.10566000000E+00 0. -1.
         23    2    1    0    0    0  0.23614572064E+02  0.98268743579E+01  0.14541609316E+02  0.95577663674E+02  0.90936328925E+02 0.  0.
         13    1    3    3    0    0  0.27033476813E+02 -0.37822761189E+02  0.40485906246E+01  0.46666608862E+02  0.10566000000E+00 0.  1.
         22    1    1    0    0    0 -0.23614572064E+02 -0.98268743579E+01 -0.14541609316E+02  0.29422336326E+02  0.00000000000E+00 0. -1.
</event>
<event>
 5    1  0.1315753E-009  0.9118800E+02  0.7818608E-02  0.1130116E+00
         25   -1    0    0    0    0  0.00000000000E+00  0.00000000000E+00  0.99999998245E-14  0.12500000000E+03  0.12500000000E+03 0.  0.
        -13    1    3    3    0    0 -0.42020513619E+02  0.25965872837E+02 -0.95371998629E+01  0.50308244476E+02  0.10566000000E+00 0.  1.
         23    2    1    0    0    0 -0.21656670713E+02 -0.12767433367E+02 -0.16933064534E+02  0.94689153498E+02  0.89706679654E+02 0.  0.
         13    1    3    3    0    0  0.20363842906E+02 -0.38733306203E+02 -0.73958646713E+01  0.44380909022E+02  0.10566000000E+00 0. -1.
         22    1    1    0    0    0  0.21656670713E+02  0.12767433367E+02  0.16933064534E+02  0.30310846502E+02  0.00000000000E+00 0. -1.
</event>
<event>
 5    1  0.1315753E-009  0.9118800E+02  0.7818608E-02  0.1130116E+00
         25   -1    0    0    0    0  0.00000000000E+00  0.00000000000E+00  0.99999998245E-14  0.12500000000E+03  0.12500000000E+03 0.  0.
        -13    1    3    3    0    0  0.18005782876E+02  0.23154548441E+02  0.23206440773E+02  0.37401756481E+02  0.10566000000E+00 0. -1.
         23    2    1    0    0    0  0.90133064883E+01 -0.15967900055E+02 -0.21004432275E+02  0.97118111592E+02  0.93029715134E+02 0.  0.
         13    1    3    3    0    0 -0.89924763882E+01 -0.39122448495E+02 -0.44210873049E+02  0.59716355110E+02  0.10566000000E+00 0.  1.
         22    1    1    0    0    0 -0.90133064883E+01  0.15967900055E+02  0.21004432275E+02  0.27881888408E+02  0.00000000000E+00 0.  1.
</event>
<event>
 5    1  0.1315753E-009  0.9118800E+02  0.7818608E-02  0.1130116E+00
         25   -1    0    0    0    0  0.00000000000E+00  0.00000000000E+00  0.99999998245E-14  0.12500000000E+03  0.12500000000E+03 0.  0.
        -13    1    3    3    0    0  0.54824007080E+02  0.50578795087E+01 -0.28422222720E+02  0.61960372867E+02  0.10566000000E+00 0.  1.
         23    2    1    0    0    0  0.22586764582E+02  0.55627790035E+01 -0.17089785069E+02  0.96135364229E+02  0.91699733136E+02 0.  0.
         13    1    3    3    0    0 -0.32237242499E+02  0.50489949481E+00  0.11332437651E+02  0.34174991362E+02  0.10566000000E+00 0. -1.
         22    1    1    0    0    0 -0.22586764582E+02 -0.55627790035E+01  0.17089785069E+02  0.28864635771E+02  0.00000000000E+00 0.  1.
</event>
<event>
 5    1  0.1315753E-009  0.9118800E+02  0.7818608E-02  0.1130116E+00
         25   -1    0    0    0    0  0.00000000000E+00  0.00000000000E+00  0.99999998245E-14  0.12500000000E+03  0.12500000000E+03 0.  0.
        -13    1    3    3    0    0 -0.26202716730E+02 -0.41828324412E+01  0.39175519609E+02  0.47316074984E+02  0.10566000000E+00 0.  1.
         23    2    1    0    0    0  0.61589487895E+01  0.23624919510E+02  0.14284501161E+02  0.96713670343E+02  0.92484688385E+02 0.  0.
         13    1    3    3    0    0  0.32361665520E+02  0.27807751951E+02 -0.24891018448E+02  0.49397595359E+02  0.10566000000E+00 0. -1.
         22    1    1    0    0    0 -0.61589487895E+01 -0.23624919510E+02 -0.14284501161E+02  0.28286329657E+02  0.00000000000E+00 0.  1.
</event>
<event>
 5    1  0.1315753E-009  0.9118800E+02  0.7818608E-02  0.1130116E+00
         25   -1    0    0    0    0  0.00000000000E+00  0.00000000000E+00  0.99999998245E-14  0.12500000000E+03  0.12500000000E+03 0.  0.
        -13    1    3    3    0    0 -0.26831374471E+02 -0.18510818907E+02  0.12956905806E+02  0.35077993738E+02  0.10566000000E+00 0. -1.
         23    2    1    0    0    0  0.18546174617E+02  0.20750612577E+02 -0.25454668513E+01  0.97053123310E+02  0.92942352173E+02 0.  0.
         13    1    3    3    0    0  0.45377549088E+02  0.39261431484E+02 -0.15502372657E+02  0.61975129572E+02  0.10566000000E+00 0.  1.
         22    1    1    0    0    0 -0.18546174617E+02 -0.20750612577E+02  0.25454668513E+01  0.27946876690E+02  0.00000000000E+00 0.  1.
</event>
<event>
 5    1  0.1315753E-009  0.9118800E+02  0.7818608E-02  0.1130116E+00
         25   -1    0    0    0    0  0.00000000000E+00  0.00000000000E+00  0.99999998245E-14  0.12500000000E+03  0.12500000000E+03 0.  0.
        -13    1    3    3    0    0 -0.27372568043E+02  0.15690159677E+02  0.15451618281E+02  0.35131214944E+02  0.10566000000E+00 0. -1.
         23    2    1    0    0    0  0.15766820864E+02 -0.24503199406E+02  0.96696124767E+00  0.95846364972E+02  0.91304935480E+02 0.  0.
         13    1    3    3    0    0  0.43139388906E+02 -0.40193359083E+02 -0.14484657033E+02  0.60715150028E+02  0.10566000000E+00 0.  1.
         22    1    1    0    0    0 -0.15766820864E+02  0.24503199406E+02 -0.96696124767E+00  0.29153635028E+02  0.00000000000E+00 0.  1.
</event>
<event>
 5    1  0.1315753E-009  0.9118800E+02  0.7818608E-02  0.1130116E+00
         25   -1    0    0    0    0  0.00000000000E+00  0.00000000000E+00  0.99999998245E-14  0.12500000000E+03  0.12500000000E+03 0.  0.
        -13    1    3    3    0    0 -0.81777814099E+01  0.35623612248E+02 -0.11250028155E+02  0.38242543795E+02  0.10566000000E+00 0.  1.
         23    2    1    0    0    0  0.28829819552E+02 -0.68844269803E+01 -0.48530032482E+01  0.94964929320E+02  0.90090134476E+02 0.  0.
         13    1    3    3    0    0  0.37007600962E+02 -0.42508039228E+02  0.63970249069E+01  0.56722385525E+02  0.10566000000E+00 0. -1.
         22    1    1    0    0    0 -0.28829819552E+02  0.68844269803E+01  0.48530032482E+01  0.30035070680E+02  0.00000000000E+00 0. -1.
</event>
<event>
 5    1  0.1315753E-009  0.9118800E+02  0.7818608E-02  0.1130116E+00
         25   -1    0    0    0    0  0.00000000000E+00  0.00000000000E+00  0.99999998245E-14  0.12500000000E+03  0.12500000000E+03 0.  0.
        -13    1    3    3    0    0 -0.51318477409E+01 -0.42543625332E+02 -0.11689178627E+02  0.44417834016E+02  0.10566000000E+00 0.  1.
         23    2    1    0    0    0  0.24757463455E+02  0.22724961197E+00 -0.13828368465E+02  0.96641449023E+02  0.92387024283E+02 0.  0.
         13    1    3    3    0    0  0.29889311196E+02  0.42770874944E+02 -0.21391898373E+01  0.52223615007E+02  0.10566000000E+00 0. -1.
         22    1    1    0    0    0 -0.24757463455E+02 -0.22724961197E+00  0.13828368465E+02  0.28358550977E+02  0.00000000000E+00 0.  1.
</event>
<event>
 5    1  0.1315753E-009  0.9118800E+02  0.7818608E-02  0.1130116E+00
         25   -1    0    0    0    0  0.00000000000E+00  0.00000000000E+00  0.99999998245E-14  0.12500000000E+03  0.12500000000E+03 0.  0.
        -13    1    3    3    0    0 -0.11703602977E+02  0.53381079156E+02 -0.12479777640E+02  0.56055953729E+02  0.10566000000E+00 0.  1.
         23    2    1    0    0    0 -0.97898197936E+01  0.21548884243E+02  0.13995280125E+02  0.97503402947E+02  0.93545981938E+02 0.  0.
         13    1    3    3    0    0  0.19137831830E+01 -0.31832194913E+02  0.26475057765E+02  0.41447449219E+02  0.10566000000E+00 0. -1.
         22    1    1    0    0    0  0.97898197936E+01 -0.21548884243E+02 -0.13995280125E+02  0.27496597053E+02  0.00000000000E+00 0.  1.
</event>
<event>
 5    1  0.1315753E-009  0.9118800E+02  0.7818608E-02  0.1130116E+00
         25   -1    0    0    0    0  0.00000000000E+00  0.00000000000E+00  0.99999998245E-14  0.12500000000E+03  0.12500000000E+03 0.  0.
        -13    1    3    3    0    0 -0.33844745311E+02  0.25289553816E+02 -0.16525380767E+02  0.45366592233E+02  0.10566000000E+00 0. -1.
         23    2    1    0    0    0 -0.97651449929E+01  0.13640460126E+02  0.25078532243E+02  0.94827943580E+02  0.89899865934E+02 0.  0.
         13    1    3    3    0    0  0.24079600318E+02 -0.11649093690E+02  0.41603913010E+02  0.49461351346E+02  0.10566000000E+00 0.  1.
         22    1    1    0    0    0  0.97651449929E+01 -0.13640460126E+02 -0.25078532243E+02  0.30172056420E+02  0.00000000000E+00 0.  1.
</event>
<event>
 5    1  0.1315753E-009  0.9118800E+02  0.7818608E-02  0.1130116E+00
         25   -1    0    0    0    0  0.00000000000E+00  0.00000000000E+00  0.99999998245E-14  0.12500000000E+03  0.12500000000E+03 0.  0.
        -13    1    3    3    0    0  0.16248753010E+02 -0.42114867248E+02 -0.31347066487E+02  0.54957563256E+02  0.10566000000E+00 0.  1.
         23    2    1    0    0    0 -0.10758692617E+02 -0.31626352234E+02 -0.13615354637E+02  0.88925722401E+02  0.81279952018E+02 0.  0.
         13    1    3    3    0    0 -0.27007445627E+02  0.10488515014E+02  0.17731711850E+02  0.33968159144E+02  0.10566000000E+00 0. -1.
         22    1    1    0    0    0  0.10758692617E+02  0.31626352234E+02  0.13615354637E+02  0.36074277599E+02  0.00000000000E+00 0.  1.
</event>
<event>
 5    1  0.1315753E-009  0.9118800E+02  0.7818608E-02  0.1130116E+00
         25   -1    0    0    0    0  0.00000000000E+00  0.00000000000E+00  0.99999998245E-14  0.12500000000E+03  0.12500000000E+03 0.  0.
        -13    1    3    3    0    0 -0.26713763215E+02 -0.45694495054E+02 -0.41163944832E+01  0.53090186390E+02  0.10566000000E+00 0.  1.
         23    2    1    0    0    0  0.10932591645E+02 -0.27269654921E+02  0.24653960737E+01  0.95517228465E+02  0.90853217424E+02 0.  0.
         13    1    3    3    0    0  0.37646354861E+02  0.18424840133E+02  0.65817905568E+01  0.42427042075E+02  0.10566000000E+00 0. -1.
         22    1    1    0    0    0 -0.10932591645E+02  0.27269654921E+02 -0.24653960737E+01  0.29482771535E+02  0.00000000000E+00 0.  1.
</event>
<event>
 5    1  0.1315753E-009  0.9118800E+02  0.7818608E-02  0.1130116E+00
         25   -1    0    0    0    0  0.00000000000E+00  0.00000000000E+00  0.99999998245E-14  0.12500000000E+03  0.12500000000E+03 0.  0.
        -13    1    3    3    0    0  0.28876507589E+02  0.25436582090E+02 -0.11663541753E+01  0.38499921365E+02  0.10566000000E+00 0.  1.
         23    2    1    0    0    0  0.22706880579E+01 -0.20615104249E+02 -0.21208831262E+02  0.95335997051E+02  0.90603527872E+02 0.  0.
         13    1    3    3    0    0 -0.26605819531E+02 -0.46051686339E+02 -0.20042477087E+02  0.56836075686E+02  0.10566000000E+00 0. -1.
         22    1    1    0    0    0 -0.22706880579E+01  0.20615104249E+02  0.21208831262E+02  0.29664002949E+02  0.00000000000E+00 0. -1.
</event>
<event>
 5    1  0.1315753E-009  0.9118800E+02  0.7818608E-02  0.1130116E+00
         25   -1    0    0    0    0  0.00000000000E+00  0.00000000000E+00  0.99999998245E-14  0.12500000000E+03  0.12500000000E+03 0.  0.
        -13    1    3    3    0    0  0.45142122645E+02 -0.16279761554E+01 -0.28439944580E+02  0.53378864310E+02  0.10566000000E+00 0. -1.
         23    2    1    0    0    0  0.37581010744E+01 -0.38445164674E+01 -0.29676176461E+02  0.94840771232E+02  0.89917700193E+02 0.  0.
         13    1    3    3    0    0 -0.41384021571E+02 -0.22165403120E+01 -0.12362318811E+01  0.41461906922E+02  0.10566000000E+00 0.  1.
         22    1    1    0    0    0 -0.37581010744E+01  0.38445164674E+01  0.29676176461E+02  0.30159228768E+02  0.00000000000E+00 0. -1.
</event>
<event>
 5    1  0.1315753E-009  0.9118800E+02  0.7818608E-02  0.1130116E+00
         25   -1    0    0    0    0  0.00000000000E+00  0.00000000000E+00  0.99999998245E-14  0.12500000000E+03  0.12500000000E+03 0.  0.
        -13    1    3    3    0    0 -0.39551159243E+02  0.34271046354E+01  0.47441732368E+01  0.39981965777E+02  0.10566000000E+00 0. -1.
         23    2    1    0    0    0  0.71960301524E+01 -0.27631043061E+02 -0.12140443183E+01  0.96421488943E+02  0.92088936555E+02 0.  0.
         13    1    3    3    0    0  0.46747189396E+02 -0.31058147697E+02 -0.59582175551E+01  0.56439523166E+02  0.10566000000E+00 0.  1.
         22    1    1    0    0    0 -0.71960301524E+01  0.27631043061E+02  0.12140443183E+01  0.28578511057E+02  0.00000000000E+00 0.  1.
</event>
<event>
 5    1  0.1315753E-009  0.9118800E+02  0.7818608E-02  0.1130116E+00
         25   -1    0    0    0    0  0.00000000000E+00  0.00000000000E+00  0.99999998245E-14  0.12500000000E+03  0.12500000000E+03 0.  0.
        -13    1    3    3    0    0  0.31385970933E+02 -0.38417535308E+02 -0.21485019057E+02  0.54061108002E+02  0.10566000000E+00 0. -1.
         23    2    1    0    0    0 -0.71160443100E+01 -0.24757565060E+02 -0.14285252489E+02  0.95544210196E+02  0.90890332538E+02 0.  0.
         13    1    3    3    0    0 -0.38502015243E+02  0.13659970248E+02  0.71997665676E+01  0.41483102193E+02  0.10566000000E+00 0.  1.
         22    1    1    0    0    0  0.71160443100E+01  0.24757565060E+02  0.14285252489E+02  0.29455789804E+02  0.00000000000E+00 0. -1.
</event>
<event>
 5    1  0.1315753E-009  0.9118800E+02  0.7818608E-02  0.1130116E+00
         25   -1    0    0    0    0  0.00000000000E+00  0.00000000000E+00  0.99999998245E-14  0.12500000000E+03  0.12500000000E+03 0.  0.
        -13    1    3    3    0    0  0.71205965314E+01 -0.14262849510E+02  0.48175452632E+02  0.50744627020E+02  0.10566000000E+00 0. -1.
         23    2    1    0    0    0  0.54056400257E+01  0.20745048415E+02  0.19214116711E+02  0.96211803481E+02  0.91803871760E+02 0.  0.
         13    1    3    3    0    0 -0.17149565057E+01  0.35007897925E+02 -0.28961335920E+02  0.45467176460E+02  0.10566000000E+00 0.  1.
         22    1    1    0    0    0 -0.54056400257E+01 -0.20745048415E+02 -0.19214116711E+02  0.28788196519E+02  0.00000000000E+00 0. -1.
</event>
<event>
 5    1  0.1315753E-009  0.9118800E+02  0.7818608E-02  0.1130116E+00
         25   -1    0    0    0    0  0.00000000000E+00  0.00000000000E+00  0.99999998245E-14  0.12500000000E+03  0.12500000000E+03 0.  0.
        -13    1    3    3    0    0  0.19537286745E+02 -0.54487167563E+02 -0.40039248113E+01  0.58022405847E+02  0.10566000000E+00 0.  1.
         23    2    1    0    0    0  0.24223445408E+02 -0.18283934358E+02 -0.14947236836E+01  0.94613954487E+02  0.89601833808E+02 0.  0.
         13    1    3    3    0    0  0.46861586628E+01  0.36203233205E+02  0.25092011277E+01  0.36591548640E+02  0.10566000000E+00 0. -1.
         22    1    1    0    0    0 -0.24223445408E+02  0.18283934358E+02  0.14947236836E+01  0.30386045513E+02  0.00000000000E+00 0.  1.
</event>
<event>
 5    1  0.1315753E-009  0.9118800E+02  0.7818608E-02  0.1130116E+00
         25   -1    0    0    0    0  0.00000000000E+00  0.00000000000E+00  0.99999998245E-14  0.12500000000E+03  0.12500000000E+03 0.  0.
        -13    1    3    3    0    0 -0.38002066762E+02  0.25853706810E+02  0.24793236103E+02  0.52223433002E+02  0.10566000000E+00 0. -1.
         23    2    1    0    0    0 -0.19836572445E+02  0.19526267850E+02 -0.12731871288E+02  0.94391744757E+02  0.89291299628E+02 0.  0.
         13    1    3    3    0    0  0.18165494316E+02 -0.63274389592E+01 -0.37525107391E+02  0.42168311755E+02  0.10566000000E+00 0.  1.
         22    1    1    0    0    0  0.19836572445E+02 -0.19526267850E+02  0.12731871288E+02  0.30608255243E+02  0.00000000000E+00 0.  1.
</event>
<event>
 5    1  0.1315753E-009  0.9118800E+02  0.7818608E-02  0.1130116E+00
         25   -1    0    0    0    0  0.00000000000E+00  0.00000000000E+00  0.99999998245E-14  0.12500000000E+03  0.12500000000E+03 0.  0.
        -13    1    3    3    0    0  0.18106160826E+01 -0.27823308640E+02 -0.31820612797E+02  0.42308124481E+02  0.10566000000E+00 0.  1.
         23    2    1    0    0    0 -0.26975567060E+02  0.12928281227E+00  0.59078268771E+01  0.97384780453E+02  0.93387339148E+02 0.  0.
         13    1    3    3    0    0 -0.28786183142E+02  0.27952591453E+02  0.37728439674E+02  0.55076655972E+02  0.10566000000E+00 0. -1.
         22    1    1    0    0    0  0.26975567060E+02 -0.12928281227E+00 -0.59078268771E+01  0.27615219547E+02  0.00000000000E+00 0. -1.
</event>
<event>
 5    1  0.1315753E-009  0.9118800E+02  0.7818608E-02  0.1130116E+00
         25   -1    0    0    0    0  0.00000000000E+00  0.00000000000E+00  0.99999998245E-14  0.12500000000E+03  0.12500000000E+03 0.  0.
        -13    1    3    3    0    0 -0.12850534091E+01  0.57515489132E+01  0.41365312143E+02  0.41783153183E+02  0.10566000000E+00 0.  1.
         23    2    1    0    0    0  0.92117029363E+01 -0.27261684407E+02 -0.62291696188E+00  0.96217315393E+02  0.91811376464E+02 0.  0.
         13    1    3    3    0    0  0.10496756345E+02 -0.33013233320E+02 -0.41988229105E+02  0.54434162209E+02  0.10566000000E+00 0. -1.
         22    1    1    0    0    0 -0.92117029363E+01  0.27261684407E+02  0.62291696188E+00  0.28782684607E+02  0.00000000000E+00 0. -1.
</event>
<event>
 5    1  0.1315753E-009  0.9118800E+02  0.7818608E-02  0.1130116E+00
         25   -1    0    0    0    0  0.00000000000E+00  0.00000000000E+00  0.99999998245E-14  0.12500000000E+03  0.12500000000E+03 0.  0.
        -13    1    3    3    0    0  0.27729826026E+02  0.48414230493E+01 -0.17931138019E+02  0.33375432630E+02  0.10566000000E+00 0. -1.
         23    2    1    0    0    0 -0.18293423226E+02 -0.54561209554E+01  0.22498368630E+02  0.95494150068E+02  0.90821459562E+02 0.  0.
         13    1    3    3    0    0 -0.46023249252E+02 -0.10297544005E+02  0.40429506649E+02  0.62118717438E+02  0.10566000000E+00 0.  1.
         22    1    1    0    0    0  0.18293423226E+02  0.54561209554E+01 -0.22498368630E+02  0.29505849932E+02  0.00000000000E+00 0.  1.
</event>
<event>
 5    1  0.1315753E-009  0.9118800E+02  0.7818608E-02  0.1130116E+00
         25   -1    0    0    0    0  0.00000000000E+00  0.00000000000E+00  0.99999998245E-14  0.12500000000E+03  0.12500000000E+03 0.  0.
        -13    1    3    3    0    0  0.17215805788E+02 -0.32227022794E+02  0.29168890014E+01  0.36653572439E+02  0.10566000000E+00 0. -1.
         23    2    1    0    0    0  0.93615827181E+01  0.25763100242E+02  0.10467013325E+02  0.95658307258E+02  0.91047113158E+02 0.  0.
         13    1    3    3    0    0 -0.78542230695E+01  0.57990123035E+02  0.75501243233E+01  0.59004734819E+02  0.10566000000E+00 0.  1.
         22    1    1    0    0    0 -0.93615827181E+01 -0.25763100242E+02 -0.10467013325E+02  0.29341692742E+02  0.00000000000E+00 0.  1.
</event>
<event>
 5    1  0.1315753E-009  0.9118800E+02  0.7818608E-02  0.1130116E+00
         25   -1    0    0    0    0  0.00000000000E+00  0.00000000000E+00  0.99999998245E-14  0.12500000000E+03  0.12500000000E+03 0.  0.
        -13    1    3    3    0    0  0.29421612543E+01  0.45481195156E+02  0.20654374756E+02  0.50038083360E+02  0.10566000000E+00 0.  1.
         23    2    1    0    0    0  0.10906308275E+02  0.20281550750E+02 -0.17236798641E+02  0.96235506464E+02  0.91836140032E+02 0.  0.
         13    1    3    3    0    0  0.79641470206E+01 -0.25199644406E+02 -0.37891173397E+02  0.46197423104E+02  0.10566000000E+00 0. -1.
         22    1    1    0    0    0 -0.10906308275E+02 -0.20281550750E+02  0.17236798641E+02  0.28764493536E+02  0.00000000000E+00 0.  1.
</event>
<event>
 5    1  0.1315753E-009  0.9118800E+02  0.7818608E-02  0.1130116E+00
         25   -1    0    0    0    0  0.00000000000E+00  0.00000000000E+00  0.99999998245E-14  0.12500000000E+03  0.12500000000E+03 0.  0.
        -13    1    3    3    0    0  0.27532138594E+02  0.22263188365E+02 -0.16192295597E+02  0.38934172810E+02  0.10566000000E+00 0. -1.
         23    2    1    0    0    0 -0.16373393077E+02 -0.51746678949E+01  0.17322281987E+02  0.10060888191E+03  0.97607481662E+02 0.  0.
         13    1    3    3    0    0 -0.43905531670E+02 -0.27437856259E+02  0.33514577584E+02  0.61674709095E+02  0.10566000000E+00 0.  1.
         22    1    1    0    0    0  0.16373393077E+02  0.51746678949E+01 -0.17322281987E+02  0.24391118094E+02  0.00000000000E+00 0.  1.
</event>
<event>
 5    1  0.1315753E-009  0.9118800E+02  0.7818608E-02  0.1130116E+00
         25   -1    0    0    0    0  0.00000000000E+00  0.00000000000E+00  0.99999998245E-14  0.12500000000E+03  0.12500000000E+03 0.  0.
        -13    1    3    3    0    0  0.34997786817E+02 -0.21282021668E+02 -0.20547514889E+02  0.45825550302E+02  0.10566000000E+00 0.  1.
         23    2    1    0    0    0  0.17432726036E+02 -0.14695883817E+02  0.22613467826E+02  0.92887107490E+02  0.87159491007E+02 0.  0.
         13    1    3    3    0    0 -0.17565060781E+02  0.65861378506E+01  0.43160982715E+02  0.47061557188E+02  0.10566000000E+00 0. -1.
         22    1    1    0    0    0 -0.17432726036E+02  0.14695883817E+02 -0.22613467826E+02  0.32112892510E+02  0.00000000000E+00 0. -1.
</event>
<event>
 5    1  0.1315753E-009  0.9118800E+02  0.7818608E-02  0.1130116E+00
         25   -1    0    0    0    0  0.00000000000E+00  0.00000000000E+00  0.99999998245E-14  0.12500000000E+03  0.12500000000E+03 0.  0.
        -13    1    3    3    0    0  0.23709051769E+02 -0.26424060951E+02 -0.30808003087E+02  0.47005258761E+02  0.10566000000E+00 0.  1.
         23    2    1    0    0    0  0.17053202923E+02  0.18782208771E+02 -0.15857823385E+02  0.95082552603E+02  0.90253189144E+02 0.  0.
         13    1    3    3    0    0 -0.66558488463E+01  0.45206269722E+02  0.14950179702E+02  0.48077293842E+02  0.10566000000E+00 0. -1.
         22    1    1    0    0    0 -0.17053202923E+02 -0.18782208771E+02  0.15857823385E+02  0.29917447397E+02  0.00000000000E+00 0. -1.
</event>
<event>
 5    1  0.1315753E-009  0.9118800E+02  0.7818608E-02  0.1130116E+00
         25   -1    0    0    0    0  0.00000000000E+00  0.00000000000E+00  0.99999998245E-14  0.12500000000E+03  0.12500000000E+03 0.  0.
        -13    1    3    3    0    0  0.16119325009E+02 -0.25873677850E+02 -0.15792961624E+02  0.34332326532E+02  0.10566000000E+00 0.  1.
         23    2    1    0    0    0 -0.95201367076E+01  0.23471843799E+02 -0.23469967272E+02  0.90468857274E+02  0.83619461361E+02 0.  0.
         13    1    3    3    0    0 -0.25639461716E+02  0.49345521649E+02 -0.76770056480E+01  0.56136530741E+02  0.10566000000E+00 0. -1.
         22    1    1    0    0    0  0.95201367076E+01 -0.23471843799E+02  0.23469967272E+02  0.34531142726E+02  0.00000000000E+00 0. -1.
</event>
<event>
 5    1  0.1315753E-009  0.9118800E+02  0.7818608E-02  0.1130116E+00
         25   -1    0    0    0    0  0.00000000000E+00  0.00000000000E+00  0.99999998245E-14  0.12500000000E+03  0.12500000000E+03 0.  0.
        -13    1    3    3    0    0  0.43283536783E+02 -0.92100254870E+00 -0.30915867040E+02  0.53198823304E+02  0.10566000000E+00 0.  1.
         23    2    1    0    0    0  0.28993421465E+02 -0.88482457037E+00  0.82106636002E+01  0.94853418112E+02  0.89935279662E+02 0.  0.
         13    1    3    3    0    0 -0.14290115317E+02  0.36177978327E-01  0.39126530640E+02  0.41654594808E+02  0.10566000000E+00 0. -1.
         22    1    1    0    0    0 -0.28993421465E+02  0.88482457037E+00 -0.82106636002E+01  0.30146581888E+02  0.00000000000E+00 0. -1.
</event>
<event>
 5    1  0.1315753E-009  0.9118800E+02  0.7818608E-02  0.1130116E+00
         25   -1    0    0    0    0  0.00000000000E+00  0.00000000000E+00  0.99999998245E-14  0.12500000000E+03  0.12500000000E+03 0.  0.
        -13    1    3    3    0    0  0.12064486693E+02 -0.21827001935E+02 -0.52569417456E+02  0.58185261607E+02  0.10566000000E+00 0. -1.
         23    2    1    0    0    0  0.98895431287E+01  0.56589369454E+01 -0.26602602449E+02  0.96059974297E+02  0.91596908104E+02 0.  0.
         13    1    3    3    0    0 -0.21749435639E+01  0.27485938881E+02  0.25966815007E+02  0.37874712689E+02  0.10566000000E+00 0.  1.
         22    1    1    0    0    0 -0.98895431287E+01 -0.56589369454E+01  0.26602602449E+02  0.28940025703E+02  0.00000000000E+00 0. -1.
</event>
<event>
 5    1  0.1315753E-009  0.9118800E+02  0.7818608E-02  0.1130116E+00
         25   -1    0    0    0    0  0.00000000000E+00  0.00000000000E+00  0.99999998245E-14  0.12500000000E+03  0.12500000000E+03 0.  0.
        -13    1    3    3    0    0 -0.25046548308E+02  0.54742390069E+02 -0.79236143506E-01  0.60200301453E+02  0.10566000000E+00 0.  1.
         23    2    1    0    0    0 -0.12102472319E+01  0.29029340783E+02 -0.47079623741E+01  0.95566477711E+02  0.90920951533E+02 0.  0.
         13    1    3    3    0    0  0.23836301076E+02 -0.25713049286E+02 -0.46287262306E+01  0.35366176258E+02  0.10566000000E+00 0. -1.
         22    1    1    0    0    0  0.12102472319E+01 -0.29029340783E+02  0.47079623741E+01  0.29433522289E+02  0.00000000000E+00 0.  1.
</event>
<event>
 5    1  0.1315753E-009  0.9118800E+02  0.7818608E-02  0.1130116E+00
         25   -1    0    0    0    0  0.00000000000E+00  0.00000000000E+00  0.99999998245E-14  0.12500000000E+03  0.12500000000E+03 0.  0.
        -13    1    3    3    0    0  0.10330952136E+02  0.44495740614E+02 -0.22567889865E+02  0.50950174895E+02  0.10566000000E+00 0.  1.
         23    2    1    0    0    0  0.15541277049E+02  0.17538717143E+02  0.14772797359E+02  0.97298494027E+02  0.93271772294E+02 0.  0.
         13    1    3    3    0    0  0.52103249132E+01 -0.26957023470E+02  0.37340687223E+02  0.46348319133E+02  0.10566000000E+00 0. -1.
         22    1    1    0    0    0 -0.15541277049E+02 -0.17538717143E+02 -0.14772797359E+02  0.27701505973E+02  0.00000000000E+00 0.  1.
</event>
<event>
 5    1  0.1315753E-009  0.9118800E+02  0.7818608E-02  0.1130116E+00
         25   -1    0    0    0    0  0.00000000000E+00  0.00000000000E+00  0.99999998245E-14  0.12500000000E+03  0.12500000000E+03 0.  0.
        -13    1    3    3    0    0  0.34716069666E+02  0.18045932026E+02 -0.31422320694E+02  0.50182014284E+02  0.10566000000E+00 0. -1.
         23    2    1    0    0    0  0.21365273437E+02 -0.18454497004E+02 -0.76173519011E+01  0.95758464153E+02  0.91184516439E+02 0.  0.
         13    1    3    3    0    0 -0.13350796229E+02 -0.36500429031E+02  0.23804968793E+02  0.45576449869E+02  0.10566000000E+00 0.  1.
         22    1    1    0    0    0 -0.21365273437E+02  0.18454497004E+02  0.76173519011E+01  0.29241535847E+02  0.00000000000E+00 0. -1.
</event>
<event>
 5    1  0.1315753E-009  0.9118800E+02  0.7818608E-02  0.1130116E+00
         25   -1    0    0    0    0  0.00000000000E+00  0.00000000000E+00  0.99999998245E-14  0.12500000000E+03  0.12500000000E+03 0.  0.
        -13    1    3    3    0    0 -0.72306503528E+01 -0.28717064065E+02  0.18753326524E+02  0.35052111103E+02  0.10566000000E+00 0.  1.
         23    2    1    0    0    0  0.10542987354E+02  0.40487360557E+01 -0.27977495213E+02  0.94829035740E+02  0.89901384500E+02 0.  0.
         13    1    3    3    0    0  0.17773637707E+02  0.32765800120E+02 -0.46730821737E+02  0.59776924637E+02  0.10566000000E+00 0. -1.
         22    1    1    0    0    0 -0.10542987354E+02 -0.40487360557E+01  0.27977495213E+02  0.30170964260E+02  0.00000000000E+00 0. -1.
</event>
<event>
 5    1  0.1315753E-009  0.9118800E+02  0.7818608E-02  0.1130116E+00
         25   -1    0    0    0    0  0.00000000000E+00  0.00000000000E+00  0.99999998245E-14  0.12500000000E+03  0.12500000000E+03 0.  0.
        -13    1    3    3    0    0 -0.84565449915E+01  0.28296953657E+02  0.22397583089E+02  0.37066071167E+02  0.10566000000E+00 0. -1.
         23    2    1    0    0    0  0.43575291182E+01 -0.27387733450E+02  0.98729528640E+01  0.95562758251E+02  0.90915837800E+02 0.  0.
         13    1    3    3    0    0  0.12814074110E+02 -0.55684687107E+02 -0.12524630225E+02  0.58496687084E+02  0.10566000000E+00 0.  1.
         22    1    1    0    0    0 -0.43575291182E+01  0.27387733450E+02 -0.98729528640E+01  0.29437241749E+02  0.00000000000E+00 0.  1.
</event>
<event>
 5    1  0.1315753E-009  0.9118800E+02  0.7818608E-02  0.1130116E+00
         25   -1    0    0    0    0  0.00000000000E+00  0.00000000000E+00  0.99999998245E-14  0.12500000000E+03  0.12500000000E+03 0.  0.
        -13    1    3    3    0    0  0.35461377138E+02 -0.77898710008E+00 -0.94229303597E+01  0.36700393323E+02  0.10566000000E+00 0.  1.
         23    2    1    0    0    0 -0.11484475159E+02  0.13666557291E+02  0.23245876486E+02  0.95690637478E+02  0.91091489006E+02 0.  0.
         13    1    3    3    0    0 -0.46945852297E+02  0.14445544391E+02  0.32668806846E+02  0.58990244155E+02  0.10566000000E+00 0. -1.
         22    1    1    0    0    0  0.11484475159E+02 -0.13666557291E+02 -0.23245876486E+02  0.29309362522E+02  0.00000000000E+00 0. -1.
</event>
<event>
 5    1  0.1315753E-009  0.9118800E+02  0.7818608E-02  0.1130116E+00
         25   -1    0    0    0    0  0.00000000000E+00  0.00000000000E+00  0.99999998245E-14  0.12500000000E+03  0.12500000000E+03 0.  0.
        -13    1    3    3    0    0 -0.33606665674E+02  0.49141103071E+01 -0.51037336882E+01  0.34345534200E+02  0.10566000000E+00 0. -1.
         23    2    1    0    0    0  0.22941785257E+02  0.78241698284E+01  0.17279198636E+02  0.95232335500E+02  0.90460399485E+02 0.  0.
         13    1    3    3    0    0  0.56548450931E+02  0.29100595213E+01  0.22382932324E+02  0.60886801300E+02  0.10566000000E+00 0.  1.
         22    1    1    0    0    0 -0.22941785257E+02 -0.78241698284E+01 -0.17279198636E+02  0.29767664500E+02  0.00000000000E+00 0.  1.
</event>
<event>
 5    1  0.1315753E-009  0.9118800E+02  0.7818608E-02  0.1130116E+00
         25   -1    0    0    0    0  0.00000000000E+00  0.00000000000E+00  0.99999998245E-14  0.12500000000E+03  0.12500000000E+03 0.  0.
        -13    1    3    3    0    0 -0.44163124411E+02 -0.10857463836E+02 -0.13532238609E+02  0.47448906462E+02  0.10566000000E+00 0.  1.
         23    2    1    0    0    0 -0.10378537032E+02  0.84289507705E+01  0.21422135273E+02  0.99747888768E+02  0.96498560570E+02 0.  0.
         13    1    3    3    0    0  0.33784587379E+02  0.19286414606E+02  0.34954373882E+02  0.52298982306E+02  0.10566000000E+00 0. -1.
         22    1    1    0    0    0  0.10378537032E+02 -0.84289507705E+01 -0.21422135273E+02  0.25252111232E+02  0.00000000000E+00 0. -1.
</event>
<event>
 5    1  0.1315753E-009  0.9118800E+02  0.7818608E-02  0.1130116E+00
         25   -1    0    0    0    0  0.00000000000E+00  0.00000000000E+00  0.99999998245E-14  0.12500000000E+03  0.12500000000E+03 0.  0.
        -13    1    3    3    0    0  0.54296873227E+02  0.20372542444E+02  0.11158527986E+02  0.59056877997E+02  0.10566000000E+00 0. -1.
         23    2    1    0    0    0  0.19212256100E+02 -0.51716652486E+01 -0.33650211961E+01  0.10482129158E+03  0.10286069655E+03 0.  0.
         13    1    3    3    0    0 -0.35084617127E+02 -0.25544207693E+02 -0.14523549182E+02  0.45764413582E+02  0.10566000000E+00 0.  1.
         22    1    1    0    0    0 -0.19212256100E+02  0.51716652486E+01  0.33650211961E+01  0.20178708421E+02  0.00000000000E+00 0. -1.
</event>
<event>
 5    1  0.1315753E-009  0.9118800E+02  0.7818608E-02  0.1130116E+00
         25   -1    0    0    0    0  0.00000000000E+00  0.00000000000E+00  0.99999998245E-14  0.12500000000E+03  0.12500000000E+03 0.  0.
        -13    1    3    3    0    0  0.16354218261E+02  0.29189257715E+02 -0.28581815956E+02  0.44004597354E+02  0.10566000000E+00 0.  1.
         23    2    1    0    0    0 -0.98205981997E+01 -0.15091872017E+02 -0.23065965447E+02  0.95738292736E+02  0.91156860324E+02 0.  0.
         13    1    3    3    0    0 -0.26174816460E+02 -0.44281129732E+02  0.55158505097E+01  0.51733695383E+02  0.10566000000E+00 0. -1.
         22    1    1    0    0    0  0.98205981997E+01  0.15091872017E+02  0.23065965447E+02  0.29261707264E+02  0.00000000000E+00 0. -1.
</event>
<event>
 5    1  0.1315753E-009  0.9118800E+02  0.7818608E-02  0.1130116E+00
         25   -1    0    0    0    0  0.00000000000E+00  0.00000000000E+00  0.99999998245E-14  0.12500000000E+03  0.12500000000E+03 0.  0.
        -13    1    3    3    0    0  0.14704422496E+02  0.50162281405E+02 -0.18833916706E+02  0.55562596224E+02  0.10566000000E+00 0.  1.
         23    2    1    0    0    0  0.81534921629E+01  0.33557086773E+02  0.96192388340E+01  0.89151886202E+02  0.81627027083E+02 0.  0.
         13    1    3    3    0    0 -0.65509303328E+01 -0.16605194632E+02  0.28453155540E+02  0.33589289978E+02  0.10566000000E+00 0. -1.
         22    1    1    0    0    0 -0.81534921629E+01 -0.33557086773E+02 -0.96192388340E+01  0.35848113798E+02  0.00000000000E+00 0.  1.
</event>
<event>
 5    1  0.1315753E-009  0.9118800E+02  0.7818608E-02  0.1130116E+00
         25   -1    0    0    0    0  0.00000000000E+00  0.00000000000E+00  0.99999998245E-14  0.12500000000E+03  0.12500000000E+03 0.  0.
        -13    1    3    3    0    0  0.71791607666E+01  0.26103596680E+01  0.35670199158E+02  0.36479152936E+02  0.10566000000E+00 0. -1.
         23    2    1    0    0    0 -0.21230666855E+02  0.95194697414E+01 -0.16632403599E+02  0.96399329226E+02  0.92058852407E+02 0.  0.
         13    1    3    3    0    0 -0.28409827621E+02  0.69091100734E+01 -0.52302602757E+02  0.59920176290E+02  0.10566000000E+00 0.  1.
         22    1    1    0    0    0  0.21230666855E+02 -0.95194697414E+01  0.16632403599E+02  0.28600670774E+02  0.00000000000E+00 0.  1.
</event>
<event>
 5    1  0.1315753E-009  0.9118800E+02  0.7818608E-02  0.1130116E+00
         25   -1    0    0    0    0  0.00000000000E+00  0.00000000000E+00  0.99999998245E-14  0.12500000000E+03  0.12500000000E+03 0.  0.
        -13    1    3    3    0    0  0.30946605771E+02 -0.34865341061E+02 -0.26806274934E+02  0.53776128123E+02  0.10566000000E+00 0. -1.
         23    2    1    0    0    0  0.11682905614E+02  0.29373097853E+01 -0.26149318406E+02  0.96209290987E+02  0.91800450690E+02 0.  0.
         13    1    3    3    0    0 -0.19263700157E+02  0.37802650846E+02  0.65695652852E+00  0.42433162864E+02  0.10566000000E+00 0.  1.
         22    1    1    0    0    0 -0.11682905614E+02 -0.29373097853E+01  0.26149318406E+02  0.28790709013E+02  0.00000000000E+00 0. -1.
</event>
<event>
 5    1  0.1315753E-009  0.9118800E+02  0.7818608E-02  0.1130116E+00
         25   -1    0    0    0    0  0.00000000000E+00  0.00000000000E+00  0.99999998245E-14  0.12500000000E+03  0.12500000000E+03 0.  0.
        -13    1    3    3    0    0 -0.30544153638E+02 -0.17132336761E+02 -0.82709025864E+00  0.35030808250E+02  0.10566000000E+00 0.  1.
         23    2    1    0    0    0  0.14633538141E+02  0.23681408049E+02 -0.71975878683E+01  0.96246655902E+02  0.91851314500E+02 0.  0.
         13    1    3    3    0    0  0.45177691779E+02  0.40813744810E+02 -0.63704976097E+01  0.61215847651E+02  0.10566000000E+00 0. -1.
         22    1    1    0    0    0 -0.14633538141E+02 -0.23681408049E+02  0.71975878683E+01  0.28753344098E+02  0.00000000000E+00 0. -1.
</event>
<event>
 5    1  0.1315753E-009  0.9118800E+02  0.7818608E-02  0.1130116E+00
         25   -1    0    0    0    0  0.00000000000E+00  0.00000000000E+00  0.99999998245E-14  0.12500000000E+03  0.12500000000E+03 0.  0.
        -13    1    3    3    0    0  0.32676570245E+02 -0.95687340156E+01  0.10461074244E+02  0.35619715777E+02  0.10566000000E+00 0.  1.
         23    2    1    0    0    0 -0.11354499289E+02  0.17636960652E+02 -0.20284074377E+02  0.95820714394E+02  0.91269812087E+02 0.  0.
         13    1    3    3    0    0 -0.44031069535E+02  0.27205694668E+02 -0.30745148621E+02  0.60200998617E+02  0.10566000000E+00 0. -1.
         22    1    1    0    0    0  0.11354499289E+02 -0.17636960652E+02  0.20284074377E+02  0.29179285606E+02  0.00000000000E+00 0. -1.
</event>
<event>
 5    1  0.1315753E-009  0.9118800E+02  0.7818608E-02  0.1130116E+00
         25   -1    0    0    0    0  0.00000000000E+00  0.00000000000E+00  0.99999998245E-14  0.12500000000E+03  0.12500000000E+03 0.  0.
        -13    1    3    3    0    0  0.20602201061E+02 -0.17372002987E+02 -0.44472057074E+02  0.52000117315E+02  0.10566000000E+00 0. -1.
         23    2    1    0    0    0  0.25610460829E+02 -0.13618632851E+02 -0.94144819890E+00  0.95978470245E+02  0.91485613958E+02 0.  0.
         13    1    3    3    0    0  0.50082597685E+01  0.37533701360E+01  0.43530608875E+02  0.43978352930E+02  0.10566000000E+00 0.  1.
         22    1    1    0    0    0 -0.25610460829E+02  0.13618632851E+02  0.94144819890E+00  0.29021529755E+02  0.00000000000E+00 0. -1.
</event>
<event>
 5    1  0.1315753E-009  0.9118800E+02  0.7818608E-02  0.1130116E+00
         25   -1    0    0    0    0  0.00000000000E+00  0.00000000000E+00  0.99999998245E-14  0.12500000000E+03  0.12500000000E+03 0.  0.
        -13    1    3    3    0    0 -0.45336005028E+01  0.22444001046E+02 -0.32501167586E+02  0.39757059435E+02  0.10566000000E+00 0.  1.
         23    2    1    0    0    0  0.22060392512E+02  0.12689839469E+02  0.15288520053E+02  0.95311083062E+02  0.90569149083E+02 0.  0.
         13    1    3    3    0    0  0.26593993015E+02 -0.97541615767E+01  0.47789687638E+02  0.55554023627E+02  0.10566000000E+00 0. -1.
         22    1    1    0    0    0 -0.22060392512E+02 -0.12689839469E+02 -0.15288520053E+02  0.29688916938E+02  0.00000000000E+00 0. -1.
</event>
<event>
 5    1  0.1315753E-009  0.9118800E+02  0.7818608E-02  0.1130116E+00
         25   -1    0    0    0    0  0.00000000000E+00  0.00000000000E+00  0.99999998245E-14  0.12500000000E+03  0.12500000000E+03 0.  0.
        -13    1    3    3    0    0  0.64168190209E+01 -0.97486166566E+01  0.54536979192E+01  0.12882743423E+02  0.10566000000E+00 0. -1.
         23    2    1    0    0    0 -0.26277121319E+01  0.48123346020E+02 -0.14349153465E+02  0.74714221609E+02  0.55258984811E+02 0.  0.
         13    1    3    3    0    0 -0.90445311529E+01  0.57871962676E+02 -0.19802851384E+02  0.61831478187E+02  0.10566000000E+00 0.  1.
         22    1    1    0    0    0  0.26277121319E+01 -0.48123346020E+02  0.14349153465E+02  0.50285778391E+02  0.00000000000E+00 0.  1.
</event>
<event>
 5    1  0.1315753E-009  0.9118800E+02  0.7818608E-02  0.1130116E+00
         25   -1    0    0    0    0  0.00000000000E+00  0.00000000000E+00  0.99999998245E-14  0.12500000000E+03  0.12500000000E+03 0.  0.
        -13    1    3    3    0    0 -0.75374630155E+01  0.45077271665E+02  0.25584099452E+02  0.52376818138E+02  0.10566000000E+00 0. -1.
         23    2    1    0    0    0  0.21661482452E+02  0.18644042397E+02  0.10582314817E+02  0.94523689105E+02  0.89475819505E+02 0.  0.
         13    1    3    3    0    0  0.29198945467E+02 -0.26433229269E+02 -0.15001784635E+02  0.42146870966E+02  0.10566000000E+00 0.  1.
         22    1    1    0    0    0 -0.21661482452E+02 -0.18644042397E+02 -0.10582314817E+02  0.30476310895E+02  0.00000000000E+00 0. -1.
</event>
<event>
 4    1  0.1315753E-009  0.9118800E+02  0.7818608E-02  0.1130116E+00
         25   -1    0    0    0    0  0.00000000000E+00  0.00000000000E+00  0.99999998245E-14  0.12500000000E+03  0.12500000000E+03 0.  0.
        -13    1    1    0    0    0  0.92132741301E+01 -0.13154858229E+02 -0.34401868347E+02  0.37966227427E+02  0.10566000000E+00 0. -1.
         13    1    1    0    0    0  0.25581936062E+01 -0.32442501812E+02  0.10315366706E+02  0.34139101228E+02  0.10566000000E+00 0.  1.
         22    1    1    0    0    0 -0.11771467736E+02  0.45597360041E+02  0.24086501642E+02  0.52894671345E+02  0.00000000000E+00 0. -1.
</event>
<event>
 5    1  0.1315753E-009  0.9118800E+02  0.7818608E-02  0.1130116E+00
         25   -1    0    0    0    0  0.00000000000E+00  0.00000000000E+00  0.99999998245E-14  0.12500000000E+03  0.12500000000E+03 0.  0.
        -13    1    3    3    0    0 -0.23194079318E+02  0.22476188765E+02  0.43732784363E+02  0.54366459964E+02  0.10566000000E+00 0. -1.
         23    2    1    0    0    0  0.88966308323E+01  0.92370997157E+01  0.31188011279E+02  0.91278106535E+02  0.84820555490E+02 0.  0.
         13    1    3    3    0    0  0.32090710150E+02 -0.13239089049E+02 -0.12544773084E+02  0.36911646571E+02  0.10566000000E+00 0.  1.
         22    1    1    0    0    0 -0.88966308323E+01 -0.92370997157E+01 -0.31188011279E+02  0.33721893465E+02  0.00000000000E+00 0. -1.
</event>
<event>
 5    1  0.1315753E-009  0.9118800E+02  0.7818608E-02  0.1130116E+00
         25   -1    0    0    0    0  0.00000000000E+00  0.00000000000E+00  0.99999998245E-14  0.12500000000E+03  0.12500000000E+03 0.  0.
        -13    1    3    3    0    0 -0.59808369211E+02  0.87932708581E+01  0.15369949917E+02  0.62374747811E+02  0.10566000000E+00 0. -1.
         23    2    1    0    0    0 -0.26492939406E+02  0.15794039530E+01  0.83472638128E+01  0.97178296810E+02  0.93110548288E+02 0.  0.
         13    1    3    3    0    0  0.33315429804E+02 -0.72138669051E+01 -0.70226861038E+01  0.34803548999E+02  0.10566000000E+00 0.  1.
         22    1    1    0    0    0  0.26492939406E+02 -0.15794039530E+01 -0.83472638128E+01  0.27821703190E+02  0.00000000000E+00 0. -1.
</event>
<event>
 5    1  0.1315753E-009  0.9118800E+02  0.7818608E-02  0.1130116E+00
         25   -1    0    0    0    0  0.00000000000E+00  0.00000000000E+00  0.99999998245E-14  0.12500000000E+03  0.12500000000E+03 0.  0.
        -13    1    3    3    0    0 -0.21579695010E+02 -0.66863856186E+01 -0.30915586323E+02  0.38290672899E+02  0.10566000000E+00 0.  1.
         23    2    1    0    0    0  0.23671472087E+02 -0.19317591137E+02 -0.15486925283E+00  0.94446245688E+02  0.89367563589E+02 0.  0.
         13    1    3    3    0    0  0.45251167097E+02 -0.12631205519E+02  0.30760717070E+02  0.56155572788E+02  0.10566000000E+00 0. -1.
         22    1    1    0    0    0 -0.23671472087E+02  0.19317591137E+02  0.15486925283E+00  0.30553754312E+02  0.00000000000E+00 0. -1.
</event>
<event>
 5    1  0.1315753E-009  0.9118800E+02  0.7818608E-02  0.1130116E+00
         25   -1    0    0    0    0  0.00000000000E+00  0.00000000000E+00  0.99999998245E-14  0.12500000000E+03  0.12500000000E+03 0.  0.
        -13    1    3    3    0    0 -0.30494508710E+02  0.49933772903E+02 -0.15070574178E+02  0.60418789361E+02  0.10566000000E+00 0. -1.
         23    2    1    0    0    0 -0.88761615238E+01  0.25330472626E+02  0.32776067834E+01  0.97959996430E+02  0.94154124219E+02 0.  0.
         13    1    3    3    0    0  0.21618347186E+02 -0.24603300277E+02  0.18348180962E+02  0.37541207069E+02  0.10566000000E+00 0.  1.
         22    1    1    0    0    0  0.88761615238E+01 -0.25330472626E+02 -0.32776067834E+01  0.27040003570E+02  0.00000000000E+00 0. -1.
</event>
<event>
 5    1  0.1315753E-009  0.9118800E+02  0.7818608E-02  0.1130116E+00
         25   -1    0    0    0    0  0.00000000000E+00  0.00000000000E+00  0.99999998245E-14  0.12500000000E+03  0.12500000000E+03 0.  0.
        -13    1    3    3    0    0 -0.42776251573E+02  0.17473007930E+02 -0.40129457810E+02  0.61200475920E+02  0.10566000000E+00 0. -1.
         23    2    1    0    0    0 -0.24343358275E+02  0.14143338093E+02 -0.13451338768E+02  0.93797890789E+02  0.88456049524E+02 0.  0.
         13    1    3    3    0    0  0.18432893298E+02 -0.33296698367E+01  0.26678119041E+02  0.32597414869E+02  0.10566000000E+00 0.  1.
         22    1    1    0    0    0  0.24343358275E+02 -0.14143338093E+02  0.13451338768E+02  0.31202109211E+02  0.00000000000E+00 0. -1.
</event>
<event>
 5    1  0.1315753E-009  0.9118800E+02  0.7818608E-02  0.1130116E+00
         25   -1    0    0    0    0  0.00000000000E+00  0.00000000000E+00  0.99999998245E-14  0.12500000000E+03  0.12500000000E+03 0.  0.
        -13    1    3    3    0    0 -0.29732839780E+02  0.28417549846E+02 -0.57320087498E+01  0.41526690080E+02  0.10566000000E+00 0.  1.
         23    2    1    0    0    0  0.22513705914E+02  0.17829873553E+02 -0.89121841382E+01  0.94930108563E+02  0.90041807739E+02 0.  0.
         13    1    3    3    0    0  0.52246545694E+02 -0.10587676293E+02 -0.31801753884E+01  0.53403418484E+02  0.10566000000E+00 0. -1.
         22    1    1    0    0    0 -0.22513705914E+02 -0.17829873553E+02  0.89121841382E+01  0.30069891437E+02  0.00000000000E+00 0. -1.
</event>
<event>
 5    1  0.1315753E-009  0.9118800E+02  0.7818608E-02  0.1130116E+00
         25   -1    0    0    0    0  0.00000000000E+00  0.00000000000E+00  0.99999998245E-14  0.12500000000E+03  0.12500000000E+03 0.  0.
        -13    1    3    3    0    0 -0.17781789121E+02  0.40042446450E+02  0.33277268967E+02  0.55017972845E+02  0.10566000000E+00 0.  1.
         23    2    1    0    0    0 -0.19589508220E+02  0.12250916517E+01  0.22077043776E+02  0.95459425467E+02  0.90773654586E+02 0.  0.
         13    1    3    3    0    0 -0.18077190990E+01 -0.38817354798E+02 -0.11200225191E+02  0.40441452623E+02  0.10566000000E+00 0. -1.
         22    1    1    0    0    0  0.19589508220E+02 -0.12250916517E+01 -0.22077043776E+02  0.29540574533E+02  0.00000000000E+00 0.  1.
</event>
<event>
 5    1  0.1315753E-009  0.9118800E+02  0.7818608E-02  0.1130116E+00
         25   -1    0    0    0    0  0.00000000000E+00  0.00000000000E+00  0.99999998245E-14  0.12500000000E+03  0.12500000000E+03 0.  0.
        -13    1    3    3    0    0  0.10081915142E+02 -0.34923157009E+02 -0.33770707777E+02  0.49615962918E+02  0.10566000000E+00 0. -1.
         23    2    1    0    0    0 -0.88792238698E+01  0.74977919901E+01 -0.25723047331E+02  0.96773546712E+02  0.92565580417E+02 0.  0.
         13    1    3    3    0    0 -0.18961139011E+02  0.42420948999E+02  0.80476604470E+01  0.47157583794E+02  0.10566000000E+00 0.  1.
         22    1    1    0    0    0  0.88792238698E+01 -0.74977919901E+01  0.25723047331E+02  0.28226453288E+02  0.00000000000E+00 0.  1.
</event>
<event>
 5    1  0.1315753E-009  0.9118800E+02  0.7818608E-02  0.1130116E+00
         25   -1    0    0    0    0  0.00000000000E+00  0.00000000000E+00  0.99999998245E-14  0.12500000000E+03  0.12500000000E+03 0.  0.
        -13    1    3    3    0    0 -0.25143958282E+02  0.19948895802E+02 -0.24890653769E+02  0.40616904005E+02  0.10566000000E+00 0. -1.
         23    2    1    0    0    0 -0.54745367280E+01 -0.27458004415E+02 -0.16138689338E+02  0.92683288342E+02  0.86866691461E+02 0.  0.
         13    1    3    3    0    0  0.19669421554E+02 -0.47406900217E+02  0.87519644310E+01  0.52066384337E+02  0.10566000000E+00 0.  1.
         22    1    1    0    0    0  0.54745367280E+01  0.27458004415E+02  0.16138689338E+02  0.32316711658E+02  0.00000000000E+00 0.  1.
</event>
<event>
 5    1  0.1315753E-009  0.9118800E+02  0.7818608E-02  0.1130116E+00
         25   -1    0    0    0    0  0.00000000000E+00  0.00000000000E+00  0.99999998245E-14  0.12500000000E+03  0.12500000000E+03 0.  0.
        -13    1    3    3    0    0 -0.35460772948E+02  0.96394239264E+00 -0.22564010591E+02  0.42042137684E+02  0.10566000000E+00 0.  1.
         23    2    1    0    0    0 -0.13217306892E+02 -0.15231571341E+01  0.26154374003E+02  0.95656031478E+02  0.91043988651E+02 0.  0.
         13    1    3    3    0    0  0.22243466056E+02 -0.24870995267E+01  0.48718384594E+02  0.53613893794E+02  0.10566000000E+00 0. -1.
         22    1    1    0    0    0  0.13217306892E+02  0.15231571341E+01 -0.26154374003E+02  0.29343968522E+02  0.00000000000E+00 0. -1.
</event>
<event>
 5    1  0.1315753E-009  0.9118800E+02  0.7818608E-02  0.1130116E+00
         25   -1    0    0    0    0  0.00000000000E+00  0.00000000000E+00  0.99999998245E-14  0.12500000000E+03  0.12500000000E+03 0.  0.
        -13    1    3    3    0    0  0.42907145721E+02 -0.88653737850E+01 -0.11185105907E+02  0.45218754566E+02  0.10566000000E+00 0.  1.
         23    2    1    0    0    0  0.99922097763E+01 -0.43356006941E+00  0.26925612168E+02  0.96276824320E+02  0.91892361380E+02 0.  0.
         13    1    3    3    0    0 -0.32914935945E+02  0.84318137155E+01  0.38110718075E+02  0.51058069754E+02  0.10566000000E+00 0. -1.
         22    1    1    0    0    0 -0.99922097763E+01  0.43356006941E+00 -0.26925612168E+02  0.28723175680E+02  0.00000000000E+00 0. -1.
</event>
<event>
 5    1  0.1315753E-009  0.9118800E+02  0.7818608E-02  0.1130116E+00
         25   -1    0    0    0    0  0.00000000000E+00  0.00000000000E+00  0.99999998245E-14  0.12500000000E+03  0.12500000000E+03 0.  0.
        -13    1    3    3    0    0  0.16026566082E+02 -0.15992803909E+02  0.47341894216E+02  0.52477487643E+02  0.10566000000E+00 0.  1.
         23    2    1    0    0    0 -0.17769280874E+02 -0.51721283539E+01  0.22853234137E+02  0.95593052436E+02  0.90957479676E+02 0.  0.
         13    1    3    3    0    0 -0.33795846956E+02  0.10820675555E+02 -0.24488660079E+02  0.43115564793E+02  0.10566000000E+00 0. -1.
         22    1    1    0    0    0  0.17769280874E+02  0.51721283539E+01 -0.22853234137E+02  0.29406947564E+02  0.00000000000E+00 0. -1.
</event>
<event>
 5    1  0.1315753E-009  0.9118800E+02  0.7818608E-02  0.1130116E+00
         25   -1    0    0    0    0  0.00000000000E+00  0.00000000000E+00  0.99999998245E-14  0.12500000000E+03  0.12500000000E+03 0.  0.
        -13    1    3    3    0    0  0.26100860016E+02 -0.31099566641E+02 -0.86405673600E+01  0.41510342171E+02  0.10566000000E+00 0. -1.
         23    2    1    0    0    0  0.44907396797E+01  0.17877612394E+02 -0.21614450482E+02  0.96592954441E+02  0.92321387609E+02 0.  0.
         13    1    3    3    0    0 -0.21610120336E+02  0.48977179034E+02 -0.12973883122E+02  0.55082612269E+02  0.10566000000E+00 0.  1.
         22    1    1    0    0    0 -0.44907396797E+01 -0.17877612394E+02  0.21614450482E+02  0.28407045559E+02  0.00000000000E+00 0. -1.
</event>
<event>
 5    1  0.1315753E-009  0.9118800E+02  0.7818608E-02  0.1130116E+00
         25   -1    0    0    0    0  0.00000000000E+00  0.00000000000E+00  0.99999998245E-14  0.12500000000E+03  0.12500000000E+03 0.  0.
        -13    1    3    3    0    0  0.34403865129E+02  0.45007840086E+02 -0.12822041490E+02  0.58083969536E+02  0.10566000000E+00 0. -1.
         23    2    1    0    0    0  0.20529055187E+02  0.11188897298E+02 -0.18640085370E+02  0.95098723903E+02  0.90275583497E+02 0.  0.
         13    1    3    3    0    0 -0.13874809942E+02 -0.33818942788E+02 -0.58180438799E+01  0.37014754367E+02  0.10566000000E+00 0.  1.
         22    1    1    0    0    0 -0.20529055187E+02 -0.11188897298E+02  0.18640085370E+02  0.29901276097E+02  0.00000000000E+00 0. -1.
</event>
<event>
 5    1  0.1315753E-009  0.9118800E+02  0.7818608E-02  0.1130116E+00
         25   -1    0    0    0    0  0.00000000000E+00  0.00000000000E+00  0.99999998245E-14  0.12500000000E+03  0.12500000000E+03 0.  0.
        -13    1    3    3    0    0  0.34966266836E+02  0.36035979884E+02  0.47297684452E+01  0.50434249635E+02  0.10566000000E+00 0.  1.
         23    2    1    0    0    0 -0.95672952153E+01  0.27367479764E+02  0.32364158214E+01  0.95828327546E+02  0.91280238204E+02 0.  0.
         13    1    3    3    0    0 -0.44533562052E+02 -0.86685001195E+01 -0.14933526238E+01  0.45394077911E+02  0.10566000000E+00 0. -1.
         22    1    1    0    0    0  0.95672952153E+01 -0.27367479764E+02 -0.32364158214E+01  0.29171672454E+02  0.00000000000E+00 0.  1.
</event>
<event>
 5    1  0.1315753E-009  0.9118800E+02  0.7818608E-02  0.1130116E+00
         25   -1    0    0    0    0  0.00000000000E+00  0.00000000000E+00  0.99999998245E-14  0.12500000000E+03  0.12500000000E+03 0.  0.
        -13    1    3    3    0    0  0.11740798991E+01 -0.24005296931E+02  0.10578383315E+02  0.26259209850E+02  0.10566000000E+00 0. -1.
         23    2    1    0    0    0  0.86221335435E+01  0.12847828331E+02 -0.35821224616E+02  0.85979902452E+02  0.76615766086E+02 0.  0.
         13    1    3    3    0    0  0.74480536445E+01  0.36853125262E+02 -0.46399607931E+02  0.59720692602E+02  0.10566000000E+00 0.  1.
         22    1    1    0    0    0 -0.86221335435E+01 -0.12847828331E+02  0.35821224616E+02  0.39020097548E+02  0.00000000000E+00 0.  1.
</event>
<event>
 5    1  0.1315753E-009  0.9118800E+02  0.7818608E-02  0.1130116E+00
         25   -1    0    0    0    0  0.00000000000E+00  0.00000000000E+00  0.99999998245E-14  0.12500000000E+03  0.12500000000E+03 0.  0.
        -13    1    3    3    0    0 -0.45483697818E+02 -0.23839733839E+02 -0.90003419722E+01  0.52135563643E+02  0.10566000000E+00 0. -1.
         23    2    1    0    0    0 -0.23807901859E+02  0.69146082843E+01  0.14288570948E+02  0.96385471202E+02  0.92040033683E+02 0.  0.
         13    1    3    3    0    0  0.21675795959E+02  0.30754342124E+02  0.23288912920E+02  0.44249907559E+02  0.10566000000E+00 0.  1.
         22    1    1    0    0    0  0.23807901859E+02 -0.69146082843E+01 -0.14288570948E+02  0.28614528798E+02  0.00000000000E+00 0.  1.
</event>
<event>
 5    1  0.1315753E-009  0.9118800E+02  0.7818608E-02  0.1130116E+00
         25   -1    0    0    0    0  0.00000000000E+00  0.00000000000E+00  0.99999998245E-14  0.12500000000E+03  0.12500000000E+03 0.  0.
        -13    1    3    3    0    0 -0.26796364595E+02  0.60523235159E+00 -0.33517412455E+02  0.42916658344E+02  0.10566000000E+00 0. -1.
         23    2    1    0    0    0  0.23742898356E+02  0.91405058439E+00 -0.15769756107E+02  0.96482533098E+02  0.92171759637E+02 0.  0.
         13    1    3    3    0    0  0.50539262951E+02  0.30881823280E+00  0.17747656348E+02  0.53565874754E+02  0.10566000000E+00 0.  1.
         22    1    1    0    0    0 -0.23742898356E+02 -0.91405058439E+00  0.15769756107E+02  0.28517466902E+02  0.00000000000E+00 0.  1.
</event>
<event>
 5    1  0.1315753E-009  0.9118800E+02  0.7818608E-02  0.1130116E+00
         25   -1    0    0    0    0  0.00000000000E+00  0.00000000000E+00  0.99999998245E-14  0.12500000000E+03  0.12500000000E+03 0.  0.
        -13    1    3    3    0    0 -0.24168231181E+02  0.43935048658E+02 -0.35684522784E+02  0.61545009785E+02  0.10566000000E+00 0.  1.
         23    2    1    0    0    0 -0.17672149645E+02  0.16265347175E+02 -0.17418195271E+02  0.95330825453E+02  0.90596392662E+02 0.  0.
         13    1    3    3    0    0  0.64960815359E+01 -0.27669701483E+02  0.18266327514E+02  0.33785815668E+02  0.10566000000E+00 0. -1.
         22    1    1    0    0    0  0.17672149645E+02 -0.16265347175E+02  0.17418195271E+02  0.29669174547E+02  0.00000000000E+00 0.  1.
</event>
<event>
 5    1  0.1315753E-009  0.9118800E+02  0.7818608E-02  0.1130116E+00
         25   -1    0    0    0    0  0.00000000000E+00  0.00000000000E+00  0.99999998245E-14  0.12500000000E+03  0.12500000000E+03 0.  0.
        -13    1    3    3    0    0  0.48610531543E+02  0.21326375910E+02  0.19462842150E+02  0.56538583949E+02  0.10566000000E+00 0.  1.
         23    2    1    0    0    0  0.35985042414E+02  0.91705560909E+01 -0.59316825984E+01  0.87394053196E+02  0.78889247043E+02 0.  0.
         13    1    3    3    0    0 -0.12625489129E+02 -0.12155819819E+02 -0.25394524748E+02  0.30855469247E+02  0.10566000000E+00 0. -1.
         22    1    1    0    0    0 -0.35985042414E+02 -0.91705560909E+01  0.59316825984E+01  0.37605946804E+02  0.00000000000E+00 0.  1.
</event>
<event>
 5    1  0.1315753E-009  0.9118800E+02  0.7818608E-02  0.1130116E+00
         25   -1    0    0    0    0  0.00000000000E+00  0.00000000000E+00  0.99999998245E-14  0.12500000000E+03  0.12500000000E+03 0.  0.
        -13    1    3    3    0    0 -0.16917034576E+02 -0.22749394228E+02  0.37838441552E+02  0.47280861030E+02  0.10566000000E+00 0.  1.
         23    2    1    0    0    0 -0.91230385788E+01 -0.24063005241E+02 -0.11186827135E+02  0.96939295171E+02  0.92789136179E+02 0.  0.
         13    1    3    3    0    0  0.77939959972E+01 -0.13136110127E+01 -0.49025268687E+02  0.49658434142E+02  0.10566000000E+00 0. -1.
         22    1    1    0    0    0  0.91230385788E+01  0.24063005241E+02  0.11186827135E+02  0.28060704829E+02  0.00000000000E+00 0.  1.
</event>
<event>
 5    1  0.1315753E-009  0.9118800E+02  0.7818608E-02  0.1130116E+00
         25   -1    0    0    0    0  0.00000000000E+00  0.00000000000E+00  0.99999998245E-14  0.12500000000E+03  0.12500000000E+03 0.  0.
        -13    1    3    3    0    0  0.22437371217E+02 -0.18436620637E+02 -0.55025941193E+02  0.62219048336E+02  0.10566000000E+00 0.  1.
         23    2    1    0    0    0  0.88899958744E+01 -0.12702225121E+02 -0.27421251631E+02  0.93499149366E+02  0.88032876481E+02 0.  0.
         13    1    3    3    0    0 -0.13547375343E+02  0.57343955155E+01  0.27604689562E+02  0.31280101030E+02  0.10566000000E+00 0. -1.
         22    1    1    0    0    0 -0.88899958744E+01  0.12702225121E+02  0.27421251631E+02  0.31500850634E+02  0.00000000000E+00 0.  1.
</event>
<event>
 5    1  0.1315753E-009  0.9118800E+02  0.7818608E-02  0.1130116E+00
         25   -1    0    0    0    0  0.00000000000E+00  0.00000000000E+00  0.99999998245E-14  0.12500000000E+03  0.12500000000E+03 0.  0.
        -13    1    3    3    0    0  0.63735943321E+00  0.37099691803E+02  0.55788194735E+01  0.37522363327E+02  0.10566000000E+00 0.  1.
         23    2    1    0    0    0  0.24221583289E+02 -0.16077969341E+02  0.33176023314E+01  0.95739229669E+02  0.91158145095E+02 0.  0.
         13    1    3    3    0    0  0.23584223856E+02 -0.53177661144E+02 -0.22612171421E+01  0.58216866341E+02  0.10566000000E+00 0. -1.
         22    1    1    0    0    0 -0.24221583289E+02  0.16077969341E+02 -0.33176023314E+01  0.29260770331E+02  0.00000000000E+00 0. -1.
</event>
<event>
 5    1  0.1315753E-009  0.9118800E+02  0.7818608E-02  0.1130116E+00
         25   -1    0    0    0    0  0.00000000000E+00  0.00000000000E+00  0.99999998245E-14  0.12500000000E+03  0.12500000000E+03 0.  0.
        -13    1    3    3    0    0  0.42724959260E+02  0.15849987559E+02 -0.41641173958E+02  0.61730404033E+02  0.10566000000E+00 0.  1.
         23    2    1    0    0    0  0.18398140371E+02  0.13911775248E+02 -0.17610267676E+02  0.95980169069E+02  0.91487935091E+02 0.  0.
         13    1    3    3    0    0 -0.24326818890E+02 -0.19382123109E+01  0.24030906282E+02  0.34249765036E+02  0.10566000000E+00 0. -1.
         22    1    1    0    0    0 -0.18398140371E+02 -0.13911775248E+02  0.17610267676E+02  0.29019830931E+02  0.00000000000E+00 0.  1.
</event>
<event>
 5    1  0.1315753E-009  0.9118800E+02  0.7818608E-02  0.1130116E+00
         25   -1    0    0    0    0  0.00000000000E+00  0.00000000000E+00  0.99999998245E-14  0.12500000000E+03  0.12500000000E+03 0.  0.
        -13    1    3    3    0    0 -0.53968168755E+02 -0.24641447663E+02 -0.13388315387E+02  0.60819588412E+02  0.10566000000E+00 0.  1.
         23    2    1    0    0    0 -0.33831857400E+02 -0.20538349809E+02  0.13755222438E+00  0.85421757130E+02  0.75699665010E+02 0.  0.
         13    1    3    3    0    0  0.20136311355E+02  0.41030978538E+01  0.13525867611E+02  0.24602168718E+02  0.10566000000E+00 0. -1.
         22    1    1    0    0    0  0.33831857400E+02  0.20538349809E+02 -0.13755222438E+00  0.39578242870E+02  0.00000000000E+00 0.  1.
</event>
<event>
 5    1  0.1315753E-009  0.9118800E+02  0.7818608E-02  0.1130116E+00
         25   -1    0    0    0    0  0.00000000000E+00  0.00000000000E+00  0.99999998245E-14  0.12500000000E+03  0.12500000000E+03 0.  0.
        -13    1    3    3    0    0 -0.28984603290E+02  0.44735563705E+02  0.26669686055E+02  0.59604204602E+02  0.10566000000E+00 0.  1.
         23    2    1    0    0    0 -0.19312961421E+02  0.97873188828E+01  0.17889732078E+02  0.96913978502E+02  0.92755024800E+02 0.  0.
         13    1    3    3    0    0  0.96716418699E+01 -0.34948244822E+02 -0.87799539772E+01  0.37309773900E+02  0.10566000000E+00 0. -1.
         22    1    1    0    0    0  0.19312961421E+02 -0.97873188828E+01 -0.17889732078E+02  0.28086021498E+02  0.00000000000E+00 0.  1.
</event>
<event>
 5    1  0.1315753E-009  0.9118800E+02  0.7818608E-02  0.1130116E+00
         25   -1    0    0    0    0  0.00000000000E+00  0.00000000000E+00  0.99999998245E-14  0.12500000000E+03  0.12500000000E+03 0.  0.
        -13    1    3    3    0    0  0.41286794620E+01  0.25401542942E+02  0.24543275769E+02  0.35562169892E+02  0.10566000000E+00 0. -1.
         23    2    1    0    0    0  0.14082799112E+02 -0.26124417461E+02 -0.35881869000E+01  0.95105426852E+02  0.90284864251E+02 0.  0.
         13    1    3    3    0    0  0.99541196502E+01 -0.51525960402E+02 -0.28131462669E+02  0.59543256959E+02  0.10566000000E+00 0.  1.
         22    1    1    0    0    0 -0.14082799112E+02  0.26124417461E+02  0.35881869000E+01  0.29894573148E+02  0.00000000000E+00 0.  1.
</event>
<event>
 5    1  0.1315753E-009  0.9118800E+02  0.7818608E-02  0.1130116E+00
         25   -1    0    0    0    0  0.00000000000E+00  0.00000000000E+00  0.99999998245E-14  0.12500000000E+03  0.12500000000E+03 0.  0.
        -13    1    3    3    0    0 -0.55218793580E+02 -0.25628236376E+02  0.29350750491E+01  0.60947087657E+02  0.10566000000E+00 0. -1.
         23    2    1    0    0    0 -0.20578903728E+02 -0.19325036216E+02  0.54607876349E+01  0.96246417527E+02  0.91850990097E+02 0.  0.
         13    1    3    3    0    0  0.34639889852E+02  0.63032001599E+01  0.25257125858E+01  0.35299329871E+02  0.10566000000E+00 0.  1.
         22    1    1    0    0    0  0.20578903728E+02  0.19325036216E+02 -0.54607876349E+01  0.28753582473E+02  0.00000000000E+00 0. -1.
</event>
<event>
 5    1  0.1315753E-009  0.9118800E+02  0.7818608E-02  0.1130116E+00
         25   -1    0    0    0    0  0.00000000000E+00  0.00000000000E+00  0.99999998245E-14  0.12500000000E+03  0.12500000000E+03 0.  0.
        -13    1    3    3    0    0 -0.48120320774E+01  0.28112486598E+02 -0.15381976628E+02  0.32404998448E+02  0.10566000000E+00 0.  1.
         23    2    1    0    0    0 -0.60612744762E+01 -0.23151901080E+02  0.19252392691E+02  0.94285114420E+02  0.89141901511E+02 0.  0.
         13    1    3    3    0    0 -0.12492423988E+01 -0.51264387678E+02  0.34634369318E+02  0.61880115972E+02  0.10566000000E+00 0. -1.
         22    1    1    0    0    0  0.60612744762E+01  0.23151901080E+02 -0.19252392691E+02  0.30714885580E+02  0.00000000000E+00 0. -1.
</event>
<event>
 5    1  0.1315753E-009  0.9118800E+02  0.7818608E-02  0.1130116E+00
         25   -1    0    0    0    0  0.00000000000E+00  0.00000000000E+00  0.99999998245E-14  0.12500000000E+03  0.12500000000E+03 0.  0.
        -13    1    3    3    0    0  0.16183387940E+02 -0.37668342180E+02  0.12397735918E+02  0.42831309433E+02  0.10566000000E+00 0.  1.
         23    2    1    0    0    0  0.10350356582E+02 -0.13063782276E+01 -0.26574597335E+02  0.96450994256E+02  0.92128977873E+02 0.  0.
         13    1    3    3    0    0 -0.58330313582E+01  0.36361963952E+02 -0.38972333253E+02  0.53619684823E+02  0.10566000000E+00 0. -1.
         22    1    1    0    0    0 -0.10350356582E+02  0.13063782276E+01  0.26574597335E+02  0.28549005744E+02  0.00000000000E+00 0. -1.
</event>
<event>
 5    1  0.1315753E-009  0.9118800E+02  0.7818608E-02  0.1130116E+00
         25   -1    0    0    0    0  0.00000000000E+00  0.00000000000E+00  0.99999998245E-14  0.12500000000E+03  0.12500000000E+03 0.  0.
        -13    1    3    3    0    0  0.35434760844E+02 -0.31892766257E+02  0.39176007388E+02  0.61705279632E+02  0.10566000000E+00 0. -1.
         23    2    1    0    0    0  0.16994952720E+02 -0.76777628469E+01  0.19873944352E+02  0.97746557568E+02  0.93870332864E+02 0.  0.
         13    1    3    3    0    0 -0.18439808123E+02  0.24215003410E+02 -0.19302063036E+02  0.36041277936E+02  0.10566000000E+00 0.  1.
         22    1    1    0    0    0 -0.16994952720E+02  0.76777628469E+01 -0.19873944352E+02  0.27253442432E+02  0.00000000000E+00 0. -1.
</event>
<event>
 5    1  0.1315753E-009  0.9118800E+02  0.7818608E-02  0.1130116E+00
         25   -1    0    0    0    0  0.00000000000E+00  0.00000000000E+00  0.99999998245E-14  0.12500000000E+03  0.12500000000E+03 0.  0.
        -13    1    3    3    0    0 -0.54909390624E+02  0.23759798064E+01 -0.26708367463E+02  0.61106746889E+02  0.10566000000E+00 0.  1.
         23    2    1    0    0    0 -0.23663353216E+02 -0.76981507128E+01 -0.14901290229E+02  0.95995444145E+02  0.91508803054E+02 0.  0.
         13    1    3    3    0    0  0.31246037408E+02 -0.10074130519E+02  0.11807077234E+02  0.34888697256E+02  0.10566000000E+00 0. -1.
         22    1    1    0    0    0  0.23663353216E+02  0.76981507128E+01  0.14901290229E+02  0.29004555855E+02  0.00000000000E+00 0.  1.
</event>
<event>
 5    1  0.1315753E-009  0.9118800E+02  0.7818608E-02  0.1130116E+00
         25   -1    0    0    0    0  0.00000000000E+00  0.00000000000E+00  0.99999998245E-14  0.12500000000E+03  0.12500000000E+03 0.  0.
        -13    1    3    3    0    0  0.41314581376E+02  0.64101890059E+00  0.18177972434E+02  0.45141504022E+02  0.10566000000E+00 0.  1.
         23    2    1    0    0    0  0.11251592425E+02 -0.23048801759E+02 -0.14559154624E+02  0.95507380958E+02  0.90839667764E+02 0.  0.
         13    1    3    3    0    0 -0.30062988951E+02 -0.23689820659E+02 -0.32737127057E+02  0.50365876936E+02  0.10566000000E+00 0. -1.
         22    1    1    0    0    0 -0.11251592425E+02  0.23048801759E+02  0.14559154624E+02  0.29492619042E+02  0.00000000000E+00 0. -1.
</event>
<event>
 5    1  0.1315753E-009  0.9118800E+02  0.7818608E-02  0.1130116E+00
         25   -1    0    0    0    0  0.00000000000E+00  0.00000000000E+00  0.99999998245E-14  0.12500000000E+03  0.12500000000E+03 0.  0.
        -13    1    3    3    0    0  0.20071413468E+02  0.20598666795E+02 -0.16445945376E+02  0.33130756039E+02  0.10566000000E+00 0.  1.
         23    2    1    0    0    0 -0.15079805115E+02 -0.19661654958E+02  0.15858137362E+02  0.95581269256E+02  0.90941284981E+02 0.  0.
         13    1    3    3    0    0 -0.35151218583E+02 -0.40260321753E+02  0.32304082739E+02  0.62450513217E+02  0.10566000000E+00 0. -1.
         22    1    1    0    0    0  0.15079805115E+02  0.19661654958E+02 -0.15858137362E+02  0.29418730744E+02  0.00000000000E+00 0. -1.
</event>
<event>
 5    1  0.1315753E-009  0.9118800E+02  0.7818608E-02  0.1130116E+00
         25   -1    0    0    0    0  0.00000000000E+00  0.00000000000E+00  0.99999998245E-14  0.12500000000E+03  0.12500000000E+03 0.  0.
        -13    1    3    3    0    0 -0.36612392938E+02 -0.32351988353E+02 -0.90825016160E+01  0.49695286161E+02  0.10566000000E+00 0.  1.
         23    2    1    0    0    0 -0.75240554219E+01 -0.16504225877E+02 -0.30765034567E+02  0.89286021872E+02  0.81832178683E+02 0.  0.
         13    1    3    3    0    0  0.29088337516E+02  0.15847762475E+02 -0.21682532951E+02  0.39590735711E+02  0.10566000000E+00 0. -1.
         22    1    1    0    0    0  0.75240554219E+01  0.16504225877E+02  0.30765034567E+02  0.35713978128E+02  0.00000000000E+00 0.  1.
</event>
<event>
 5    1  0.1315753E-009  0.9118800E+02  0.7818608E-02  0.1130116E+00
         25   -1    0    0    0    0  0.00000000000E+00  0.00000000000E+00  0.99999998245E-14  0.12500000000E+03  0.12500000000E+03 0.  0.
        -13    1    3    3    0    0 -0.16680485427E+02  0.35434527416E+02  0.23913707998E+02  0.45888134867E+02  0.10566000000E+00 0. -1.
         23    2    1    0    0    0  0.24510130070E+02  0.13133889924E+02  0.14402784018E+02  0.93684097840E+02  0.88295098732E+02 0.  0.
         13    1    3    3    0    0  0.41190615498E+02 -0.22300637492E+02 -0.95109239793E+01  0.47795962974E+02  0.10566000000E+00 0.  1.
         22    1    1    0    0    0 -0.24510130070E+02 -0.13133889924E+02 -0.14402784018E+02  0.31315902160E+02  0.00000000000E+00 0. -1.
</event>
<event>
 5    1  0.1315753E-009  0.9118800E+02  0.7818608E-02  0.1130116E+00
         25   -1    0    0    0    0  0.00000000000E+00  0.00000000000E+00  0.99999998245E-14  0.12500000000E+03  0.12500000000E+03 0.  0.
        -13    1    3    3    0    0  0.13852907728E+02 -0.33391438022E+02  0.75876116640E+01  0.36938789917E+02  0.10566000000E+00 0. -1.
         23    2    1    0    0    0  0.52637649776E+01  0.21703554119E+02 -0.16045352281E+02  0.97500821595E+02  0.93542532566E+02 0.  0.
         13    1    3    3    0    0 -0.85891427503E+01  0.55094992141E+02 -0.23632963945E+02  0.60562031679E+02  0.10566000000E+00 0.  1.
         22    1    1    0    0    0 -0.52637649776E+01 -0.21703554119E+02  0.16045352281E+02  0.27499178405E+02  0.00000000000E+00 0.  1.
</event>
<event>
 5    1  0.1315753E-009  0.9118800E+02  0.7818608E-02  0.1130116E+00
         25   -1    0    0    0    0  0.00000000000E+00  0.00000000000E+00  0.99999998245E-14  0.12500000000E+03  0.12500000000E+03 0.  0.
        -13    1    3    3    0    0 -0.30874984896E+02 -0.22004730268E+02  0.86258225208E+01  0.38883014604E+02  0.10566000000E+00 0.  1.
         23    2    1    0    0    0  0.21727493339E+02 -0.17739913091E+02 -0.10546882083E+02  0.95032931326E+02  0.90184437856E+02 0.  0.
         13    1    3    3    0    0  0.52602478235E+02  0.42648171773E+01 -0.19172704603E+02  0.56149916722E+02  0.10566000000E+00 0. -1.
         22    1    1    0    0    0 -0.21727493339E+02  0.17739913091E+02  0.10546882083E+02  0.29967068674E+02  0.00000000000E+00 0. -1.
</event>
<event>
 5    1  0.1315753E-009  0.9118800E+02  0.7818608E-02  0.1130116E+00
         25   -1    0    0    0    0  0.00000000000E+00  0.00000000000E+00  0.99999998245E-14  0.12500000000E+03  0.12500000000E+03 0.  0.
        -13    1    3    3    0    0  0.41410838416E+02 -0.14605001555E+02 -0.33923220407E+02  0.55488374057E+02  0.10566000000E+00 0.  1.
         23    2    1    0    0    0  0.31945132043E+01 -0.56541887356E+01 -0.29275006577E+02  0.95013323376E+02  0.90157256192E+02 0.  0.
         13    1    3    3    0    0 -0.38216325212E+02  0.89508128191E+01  0.46482138301E+01  0.39524949319E+02  0.10566000000E+00 0. -1.
         22    1    1    0    0    0 -0.31945132043E+01  0.56541887356E+01  0.29275006577E+02  0.29986676624E+02  0.00000000000E+00 0. -1.
</event>
<event>
 5    1  0.1315753E-009  0.9118800E+02  0.7818608E-02  0.1130116E+00
         25   -1    0    0    0    0  0.00000000000E+00  0.00000000000E+00  0.99999998245E-14  0.12500000000E+03  0.12500000000E+03 0.  0.
        -13    1    3    3    0    0 -0.24683459469E+02  0.26016872408E+02 -0.74475746097E+01  0.36628245288E+02  0.10566000000E+00 0.  1.
         23    2    1    0    0    0  0.28792724869E+02  0.81976335458E+01  0.57408230935E+01  0.94517558317E+02  0.89467254229E+02 0.  0.
         13    1    3    3    0    0  0.53476184338E+02 -0.17819238862E+02  0.13188397703E+02  0.57889313030E+02  0.10566000000E+00 0. -1.
         22    1    1    0    0    0 -0.28792724869E+02 -0.81976335458E+01 -0.57408230935E+01  0.30482441683E+02  0.00000000000E+00 0. -1.
</event>
<event>
 5    1  0.1315753E-009  0.9118800E+02  0.7818608E-02  0.1130116E+00
         25   -1    0    0    0    0  0.00000000000E+00  0.00000000000E+00  0.99999998245E-14  0.12500000000E+03  0.12500000000E+03 0.  0.
        -13    1    3    3    0    0  0.33479321094E+02  0.25353266029E+02 -0.34289412918E+01  0.42135754908E+02  0.10566000000E+00 0.  1.
         23    2    1    0    0    0 -0.12375309029E+02  0.14667533595E+02  0.22129106444E+02  0.95708667368E+02  0.91116227106E+02 0.  0.
         13    1    3    3    0    0 -0.45854630123E+02 -0.10685732434E+02  0.25558047736E+02  0.53572912460E+02  0.10566000000E+00 0. -1.
         22    1    1    0    0    0  0.12375309029E+02 -0.14667533595E+02 -0.22129106444E+02  0.29291332632E+02  0.00000000000E+00 0.  1.
</event>
<event>
 5    1  0.1315753E-009  0.9118800E+02  0.7818608E-02  0.1130116E+00
         25   -1    0    0    0    0  0.00000000000E+00  0.00000000000E+00  0.99999998245E-14  0.12500000000E+03  0.12500000000E+03 0.  0.
        -13    1    3    3    0    0  0.17309058326E+02 -0.48021152896E+02 -0.13302641670E+02  0.52750412937E+02  0.10566000000E+00 0.  1.
         23    2    1    0    0    0  0.34414361289E+01 -0.33522252278E+02  0.15544866349E+02  0.87888980744E+02  0.79669600137E+02 0.  0.
         13    1    3    3    0    0 -0.13867622197E+02  0.14498900618E+02  0.28847508019E+02  0.35138567807E+02  0.10566000000E+00 0. -1.
         22    1    1    0    0    0 -0.34414361289E+01  0.33522252278E+02 -0.15544866349E+02  0.37111019256E+02  0.00000000000E+00 0.  1.
</event>
<event>
 5    1  0.1315753E-009  0.9118800E+02  0.7818608E-02  0.1130116E+00
         25   -1    0    0    0    0  0.00000000000E+00  0.00000000000E+00  0.99999998245E-14  0.12500000000E+03  0.12500000000E+03 0.  0.
        -13    1    3    3    0    0 -0.11039325485E+02 -0.50402679544E+02  0.27782222646E+02  0.58601705364E+02  0.10566000000E+00 0.  1.
         23    2    1    0    0    0  0.32434152542E+01 -0.14061331594E+02  0.22871322499E+02  0.97956735006E+02  0.94149794219E+02 0.  0.
         13    1    3    3    0    0  0.14282740739E+02  0.36341347950E+02 -0.49109001471E+01  0.39355029642E+02  0.10566000000E+00 0. -1.
         22    1    1    0    0    0 -0.32434152542E+01  0.14061331594E+02 -0.22871322499E+02  0.27043264994E+02  0.00000000000E+00 0.  1.
</event>
<event>
 5    1  0.1315753E-009  0.9118800E+02  0.7818608E-02  0.1130116E+00
         25   -1    0    0    0    0  0.00000000000E+00  0.00000000000E+00  0.99999998245E-14  0.12500000000E+03  0.12500000000E+03 0.  0.
        -13    1    3    3    0    0 -0.49076779179E+01 -0.33436838373E+02 -0.51842557571E+01  0.34190570846E+02  0.10566000000E+00 0.  1.
         23    2    1    0    0    0 -0.14824303407E+02  0.24412733638E+02  0.98657674098E+01  0.94782870722E+02  0.89837173156E+02 0.  0.
         13    1    3    3    0    0 -0.99166254894E+01  0.57849572011E+02  0.15050023167E+02  0.60592299877E+02  0.10566000000E+00 0. -1.
         22    1    1    0    0    0  0.14824303407E+02 -0.24412733638E+02 -0.98657674098E+01  0.30217129278E+02  0.00000000000E+00 0. -1.
</event>
<event>
 5    1  0.1315753E-009  0.9118800E+02  0.7818608E-02  0.1130116E+00
         25   -1    0    0    0    0  0.00000000000E+00  0.00000000000E+00  0.99999998245E-14  0.12500000000E+03  0.12500000000E+03 0.  0.
        -13    1    3    3    0    0 -0.13111933650E+02  0.37715036841E+01  0.43067274834E+02  0.45176856572E+02  0.10566000000E+00 0. -1.
         23    2    1    0    0    0  0.22223890226E+02 -0.11694907199E+02  0.49540943800E+01  0.99402828236E+02  0.96050544294E+02 0.  0.
         13    1    3    3    0    0  0.35335823876E+02 -0.15466410883E+02 -0.38113180454E+02  0.54225971664E+02  0.10566000000E+00 0.  1.
         22    1    1    0    0    0 -0.22223890226E+02  0.11694907199E+02 -0.49540943800E+01  0.25597171764E+02  0.00000000000E+00 0.  1.
</event>
<event>
 5    1  0.1315753E-009  0.9118800E+02  0.7818608E-02  0.1130116E+00
         25   -1    0    0    0    0  0.00000000000E+00  0.00000000000E+00  0.99999998245E-14  0.12500000000E+03  0.12500000000E+03 0.  0.
        -13    1    3    3    0    0 -0.17164998106E+02 -0.42688922827E+02 -0.11622698963E+01  0.46025463902E+02  0.10566000000E+00 0.  1.
         23    2    1    0    0    0 -0.14137902219E+02  0.40831704691E+01 -0.22969939128E+02  0.97720508366E+02  0.93835638707E+02 0.  0.
         13    1    3    3    0    0  0.30270958870E+01  0.46772093296E+02 -0.21807669232E+02  0.51695044464E+02  0.10566000000E+00 0. -1.
         22    1    1    0    0    0  0.14137902219E+02 -0.40831704691E+01  0.22969939128E+02  0.27279491634E+02  0.00000000000E+00 0.  1.
</event>
<event>
 5    1  0.1315753E-009  0.9118800E+02  0.7818608E-02  0.1130116E+00
         25   -1    0    0    0    0  0.00000000000E+00  0.00000000000E+00  0.99999998245E-14  0.12500000000E+03  0.12500000000E+03 0.  0.
        -13    1    3    3    0    0  0.22559070336E+02  0.21545191779E+02  0.11683081801E+02  0.33310846697E+02  0.10566000000E+00 0.  1.
         23    2    1    0    0    0 -0.10153433232E+02 -0.28939611588E+02  0.17607616999E+01  0.94280403534E+02  0.89135295386E+02 0.  0.
         13    1    3    3    0    0 -0.32712503568E+02 -0.50484803367E+02 -0.99223201011E+01  0.60969556837E+02  0.10566000000E+00 0. -1.
         22    1    1    0    0    0  0.10153433232E+02  0.28939611588E+02 -0.17607616999E+01  0.30719596466E+02  0.00000000000E+00 0. -1.
</event>
<event>
 5    1  0.1315753E-009  0.9118800E+02  0.7818608E-02  0.1130116E+00
         25   -1    0    0    0    0  0.00000000000E+00  0.00000000000E+00  0.99999998245E-14  0.12500000000E+03  0.12500000000E+03 0.  0.
        -13    1    3    3    0    0 -0.32287490708E+02 -0.12564653056E+02  0.41825427016E+02  0.54311417508E+02  0.10566000000E+00 0.  1.
         23    2    1    0    0    0 -0.29607772026E+02 -0.42159430748E+00  0.28153323822E+01  0.95255689577E+02  0.90492664865E+02 0.  0.
         13    1    3    3    0    0  0.26797186817E+01  0.12143058748E+02 -0.39010094633E+02  0.40944272070E+02  0.10566000000E+00 0. -1.
         22    1    1    0    0    0  0.29607772026E+02  0.42159430748E+00 -0.28153323822E+01  0.29744310423E+02  0.00000000000E+00 0. -1.
</event>
<event>
 5    1  0.1315753E-009  0.9118800E+02  0.7818608E-02  0.1130116E+00
         25   -1    0    0    0    0  0.00000000000E+00  0.00000000000E+00  0.99999998245E-14  0.12500000000E+03  0.12500000000E+03 0.  0.
        -13    1    3    3    0    0 -0.70970113180E+01 -0.19377873719E+02 -0.26172166786E+02  0.33329612026E+02  0.10566000000E+00 0.  1.
         23    2    1    0    0    0  0.11554877239E+02  0.23463621360E+02  0.14339881019E+02  0.95172346673E+02  0.90377467703E+02 0.  0.
         13    1    3    3    0    0  0.18651888557E+02  0.42841495079E+02  0.40512047804E+02  0.61842734647E+02  0.10566000000E+00 0. -1.
         22    1    1    0    0    0 -0.11554877239E+02 -0.23463621360E+02 -0.14339881019E+02  0.29827653327E+02  0.00000000000E+00 0. -1.
</event>
<event>
 5    1  0.1315753E-009  0.9118800E+02  0.7818608E-02  0.1130116E+00
         25   -1    0    0    0    0  0.00000000000E+00  0.00000000000E+00  0.99999998245E-14  0.12500000000E+03  0.12500000000E+03 0.  0.
        -13    1    3    3    0    0  0.47013830533E+01 -0.46554686966E+01 -0.38527092560E+02  0.39091231965E+02  0.10566000000E+00 0.  1.
         23    2    1    0    0    0 -0.29515584447E+02  0.93636517476E+01  0.20216528771E+01  0.93968809567E+02  0.88697251321E+02 0.  0.
         13    1    3    3    0    0 -0.34216967501E+02  0.14019120444E+02  0.40548745437E+02  0.54877577602E+02  0.10566000000E+00 0. -1.
         22    1    1    0    0    0  0.29515584447E+02 -0.93636517476E+01 -0.20216528771E+01  0.31031190433E+02  0.00000000000E+00 0. -1.
</event>
<event>
 5    1  0.1315753E-009  0.9118800E+02  0.7818608E-02  0.1130116E+00
         25   -1    0    0    0    0  0.00000000000E+00  0.00000000000E+00  0.99999998245E-14  0.12500000000E+03  0.12500000000E+03 0.  0.
        -13    1    3    3    0    0  0.39200187482E+02  0.55511561779E+01 -0.34430654853E+02  0.52468573367E+02  0.10566000000E+00 0.  1.
         23    2    1    0    0    0  0.14312837132E+02  0.25454988097E+02 -0.59745828601E+01  0.95192125769E+02  0.90404819795E+02 0.  0.
         13    1    3    3    0    0 -0.24887350350E+02  0.19903831920E+02  0.28456071993E+02  0.42723552402E+02  0.10566000000E+00 0. -1.
         22    1    1    0    0    0 -0.14312837132E+02 -0.25454988097E+02  0.59745828601E+01  0.29807874231E+02  0.00000000000E+00 0. -1.
</event>
<event>
 5    1  0.1315753E-009  0.9118800E+02  0.7818608E-02  0.1130116E+00
         25   -1    0    0    0    0  0.00000000000E+00  0.00000000000E+00  0.99999998245E-14  0.12500000000E+03  0.12500000000E+03 0.  0.
        -13    1    3    3    0    0 -0.25160902038E+02 -0.43064633124E+02 -0.22269570534E+02  0.54622143434E+02  0.10566000000E+00 0.  1.
         23    2    1    0    0    0  0.11466084569E+01 -0.23603943086E+02 -0.28545513925E+02  0.87941840232E+02  0.79752492487E+02 0.  0.
         13    1    3    3    0    0  0.26307510495E+02  0.19460690038E+02 -0.62759433911E+01  0.33319696798E+02  0.10566000000E+00 0. -1.
         22    1    1    0    0    0 -0.11466084569E+01  0.23603943086E+02  0.28545513925E+02  0.37058159768E+02  0.00000000000E+00 0.  1.
</event>
<event>
 5    1  0.1315753E-009  0.9118800E+02  0.7818608E-02  0.1130116E+00
         25   -1    0    0    0    0  0.00000000000E+00  0.00000000000E+00  0.99999998245E-14  0.12500000000E+03  0.12500000000E+03 0.  0.
        -13    1    3    3    0    0  0.80005588047E+01 -0.54455076442E+02 -0.25025702875E+02  0.60462064635E+02  0.10566000000E+00 0. -1.
         23    2    1    0    0    0 -0.62529952048E+01 -0.19990590520E+02 -0.15464688254E+02  0.98963866624E+02  0.95477571481E+02 0.  0.
         13    1    3    3    0    0 -0.14253554010E+02  0.34464485922E+02  0.95610146210E+01  0.38501801989E+02  0.10566000000E+00 0.  1.
         22    1    1    0    0    0  0.62529952048E+01  0.19990590520E+02  0.15464688254E+02  0.26036133376E+02  0.00000000000E+00 0. -1.
</event>
<event>
 5    1  0.1315753E-009  0.9118800E+02  0.7818608E-02  0.1130116E+00
         25   -1    0    0    0    0  0.00000000000E+00  0.00000000000E+00  0.99999998245E-14  0.12500000000E+03  0.12500000000E+03 0.  0.
        -13    1    3    3    0    0  0.53172241213E+02 -0.46328453723E+01 -0.17747197915E+02  0.56246997162E+02  0.10566000000E+00 0. -1.
         23    2    1    0    0    0  0.14186988887E+02  0.49175373180E+00 -0.25018838310E+02  0.96234486867E+02  0.91834752228E+02 0.  0.
         13    1    3    3    0    0 -0.38985252326E+02  0.51245991041E+01 -0.72716403948E+01  0.39987489705E+02  0.10566000000E+00 0.  1.
         22    1    1    0    0    0 -0.14186988887E+02 -0.49175373180E+00  0.25018838310E+02  0.28765513133E+02  0.00000000000E+00 0. -1.
</event>
<event>
 5    1  0.1315753E-009  0.9118800E+02  0.7818608E-02  0.1130116E+00
         25   -1    0    0    0    0  0.00000000000E+00  0.00000000000E+00  0.99999998245E-14  0.12500000000E+03  0.12500000000E+03 0.  0.
        -13    1    3    3    0    0 -0.42475818059E+02 -0.37611874473E+01 -0.29527368278E+02  0.51867314296E+02  0.10566000000E+00 0.  1.
         23    2    1    0    0    0 -0.25472401878E+02  0.13957958179E+01  0.11829822132E+02  0.96879968082E+02  0.92709179807E+02 0.  0.
         13    1    3    3    0    0  0.17003416181E+02  0.51569832653E+01  0.41357190410E+02  0.45012653786E+02  0.10566000000E+00 0. -1.
         22    1    1    0    0    0  0.25472401878E+02 -0.13957958179E+01 -0.11829822132E+02  0.28120031918E+02  0.00000000000E+00 0. -1.
</event>
<event>
 5    1  0.1315753E-009  0.9118800E+02  0.7818608E-02  0.1130116E+00
         25   -1    0    0    0    0  0.00000000000E+00  0.00000000000E+00  0.99999998245E-14  0.12500000000E+03  0.12500000000E+03 0.  0.
        -13    1    3    3    0    0 -0.38156700208E+02  0.26585790508E+02 -0.11494123016E+02  0.47904739386E+02  0.10566000000E+00 0.  1.
         23    2    1    0    0    0  0.78060318139E+01  0.28295428345E+02  0.12132773943E+01  0.95622501129E+02  0.90997941088E+02 0.  0.
         13    1    3    3    0    0  0.45962732022E+02  0.17096378364E+01  0.12707400411E+02  0.47717761742E+02  0.10566000000E+00 0. -1.
         22    1    1    0    0    0 -0.78060318139E+01 -0.28295428345E+02 -0.12132773943E+01  0.29377498871E+02  0.00000000000E+00 0. -1.
</event>
<event>
 5    1  0.1315753E-009  0.9118800E+02  0.7818608E-02  0.1130116E+00
         25   -1    0    0    0    0  0.00000000000E+00  0.00000000000E+00  0.99999998245E-14  0.12500000000E+03  0.12500000000E+03 0.  0.
        -13    1    3    3    0    0 -0.17190385662E+02 -0.33081248239E+02 -0.17236307722E+00  0.37281620368E+02  0.10566000000E+00 0.  1.
         23    2    1    0    0    0 -0.44711071232E+01  0.20865800512E+02  0.19497349257E+02  0.96094653471E+02  0.91644221683E+02 0.  0.
         13    1    3    3    0    0  0.12719278538E+02  0.53947048751E+02  0.19669712334E+02  0.58813033103E+02  0.10566000000E+00 0. -1.
         22    1    1    0    0    0  0.44711071232E+01 -0.20865800512E+02 -0.19497349257E+02  0.28905346529E+02  0.00000000000E+00 0. -1.
</event>
<event>
 5    1  0.1315753E-009  0.9118800E+02  0.7818608E-02  0.1130116E+00
         25   -1    0    0    0    0  0.00000000000E+00  0.00000000000E+00  0.99999998245E-14  0.12500000000E+03  0.12500000000E+03 0.  0.
        -13    1    3    3    0    0 -0.41957786933E+02 -0.16293188327E+01  0.20719477645E+02  0.46823268597E+02  0.10566000000E+00 0. -1.
         23    2    1    0    0    0 -0.17519513858E+02  0.19035447131E+02 -0.15249687458E+02  0.94969439218E+02  0.90096391740E+02 0.  0.
         13    1    3    3    0    0  0.24438273075E+02  0.20664765963E+02 -0.35969165104E+02  0.48146170621E+02  0.10566000000E+00 0.  1.
         22    1    1    0    0    0  0.17519513858E+02 -0.19035447131E+02  0.15249687458E+02  0.30030560782E+02  0.00000000000E+00 0.  1.
</event>
<event>
 5    1  0.1315753E-009  0.9118800E+02  0.7818608E-02  0.1130116E+00
         25   -1    0    0    0    0  0.00000000000E+00  0.00000000000E+00  0.99999998245E-14  0.12500000000E+03  0.12500000000E+03 0.  0.
        -13    1    3    3    0    0  0.17892874423E+02 -0.56267579484E+02 -0.86350175398E+01  0.59672189067E+02  0.10566000000E+00 0.  1.
         23    2    1    0    0    0  0.16225299199E+02 -0.20243235754E+02 -0.12970838303E+02  0.95994973295E+02  0.91508159876E+02 0.  0.
         13    1    3    3    0    0 -0.16675752240E+01  0.36024343731E+02 -0.43358207629E+01  0.36322784228E+02  0.10566000000E+00 0. -1.
         22    1    1    0    0    0 -0.16225299199E+02  0.20243235754E+02  0.12970838303E+02  0.29005026705E+02  0.00000000000E+00 0.  1.
</event>
<event>
 5    1  0.1315753E-009  0.9118800E+02  0.7818608E-02  0.1130116E+00
         25   -1    0    0    0    0  0.00000000000E+00  0.00000000000E+00  0.99999998245E-14  0.12500000000E+03  0.12500000000E+03 0.  0.
        -13    1    3    3    0    0  0.11375297036E+02 -0.51464105409E+02 -0.11907092986E+01  0.52719830054E+02  0.10566000000E+00 0.  1.
         23    2    1    0    0    0  0.13956851496E+02 -0.14956333199E+02  0.21131161379E+02  0.95588920664E+02  0.90951801335E+02 0.  0.
         13    1    3    3    0    0  0.25815544605E+01  0.36507772210E+02  0.22321870678E+02  0.42869090611E+02  0.10566000000E+00 0. -1.
         22    1    1    0    0    0 -0.13956851496E+02  0.14956333199E+02 -0.21131161379E+02  0.29411079336E+02  0.00000000000E+00 0.  1.
</event>
<event>
 5    1  0.1315753E-009  0.9118800E+02  0.7818608E-02  0.1130116E+00
         25   -1    0    0    0    0  0.00000000000E+00  0.00000000000E+00  0.99999998245E-14  0.12500000000E+03  0.12500000000E+03 0.  0.
        -13    1    3    3    0    0  0.29083550181E+02  0.48629141212E+02 -0.65644520276E+00  0.56666465837E+02  0.10566000000E+00 0. -1.
         23    2    1    0    0    0  0.15707755745E+01  0.24756660572E+02 -0.15220668733E+02  0.95896248777E+02  0.91373202824E+02 0.  0.
         13    1    3    3    0    0 -0.27512774607E+02 -0.23872480640E+02 -0.14564223530E+02  0.39229782940E+02  0.10566000000E+00 0.  1.
         22    1    1    0    0    0 -0.15707755745E+01 -0.24756660572E+02  0.15220668733E+02  0.29103751223E+02  0.00000000000E+00 0. -1.
</event>
<event>
 5    1  0.1315753E-009  0.9118800E+02  0.7818608E-02  0.1130116E+00
         25   -1    0    0    0    0  0.00000000000E+00  0.00000000000E+00  0.99999998245E-14  0.12500000000E+03  0.12500000000E+03 0.  0.
        -13    1    3    3    0    0 -0.33678532854E+01 -0.50002591603E+02  0.33515295108E+01  0.50227935622E+02  0.10566000000E+00 0. -1.
         23    2    1    0    0    0  0.21983129914E+02 -0.14266810387E+02 -0.11346570753E+02  0.96442259415E+02  0.92117125736E+02 0.  0.
         13    1    3    3    0    0  0.25350983200E+02  0.35735781215E+02 -0.14698100264E+02  0.46214323793E+02  0.10566000000E+00 0.  1.
         22    1    1    0    0    0 -0.21983129914E+02  0.14266810387E+02  0.11346570753E+02  0.28557740585E+02  0.00000000000E+00 0. -1.
</event>
<event>
 5    1  0.1315753E-009  0.9118800E+02  0.7818608E-02  0.1130116E+00
         25   -1    0    0    0    0  0.00000000000E+00  0.00000000000E+00  0.99999998245E-14  0.12500000000E+03  0.12500000000E+03 0.  0.
        -13    1    3    3    0    0  0.44412926197E+02  0.30381306214E+01  0.38555199925E+02  0.58891874281E+02  0.10566000000E+00 0. -1.
         23    2    1    0    0    0  0.65020308802E+01  0.36432767737E+01  0.24602225802E+02  0.99293592518E+02  0.95908279775E+02 0.  0.
         13    1    3    3    0    0 -0.37910895316E+02  0.60514615231E+00 -0.13952974123E+02  0.40401718237E+02  0.10566000000E+00 0.  1.
         22    1    1    0    0    0 -0.65020308802E+01 -0.36432767737E+01 -0.24602225802E+02  0.25706407482E+02  0.00000000000E+00 0. -1.
</event>
<event>
 5    1  0.1315753E-009  0.9118800E+02  0.7818608E-02  0.1130116E+00
         25   -1    0    0    0    0  0.00000000000E+00  0.00000000000E+00  0.99999998245E-14  0.12500000000E+03  0.12500000000E+03 0.  0.
        -13    1    3    3    0    0  0.29307038503E+02 -0.93041920316E+01  0.25937963720E+01  0.30857891030E+02  0.10566000000E+00 0. -1.
         23    2    1    0    0    0 -0.24359515401E+02 -0.27360307136E+02  0.71946557137E+01  0.87667233320E+02  0.79320919876E+02 0.  0.
         13    1    3    3    0    0 -0.53666553904E+02 -0.18056115105E+02  0.46008593417E+01  0.56809342289E+02  0.10566000000E+00 0.  1.
         22    1    1    0    0    0  0.24359515401E+02  0.27360307136E+02 -0.71946557137E+01  0.37332766680E+02  0.00000000000E+00 0.  1.
</event>
<event>
 5    1  0.1315753E-009  0.9118800E+02  0.7818608E-02  0.1130116E+00
         25   -1    0    0    0    0  0.00000000000E+00  0.00000000000E+00  0.99999998245E-14  0.12500000000E+03  0.12500000000E+03 0.  0.
        -13    1    3    3    0    0  0.24546580390E+02  0.13887133454E+01 -0.40871659220E+02  0.47696612302E+02  0.10566000000E+00 0.  1.
         23    2    1    0    0    0  0.21063205349E+02  0.18854503076E+02  0.44412769035E+01  0.96383993180E+02  0.92038026353E+02 0.  0.
         13    1    3    3    0    0 -0.34833750415E+01  0.17465789730E+02  0.45312936124E+02  0.48687380878E+02  0.10566000000E+00 0. -1.
         22    1    1    0    0    0 -0.21063205349E+02 -0.18854503076E+02 -0.44412769035E+01  0.28616006820E+02  0.00000000000E+00 0. -1.
</event>
<event>
 5    1  0.1315753E-009  0.9118800E+02  0.7818608E-02  0.1130116E+00
         25   -1    0    0    0    0  0.00000000000E+00  0.00000000000E+00  0.99999998245E-14  0.12500000000E+03  0.12500000000E+03 0.  0.
        -13    1    3    3    0    0 -0.22183278140E+02  0.50934290590E+02  0.22354837884E+02  0.59884469838E+02  0.10566000000E+00 0. -1.
         23    2    1    0    0    0 -0.62326289458E+01  0.16610245149E+02 -0.49808927892E+01  0.10657297635E+03  0.10496782406E+03 0.  0.
         13    1    3    3    0    0  0.15950649194E+02 -0.34324045441E+02 -0.27335730674E+02  0.46688506515E+02  0.10566000000E+00 0.  1.
         22    1    1    0    0    0  0.62326289458E+01 -0.16610245149E+02  0.49808927892E+01  0.18427023647E+02  0.00000000000E+00 0. -1.
</event>
<event>
 5    1  0.1315753E-009  0.9118800E+02  0.7818608E-02  0.1130116E+00
         25   -1    0    0    0    0  0.00000000000E+00  0.00000000000E+00  0.99999998245E-14  0.12500000000E+03  0.12500000000E+03 0.  0.
        -13    1    3    3    0    0  0.33462440741E+02  0.66643569273E+01 -0.34165545143E+02  0.48285031144E+02  0.10566000000E+00 0. -1.
         23    2    1    0    0    0 -0.90838913893E+01 -0.10751985774E+02 -0.26640040384E+02  0.94870047585E+02  0.89958389804E+02 0.  0.
         13    1    3    3    0    0 -0.42546332131E+02 -0.17416342702E+02  0.75255047589E+01  0.46585016441E+02  0.10566000000E+00 0.  1.
         22    1    1    0    0    0  0.90838913893E+01  0.10751985774E+02  0.26640040384E+02  0.30129952415E+02  0.00000000000E+00 0.  1.
</event>
<event>
 5    1  0.1315753E-009  0.9118800E+02  0.7818608E-02  0.1130116E+00
         25   -1    0    0    0    0  0.00000000000E+00  0.00000000000E+00  0.99999998245E-14  0.12500000000E+03  0.12500000000E+03 0.  0.
        -13    1    3    3    0    0  0.69523946909E+01 -0.11184956678E+02  0.36713013731E+02  0.39003789419E+02  0.10566000000E+00 0.  1.
         23    2    1    0    0    0  0.21558517721E+02 -0.11168045640E+02 -0.17448999369E+02  0.95100794179E+02  0.90278450058E+02 0.  0.
         13    1    3    3    0    0  0.14606123030E+02  0.16911037242E-01 -0.54162013100E+02  0.56097004760E+02  0.10566000000E+00 0. -1.
         22    1    1    0    0    0 -0.21558517721E+02  0.11168045640E+02  0.17448999369E+02  0.29899205821E+02  0.00000000000E+00 0. -1.
</event>
<event>
 5    1  0.1315753E-009  0.9118800E+02  0.7818608E-02  0.1130116E+00
         25   -1    0    0    0    0  0.00000000000E+00  0.00000000000E+00  0.99999998245E-14  0.12500000000E+03  0.12500000000E+03 0.  0.
        -13    1    3    3    0    0  0.14002735119E+02  0.39169042065E+02 -0.27621228018E+01  0.41688498816E+02  0.10566000000E+00 0.  1.
         23    2    1    0    0    0  0.44793468850E+01 -0.19880683556E+02 -0.10627566865E+02  0.10201628175E+03  0.99393513054E+02 0.  0.
         13    1    3    3    0    0 -0.95233882345E+01 -0.59049725621E+02 -0.78654440629E+01  0.60327782934E+02  0.10566000000E+00 0. -1.
         22    1    1    0    0    0 -0.44793468850E+01  0.19880683556E+02  0.10627566865E+02  0.22983718251E+02  0.00000000000E+00 0. -1.
</event>
<event>
 5    1  0.1315753E-009  0.9118800E+02  0.7818608E-02  0.1130116E+00
         25   -1    0    0    0    0  0.00000000000E+00  0.00000000000E+00  0.99999998245E-14  0.12500000000E+03  0.12500000000E+03 0.  0.
        -13    1    3    3    0    0  0.37085603511E+01  0.58064271652E+01  0.36151915314E+02  0.36802719481E+02  0.10566000000E+00 0. -1.
         23    2    1    0    0    0 -0.23822272713E+02  0.62440221177E+01 -0.15898295804E+02  0.95687130831E+02  0.91086676895E+02 0.  0.
         13    1    3    3    0    0 -0.27530833064E+02  0.43759495250E+00 -0.52050211118E+02  0.58884411350E+02  0.10566000000E+00 0.  1.
         22    1    1    0    0    0  0.23822272713E+02 -0.62440221177E+01  0.15898295804E+02  0.29312869169E+02  0.00000000000E+00 0.  1.
</event>
<event>
 5    1  0.1315753E-009  0.9118800E+02  0.7818608E-02  0.1130116E+00
         25   -1    0    0    0    0  0.00000000000E+00  0.00000000000E+00  0.99999998245E-14  0.12500000000E+03  0.12500000000E+03 0.  0.
        -13    1    3    3    0    0  0.38711795893E+02  0.22399942963E+02  0.40762265537E+02  0.60513916100E+02  0.10566000000E+00 0.  1.
         23    2    1    0    0    0  0.11312118836E+02  0.68618342929E+01  0.27089120897E+02  0.94852541179E+02  0.89934060815E+02 0.  0.
         13    1    3    3    0    0 -0.27399677058E+02 -0.15538108671E+02 -0.13673144639E+02  0.34338625079E+02  0.10566000000E+00 0. -1.
         22    1    1    0    0    0 -0.11312118836E+02 -0.68618342929E+01 -0.27089120897E+02  0.30147458821E+02  0.00000000000E+00 0.  1.
</event>
<event>
 5    1  0.1315753E-009  0.9118800E+02  0.7818608E-02  0.1130116E+00
         25   -1    0    0    0    0  0.00000000000E+00  0.00000000000E+00  0.99999998245E-14  0.12500000000E+03  0.12500000000E+03 0.  0.
        -13    1    3    3    0    0 -0.46373423597E+02  0.34452410404E+02 -0.19373379332E+02  0.60932766140E+02  0.10566000000E+00 0.  1.
         23    2    1    0    0    0 -0.15150428805E+02  0.23532035765E+02 -0.85796324314E+01  0.95727106517E+02  0.91141519788E+02 0.  0.
         13    1    3    3    0    0  0.31222994792E+02 -0.10920374639E+02  0.10793746901E+02  0.34794340377E+02  0.10566000000E+00 0. -1.
         22    1    1    0    0    0  0.15150428805E+02 -0.23532035765E+02  0.85796324314E+01  0.29272893483E+02  0.00000000000E+00 0.  1.
</event>
<event>
 5    1  0.1315753E-009  0.9118800E+02  0.7818608E-02  0.1130116E+00
         25   -1    0    0    0    0  0.00000000000E+00  0.00000000000E+00  0.99999998245E-14  0.12500000000E+03  0.12500000000E+03 0.  0.
        -13    1    3    3    0    0  0.29928401061E+02 -0.37167486131E+02  0.41976975039E+01  0.47903685075E+02  0.10566000000E+00 0. -1.
         23    2    1    0    0    0 -0.12727433548E+02 -0.23115093736E+02  0.15740668223E+02  0.94274379433E+02  0.89126847011E+02 0.  0.
         13    1    3    3    0    0 -0.42655834609E+02  0.14052392395E+02  0.11542970719E+02  0.46370694358E+02  0.10566000000E+00 0.  1.
         22    1    1    0    0    0  0.12727433548E+02  0.23115093736E+02 -0.15740668223E+02  0.30725620567E+02  0.00000000000E+00 0. -1.
</event>
<event>
 5    1  0.1315753E-009  0.9118800E+02  0.7818608E-02  0.1130116E+00
         25   -1    0    0    0    0  0.00000000000E+00  0.00000000000E+00  0.99999998245E-14  0.12500000000E+03  0.12500000000E+03 0.  0.
        -13    1    3    3    0    0  0.28386237176E+02 -0.15401704844E+01 -0.19807982423E+02  0.34648490845E+02  0.10566000000E+00 0.  1.
         23    2    1    0    0    0 -0.20490300896E+02  0.18475813358E+02  0.10425497753E+02  0.95505947830E+02  0.90837695686E+02 0.  0.
         13    1    3    3    0    0 -0.48876538072E+02  0.20015983842E+02  0.30233480176E+02  0.60857456985E+02  0.10566000000E+00 0. -1.
         22    1    1    0    0    0  0.20490300896E+02 -0.18475813358E+02 -0.10425497753E+02  0.29494052170E+02  0.00000000000E+00 0. -1.
</event>
<event>
 5    1  0.1315753E-009  0.9118800E+02  0.7818608E-02  0.1130116E+00
         25   -1    0    0    0    0  0.00000000000E+00  0.00000000000E+00  0.99999998245E-14  0.12500000000E+03  0.12500000000E+03 0.  0.
        -13    1    3    3    0    0  0.27353250678E+02 -0.50923766350E+02 -0.11697629127E+02  0.58976910679E+02  0.10566000000E+00 0.  1.
         23    2    1    0    0    0  0.18955437491E+02 -0.14737013929E+02 -0.15657061841E+02  0.96335879998E+02  0.91972658978E+02 0.  0.
         13    1    3    3    0    0 -0.83978131870E+01  0.36186752421E+02 -0.39594327136E+01  0.37358969319E+02  0.10566000000E+00 0. -1.
         22    1    1    0    0    0 -0.18955437491E+02  0.14737013929E+02  0.15657061841E+02  0.28664120002E+02  0.00000000000E+00 0.  1.
</event>
<event>
 5    1  0.1315753E-009  0.9118800E+02  0.7818608E-02  0.1130116E+00
         25   -1    0    0    0    0  0.00000000000E+00  0.00000000000E+00  0.99999998245E-14  0.12500000000E+03  0.12500000000E+03 0.  0.
        -13    1    3    3    0    0 -0.94306191718E+01 -0.54647508112E+02  0.50553509659E+01  0.55685316362E+02  0.10566000000E+00 0.  1.
         23    2    1    0    0    0 -0.18949585029E+02 -0.17499732370E+02  0.14812760034E+02  0.95255332148E+02  0.90492171137E+02 0.  0.
         13    1    3    3    0    0 -0.95189658572E+01  0.37147775742E+02  0.97574090680E+01  0.39570015787E+02  0.10566000000E+00 0. -1.
         22    1    1    0    0    0  0.18949585029E+02  0.17499732370E+02 -0.14812760034E+02  0.29744667852E+02  0.00000000000E+00 0.  1.
</event>
<event>
 5    1  0.1315753E-009  0.9118800E+02  0.7818608E-02  0.1130116E+00
         25   -1    0    0    0    0  0.00000000000E+00  0.00000000000E+00  0.99999998245E-14  0.12500000000E+03  0.12500000000E+03 0.  0.
        -13    1    3    3    0    0 -0.34846291583E+01 -0.41341542225E+02 -0.37994455787E+02  0.56257049234E+02  0.10566000000E+00 0.  1.
         23    2    1    0    0    0 -0.87602500187E+01 -0.33806887535E+01 -0.27422714334E+02  0.96014205233E+02  0.91534426902E+02 0.  0.
         13    1    3    3    0    0 -0.52756208605E+01  0.37960853472E+02  0.10571741453E+02  0.39757155999E+02  0.10566000000E+00 0. -1.
         22    1    1    0    0    0  0.87602500187E+01  0.33806887535E+01  0.27422714334E+02  0.28985794767E+02  0.00000000000E+00 0.  1.
</event>
<event>
 5    1  0.1315753E-009  0.9118800E+02  0.7818608E-02  0.1130116E+00
         25   -1    0    0    0    0  0.00000000000E+00  0.00000000000E+00  0.99999998245E-14  0.12500000000E+03  0.12500000000E+03 0.  0.
        -13    1    3    3    0    0 -0.60187353485E+01 -0.12796624909E+02  0.54908674315E+02  0.56700550820E+02  0.10566000000E+00 0.  1.
         23    2    1    0    0    0 -0.54558269573E+00 -0.22568640455E+02  0.15637603512E+02  0.97537737965E+02  0.93591850560E+02 0.  0.
         13    1    3    3    0    0  0.54731526528E+01 -0.97720155469E+01 -0.39271070804E+02  0.40837187145E+02  0.10566000000E+00 0. -1.
         22    1    1    0    0    0  0.54558269573E+00  0.22568640455E+02 -0.15637603512E+02  0.27462262035E+02  0.00000000000E+00 0.  1.
</event>
<event>
 5    1  0.1315753E-009  0.9118800E+02  0.7818608E-02  0.1130116E+00
         25   -1    0    0    0    0  0.00000000000E+00  0.00000000000E+00  0.99999998245E-14  0.12500000000E+03  0.12500000000E+03 0.  0.
        -13    1    3    3    0    0 -0.31660161068E+02  0.31283584254E+02 -0.10623582307E+02  0.45759153267E+02  0.10566000000E+00 0. -1.
         23    2    1    0    0    0 -0.57617081736E+00  0.15552747044E+02  0.24977810965E+02  0.95570236936E+02  0.90926119646E+02 0.  0.
         13    1    3    3    0    0  0.31083990251E+02 -0.15730837211E+02  0.35601393272E+02  0.49811083668E+02  0.10566000000E+00 0.  1.
         22    1    1    0    0    0  0.57617081736E+00 -0.15552747044E+02 -0.24977810965E+02  0.29429763064E+02  0.00000000000E+00 0.  1.
</event>
<event>
 5    1  0.1315753E-009  0.9118800E+02  0.7818608E-02  0.1130116E+00
         25   -1    0    0    0    0  0.00000000000E+00  0.00000000000E+00  0.99999998245E-14  0.12500000000E+03  0.12500000000E+03 0.  0.
        -13    1    3    3    0    0  0.41532855994E+02  0.30677374479E+02  0.84545494308E+01  0.52321792803E+02  0.10566000000E+00 0. -1.
         23    2    1    0    0    0 -0.66038007982E+00  0.28832396929E+02 -0.27861584346E+01  0.96025771911E+02  0.91550221069E+02 0.  0.
         13    1    3    3    0    0 -0.42193236074E+02 -0.18449775498E+01 -0.11240707865E+02  0.43703979108E+02  0.10566000000E+00 0.  1.
         22    1    1    0    0    0  0.66038007982E+00 -0.28832396929E+02  0.27861584346E+01  0.28974228089E+02  0.00000000000E+00 0. -1.
</event>
<event>
 5    1  0.1315753E-009  0.9118800E+02  0.7818608E-02  0.1130116E+00
         25   -1    0    0    0    0  0.00000000000E+00  0.00000000000E+00  0.99999998245E-14  0.12500000000E+03  0.12500000000E+03 0.  0.
        -13    1    3    3    0    0  0.42551474213E+02 -0.36478154353E+01 -0.12178449802E+02  0.44410137567E+02  0.10566000000E+00 0.  1.
         23    2    1    0    0    0  0.85225815448E+01  0.30176294770E+02 -0.83962592085E+01  0.92538633255E+02  0.86658284738E+02 0.  0.
         13    1    3    3    0    0 -0.34028892668E+02  0.33824110206E+02  0.37821905932E+01  0.48128495688E+02  0.10566000000E+00 0. -1.
         22    1    1    0    0    0 -0.85225815448E+01 -0.30176294770E+02  0.83962592085E+01  0.32461366745E+02  0.00000000000E+00 0.  1.
</event>
<event>
 5    1  0.1315753E-009  0.9118800E+02  0.7818608E-02  0.1130116E+00
         25   -1    0    0    0    0  0.00000000000E+00  0.00000000000E+00  0.99999998245E-14  0.12500000000E+03  0.12500000000E+03 0.  0.
        -13    1    3    3    0    0  0.14591859511E+02  0.32677364110E+02  0.31837352984E+02  0.47899485365E+02  0.10566000000E+00 0. -1.
         23    2    1    0    0    0  0.19706719787E+02  0.18551290712E+02 -0.12846214586E+02  0.95041187924E+02  0.90195881175E+02 0.  0.
         13    1    3    3    0    0  0.51148602760E+01 -0.14126073398E+02 -0.44683567570E+02  0.47141702559E+02  0.10566000000E+00 0.  1.
         22    1    1    0    0    0 -0.19706719787E+02 -0.18551290712E+02  0.12846214586E+02  0.29958812076E+02  0.00000000000E+00 0. -1.
</event>
<event>
 5    1  0.1315753E-009  0.9118800E+02  0.7818608E-02  0.1130116E+00
         25   -1    0    0    0    0  0.00000000000E+00  0.00000000000E+00  0.99999998245E-14  0.12500000000E+03  0.12500000000E+03 0.  0.
        -13    1    3    3    0    0  0.12478064191E+01  0.28934203528E+02  0.48126287665E+02  0.56168459860E+02  0.10566000000E+00 0.  1.
         23    2    1    0    0    0  0.13943996278E+02  0.23107513113E+02  0.10964873763E+02  0.95868905769E+02  0.91335789493E+02 0.  0.
         13    1    3    3    0    0  0.12696189859E+02 -0.58266904142E+01 -0.37161413902E+02  0.39700445909E+02  0.10566000000E+00 0. -1.
         22    1    1    0    0    0 -0.13943996278E+02 -0.23107513113E+02 -0.10964873763E+02  0.29131094231E+02  0.00000000000E+00 0. -1.
</event>
<event>
 5    1  0.1315753E-009  0.9118800E+02  0.7818608E-02  0.1130116E+00
         25   -1    0    0    0    0  0.00000000000E+00  0.00000000000E+00  0.99999998245E-14  0.12500000000E+03  0.12500000000E+03 0.  0.
        -13    1    3    3    0    0 -0.35395913435E+02 -0.73230339717E+01  0.16679562169E+00  0.36146044033E+02  0.10566000000E+00 0.  1.
         23    2    1    0    0    0  0.22248108742E+02 -0.13735699298E+02  0.13375447908E+02  0.95630791898E+02  0.91009329052E+02 0.  0.
         13    1    3    3    0    0  0.57644022177E+02 -0.64126653260E+01  0.13208652286E+02  0.59484747865E+02  0.10566000000E+00 0. -1.
         22    1    1    0    0    0 -0.22248108742E+02  0.13735699298E+02 -0.13375447908E+02  0.29369208102E+02  0.00000000000E+00 0. -1.
</event>
<event>
 5    1  0.1315753E-009  0.9118800E+02  0.7818608E-02  0.1130116E+00
         25   -1    0    0    0    0  0.00000000000E+00  0.00000000000E+00  0.99999998245E-14  0.12500000000E+03  0.12500000000E+03 0.  0.
        -13    1    3    3    0    0 -0.37653100896E+02 -0.34202575782E+01  0.46950381654E+02  0.60281039062E+02  0.10566000000E+00 0. -1.
         23    2    1    0    0    0 -0.15557456023E+02 -0.13114443066E+02  0.23265291961E+02  0.94092122932E+02  0.88870865490E+02 0.  0.
         13    1    3    3    0    0  0.22095644873E+02 -0.96941854879E+01 -0.23685089693E+02  0.33811083869E+02  0.10566000000E+00 0.  1.
         22    1    1    0    0    0  0.15557456023E+02  0.13114443066E+02 -0.23265291961E+02  0.30907877068E+02  0.00000000000E+00 0. -1.
</event>
<event>
 5    1  0.1315753E-009  0.9118800E+02  0.7818608E-02  0.1130116E+00
         25   -1    0    0    0    0  0.00000000000E+00  0.00000000000E+00  0.99999998245E-14  0.12500000000E+03  0.12500000000E+03 0.  0.
        -13    1    3    3    0    0  0.15809602448E+01 -0.16706479371E+02  0.42826011435E+02  0.45996568434E+02  0.10566000000E+00 0. -1.
         23    2    1    0    0    0  0.30818866419E+01  0.24654515611E+02  0.13485158583E+02  0.96730004116E+02  0.92506762072E+02 0.  0.
         13    1    3    3    0    0  0.15009263971E+01  0.41360994982E+02 -0.29340852852E+02  0.50733435682E+02  0.10566000000E+00 0.  1.
         22    1    1    0    0    0 -0.30818866419E+01 -0.24654515611E+02 -0.13485158583E+02  0.28269995884E+02  0.00000000000E+00 0.  1.
</event>
<event>
 5    1  0.1315753E-009  0.9118800E+02  0.7818608E-02  0.1130116E+00
         25   -1    0    0    0    0  0.00000000000E+00  0.00000000000E+00  0.99999998245E-14  0.12500000000E+03  0.12500000000E+03 0.  0.
        -13    1    3    3    0    0  0.58093124366E+02  0.19373201920E+02  0.40161001391E+01  0.61369962323E+02  0.10566000000E+00 0.  1.
         23    2    1    0    0    0  0.25625733741E+02  0.16983639699E+02  0.45039022400E+01  0.93928994504E+02  0.88641122657E+02 0.  0.
         13    1    3    3    0    0 -0.32467390625E+02 -0.23895622217E+01  0.48780210093E+00  0.32559032180E+02  0.10566000000E+00 0. -1.
         22    1    1    0    0    0 -0.25625733741E+02 -0.16983639699E+02 -0.45039022400E+01  0.31071005496E+02  0.00000000000E+00 0.  1.
</event>
<event>
 5    1  0.1315753E-009  0.9118800E+02  0.7818608E-02  0.1130116E+00
         25   -1    0    0    0    0  0.00000000000E+00  0.00000000000E+00  0.99999998245E-14  0.12500000000E+03  0.12500000000E+03 0.  0.
        -13    1    3    3    0    0 -0.19597970573E+02  0.50381430658E+02 -0.26711286875E+02  0.60298200772E+02  0.10566000000E+00 0. -1.
         23    2    1    0    0    0 -0.15694870101E+02  0.15551347749E+02 -0.18223706778E+02  0.96359524218E+02  0.92004788215E+02 0.  0.
         13    1    3    3    0    0  0.39031004719E+01 -0.34830082909E+02  0.84875800969E+01  0.36061323446E+02  0.10566000000E+00 0.  1.
         22    1    1    0    0    0  0.15694870101E+02 -0.15551347749E+02  0.18223706778E+02  0.28640475782E+02  0.00000000000E+00 0. -1.
</event>
<event>
 5    1  0.1315753E-009  0.9118800E+02  0.7818608E-02  0.1130116E+00
         25   -1    0    0    0    0  0.00000000000E+00  0.00000000000E+00  0.99999998245E-14  0.12500000000E+03  0.12500000000E+03 0.  0.
        -13    1    3    3    0    0 -0.21128417908E+01  0.12434059572E+02  0.38581231417E+02  0.40590547170E+02  0.10566000000E+00 0. -1.
         23    2    1    0    0    0  0.51495635783E+01 -0.29705001647E+02  0.62178585525E+01  0.94217425500E+02  0.89046933551E+02 0.  0.
         13    1    3    3    0    0  0.72624053690E+01 -0.42139061219E+02 -0.32363372864E+02  0.53626878330E+02  0.10566000000E+00 0.  1.
         22    1    1    0    0    0 -0.51495635783E+01  0.29705001647E+02 -0.62178585525E+01  0.30782574500E+02  0.00000000000E+00 0.  1.
</event>
<event>
 5    1  0.1315753E-009  0.9118800E+02  0.7818608E-02  0.1130116E+00
         25   -1    0    0    0    0  0.00000000000E+00  0.00000000000E+00  0.99999998245E-14  0.12500000000E+03  0.12500000000E+03 0.  0.
        -13    1    3    3    0    0 -0.44684706313E+01 -0.29274966793E+02 -0.54005206375E+02  0.61591918221E+02  0.10566000000E+00 0. -1.
         23    2    1    0    0    0  0.16732684077E+01 -0.41975564880E+01 -0.21122331923E+02  0.10339971728E+03  0.10111839259E+03 0.  0.
         13    1    3    3    0    0  0.61417390390E+01  0.25077410304E+02  0.32882874452E+02  0.41807799061E+02  0.10566000000E+00 0.  1.
         22    1    1    0    0    0 -0.16732684077E+01  0.41975564880E+01  0.21122331923E+02  0.21600282718E+02  0.00000000000E+00 0. -1.
</event>
<event>
 5    1  0.1315753E-009  0.9118800E+02  0.7818608E-02  0.1130116E+00
         25   -1    0    0    0    0  0.00000000000E+00  0.00000000000E+00  0.99999998245E-14  0.12500000000E+03  0.12500000000E+03 0.  0.
        -13    1    3    3    0    0 -0.40700876844E+02  0.38289742852E+01  0.14758967928E+02  0.43463326130E+02  0.10566000000E+00 0.  1.
         23    2    1    0    0    0 -0.33506817497E+01  0.24236912233E+02 -0.15813118094E+02  0.95867377621E+02  0.91333698082E+02 0.  0.
         13    1    3    3    0    0  0.37350195095E+02  0.20407937948E+02 -0.30572086022E+02  0.52404051491E+02  0.10566000000E+00 0. -1.
         22    1    1    0    0    0  0.33506817497E+01 -0.24236912233E+02  0.15813118094E+02  0.29132622379E+02  0.00000000000E+00 0. -1.
</event>
<event>
 5    1  0.1315753E-009  0.9118800E+02  0.7818608E-02  0.1130116E+00
         25   -1    0    0    0    0  0.00000000000E+00  0.00000000000E+00  0.99999998245E-14  0.12500000000E+03  0.12500000000E+03 0.  0.
        -13    1    3    3    0    0  0.17943526396E+02 -0.53476305913E+01 -0.41738574505E+02  0.45745896627E+02  0.10566000000E+00 0.  1.
         23    2    1    0    0    0  0.17040837714E+02  0.24322091532E+02 -0.21532691777E+01  0.95224324447E+02  0.90449328974E+02 0.  0.
         13    1    3    3    0    0 -0.90268868173E+00  0.29669722123E+02  0.39585305327E+02  0.49478427820E+02  0.10566000000E+00 0. -1.
         22    1    1    0    0    0 -0.17040837714E+02 -0.24322091532E+02  0.21532691777E+01  0.29775675553E+02  0.00000000000E+00 0. -1.
</event>
<event>
 5    1  0.1315753E-009  0.9118800E+02  0.7818608E-02  0.1130116E+00
         25   -1    0    0    0    0  0.00000000000E+00  0.00000000000E+00  0.99999998245E-14  0.12500000000E+03  0.12500000000E+03 0.  0.
        -13    1    3    3    0    0  0.25341129170E+02 -0.35580822959E+02  0.15497971505E+01  0.43710191321E+02  0.10566000000E+00 0.  1.
         23    2    1    0    0    0  0.14080447974E+02  0.54905782274E+01 -0.26350683883E+02  0.94622969112E+02  0.89614408875E+02 0.  0.
         13    1    3    3    0    0 -0.11260681196E+02  0.41071401187E+02 -0.27900481034E+02  0.50912777791E+02  0.10566000000E+00 0. -1.
         22    1    1    0    0    0 -0.14080447974E+02 -0.54905782274E+01  0.26350683883E+02  0.30377030888E+02  0.00000000000E+00 0.  1.
</event>
<event>
 5    1  0.1315753E-009  0.9118800E+02  0.7818608E-02  0.1130116E+00
         25   -1    0    0    0    0  0.00000000000E+00  0.00000000000E+00  0.99999998245E-14  0.12500000000E+03  0.12500000000E+03 0.  0.
        -13    1    3    3    0    0  0.47911982305E+02  0.82527534620E+01 -0.36982449960E+02  0.61085012542E+02  0.10566000000E+00 0. -1.
         23    2    1    0    0    0  0.20594540315E+02 -0.50022512698E+01 -0.19921457724E+02  0.95913541185E+02  0.91396856052E+02 0.  0.
         13    1    3    3    0    0 -0.27317441990E+02 -0.13255004732E+02  0.17060992236E+02  0.34828528643E+02  0.10566000000E+00 0.  1.
         22    1    1    0    0    0 -0.20594540315E+02  0.50022512698E+01  0.19921457724E+02  0.29086458815E+02  0.00000000000E+00 0. -1.
</event>
<event>
 5    1  0.1315753E-009  0.9118800E+02  0.7818608E-02  0.1130116E+00
         25   -1    0    0    0    0  0.00000000000E+00  0.00000000000E+00  0.99999998245E-14  0.12500000000E+03  0.12500000000E+03 0.  0.
        -13    1    3    3    0    0 -0.68935708397E+01  0.66790923883E+01 -0.57235568215E+02  0.58034929370E+02  0.10566000000E+00 0. -1.
         23    2    1    0    0    0 -0.14732319241E+02 -0.89476333655E+01 -0.26756827080E+02  0.93171880853E+02  0.87566947036E+02 0.  0.
         13    1    3    3    0    0 -0.78387484017E+01 -0.15626725754E+02  0.30478741135E+02  0.35136951483E+02  0.10566000000E+00 0.  1.
         22    1    1    0    0    0  0.14732319241E+02  0.89476333655E+01  0.26756827080E+02  0.31828119147E+02  0.00000000000E+00 0. -1.
</event>
<event>
 5    1  0.1315753E-009  0.9118800E+02  0.7818608E-02  0.1130116E+00
         25   -1    0    0    0    0  0.00000000000E+00  0.00000000000E+00  0.99999998245E-14  0.12500000000E+03  0.12500000000E+03 0.  0.
        -13    1    3    3    0    0 -0.31591402303E+02 -0.50999852929E+02 -0.45410333850E+00  0.59993491915E+02  0.10566000000E+00 0. -1.
         23    2    1    0    0    0 -0.40387180333E+01 -0.27108596144E+02  0.57755607489E+01  0.96990281504E+02  0.92857796528E+02 0.  0.
         13    1    3    3    0    0  0.27552684270E+02  0.23891256785E+02  0.62296640874E+01  0.36996789589E+02  0.10566000000E+00 0.  1.
         22    1    1    0    0    0  0.40387180333E+01  0.27108596144E+02 -0.57755607489E+01  0.28009718496E+02  0.00000000000E+00 0. -1.
</event>
<event>
 5    1  0.1315753E-009  0.9118800E+02  0.7818608E-02  0.1130116E+00
         25   -1    0    0    0    0  0.00000000000E+00  0.00000000000E+00  0.99999998245E-14  0.12500000000E+03  0.12500000000E+03 0.  0.
        -13    1    3    3    0    0 -0.85017009679E+01 -0.11510883208E+02 -0.32074551095E+02  0.35122177375E+02  0.10566000000E+00 0. -1.
         23    2    1    0    0    0 -0.55147520270E+01  0.21083271672E+02  0.19201947475E+02  0.95954662661E+02  0.91453079036E+02 0.  0.
         13    1    3    3    0    0  0.29869489409E+01  0.32594154880E+02  0.51276498570E+02  0.60832485285E+02  0.10566000000E+00 0.  1.
         22    1    1    0    0    0  0.55147520270E+01 -0.21083271672E+02 -0.19201947475E+02  0.29045337339E+02  0.00000000000E+00 0.  1.
</event>
<event>
 5    1  0.1315753E-009  0.9118800E+02  0.7818608E-02  0.1130116E+00
         25   -1    0    0    0    0  0.00000000000E+00  0.00000000000E+00  0.99999998245E-14  0.12500000000E+03  0.12500000000E+03 0.  0.
        -13    1    3    3    0    0  0.12587465491E+02 -0.15901516626E+01  0.53090787136E+02  0.54585856341E+02  0.10566000000E+00 0. -1.
         23    2    1    0    0    0  0.88320569896E+01  0.20772076083E+02  0.19178656558E+02  0.95380660999E+02  0.90665126978E+02 0.  0.
         13    1    3    3    0    0 -0.37554085010E+01  0.22362227745E+02 -0.33912130578E+02  0.40794804658E+02  0.10566000000E+00 0.  1.
         22    1    1    0    0    0 -0.88320569896E+01 -0.20772076083E+02 -0.19178656558E+02  0.29619339001E+02  0.00000000000E+00 0. -1.
</event>
<event>
 5    1  0.1315753E-009  0.9118800E+02  0.7818608E-02  0.1130116E+00
         25   -1    0    0    0    0  0.00000000000E+00  0.00000000000E+00  0.99999998245E-14  0.12500000000E+03  0.12500000000E+03 0.  0.
        -13    1    3    3    0    0  0.25585992677E+02 -0.27306183443E+02  0.36235573403E+02  0.52089333068E+02  0.10566000000E+00 0. -1.
         23    2    1    0    0    0  0.92265642636E+01  0.11140806105E+02  0.26217776294E+02  0.95056405650E+02  0.90216968540E+02 0.  0.
         13    1    3    3    0    0 -0.16359428413E+02  0.38446989548E+02 -0.10017797109E+02  0.42967072582E+02  0.10566000000E+00 0.  1.
         22    1    1    0    0    0 -0.92265642636E+01 -0.11140806105E+02 -0.26217776294E+02  0.29943594350E+02  0.00000000000E+00 0. -1.
</event>
<event>
 5    1  0.1315753E-009  0.9118800E+02  0.7818608E-02  0.1130116E+00
         25   -1    0    0    0    0  0.00000000000E+00  0.00000000000E+00  0.99999998245E-14  0.12500000000E+03  0.12500000000E+03 0.  0.
        -13    1    3    3    0    0  0.16329590253E+02 -0.41592889849E+02 -0.25544693393E+02  0.51470054676E+02  0.10566000000E+00 0. -1.
         23    2    1    0    0    0 -0.10251042994E+02 -0.15639930578E+01 -0.23211840850E+02  0.99577185199E+02  0.96277184731E+02 0.  0.
         13    1    3    3    0    0 -0.26580633247E+02  0.40028896791E+02  0.23328525422E+01  0.48107130523E+02  0.10566000000E+00 0.  1.
         22    1    1    0    0    0  0.10251042994E+02  0.15639930578E+01  0.23211840850E+02  0.25422814801E+02  0.00000000000E+00 0. -1.
</event>
<event>
 5    1  0.1315753E-009  0.9118800E+02  0.7818608E-02  0.1130116E+00
         25   -1    0    0    0    0  0.00000000000E+00  0.00000000000E+00  0.99999998245E-14  0.12500000000E+03  0.12500000000E+03 0.  0.
        -13    1    3    3    0    0  0.16373728627E+02  0.28637388128E+02 -0.24939679603E+02  0.41354537486E+02  0.10566000000E+00 0.  1.
         23    2    1    0    0    0 -0.22067942831E+02  0.15566987551E+02  0.11249650736E+02  0.95744575821E+02  0.91165475677E+02 0.  0.
         13    1    3    3    0    0 -0.38441671458E+02 -0.13070400577E+02  0.36189330339E+02  0.54390038335E+02  0.10566000000E+00 0. -1.
         22    1    1    0    0    0  0.22067942831E+02 -0.15566987551E+02 -0.11249650736E+02  0.29255424179E+02  0.00000000000E+00 0. -1.
</event>
<event>
 5    1  0.1315753E-009  0.9118800E+02  0.7818608E-02  0.1130116E+00
         25   -1    0    0    0    0  0.00000000000E+00  0.00000000000E+00  0.99999998245E-14  0.12500000000E+03  0.12500000000E+03 0.  0.
        -13    1    3    3    0    0 -0.38940635222E+02  0.14064281602E+02 -0.47152781271E+01  0.41670398370E+02  0.10566000000E+00 0.  1.
         23    2    1    0    0    0 -0.51965362381E+01 -0.27231942428E+02 -0.10590482550E+02  0.95322719162E+02  0.90585207350E+02 0.  0.
         13    1    3    3    0    0  0.33744098984E+02 -0.41296224030E+02 -0.58752044229E+01  0.53652320792E+02  0.10566000000E+00 0. -1.
         22    1    1    0    0    0  0.51965362381E+01  0.27231942428E+02  0.10590482550E+02  0.29677280838E+02  0.00000000000E+00 0. -1.
</event>
<event>
 5    1  0.1315753E-009  0.9118800E+02  0.7818608E-02  0.1130116E+00
         25   -1    0    0    0    0  0.00000000000E+00  0.00000000000E+00  0.99999998245E-14  0.12500000000E+03  0.12500000000E+03 0.  0.
        -13    1    3    3    0    0  0.47106696234E+02  0.37474180209E+02  0.14258194202E+02  0.61860021648E+02  0.10566000000E+00 0.  1.
         23    2    1    0    0    0  0.17419284994E+02  0.19131567814E+02  0.12719452001E+01  0.99095054115E+02  0.95649168991E+02 0.  0.
         13    1    3    3    0    0 -0.29687411240E+02 -0.18342612395E+02 -0.12986249002E+02  0.37235032466E+02  0.10566000000E+00 0. -1.
         22    1    1    0    0    0 -0.17419284994E+02 -0.19131567814E+02 -0.12719452001E+01  0.25904945885E+02  0.00000000000E+00 0.  1.
</event>
<event>
 5    1  0.1315753E-009  0.9118800E+02  0.7818608E-02  0.1130116E+00
         25   -1    0    0    0    0  0.00000000000E+00  0.00000000000E+00  0.99999998245E-14  0.12500000000E+03  0.12500000000E+03 0.  0.
        -13    1    3    3    0    0  0.14080025409E+02  0.23851930930E+02  0.19204185209E+02  0.33704207722E+02  0.10566000000E+00 0. -1.
         23    2    1    0    0    0 -0.25082527456E+02 -0.11930875152E+02 -0.11432402843E+02  0.94963708614E+02  0.90088440731E+02 0.  0.
         13    1    3    3    0    0 -0.39162552865E+02 -0.35782806082E+02 -0.30636588052E+02  0.61259500892E+02  0.10566000000E+00 0.  1.
         22    1    1    0    0    0  0.25082527456E+02  0.11930875152E+02  0.11432402843E+02  0.30036291386E+02  0.00000000000E+00 0.  1.
</event>
<event>
 5    1  0.1315753E-009  0.9118800E+02  0.7818608E-02  0.1130116E+00
         25   -1    0    0    0    0  0.00000000000E+00  0.00000000000E+00  0.99999998245E-14  0.12500000000E+03  0.12500000000E+03 0.  0.
        -13    1    3    3    0    0 -0.34195903371E+02  0.26005871355E+02 -0.12997463413E+02  0.44884411231E+02  0.10566000000E+00 0. -1.
         23    2    1    0    0    0  0.12488747161E+02  0.10601624995E+02 -0.24646109109E+02  0.95406183882E+02  0.90700308547E+02 0.  0.
         13    1    3    3    0    0  0.46684650532E+02 -0.15404246360E+02 -0.11648645696E+02  0.50521772651E+02  0.10566000000E+00 0.  1.
         22    1    1    0    0    0 -0.12488747161E+02 -0.10601624995E+02  0.24646109109E+02  0.29593816118E+02  0.00000000000E+00 0. -1.
</event>
<event>
 5    1  0.1315753E-009  0.9118800E+02  0.7818608E-02  0.1130116E+00
         25   -1    0    0    0    0  0.00000000000E+00  0.00000000000E+00  0.99999998245E-14  0.12500000000E+03  0.12500000000E+03 0.  0.
        -13    1    3    3    0    0 -0.31433930673E+02  0.12087722776E+01  0.34150473221E+02  0.46430799187E+02  0.10566000000E+00 0. -1.
         23    2    1    0    0    0  0.13272029916E+02  0.13011144377E+02  0.25459439516E+02  0.93478265965E+02  0.88003218642E+02 0.  0.
         13    1    3    3    0    0  0.44705960588E+02  0.11802372100E+02 -0.86910337046E+01  0.47047466778E+02  0.10566000000E+00 0.  1.
         22    1    1    0    0    0 -0.13272029916E+02 -0.13011144377E+02 -0.25459439516E+02  0.31521734035E+02  0.00000000000E+00 0.  1.
</event>
<event>
 5    1  0.1315753E-009  0.9118800E+02  0.7818608E-02  0.1130116E+00
         25   -1    0    0    0    0  0.00000000000E+00  0.00000000000E+00  0.99999998245E-14  0.12500000000E+03  0.12500000000E+03 0.  0.
        -13    1    3    3    0    0 -0.57143462447E+01 -0.75915921642E+01  0.59540360202E+02  0.60293877646E+02  0.10566000000E+00 0.  1.
         23    2    1    0    0    0 -0.14071128759E+02 -0.70055116361E+01  0.28414103568E+02  0.92527932936E+02  0.86642848719E+02 0.  0.
         13    1    3    3    0    0 -0.83567825140E+01  0.58608052809E+00 -0.31126256634E+02  0.32234055290E+02  0.10566000000E+00 0. -1.
         22    1    1    0    0    0  0.14071128759E+02  0.70055116361E+01 -0.28414103568E+02  0.32472067064E+02  0.00000000000E+00 0.  1.
</event>
<event>
 5    1  0.1315753E-009  0.9118800E+02  0.7818608E-02  0.1130116E+00
         25   -1    0    0    0    0  0.00000000000E+00  0.00000000000E+00  0.99999998245E-14  0.12500000000E+03  0.12500000000E+03 0.  0.
        -13    1    3    3    0    0 -0.24972817158E+02  0.10567642150E+02  0.25653326020E+02  0.37328554182E+02  0.10566000000E+00 0.  1.
         23    2    1    0    0    0  0.21596513172E+02 -0.82361922973E+01 -0.10900146755E+02  0.99445011367E+02  0.96105425662E+02 0.  0.
         13    1    3    3    0    0  0.46569330330E+02 -0.18803834447E+02 -0.36553472775E+02  0.62116457185E+02  0.10566000000E+00 0. -1.
         22    1    1    0    0    0 -0.21596513172E+02  0.82361922973E+01  0.10900146755E+02  0.25554988633E+02  0.00000000000E+00 0. -1.
</event>
<event>
 5    1  0.1315753E-009  0.9118800E+02  0.7818608E-02  0.1130116E+00
         25   -1    0    0    0    0  0.00000000000E+00  0.00000000000E+00  0.99999998245E-14  0.12500000000E+03  0.12500000000E+03 0.  0.
        -13    1    3    3    0    0  0.31290780698E+02 -0.88338120679E+01 -0.43716789263E+02  0.54482272528E+02  0.10566000000E+00 0.  1.
         23    2    1    0    0    0  0.23714894732E+02 -0.16260522193E+02 -0.35488991194E+01  0.96027677016E+02  0.91552822207E+02 0.  0.
         13    1    3    3    0    0 -0.75758859663E+01 -0.74267101252E+01  0.40167890143E+02  0.41545404488E+02  0.10566000000E+00 0. -1.
         22    1    1    0    0    0 -0.23714894732E+02  0.16260522193E+02  0.35488991194E+01  0.28972322984E+02  0.00000000000E+00 0.  1.
</event>
<event>
 5    1  0.1315753E-009  0.9118800E+02  0.7818608E-02  0.1130116E+00
         25   -1    0    0    0    0  0.00000000000E+00  0.00000000000E+00  0.99999998245E-14  0.12500000000E+03  0.12500000000E+03 0.  0.
        -13    1    3    3    0    0  0.16653447550E+02 -0.26367084214E+02 -0.48051767253E+02  0.57284761895E+02  0.10566000000E+00 0.  1.
         23    2    1    0    0    0 -0.73957187993E+01 -0.21197821265E+02 -0.17345235321E+02  0.96629214476E+02  0.92370469409E+02 0.  0.
         13    1    3    3    0    0 -0.24049166350E+02  0.51692629493E+01  0.30706531932E+02  0.39344452580E+02  0.10566000000E+00 0. -1.
         22    1    1    0    0    0  0.73957187993E+01  0.21197821265E+02  0.17345235321E+02  0.28370785524E+02  0.00000000000E+00 0.  1.
</event>
<event>
 5    1  0.1315753E-009  0.9118800E+02  0.7818608E-02  0.1130116E+00
         25   -1    0    0    0    0  0.00000000000E+00  0.00000000000E+00  0.99999998245E-14  0.12500000000E+03  0.12500000000E+03 0.  0.
        -13    1    3    3    0    0  0.45222509331E+02 -0.36776514280E+02 -0.15259849859E+02  0.60253311399E+02  0.10566000000E+00 0.  1.
         23    2    1    0    0    0  0.13254308333E+02 -0.25957160333E+02 -0.61122966911E+01  0.95220627395E+02  0.90444219543E+02 0.  0.
         13    1    3    3    0    0 -0.31968200998E+02  0.10819353948E+02  0.91475531678E+01  0.34967315995E+02  0.10566000000E+00 0. -1.
         22    1    1    0    0    0 -0.13254308333E+02  0.25957160333E+02  0.61122966911E+01  0.29779372605E+02  0.00000000000E+00 0.  1.
</event>
<event>
 5    1  0.1315753E-009  0.9118800E+02  0.7818608E-02  0.1130116E+00
         25   -1    0    0    0    0  0.00000000000E+00  0.00000000000E+00  0.99999998245E-14  0.12500000000E+03  0.12500000000E+03 0.  0.
        -13    1    3    3    0    0 -0.16107150275E+02 -0.47442184790E+02  0.13920633962E+02  0.51999965400E+02  0.10566000000E+00 0.  1.
         23    2    1    0    0    0 -0.96381709601E+01  0.59395402199E+01  0.15512118257E+02  0.10579587830E+03  0.10403830821E+03 0.  0.
         13    1    3    3    0    0  0.64689793145E+01  0.53381725010E+02  0.15914842949E+01  0.53795912900E+02  0.10566000000E+00 0. -1.
         22    1    1    0    0    0  0.96381709601E+01 -0.59395402199E+01 -0.15512118257E+02  0.19204121701E+02  0.00000000000E+00 0.  1.
</event>
<event>
 5    1  0.1315753E-009  0.9118800E+02  0.7818608E-02  0.1130116E+00
         25   -1    0    0    0    0  0.00000000000E+00  0.00000000000E+00  0.99999998245E-14  0.12500000000E+03  0.12500000000E+03 0.  0.
        -13    1    3    3    0    0 -0.45645443507E+01  0.52175545702E+02 -0.28502759029E+01  0.52452434369E+02  0.10566000000E+00 0. -1.
         23    2    1    0    0    0 -0.23201499956E+02  0.12977328412E+02  0.80876701229E+01  0.97212753628E+02  0.93156794745E+02 0.  0.
         13    1    3    3    0    0 -0.18636955605E+02 -0.39198217290E+02  0.10937946026E+02  0.44760319260E+02  0.10566000000E+00 0.  1.
         22    1    1    0    0    0  0.23201499956E+02 -0.12977328412E+02 -0.80876701229E+01  0.27787246372E+02  0.00000000000E+00 0.  1.
</event>
<event>
 5    1  0.1315753E-009  0.9118800E+02  0.7818608E-02  0.1130116E+00
         25   -1    0    0    0    0  0.00000000000E+00  0.00000000000E+00  0.99999998245E-14  0.12500000000E+03  0.12500000000E+03 0.  0.
        -13    1    3    3    0    0 -0.15655128085E+02  0.64237035057E+01  0.31163003281E+02  0.35461118702E+02  0.10566000000E+00 0.  1.
         23    2    1    0    0    0 -0.32132649354E+01 -0.17121946760E+02 -0.23194627793E+02  0.95991778909E+02  0.91503796246E+02 0.  0.
         13    1    3    3    0    0  0.12441863149E+02 -0.23545650265E+02 -0.54357631074E+02  0.60530660207E+02  0.10566000000E+00 0. -1.
         22    1    1    0    0    0  0.32132649354E+01  0.17121946760E+02  0.23194627793E+02  0.29008221091E+02  0.00000000000E+00 0. -1.
</event>
<event>
 5    1  0.1315753E-009  0.9118800E+02  0.7818608E-02  0.1130116E+00
         25   -1    0    0    0    0  0.00000000000E+00  0.00000000000E+00  0.99999998245E-14  0.12500000000E+03  0.12500000000E+03 0.  0.
        -13    1    3    3    0    0 -0.45024632415E+02 -0.10172503489E+02  0.35127922000E+02  0.58005856768E+02  0.10566000000E+00 0.  1.
         23    2    1    0    0    0 -0.29761998381E+02 -0.81870641361E+01  0.25614274772E+01  0.94026374486E+02  0.88778339821E+02 0.  0.
         13    1    3    3    0    0  0.15262634035E+02  0.19854393527E+01 -0.32566494522E+02  0.36020517717E+02  0.10566000000E+00 0. -1.
         22    1    1    0    0    0  0.29761998381E+02  0.81870641361E+01 -0.25614274772E+01  0.30973625514E+02  0.00000000000E+00 0.  1.
</event>
<event>
 5    1  0.1315753E-009  0.9118800E+02  0.7818608E-02  0.1130116E+00
         25   -1    0    0    0    0  0.00000000000E+00  0.00000000000E+00  0.99999998245E-14  0.12500000000E+03  0.12500000000E+03 0.  0.
        -13    1    3    3    0    0  0.41010841336E+02 -0.28959548952E+02  0.24960385540E+02  0.56067607341E+02  0.10566000000E+00 0. -1.
         23    2    1    0    0    0  0.75679906513E+01 -0.92831998213E+01  0.27553255762E+02  0.94956129003E+02  0.90077923215E+02 0.  0.
         13    1    3    3    0    0 -0.33442850684E+02  0.19676349131E+02  0.25928702216E+01  0.38888521662E+02  0.10566000000E+00 0.  1.
         22    1    1    0    0    0 -0.75679906513E+01  0.92831998213E+01 -0.27553255762E+02  0.30043870997E+02  0.00000000000E+00 0. -1.
</event>
<event>
 5    1  0.1315753E-009  0.9118800E+02  0.7818608E-02  0.1130116E+00
         25   -1    0    0    0    0  0.00000000000E+00  0.00000000000E+00  0.99999998245E-14  0.12500000000E+03  0.12500000000E+03 0.  0.
        -13    1    3    3    0    0 -0.55448030742E+02 -0.27363475669E+01 -0.20152574724E+02  0.59060216248E+02  0.10566000000E+00 0.  1.
         23    2    1    0    0    0 -0.20741559111E+02 -0.14417384065E+02 -0.13765317041E+02  0.96232706230E+02  0.91832328499E+02 0.  0.
         13    1    3    3    0    0  0.34706471631E+02 -0.11681036498E+02  0.63872576837E+01  0.37172489982E+02  0.10566000000E+00 0. -1.
         22    1    1    0    0    0  0.20741559111E+02  0.14417384065E+02  0.13765317041E+02  0.28767293770E+02  0.00000000000E+00 0.  1.
</event>
<event>
 5    1  0.1315753E-009  0.9118800E+02  0.7818608E-02  0.1130116E+00
         25   -1    0    0    0    0  0.00000000000E+00  0.00000000000E+00  0.99999998245E-14  0.12500000000E+03  0.12500000000E+03 0.  0.
        -13    1    3    3    0    0 -0.70174321067E+01 -0.93221497775E+01 -0.32422988396E+02  0.34458789451E+02  0.10566000000E+00 0. -1.
         23    2    1    0    0    0 -0.10714329710E+01  0.81717049434E+01  0.27042900115E+02  0.96729110786E+02  0.92505554950E+02 0.  0.
         13    1    3    3    0    0  0.59459991357E+01  0.17493854721E+02  0.59465888511E+02  0.62270321335E+02  0.10566000000E+00 0.  1.
         22    1    1    0    0    0  0.10714329710E+01 -0.81717049434E+01 -0.27042900115E+02  0.28270889214E+02  0.00000000000E+00 0.  1.
</event>
<event>
 5    1  0.1315753E-009  0.9118800E+02  0.7818608E-02  0.1130116E+00
         25   -1    0    0    0    0  0.00000000000E+00  0.00000000000E+00  0.99999998245E-14  0.12500000000E+03  0.12500000000E+03 0.  0.
        -13    1    3    3    0    0  0.43532371083E+02  0.19434306952E+01 -0.21840462803E+01  0.43630556691E+02  0.10566000000E+00 0. -1.
         23    2    1    0    0    0 -0.56713196615E+01  0.23537860706E+02  0.10125687593E+02  0.98756442646E+02  0.95205623057E+02 0.  0.
         13    1    3    3    0    0 -0.49203690744E+02  0.21594430011E+02  0.12309733874E+02  0.55125885956E+02  0.10566000000E+00 0.  1.
         22    1    1    0    0    0  0.56713196615E+01 -0.23537860706E+02 -0.10125687593E+02  0.26243557354E+02  0.00000000000E+00 0. -1.
</event>
<event>
 5    1  0.1315753E-009  0.9118800E+02  0.7818608E-02  0.1130116E+00
         25   -1    0    0    0    0  0.00000000000E+00  0.00000000000E+00  0.99999998245E-14  0.12500000000E+03  0.12500000000E+03 0.  0.
        -13    1    3    3    0    0  0.10748201845E+02 -0.70613280459E+01  0.59384555798E+02  0.60761195084E+02  0.10566000000E+00 0.  1.
         23    2    1    0    0    0  0.31484707227E+01  0.69117546183E+01  0.28553015857E+02  0.95454104612E+02  0.90766327197E+02 0.  0.
         13    1    3    3    0    0 -0.75997311224E+01  0.13973082664E+02 -0.30831539942E+02  0.34692909527E+02  0.10566000000E+00 0. -1.
         22    1    1    0    0    0 -0.31484707227E+01 -0.69117546183E+01 -0.28553015857E+02  0.29545895388E+02  0.00000000000E+00 0.  1.
</event>
<event>
 5    1  0.1315753E-009  0.9118800E+02  0.7818608E-02  0.1130116E+00
         25   -1    0    0    0    0  0.00000000000E+00  0.00000000000E+00  0.99999998245E-14  0.12500000000E+03  0.12500000000E+03 0.  0.
        -13    1    3    3    0    0  0.84214294346E+01  0.15768361704E+02 -0.16683088031E+02  0.24451958916E+02  0.10566000000E+00 0. -1.
         23    2    1    0    0    0 -0.48298460056E+01 -0.31239362142E+02  0.21774580265E+02  0.86615660678E+02  0.77646089209E+02 0.  0.
         13    1    3    3    0    0 -0.13251275440E+02 -0.47007723846E+02  0.38457668296E+02  0.62163701762E+02  0.10566000000E+00 0.  1.
         22    1    1    0    0    0  0.48298460056E+01  0.31239362142E+02 -0.21774580265E+02  0.38384339322E+02  0.00000000000E+00 0.  1.
</event>
<event>
 5    1  0.1315753E-009  0.9118800E+02  0.7818608E-02  0.1130116E+00
         25   -1    0    0    0    0  0.00000000000E+00  0.00000000000E+00  0.99999998245E-14  0.12500000000E+03  0.12500000000E+03 0.  0.
        -13    1    3    3    0    0  0.52225386713E+01 -0.12337079650E+02 -0.32500647700E+02  0.35153686996E+02  0.10566000000E+00 0. -1.
         23    2    1    0    0    0  0.96142980205E+01  0.17269140577E+02  0.20814957627E+02  0.96295986279E+02  0.91918423451E+02 0.  0.
         13    1    3    3    0    0  0.43917593491E+01  0.29606220227E+02  0.53315605326E+02  0.61142299283E+02  0.10566000000E+00 0.  1.
         22    1    1    0    0    0 -0.96142980205E+01 -0.17269140577E+02 -0.20814957627E+02  0.28704013721E+02  0.00000000000E+00 0.  1.
</event>
<event>
 5    1  0.1315753E-009  0.9118800E+02  0.7818608E-02  0.1130116E+00
         25   -1    0    0    0    0  0.00000000000E+00  0.00000000000E+00  0.99999998245E-14  0.12500000000E+03  0.12500000000E+03 0.  0.
        -13    1    3    3    0    0 -0.20898934888E+02  0.47281852094E+02 -0.83730175974E+01  0.52368479113E+02  0.10566000000E+00 0.  1.
         23    2    1    0    0    0 -0.28952822360E+01  0.17968169467E+02  0.20719721388E+02  0.97422026405E+02  0.93437179972E+02 0.  0.
         13    1    3    3    0    0  0.18003652652E+02 -0.29313682626E+02  0.29092738985E+02  0.45053547292E+02  0.10566000000E+00 0. -1.
         22    1    1    0    0    0  0.28952822360E+01 -0.17968169467E+02 -0.20719721388E+02  0.27577973595E+02  0.00000000000E+00 0.  1.
</event>
<event>
 5    1  0.1315753E-009  0.9118800E+02  0.7818608E-02  0.1130116E+00
         25   -1    0    0    0    0  0.00000000000E+00  0.00000000000E+00  0.99999998245E-14  0.12500000000E+03  0.12500000000E+03 0.  0.
        -13    1    3    3    0    0 -0.77705753683E+01 -0.46774108250E+01 -0.41334283284E+02  0.42317775842E+02  0.10566000000E+00 0.  1.
         23    2    1    0    0    0 -0.10859533118E+02  0.27757398616E+02  0.30881159313E+00  0.95192316392E+02  0.90405083364E+02 0.  0.
         13    1    3    3    0    0 -0.30889577496E+01  0.32434809441E+02  0.41643094877E+02  0.52874540550E+02  0.10566000000E+00 0. -1.
         22    1    1    0    0    0  0.10859533118E+02 -0.27757398616E+02 -0.30881159313E+00  0.29807683608E+02  0.00000000000E+00 0. -1.
</event>
<event>
 5    1  0.1315753E-009  0.9118800E+02  0.7818608E-02  0.1130116E+00
         25   -1    0    0    0    0  0.00000000000E+00  0.00000000000E+00  0.99999998245E-14  0.12500000000E+03  0.12500000000E+03 0.  0.
        -13    1    3    3    0    0 -0.84693603763E+01 -0.28006472402E+02 -0.19350965915E+02  0.35079390067E+02  0.10566000000E+00 0.  1.
         23    2    1    0    0    0  0.23527595280E+02  0.13941168055E+02  0.10510202277E+02  0.95702077577E+02  0.91107186294E+02 0.  0.
         13    1    3    3    0    0  0.31996955656E+02  0.41947640457E+02  0.29861168192E+02  0.60622687510E+02  0.10566000000E+00 0. -1.
         22    1    1    0    0    0 -0.23527595280E+02 -0.13941168055E+02 -0.10510202277E+02  0.29297922423E+02  0.00000000000E+00 0. -1.
</event>
<event>
 5    1  0.1315753E-009  0.9118800E+02  0.7818608E-02  0.1130116E+00
         25   -1    0    0    0    0  0.00000000000E+00  0.00000000000E+00  0.99999998245E-14  0.12500000000E+03  0.12500000000E+03 0.  0.
        -13    1    3    3    0    0 -0.30397476534E+02 -0.25743904710E+02 -0.37870260140E+02  0.54962923653E+02  0.10566000000E+00 0.  1.
         23    2    1    0    0    0  0.57549230656E+01 -0.73994746971E+01 -0.26235911422E+02  0.97139734146E+02  0.93058763889E+02 0.  0.
         13    1    3    3    0    0  0.36152399600E+02  0.18344430013E+02  0.11634348718E+02  0.42176810494E+02  0.10566000000E+00 0. -1.
         22    1    1    0    0    0 -0.57549230656E+01  0.73994746971E+01  0.26235911422E+02  0.27860265854E+02  0.00000000000E+00 0.  1.
</event>
<event>
 5    1  0.1315753E-009  0.9118800E+02  0.7818608E-02  0.1130116E+00
         25   -1    0    0    0    0  0.00000000000E+00  0.00000000000E+00  0.99999998245E-14  0.12500000000E+03  0.12500000000E+03 0.  0.
        -13    1    3    3    0    0 -0.17304462366E+02 -0.64908526838E+01 -0.26022829419E+02  0.31918245587E+02  0.10566000000E+00 0.  1.
         23    2    1    0    0    0  0.17910317687E+02  0.31805027739E+00  0.24974529350E+02  0.94265528280E+02  0.89114432446E+02 0.  0.
         13    1    3    3    0    0  0.35214780053E+02  0.68089029612E+01  0.50997358769E+02  0.62347282693E+02  0.10566000000E+00 0. -1.
         22    1    1    0    0    0 -0.17910317687E+02 -0.31805027739E+00 -0.24974529350E+02  0.30734471720E+02  0.00000000000E+00 0. -1.
</event>
<event>
 5    1  0.1315753E-009  0.9118800E+02  0.7818608E-02  0.1130116E+00
         25   -1    0    0    0    0  0.00000000000E+00  0.00000000000E+00  0.99999998245E-14  0.12500000000E+03  0.12500000000E+03 0.  0.
        -13    1    3    3    0    0 -0.29623106283E+02  0.16138813248E+02  0.31325567517E+02  0.46035769388E+02  0.10566000000E+00 0. -1.
         23    2    1    0    0    0  0.14372590239E+02  0.19978334390E+02 -0.35429245740E+00  0.10038637129E+03  0.97322108600E+02 0.  0.
         13    1    3    3    0    0  0.43995696521E+02  0.38395211415E+01 -0.31679859974E+02  0.54350601901E+02  0.10566000000E+00 0.  1.
         22    1    1    0    0    0 -0.14372590239E+02 -0.19978334390E+02  0.35429245740E+00  0.24613628711E+02  0.00000000000E+00 0.  1.
</event>
<event>
 5    1  0.1315753E-009  0.9118800E+02  0.7818608E-02  0.1130116E+00
         25   -1    0    0    0    0  0.00000000000E+00  0.00000000000E+00  0.99999998245E-14  0.12500000000E+03  0.12500000000E+03 0.  0.
        -13    1    3    3    0    0 -0.62156613294E+01 -0.16064392412E+02 -0.31165360496E+02  0.35608847331E+02  0.10566000000E+00 0. -1.
         23    2    1    0    0    0  0.91407091349E+00  0.70143923040E+00  0.27723969058E+02  0.97252099126E+02  0.93209574516E+02 0.  0.
         13    1    3    3    0    0  0.71297322429E+01  0.16765831642E+02  0.58889329554E+02  0.61643251795E+02  0.10566000000E+00 0.  1.
         22    1    1    0    0    0 -0.91407091349E+00 -0.70143923040E+00 -0.27723969058E+02  0.27747900874E+02  0.00000000000E+00 0.  1.
</event>
<event>
 5    1  0.1315753E-009  0.9118800E+02  0.7818608E-02  0.1130116E+00
         25   -1    0    0    0    0  0.00000000000E+00  0.00000000000E+00  0.99999998245E-14  0.12500000000E+03  0.12500000000E+03 0.  0.
        -13    1    3    3    0    0  0.11154048262E+02  0.33370024263E+02 -0.27294603957E+02  0.44530639801E+02  0.10566000000E+00 0.  1.
         23    2    1    0    0    0 -0.22132011734E+02  0.17585712100E+02  0.80757775363E+01  0.95600996679E+02  0.90968396543E+02 0.  0.
         13    1    3    3    0    0 -0.33286059996E+02 -0.15784312163E+02  0.35370381494E+02  0.51070356877E+02  0.10566000000E+00 0. -1.
         22    1    1    0    0    0  0.22132011734E+02 -0.17585712100E+02 -0.80757775363E+01  0.29399003321E+02  0.00000000000E+00 0. -1.
</event>
<event>
 5    1  0.1315753E-009  0.9118800E+02  0.7818608E-02  0.1130116E+00
         25   -1    0    0    0    0  0.00000000000E+00  0.00000000000E+00  0.99999998245E-14  0.12500000000E+03  0.12500000000E+03 0.  0.
        -13    1    3    3    0    0  0.43940949636E+02 -0.67985186211E+00  0.20686769038E+02  0.48571831659E+02  0.10566000000E+00 0. -1.
         23    2    1    0    0    0  0.20082008736E+02  0.37250055533E+01 -0.20301166085E+02  0.96202429171E+02  0.91791106828E+02 0.  0.
         13    1    3    3    0    0 -0.23858940899E+02  0.44048574154E+01 -0.40987935123E+02  0.47630597512E+02  0.10566000000E+00 0.  1.
         22    1    1    0    0    0 -0.20082008736E+02 -0.37250055533E+01  0.20301166085E+02  0.28797570829E+02  0.00000000000E+00 0.  1.
</event>
<event>
 5    1  0.1315753E-009  0.9118800E+02  0.7818608E-02  0.1130116E+00
         25   -1    0    0    0    0  0.00000000000E+00  0.00000000000E+00  0.99999998245E-14  0.12500000000E+03  0.12500000000E+03 0.  0.
        -13    1    3    3    0    0  0.27599401948E+02 -0.45623022035E+01 -0.39987706251E+02  0.48801325848E+02  0.10566000000E+00 0. -1.
         23    2    1    0    0    0 -0.16189414768E+02  0.48955825689E+01 -0.22407007040E+02  0.96926207173E+02  0.92771503131E+02 0.  0.
         13    1    3    3    0    0 -0.43788816715E+02  0.94578847725E+01  0.17580699211E+02  0.48124881324E+02  0.10566000000E+00 0.  1.
         22    1    1    0    0    0  0.16189414768E+02 -0.48955825689E+01  0.22407007040E+02  0.28073792827E+02  0.00000000000E+00 0.  1.
</event>
<event>
 5    1  0.1315753E-009  0.9118800E+02  0.7818608E-02  0.1130116E+00
         25   -1    0    0    0    0  0.00000000000E+00  0.00000000000E+00  0.99999998245E-14  0.12500000000E+03  0.12500000000E+03 0.  0.
        -13    1    3    3    0    0 -0.40385136946E+02 -0.16096109287E+02 -0.55471760581E+01  0.43827232933E+02  0.10566000000E+00 0. -1.
         23    2    1    0    0    0 -0.80970684930E+01 -0.39770559263E+02  0.10246879612E+01  0.84400617151E+02  0.73994285507E+02 0.  0.
         13    1    3    3    0    0  0.32288068453E+02 -0.23674449977E+02  0.65718640193E+01  0.40573384218E+02  0.10566000000E+00 0.  1.
         22    1    1    0    0    0  0.80970684930E+01  0.39770559263E+02 -0.10246879612E+01  0.40599382849E+02  0.00000000000E+00 0. -1.
</event>
<event>
 5    1  0.1315753E-009  0.9118800E+02  0.7818608E-02  0.1130116E+00
         25   -1    0    0    0    0  0.00000000000E+00  0.00000000000E+00  0.99999998245E-14  0.12500000000E+03  0.12500000000E+03 0.  0.
        -13    1    3    3    0    0 -0.15016048086E+01 -0.77387697978E+01  0.37636539627E+02  0.38453395873E+02  0.10566000000E+00 0. -1.
         23    2    1    0    0    0  0.16783327713E+02 -0.18998398151E+02 -0.15168962500E+02  0.95458222045E+02  0.90771997396E+02 0.  0.
         13    1    3    3    0    0  0.18284932522E+02 -0.11259628353E+02 -0.52805502127E+02  0.57004826172E+02  0.10566000000E+00 0.  1.
         22    1    1    0    0    0 -0.16783327713E+02  0.18998398151E+02  0.15168962500E+02  0.29541777955E+02  0.00000000000E+00 0.  1.
</event>
<event>
 5    1  0.1315753E-009  0.9118800E+02  0.7818608E-02  0.1130116E+00
         25   -1    0    0    0    0  0.00000000000E+00  0.00000000000E+00  0.99999998245E-14  0.12500000000E+03  0.12500000000E+03 0.  0.
        -13    1    3    3    0    0  0.32397504115E+02 -0.11956966031E+00  0.15903001900E+02  0.36090569450E+02  0.10566000000E+00 0.  1.
         23    2    1    0    0    0 -0.15561553514E+02  0.25999435964E+02 -0.44579882797E+01  0.94373111850E+02  0.89265211379E+02 0.  0.
         13    1    3    3    0    0 -0.47959057629E+02  0.26119005625E+02 -0.20360990179E+02  0.58282542400E+02  0.10566000000E+00 0. -1.
         22    1    1    0    0    0  0.15561553514E+02 -0.25999435964E+02  0.44579882797E+01  0.30626888150E+02  0.00000000000E+00 0. -1.
</event>
<event>
 5    1  0.1315753E-009  0.9118800E+02  0.7818608E-02  0.1130116E+00
         25   -1    0    0    0    0  0.00000000000E+00  0.00000000000E+00  0.99999998245E-14  0.12500000000E+03  0.12500000000E+03 0.  0.
        -13    1    3    3    0    0  0.27380894902E+02  0.42799883825E+02 -0.10277431983E+01  0.50819394735E+02  0.10566000000E+00 0.  1.
         23    2    1    0    0    0  0.26856328964E+02 -0.21128723693E+00  0.11740311533E+02  0.95688876470E+02  0.91089072438E+02 0.  0.
         13    1    3    3    0    0 -0.52456593847E+00 -0.43011171062E+02  0.12768054731E+02  0.44869481735E+02  0.10566000000E+00 0. -1.
         22    1    1    0    0    0 -0.26856328964E+02  0.21128723693E+00 -0.11740311533E+02  0.29311123530E+02  0.00000000000E+00 0. -1.
</event>
<event>
 5    1  0.1315753E-009  0.9118800E+02  0.7818608E-02  0.1130116E+00
         25   -1    0    0    0    0  0.00000000000E+00  0.00000000000E+00  0.99999998245E-14  0.12500000000E+03  0.12500000000E+03 0.  0.
        -13    1    3    3    0    0  0.16419454650E+00  0.17434970036E+02 -0.36263265992E+02  0.40237305631E+02  0.10566000000E+00 0.  1.
         23    2    1    0    0    0 -0.19998704055E+02 -0.23567856090E+02 -0.13891694792E+02  0.91112374106E+02  0.84575963054E+02 0.  0.
         13    1    3    3    0    0 -0.20162898601E+02 -0.41002826126E+02  0.22371571200E+02  0.50875068475E+02  0.10566000000E+00 0. -1.
         22    1    1    0    0    0  0.19998704055E+02  0.23567856090E+02  0.13891694792E+02  0.33887625894E+02  0.00000000000E+00 0. -1.
</event>
<event>
 5    1  0.1315753E-009  0.9118800E+02  0.7818608E-02  0.1130116E+00
         25   -1    0    0    0    0  0.00000000000E+00  0.00000000000E+00  0.99999998245E-14  0.12500000000E+03  0.12500000000E+03 0.  0.
        -13    1    3    3    0    0  0.78912892370E+01  0.30678414553E+02  0.15501583767E+02  0.35266809164E+02  0.10566000000E+00 0. -1.
         23    2    1    0    0    0 -0.24476350201E+02 -0.13647098121E+02 -0.92688797899E+01  0.95483104180E+02  0.90806255538E+02 0.  0.
         13    1    3    3    0    0 -0.32367639438E+02 -0.44325512674E+02 -0.24770463557E+02  0.60216295016E+02  0.10566000000E+00 0.  1.
         22    1    1    0    0    0  0.24476350201E+02  0.13647098121E+02  0.92688797899E+01  0.29516895820E+02  0.00000000000E+00 0.  1.
</event>
<event>
 5    1  0.1315753E-009  0.9118800E+02  0.7818608E-02  0.1130116E+00
         25   -1    0    0    0    0  0.00000000000E+00  0.00000000000E+00  0.99999998245E-14  0.12500000000E+03  0.12500000000E+03 0.  0.
        -13    1    3    3    0    0  0.27694523802E+02 -0.33736389706E+02 -0.30785808602E+02  0.53412618493E+02  0.10566000000E+00 0.  1.
         23    2    1    0    0    0 -0.85173649274E+01 -0.52843679809E+01 -0.22721485155E+02  0.10016583124E+03  0.97038434707E+02 0.  0.
         13    1    3    3    0    0 -0.36211888729E+02  0.28452021725E+02  0.80643234468E+01  0.46753212748E+02  0.10566000000E+00 0. -1.
         22    1    1    0    0    0  0.85173649274E+01  0.52843679809E+01  0.22721485155E+02  0.24834168759E+02  0.00000000000E+00 0. -1.
</event>
<event>
 5    1  0.1315753E-009  0.9118800E+02  0.7818608E-02  0.1130116E+00
         25   -1    0    0    0    0  0.00000000000E+00  0.00000000000E+00  0.99999998245E-14  0.12500000000E+03  0.12500000000E+03 0.  0.
        -13    1    3    3    0    0  0.10805604307E+02  0.55006134800E+02  0.19125383931E+02  0.59230291445E+02  0.10566000000E+00 0. -1.
         23    2    1    0    0    0  0.13895934560E+02  0.16293747426E+02  0.16147097596E+02  0.98180008142E+02  0.94445762401E+02 0.  0.
         13    1    3    3    0    0  0.30903302522E+01 -0.38712387374E+02 -0.29782863346E+01  0.38949716697E+02  0.10566000000E+00 0.  1.
         22    1    1    0    0    0 -0.13895934560E+02 -0.16293747426E+02 -0.16147097596E+02  0.26819991858E+02  0.00000000000E+00 0. -1.
</event>
<event>
 5    1  0.1315753E-009  0.9118800E+02  0.7818608E-02  0.1130116E+00
         25   -1    0    0    0    0  0.00000000000E+00  0.00000000000E+00  0.99999998245E-14  0.12500000000E+03  0.12500000000E+03 0.  0.
        -13    1    3    3    0    0 -0.14777745153E+02  0.47489694333E+02 -0.19784736016E+02  0.53526626672E+02  0.10566000000E+00 0. -1.
         23    2    1    0    0    0  0.15852926090E+02  0.18566389621E+02 -0.15968919245E+02  0.95827539167E+02  0.91279158584E+02 0.  0.
         13    1    3    3    0    0  0.30630671244E+02 -0.28923304711E+02  0.38158167709E+01  0.42300912495E+02  0.10566000000E+00 0.  1.
         22    1    1    0    0    0 -0.15852926090E+02 -0.18566389621E+02  0.15968919245E+02  0.29172460833E+02  0.00000000000E+00 0.  1.
</event>
<event>
 5    1  0.1315753E-009  0.9118800E+02  0.7818608E-02  0.1130116E+00
         25   -1    0    0    0    0  0.00000000000E+00  0.00000000000E+00  0.99999998245E-14  0.12500000000E+03  0.12500000000E+03 0.  0.
        -13    1    3    3    0    0  0.45902928313E+00 -0.74671213682E+00 -0.50326248219E+02  0.50333991603E+02  0.10566000000E+00 0. -1.
         23    2    1    0    0    0  0.11395221320E+02  0.23284550453E+02 -0.13150018998E+02  0.95932073373E+02  0.91422198307E+02 0.  0.
         13    1    3    3    0    0  0.10936192037E+02  0.24031262590E+02  0.37176229221E+02  0.45598081770E+02  0.10566000000E+00 0.  1.
         22    1    1    0    0    0 -0.11395221320E+02 -0.23284550453E+02  0.13150018998E+02  0.29067926627E+02  0.00000000000E+00 0. -1.
</event>
<event>
 5    1  0.1315753E-009  0.9118800E+02  0.7818608E-02  0.1130116E+00
         25   -1    0    0    0    0  0.00000000000E+00  0.00000000000E+00  0.99999998245E-14  0.12500000000E+03  0.12500000000E+03 0.  0.
        -13    1    3    3    0    0  0.22074874947E+02  0.31232410866E+02  0.75853985404E+01  0.38991191666E+02  0.10566000000E+00 0. -1.
         23    2    1    0    0    0  0.49997558165E+01 -0.25715716547E+02  0.32473810883E+01  0.98602251618E+02  0.95002962608E+02 0.  0.
         13    1    3    3    0    0 -0.17075119131E+02 -0.56948127413E+02 -0.43380174521E+01  0.59611059952E+02  0.10566000000E+00 0.  1.
         22    1    1    0    0    0 -0.49997558165E+01  0.25715716547E+02 -0.32473810883E+01  0.26397748382E+02  0.00000000000E+00 0.  1.
</event>
<event>
 5    1  0.1315753E-009  0.9118800E+02  0.7818608E-02  0.1130116E+00
         25   -1    0    0    0    0  0.00000000000E+00  0.00000000000E+00  0.99999998245E-14  0.12500000000E+03  0.12500000000E+03 0.  0.
        -13    1    3    3    0    0 -0.49718192403E+02  0.52558629037E+01  0.20917622267E+01  0.50039078568E+02  0.10566000000E+00 0. -1.
         23    2    1    0    0    0 -0.15901120731E+02 -0.21274832367E+02  0.14450502794E+02  0.94762917406E+02  0.89809405696E+02 0.  0.
         13    1    3    3    0    0  0.33817071671E+02 -0.26530695271E+02  0.12358740568E+02  0.44723838839E+02  0.10566000000E+00 0.  1.
         22    1    1    0    0    0  0.15901120731E+02  0.21274832367E+02 -0.14450502794E+02  0.30237082594E+02  0.00000000000E+00 0. -1.
</event>
<event>
 5    1  0.1315753E-009  0.9118800E+02  0.7818608E-02  0.1130116E+00
         25   -1    0    0    0    0  0.00000000000E+00  0.00000000000E+00  0.99999998245E-14  0.12500000000E+03  0.12500000000E+03 0.  0.
        -13    1    3    3    0    0 -0.38260279065E+02 -0.26360294514E+02  0.17261354206E+02  0.49564902845E+02  0.10566000000E+00 0.  1.
         23    2    1    0    0    0 -0.22007608894E+02  0.15929335772E+02  0.12419502228E+02  0.95128230335E+02  0.90316430309E+02 0.  0.
         13    1    3    3    0    0  0.16252670171E+02  0.42289630285E+02 -0.48418519787E+01  0.45563327490E+02  0.10566000000E+00 0. -1.
         22    1    1    0    0    0  0.22007608894E+02 -0.15929335772E+02 -0.12419502228E+02  0.29871769665E+02  0.00000000000E+00 0.  1.
</event>
<event>
 5    1  0.1315753E-009  0.9118800E+02  0.7818608E-02  0.1130116E+00
         25   -1    0    0    0    0  0.00000000000E+00  0.00000000000E+00  0.99999998245E-14  0.12500000000E+03  0.12500000000E+03 0.  0.
        -13    1    3    3    0    0 -0.40445080194E+02 -0.25616434902E+02  0.25074119324E+00  0.47875675287E+02  0.10566000000E+00 0.  1.
         23    2    1    0    0    0 -0.43104484056E+01 -0.67819055969E+01  0.27139084783E+02  0.96696217005E+02  0.92461095880E+02 0.  0.
         13    1    3    3    0    0  0.36134631789E+02  0.18834529305E+02  0.26888343590E+02  0.48820541718E+02  0.10566000000E+00 0. -1.
         22    1    1    0    0    0  0.43104484056E+01  0.67819055969E+01 -0.27139084783E+02  0.28303782995E+02  0.00000000000E+00 0.  1.
</event>
<event>
 5    1  0.1315753E-009  0.9118800E+02  0.7818608E-02  0.1130116E+00
         25   -1    0    0    0    0  0.00000000000E+00  0.00000000000E+00  0.99999998245E-14  0.12500000000E+03  0.12500000000E+03 0.  0.
        -13    1    3    3    0    0  0.59825507291E+02 -0.16835035000E+02  0.46184618772E+01  0.62320551026E+02  0.10566000000E+00 0.  1.
         23    2    1    0    0    0  0.28951293445E+02 -0.73886486780E+01 -0.10536369028E+01  0.95102179475E+02  0.90280368124E+02 0.  0.
         13    1    3    3    0    0 -0.30874213845E+02  0.94463863225E+01 -0.56720987800E+01  0.32781628448E+02  0.10566000000E+00 0. -1.
         22    1    1    0    0    0 -0.28951293445E+02  0.73886486780E+01  0.10536369028E+01  0.29897820525E+02  0.00000000000E+00 0.  1.
</event>
<event>
 5    1  0.1315753E-009  0.9118800E+02  0.7818608E-02  0.1130116E+00
         25   -1    0    0    0    0  0.00000000000E+00  0.00000000000E+00  0.99999998245E-14  0.12500000000E+03  0.12500000000E+03 0.  0.
        -13    1    3    3    0    0  0.39558247439E+02 -0.22081946936E+02 -0.16045710533E+01  0.45332693867E+02  0.10566000000E+00 0. -1.
         23    2    1    0    0    0 -0.11948037487E+02 -0.18904818356E+02 -0.14273371695E+02  0.98469321599E+02  0.94827898847E+02 0.  0.
         13    1    3    3    0    0 -0.51506284926E+02  0.31771285797E+01 -0.12668800642E+02  0.53136627731E+02  0.10566000000E+00 0.  1.
         22    1    1    0    0    0  0.11948037487E+02  0.18904818356E+02  0.14273371695E+02  0.26530678401E+02  0.00000000000E+00 0.  1.
</event>
<event>
 5    1  0.1315753E-009  0.9118800E+02  0.7818608E-02  0.1130116E+00
         25   -1    0    0    0    0  0.00000000000E+00  0.00000000000E+00  0.99999998245E-14  0.12500000000E+03  0.12500000000E+03 0.  0.
        -13    1    3    3    0    0  0.25160729600E+02  0.23052883555E+02  0.19158803673E+01  0.34178641223E+02  0.10566000000E+00 0. -1.
         23    2    1    0    0    0 -0.18261614562E+02 -0.56118507693E+01  0.26987601297E+02  0.91934760560E+02  0.85782807951E+02 0.  0.
         13    1    3    3    0    0 -0.43422344162E+02 -0.28664734324E+02  0.25071720930E+02  0.57756119337E+02  0.10566000000E+00 0.  1.
         22    1    1    0    0    0  0.18261614562E+02  0.56118507693E+01 -0.26987601297E+02  0.33065239440E+02  0.00000000000E+00 0.  1.
</event>
<event>
 5    1  0.1315753E-009  0.9118800E+02  0.7818608E-02  0.1130116E+00
         25   -1    0    0    0    0  0.00000000000E+00  0.00000000000E+00  0.99999998245E-14  0.12500000000E+03  0.12500000000E+03 0.  0.
        -13    1    3    3    0    0  0.21028504055E+02 -0.28210870893E+02  0.13266796563E+02  0.37604125763E+02  0.10566000000E+00 0.  1.
         23    2    1    0    0    0 -0.17253961951E+01  0.26633853170E+02  0.67692488519E+00  0.98301735000E+02  0.94606732054E+02 0.  0.
         13    1    3    3    0    0 -0.22753900250E+02  0.54844724063E+02 -0.12589871678E+02  0.60697609237E+02  0.10566000000E+00 0. -1.
         22    1    1    0    0    0  0.17253961951E+01 -0.26633853170E+02 -0.67692488519E+00  0.26698265000E+02  0.00000000000E+00 0. -1.
</event>
<event>
 5    1  0.1315753E-009  0.9118800E+02  0.7818608E-02  0.1130116E+00
         25   -1    0    0    0    0  0.00000000000E+00  0.00000000000E+00  0.99999998245E-14  0.12500000000E+03  0.12500000000E+03 0.  0.
        -13    1    3    3    0    0 -0.17289579670E+02  0.27613227042E+02 -0.30297231983E+02  0.44489923609E+02  0.10566000000E+00 0.  1.
         23    2    1    0    0    0 -0.25216639809E+02 -0.20348859388E+00  0.13053544999E+02  0.96604307230E+02  0.92336757619E+02 0.  0.
         13    1    3    3    0    0 -0.79270601381E+01 -0.27816715636E+02  0.43350776982E+02  0.52114383621E+02  0.10566000000E+00 0. -1.
         22    1    1    0    0    0  0.25216639809E+02  0.20348859388E+00 -0.13053544999E+02  0.28395692770E+02  0.00000000000E+00 0. -1.
</event>
<event>
 5    1  0.1315753E-009  0.9118800E+02  0.7818608E-02  0.1130116E+00
         25   -1    0    0    0    0  0.00000000000E+00  0.00000000000E+00  0.99999998245E-14  0.12500000000E+03  0.12500000000E+03 0.  0.
        -13    1    3    3    0    0 -0.27931511896E+02 -0.25067767611E+01 -0.19499215197E+02  0.34156754000E+02  0.10566000000E+00 0. -1.
         23    2    1    0    0    0  0.13036537582E+02 -0.16699390526E+01  0.26292385328E+02  0.95605620694E+02  0.90974750198E+02 0.  0.
         13    1    3    3    0    0  0.40968049477E+02  0.83683770851E+00  0.45791600525E+02  0.61448866694E+02  0.10566000000E+00 0.  1.
         22    1    1    0    0    0 -0.13036537582E+02  0.16699390526E+01 -0.26292385328E+02  0.29394379306E+02  0.00000000000E+00 0.  1.
</event>
<event>
 5    1  0.1315753E-009  0.9118800E+02  0.7818608E-02  0.1130116E+00
         25   -1    0    0    0    0  0.00000000000E+00  0.00000000000E+00  0.99999998245E-14  0.12500000000E+03  0.12500000000E+03 0.  0.
        -13    1    3    3    0    0 -0.17014779892E+02  0.31557803563E+02  0.32752341579E+01  0.36001889163E+02  0.10566000000E+00 0.  1.
         23    2    1    0    0    0  0.13234009173E+02 -0.12056879390E+02  0.25746953731E+02  0.93640584096E+02  0.88233474510E+02 0.  0.
         13    1    3    3    0    0  0.30248789065E+02 -0.43614682953E+02  0.22471719573E+02  0.57638694933E+02  0.10566000000E+00 0. -1.
         22    1    1    0    0    0 -0.13234009173E+02  0.12056879390E+02 -0.25746953731E+02  0.31359415904E+02  0.00000000000E+00 0. -1.
</event>
<event>
 5    1  0.1315753E-009  0.9118800E+02  0.7818608E-02  0.1130116E+00
         25   -1    0    0    0    0  0.00000000000E+00  0.00000000000E+00  0.99999998245E-14  0.12500000000E+03  0.12500000000E+03 0.  0.
        -13    1    3    3    0    0  0.36272743469E+02  0.13260872504E+02 -0.31397253264E+02  0.49773098506E+02  0.10566000000E+00 0.  1.
         23    2    1    0    0    0 -0.79394211542E+01  0.19199623440E+02 -0.20751854932E+02  0.95635064590E+02  0.91015197344E+02 0.  0.
         13    1    3    3    0    0 -0.44212164623E+02  0.59387509364E+01  0.10645398332E+02  0.45861966084E+02  0.10566000000E+00 0. -1.
         22    1    1    0    0    0  0.79394211542E+01 -0.19199623440E+02  0.20751854932E+02  0.29364935410E+02  0.00000000000E+00 0. -1.
</event>
<event>
 5    1  0.1315753E-009  0.9118800E+02  0.7818608E-02  0.1130116E+00
         25   -1    0    0    0    0  0.00000000000E+00  0.00000000000E+00  0.99999998245E-14  0.12500000000E+03  0.12500000000E+03 0.  0.
        -13    1    3    3    0    0 -0.27985247180E+01 -0.97792737145E+00 -0.36320713383E+02  0.36441644684E+02  0.10566000000E+00 0. -1.
         23    2    1    0    0    0  0.29294542868E+02  0.10588198588E+02  0.84469376491E+01  0.92725692156E+02  0.86927688563E+02 0.  0.
         13    1    3    3    0    0  0.32093067586E+02  0.11566125960E+02  0.44767651033E+02  0.56284047472E+02  0.10566000000E+00 0.  1.
         22    1    1    0    0    0 -0.29294542868E+02 -0.10588198588E+02 -0.84469376491E+01  0.32274307844E+02  0.00000000000E+00 0.  1.
</event>
<event>
 5    1  0.1315753E-009  0.9118800E+02  0.7818608E-02  0.1130116E+00
         25   -1    0    0    0    0  0.00000000000E+00  0.00000000000E+00  0.99999998245E-14  0.12500000000E+03  0.12500000000E+03 0.  0.
        -13    1    3    3    0    0  0.19119676845E+02 -0.23452689708E+02 -0.18716567600E+02  0.35579653792E+02  0.10566000000E+00 0. -1.
         23    2    1    0    0    0 -0.19384636478E+02 -0.32024201236E+00  0.21626492322E+02  0.95955691496E+02  0.91454485258E+02 0.  0.
         13    1    3    3    0    0 -0.38504313323E+02  0.23132447696E+02  0.40343059922E+02  0.60376037704E+02  0.10566000000E+00 0.  1.
         22    1    1    0    0    0  0.19384636478E+02  0.32024201236E+00 -0.21626492322E+02  0.29044308504E+02  0.00000000000E+00 0.  1.
</event>
<event>
 5    1  0.1315753E-009  0.9118800E+02  0.7818608E-02  0.1130116E+00
         25   -1    0    0    0    0  0.00000000000E+00  0.00000000000E+00  0.99999998245E-14  0.12500000000E+03  0.12500000000E+03 0.  0.
        -13    1    3    3    0    0 -0.46024992431E+02  0.31098831118E+02  0.20781600486E+02  0.59307025790E+02  0.10566000000E+00 0.  1.
         23    2    1    0    0    0 -0.84945812272E+01  0.20076498192E+02  0.90876739797E+00  0.10318144028E+03  0.10084820311E+03 0.  0.
         13    1    3    3    0    0  0.37530411204E+02 -0.11022332926E+02 -0.19872833088E+02  0.43874414495E+02  0.10566000000E+00 0. -1.
         22    1    1    0    0    0  0.84945812272E+01 -0.20076498192E+02 -0.90876739797E+00  0.21818559715E+02  0.00000000000E+00 0.  1.
</event>
<event>
 5    1  0.1315753E-009  0.9118800E+02  0.7818608E-02  0.1130116E+00
         25   -1    0    0    0    0  0.00000000000E+00  0.00000000000E+00  0.99999998245E-14  0.12500000000E+03  0.12500000000E+03 0.  0.
        -13    1    3    3    0    0 -0.21574791480E+02 -0.50255071494E+02 -0.45319878458E+01  0.54877991182E+02  0.10566000000E+00 0.  1.
         23    2    1    0    0    0  0.99664942616E+01 -0.25704287899E+02  0.71478528877E+01  0.96519599280E+02  0.92222013749E+02 0.  0.
         13    1    3    3    0    0  0.31541285742E+02  0.24550783595E+02  0.11679840734E+02  0.41641608098E+02  0.10566000000E+00 0. -1.
         22    1    1    0    0    0 -0.99664942616E+01  0.25704287899E+02 -0.71478528877E+01  0.28480400720E+02  0.00000000000E+00 0.  1.
</event>
<event>
 5    1  0.1315753E-009  0.9118800E+02  0.7818608E-02  0.1130116E+00
         25   -1    0    0    0    0  0.00000000000E+00  0.00000000000E+00  0.99999998245E-14  0.12500000000E+03  0.12500000000E+03 0.  0.
        -13    1    3    3    0    0  0.29943539390E+02 -0.11438866117E+02  0.11359673459E+02  0.34007595540E+02  0.10566000000E+00 0.  1.
         23    2    1    0    0    0 -0.19219123278E+02  0.22417199022E+02 -0.27470006716E+01  0.95344452049E+02  0.90615191951E+02 0.  0.
         13    1    3    3    0    0 -0.49162662669E+02  0.33856065139E+02 -0.14106674131E+02  0.61336856509E+02  0.10566000000E+00 0. -1.
         22    1    1    0    0    0  0.19219123278E+02 -0.22417199022E+02  0.27470006716E+01  0.29655547951E+02  0.00000000000E+00 0. -1.
</event>
<event>
 5    1  0.1315753E-009  0.9118800E+02  0.7818608E-02  0.1130116E+00
         25   -1    0    0    0    0  0.00000000000E+00  0.00000000000E+00  0.99999998245E-14  0.12500000000E+03  0.12500000000E+03 0.  0.
        -13    1    3    3    0    0 -0.29561770376E+01 -0.34259621846E+02 -0.12890693736E+02  0.36723859012E+02  0.10566000000E+00 0. -1.
         23    2    1    0    0    0 -0.69134060731E+01  0.25880636921E+02 -0.77070815515E+00  0.98200810796E+02  0.94473290929E+02 0.  0.
         13    1    3    3    0    0 -0.39572290355E+01  0.60140258766E+02  0.12119985581E+02  0.61476951784E+02  0.10566000000E+00 0.  1.
         22    1    1    0    0    0  0.69134060731E+01 -0.25880636921E+02  0.77070815515E+00  0.26799189204E+02  0.00000000000E+00 0.  1.
</event>
<event>
 5    1  0.1315753E-009  0.9118800E+02  0.7818608E-02  0.1130116E+00
         25   -1    0    0    0    0  0.00000000000E+00  0.00000000000E+00  0.99999998245E-14  0.12500000000E+03  0.12500000000E+03 0.  0.
        -13    1    3    3    0    0 -0.83266746983E+01 -0.23549954593E+02 -0.51210769587E+02  0.56977960288E+02  0.10566000000E+00 0.  1.
         23    2    1    0    0    0 -0.20292303243E+02 -0.28410313434E+01 -0.19349157989E+02  0.96817754793E+02  0.92625259505E+02 0.  0.
         13    1    3    3    0    0 -0.11965628544E+02  0.20708923249E+02  0.31861611598E+02  0.39839794506E+02  0.10566000000E+00 0. -1.
         22    1    1    0    0    0  0.20292303243E+02  0.28410313434E+01  0.19349157989E+02  0.28182245207E+02  0.00000000000E+00 0.  1.
</event>
<event>
 5    1  0.1315753E-009  0.9118800E+02  0.7818608E-02  0.1130116E+00
         25   -1    0    0    0    0  0.00000000000E+00  0.00000000000E+00  0.99999998245E-14  0.12500000000E+03  0.12500000000E+03 0.  0.
        -13    1    3    3    0    0  0.17581369832E+02  0.46608361635E+02  0.34417659738E+02  0.60547753099E+02  0.10566000000E+00 0. -1.
         23    2    1    0    0    0  0.55049974414E+01  0.15009808989E+02  0.24402045605E+02  0.95827081181E+02  0.91278531404E+02 0.  0.
         13    1    3    3    0    0 -0.12076372390E+02 -0.31598552646E+02 -0.10015614134E+02  0.35279328083E+02  0.10566000000E+00 0.  1.
         22    1    1    0    0    0 -0.55049974414E+01 -0.15009808989E+02 -0.24402045605E+02  0.29172918819E+02  0.00000000000E+00 0. -1.
</event>
<event>
 5    1  0.1315753E-009  0.9118800E+02  0.7818608E-02  0.1130116E+00
         25   -1    0    0    0    0  0.00000000000E+00  0.00000000000E+00  0.99999998245E-14  0.12500000000E+03  0.12500000000E+03 0.  0.
        -13    1    3    3    0    0 -0.27834304754E+02 -0.54814279886E+00  0.23646123895E+02  0.36526693266E+02  0.10566000000E+00 0. -1.
         23    2    1    0    0    0  0.19850492194E+02  0.19881842954E+02 -0.59917798993E+01  0.96273163314E+02  0.91887381226E+02 0.  0.
         13    1    3    3    0    0  0.47684796948E+02  0.20429985753E+02 -0.29637903794E+02  0.59746470048E+02  0.10566000000E+00 0.  1.
         22    1    1    0    0    0 -0.19850492194E+02 -0.19881842954E+02  0.59917798993E+01  0.28726836686E+02  0.00000000000E+00 0.  1.
</event>
<event>
 5    1  0.1315753E-009  0.9118800E+02  0.7818608E-02  0.1130116E+00
         25   -1    0    0    0    0  0.00000000000E+00  0.00000000000E+00  0.99999998245E-14  0.12500000000E+03  0.12500000000E+03 0.  0.
        -13    1    3    3    0    0 -0.44271627223E+02 -0.23296990985E+02 -0.26073904033E+02  0.56414416610E+02  0.10566000000E+00 0.  1.
         23    2    1    0    0    0 -0.18469190607E+02 -0.23476103619E+02  0.26332872734E+01  0.95013792426E+02  0.90157906512E+02 0.  0.
         13    1    3    3    0    0  0.25802436616E+02 -0.17911263339E+00  0.28707191306E+02  0.38599375816E+02  0.10566000000E+00 0. -1.
         22    1    1    0    0    0  0.18469190607E+02  0.23476103619E+02 -0.26332872734E+01  0.29986207574E+02  0.00000000000E+00 0.  1.
</event>
<event>
 5    1  0.1315753E-009  0.9118800E+02  0.7818608E-02  0.1130116E+00
         25   -1    0    0    0    0  0.00000000000E+00  0.00000000000E+00  0.99999998245E-14  0.12500000000E+03  0.12500000000E+03 0.  0.
        -13    1    3    3    0    0  0.13168747157E+02 -0.20633726250E+02 -0.52011828355E+02  0.57483980495E+02  0.10566000000E+00 0.  1.
         23    2    1    0    0    0  0.89847078305E+00  0.73721692826E+01 -0.27030670133E+02  0.96967639102E+02  0.92827311582E+02 0.  0.
         13    1    3    3    0    0 -0.12270276374E+02  0.28005895532E+02  0.24981158223E+02  0.39483658608E+02  0.10566000000E+00 0. -1.
         22    1    1    0    0    0 -0.89847078305E+00 -0.73721692826E+01  0.27030670133E+02  0.28032360898E+02  0.00000000000E+00 0.  1.
</event>
<event>
 5    1  0.1315753E-009  0.9118800E+02  0.7818608E-02  0.1130116E+00
         25   -1    0    0    0    0  0.00000000000E+00  0.00000000000E+00  0.99999998245E-14  0.12500000000E+03  0.12500000000E+03 0.  0.
        -13    1    3    3    0    0 -0.22752814963E+02 -0.19113736761E+02  0.19029182259E+02  0.35286632925E+02  0.10566000000E+00 0.  1.
         23    2    1    0    0    0  0.10674676699E+01  0.13788116114E+02 -0.25766705081E+02  0.95756629402E+02  0.91182001242E+02 0.  0.
         13    1    3    3    0    0  0.23820282633E+02  0.32901852875E+02 -0.44795887340E+02  0.60469996477E+02  0.10566000000E+00 0. -1.
         22    1    1    0    0    0 -0.10674676699E+01 -0.13788116114E+02  0.25766705081E+02  0.29243370598E+02  0.00000000000E+00 0. -1.
</event>
<event>
 5    1  0.1315753E-009  0.9118800E+02  0.7818608E-02  0.1130116E+00
         25   -1    0    0    0    0  0.00000000000E+00  0.00000000000E+00  0.99999998245E-14  0.12500000000E+03  0.12500000000E+03 0.  0.
        -13    1    3    3    0    0 -0.35575261575E+02 -0.28374931292E+02 -0.35738367585E+02  0.57861714835E+02  0.10566000000E+00 0.  1.
         23    2    1    0    0    0 -0.18231347760E+01 -0.20150771561E+02 -0.21699812507E+02  0.95330836248E+02  0.90596407555E+02 0.  0.
         13    1    3    3    0    0  0.33752126799E+02  0.82241597308E+01  0.14038555078E+02  0.37469121413E+02  0.10566000000E+00 0. -1.
         22    1    1    0    0    0  0.18231347760E+01  0.20150771561E+02  0.21699812507E+02  0.29669163752E+02  0.00000000000E+00 0.  1.
</event>
<event>
 5    1  0.1315753E-009  0.9118800E+02  0.7818608E-02  0.1130116E+00
         25   -1    0    0    0    0  0.00000000000E+00  0.00000000000E+00  0.99999998245E-14  0.12500000000E+03  0.12500000000E+03 0.  0.
        -13    1    3    3    0    0  0.49125951333E+02  0.84508691812E+01  0.32046677806E+02  0.59260248116E+02  0.10566000000E+00 0. -1.
         23    2    1    0    0    0  0.30008942487E+02  0.43093514443E+01  0.26533699709E+01  0.94567328226E+02  0.89536763715E+02 0.  0.
         13    1    3    3    0    0 -0.19117008846E+02 -0.41415177369E+01 -0.29393307835E+02  0.35307080110E+02  0.10566000000E+00 0.  1.
         22    1    1    0    0    0 -0.30008942487E+02 -0.43093514443E+01 -0.26533699709E+01  0.30432671774E+02  0.00000000000E+00 0. -1.
</event>
<event>
 5    1  0.1315753E-009  0.9118800E+02  0.7818608E-02  0.1130116E+00
         25   -1    0    0    0    0  0.00000000000E+00  0.00000000000E+00  0.99999998245E-14  0.12500000000E+03  0.12500000000E+03 0.  0.
        -13    1    3    3    0    0 -0.22858780189E+02 -0.47222491294E+01 -0.34490834556E+02  0.41646756188E+02  0.10566000000E+00 0. -1.
         23    2    1    0    0    0  0.17592788417E+02 -0.23356084118E+02 -0.43180100222E+01  0.95442292373E+02  0.90750058365E+02 0.  0.
         13    1    3    3    0    0  0.40451568605E+02 -0.18633834989E+02  0.30172824534E+02  0.53795536185E+02  0.10566000000E+00 0.  1.
         22    1    1    0    0    0 -0.17592788417E+02  0.23356084118E+02  0.43180100222E+01  0.29557707627E+02  0.00000000000E+00 0.  1.
</event>
<event>
 5    1  0.1315753E-009  0.9118800E+02  0.7818608E-02  0.1130116E+00
         25   -1    0    0    0    0  0.00000000000E+00  0.00000000000E+00  0.99999998245E-14  0.12500000000E+03  0.12500000000E+03 0.  0.
        -13    1    3    3    0    0  0.35394772577E+01  0.41636475666E+02 -0.19480774718E+02  0.46104617478E+02  0.10566000000E+00 0.  1.
         23    2    1    0    0    0  0.78434340952E+01 -0.15843062440E+02 -0.10494329274E+02  0.10444147299E+03  0.10239808713E+03 0.  0.
         13    1    3    3    0    0  0.43039568376E+01 -0.57479538106E+02  0.89864454443E+01  0.58336855513E+02  0.10566000000E+00 0. -1.
         22    1    1    0    0    0 -0.78434340952E+01  0.15843062440E+02  0.10494329274E+02  0.20558527009E+02  0.00000000000E+00 0. -1.
</event>
<event>
 5    1  0.1315753E-009  0.9118800E+02  0.7818608E-02  0.1130116E+00
         25   -1    0    0    0    0  0.00000000000E+00  0.00000000000E+00  0.99999998245E-14  0.12500000000E+03  0.12500000000E+03 0.  0.
        -13    1    3    3    0    0  0.16953791752E+02 -0.20432804196E+02 -0.16208249565E+02  0.31107058043E+02  0.10566000000E+00 0. -1.
         23    2    1    0    0    0  0.59861675158E+01  0.31034410697E+02  0.12452677821E+02  0.91028864698E+02  0.84452449191E+02 0.  0.
         13    1    3    3    0    0 -0.10967624236E+02  0.51467214892E+02  0.28660927386E+02  0.59921806655E+02  0.10566000000E+00 0.  1.
         22    1    1    0    0    0 -0.59861675158E+01 -0.31034410697E+02 -0.12452677821E+02  0.33971135302E+02  0.00000000000E+00 0.  1.
</event>
<event>
 5    1  0.1315753E-009  0.9118800E+02  0.7818608E-02  0.1130116E+00
         25   -1    0    0    0    0  0.00000000000E+00  0.00000000000E+00  0.99999998245E-14  0.12500000000E+03  0.12500000000E+03 0.  0.
        -13    1    3    3    0    0  0.11621671300E+02 -0.52450995133E+02  0.16184274011E+02  0.56108038850E+02  0.10566000000E+00 0.  1.
         23    2    1    0    0    0 -0.49461236745E+01 -0.17255335513E+02  0.23231561705E+02  0.95641590603E+02  0.91024159709E+02 0.  0.
         13    1    3    3    0    0 -0.16567794974E+02  0.35195659620E+02  0.70472876933E+01  0.39533551754E+02  0.10566000000E+00 0. -1.
         22    1    1    0    0    0  0.49461236745E+01  0.17255335513E+02 -0.23231561705E+02  0.29358409397E+02  0.00000000000E+00 0.  1.
</event>
<event>
 5    1  0.1315753E-009  0.9118800E+02  0.7818608E-02  0.1130116E+00
         25   -1    0    0    0    0  0.00000000000E+00  0.00000000000E+00  0.99999998245E-14  0.12500000000E+03  0.12500000000E+03 0.  0.
        -13    1    3    3    0    0  0.46307318382E+02  0.14415063123E+02 -0.33035621796E+02  0.58681558024E+02  0.10566000000E+00 0. -1.
         23    2    1    0    0    0  0.23510365348E+02 -0.84796225632E+01 -0.17182765308E+02  0.94670332985E+02  0.89680450748E+02 0.  0.
         13    1    3    3    0    0 -0.22796953035E+02 -0.22894685686E+02  0.15852856488E+02  0.35988774961E+02  0.10566000000E+00 0.  1.
         22    1    1    0    0    0 -0.23510365348E+02  0.84796225632E+01  0.17182765308E+02  0.30329667015E+02  0.00000000000E+00 0. -1.
</event>
<event>
 5    1  0.1315753E-009  0.9118800E+02  0.7818608E-02  0.1130116E+00
         25   -1    0    0    0    0  0.00000000000E+00  0.00000000000E+00  0.99999998245E-14  0.12500000000E+03  0.12500000000E+03 0.  0.
        -13    1    3    3    0    0  0.60225342829E+01  0.57142372178E+02  0.63330162347E+01  0.57806918929E+02  0.10566000000E+00 0. -1.
         23    2    1    0    0    0  0.19754555027E+02  0.25694230741E+02  0.69886577869E+00  0.92582036599E+02  0.86720869170E+02 0.  0.
         13    1    3    3    0    0  0.13732020744E+02 -0.31448141437E+02 -0.56341504560E+01  0.34775117670E+02  0.10566000000E+00 0.  1.
         22    1    1    0    0    0 -0.19754555027E+02 -0.25694230741E+02 -0.69886577869E+00  0.32417963401E+02  0.00000000000E+00 0. -1.
</event>
<event>
 5    1  0.1315753E-009  0.9118800E+02  0.7818608E-02  0.1130116E+00
         25   -1    0    0    0    0  0.00000000000E+00  0.00000000000E+00  0.99999998245E-14  0.12500000000E+03  0.12500000000E+03 0.  0.
        -13    1    3    3    0    0 -0.11490473433E+02  0.22462192187E+02  0.35017631046E+02  0.43160476198E+02  0.10566000000E+00 0. -1.
         23    2    1    0    0    0  0.20366915556E+02  0.20570203227E+02 -0.63070246775E+01  0.95373608550E+02  0.90655403245E+02 0.  0.
         13    1    3    3    0    0  0.31857388989E+02 -0.18919889600E+01 -0.41324655723E+02  0.52213132353E+02  0.10566000000E+00 0.  1.
         22    1    1    0    0    0 -0.20366915556E+02 -0.20570203227E+02  0.63070246775E+01  0.29626391450E+02  0.00000000000E+00 0.  1.
</event>
<event>
 5    1  0.1315753E-009  0.9118800E+02  0.7818608E-02  0.1130116E+00
         25   -1    0    0    0    0  0.00000000000E+00  0.00000000000E+00  0.99999998245E-14  0.12500000000E+03  0.12500000000E+03 0.  0.
        -13    1    3    3    0    0 -0.31712471108E+02 -0.84147191737E+01  0.36687377272E+02  0.49218524335E+02  0.10566000000E+00 0.  1.
         23    2    1    0    0    0  0.13713933296E+02 -0.81705372612E+01  0.23626699548E+02  0.96485958246E+02  0.92176404582E+02 0.  0.
         13    1    3    3    0    0  0.45426404405E+02  0.24418191249E+00 -0.13060677724E+02  0.47267433912E+02  0.10566000000E+00 0. -1.
         22    1    1    0    0    0 -0.13713933296E+02  0.81705372612E+01 -0.23626699548E+02  0.28514041754E+02  0.00000000000E+00 0.  1.
</event>
<event>
 5    1  0.1315753E-009  0.9118800E+02  0.7818608E-02  0.1130116E+00
         25   -1    0    0    0    0  0.00000000000E+00  0.00000000000E+00  0.99999998245E-14  0.12500000000E+03  0.12500000000E+03 0.  0.
        -13    1    3    3    0    0  0.41407689886E+02  0.23957908375E+02  0.14215485412E+02  0.49906606225E+02  0.10566000000E+00 0. -1.
         23    2    1    0    0    0  0.17538319891E+02 -0.17843995441E+02  0.43863049001E+00  0.99976146688E+02  0.96793784263E+02 0.  0.
         13    1    3    3    0    0 -0.23869369995E+02 -0.41801903816E+02 -0.13776854922E+02  0.50069540463E+02  0.10566000000E+00 0.  1.
         22    1    1    0    0    0 -0.17538319891E+02  0.17843995441E+02 -0.43863049001E+00  0.25023853312E+02  0.00000000000E+00 0.  1.
</event>
<event>
 5    1  0.1315753E-009  0.9118800E+02  0.7818608E-02  0.1130116E+00
         25   -1    0    0    0    0  0.00000000000E+00  0.00000000000E+00  0.99999998245E-14  0.12500000000E+03  0.12500000000E+03 0.  0.
        -13    1    3    3    0    0  0.40373789420E+02 -0.61969050523E+01 -0.73293654280E+00  0.40853309099E+02  0.10566000000E+00 0.  1.
         23    2    1    0    0    0 -0.51514227192E+01  0.38282889266E+01 -0.28951892480E+02  0.95345235959E+02  0.90616273316E+02 0.  0.
         13    1    3    3    0    0 -0.45525212139E+02  0.10025193979E+02 -0.28218955938E+02  0.54491926860E+02  0.10566000000E+00 0. -1.
         22    1    1    0    0    0  0.51514227192E+01 -0.38282889266E+01  0.28951892480E+02  0.29654764041E+02  0.00000000000E+00 0. -1.
</event>
<event>
 5    1  0.1315753E-009  0.9118800E+02  0.7818608E-02  0.1130116E+00
         25   -1    0    0    0    0  0.00000000000E+00  0.00000000000E+00  0.99999998245E-14  0.12500000000E+03  0.12500000000E+03 0.  0.
        -13    1    3    3    0    0 -0.21294117355E+01  0.37727598268E+02 -0.96804989216E+01  0.39008066971E+02  0.10566000000E+00 0.  1.
         23    2    1    0    0    0  0.24842392611E+02 -0.11333967055E+02 -0.12290522601E+02  0.95055714641E+02  0.90216011108E+02 0.  0.
         13    1    3    3    0    0  0.26971804347E+02 -0.49061565323E+02 -0.26100236797E+01  0.56047647670E+02  0.10566000000E+00 0. -1.
         22    1    1    0    0    0 -0.24842392611E+02  0.11333967055E+02  0.12290522601E+02  0.29944285359E+02  0.00000000000E+00 0. -1.
</event>
<event>
 5    1  0.1315753E-009  0.9118800E+02  0.7818608E-02  0.1130116E+00
         25   -1    0    0    0    0  0.00000000000E+00  0.00000000000E+00  0.99999998245E-14  0.12500000000E+03  0.12500000000E+03 0.  0.
        -13    1    3    3    0    0  0.11206889194E+02  0.22890036317E+02 -0.22541143576E+02  0.34024438948E+02  0.10566000000E+00 0.  1.
         23    2    1    0    0    0 -0.15381199869E+02 -0.19741003947E+02  0.14161499420E+02  0.96245233229E+02  0.91849378371E+02 0.  0.
         13    1    3    3    0    0 -0.26588089063E+02 -0.42631040264E+02  0.36702642996E+02  0.62220794281E+02  0.10566000000E+00 0. -1.
         22    1    1    0    0    0  0.15381199869E+02  0.19741003947E+02 -0.14161499420E+02  0.28754766771E+02  0.00000000000E+00 0. -1.
</event>
<event>
 5    1  0.1315753E-009  0.9118800E+02  0.7818608E-02  0.1130116E+00
         25   -1    0    0    0    0  0.00000000000E+00  0.00000000000E+00  0.99999998245E-14  0.12500000000E+03  0.12500000000E+03 0.  0.
        -13    1    3    3    0    0  0.15536149188E+02 -0.22153906449E+02 -0.56159341525E+02  0.62338193005E+02  0.10566000000E+00 0.  1.
         23    2    1    0    0    0  0.78975621784E+01 -0.16371558797E+02 -0.35186041175E+02  0.85396251195E+02  0.75657536299E+02 0.  0.
         13    1    3    3    0    0 -0.76385870101E+01  0.57823476523E+01  0.20973300350E+02  0.23058058190E+02  0.10566000000E+00 0. -1.
         22    1    1    0    0    0 -0.78975621784E+01  0.16371558797E+02  0.35186041175E+02  0.39603748805E+02  0.00000000000E+00 0.  1.
</event>
<event>
 5    1  0.1315753E-009  0.9118800E+02  0.7818608E-02  0.1130116E+00
         25   -1    0    0    0    0  0.00000000000E+00  0.00000000000E+00  0.99999998245E-14  0.12500000000E+03  0.12500000000E+03 0.  0.
        -13    1    3    3    0    0 -0.26799430944E+01  0.41245391074E+02 -0.99370867995E+01  0.42510248623E+02  0.10566000000E+00 0.  1.
         23    2    1    0    0    0 -0.19739705183E+02 -0.13118518271E+02  0.34747309235E+01  0.10104535040E+03  0.98164849110E+02 0.  0.
         13    1    3    3    0    0 -0.17059762088E+02 -0.54363909345E+02  0.13411817723E+02  0.58535101780E+02  0.10566000000E+00 0. -1.
         22    1    1    0    0    0  0.19739705183E+02  0.13118518271E+02 -0.34747309235E+01  0.23954649597E+02  0.00000000000E+00 0. -1.
</event>
<event>
 5    1  0.1315753E-009  0.9118800E+02  0.7818608E-02  0.1130116E+00
         25   -1    0    0    0    0  0.00000000000E+00  0.00000000000E+00  0.99999998245E-14  0.12500000000E+03  0.12500000000E+03 0.  0.
        -13    1    3    3    0    0  0.21697092073E+02  0.80218718107E+01 -0.53681816210E+02  0.58453937313E+02  0.10566000000E+00 0. -1.
         23    2    1    0    0    0 -0.15584046025E+01  0.14698018884E+02 -0.24784976879E+02  0.96142497286E+02  0.91709456009E+02 0.  0.
         13    1    3    3    0    0 -0.23255496676E+02  0.66761470737E+01  0.28896839332E+02  0.37688559972E+02  0.10566000000E+00 0.  1.
         22    1    1    0    0    0  0.15584046025E+01 -0.14698018884E+02  0.24784976879E+02  0.28857502714E+02  0.00000000000E+00 0. -1.
</event>
<event>
 5    1  0.1315753E-009  0.9118800E+02  0.7818608E-02  0.1130116E+00
         25   -1    0    0    0    0  0.00000000000E+00  0.00000000000E+00  0.99999998245E-14  0.12500000000E+03  0.12500000000E+03 0.  0.
        -13    1    3    3    0    0 -0.20743876796E+01 -0.40884893201E+02  0.15754277504E+02  0.43864404703E+02  0.10566000000E+00 0. -1.
         23    2    1    0    0    0 -0.24962652127E+02  0.72464377919E+01  0.85004177680E+01  0.97652203670E+02  0.93744604738E+02 0.  0.
         13    1    3    3    0    0 -0.22888264448E+02  0.48131330993E+02 -0.72538597359E+01  0.53787798966E+02  0.10566000000E+00 0.  1.
         22    1    1    0    0    0  0.24962652127E+02 -0.72464377919E+01 -0.85004177680E+01  0.27347796330E+02  0.00000000000E+00 0.  1.
</event>
<event>
 5    1  0.1315753E-009  0.9118800E+02  0.7818608E-02  0.1130116E+00
         25   -1    0    0    0    0  0.00000000000E+00  0.00000000000E+00  0.99999998245E-14  0.12500000000E+03  0.12500000000E+03 0.  0.
        -13    1    3    3    0    0  0.12343129576E+02  0.35241861150E+02  0.38761007008E+02  0.53821635551E+02  0.10566000000E+00 0.  1.
         23    2    1    0    0    0  0.56904325831E+01  0.27323265686E+02 -0.30790838802E+01  0.96921135559E+02  0.92764669405E+02 0.  0.
         13    1    3    3    0    0 -0.66526969928E+01 -0.79185954637E+01 -0.41840090888E+02  0.43099500008E+02  0.10566000000E+00 0. -1.
         22    1    1    0    0    0 -0.56904325831E+01 -0.27323265686E+02  0.30790838802E+01  0.28078864441E+02  0.00000000000E+00 0.  1.
</event>
<event>
 5    1  0.1315753E-009  0.9118800E+02  0.7818608E-02  0.1130116E+00
         25   -1    0    0    0    0  0.00000000000E+00  0.00000000000E+00  0.99999998245E-14  0.12500000000E+03  0.12500000000E+03 0.  0.
        -13    1    3    3    0    0  0.17519058905E+02 -0.33931259322E+02 -0.41003123844E+02  0.56031376148E+02  0.10566000000E+00 0. -1.
         23    2    1    0    0    0  0.24263686852E+02 -0.22341023502E+02 -0.88774492028E+01  0.90843639902E+02  0.84177847296E+02 0.  0.
         13    1    3    3    0    0  0.67446279477E+01  0.11590235819E+02  0.32125674641E+02  0.34812263754E+02  0.10566000000E+00 0.  1.
         22    1    1    0    0    0 -0.24263686852E+02  0.22341023502E+02  0.88774492028E+01  0.34156360098E+02  0.00000000000E+00 0. -1.
</event>
<event>
 5    1  0.1315753E-009  0.9118800E+02  0.7818608E-02  0.1130116E+00
         25   -1    0    0    0    0  0.00000000000E+00  0.00000000000E+00  0.99999998245E-14  0.12500000000E+03  0.12500000000E+03 0.  0.
        -13    1    3    3    0    0 -0.42533374934E+02 -0.33430121243E+02 -0.35825703922E+00  0.54099912216E+02  0.10566000000E+00 0. -1.
         23    2    1    0    0    0 -0.23471399349E+02  0.68168862722E+01  0.77382443982E+01  0.99362976924E+02  0.95998667860E+02 0.  0.
         13    1    3    3    0    0  0.19061975585E+02  0.40247007516E+02  0.80965014374E+01  0.45263064708E+02  0.10566000000E+00 0.  1.
         22    1    1    0    0    0  0.23471399349E+02 -0.68168862722E+01 -0.77382443982E+01  0.25637023076E+02  0.00000000000E+00 0. -1.
</event>
<event>
 5    1  0.1315753E-009  0.9118800E+02  0.7818608E-02  0.1130116E+00
         25   -1    0    0    0    0  0.00000000000E+00  0.00000000000E+00  0.99999998245E-14  0.12500000000E+03  0.12500000000E+03 0.  0.
        -13    1    3    3    0    0  0.37752871740E+02  0.19532913926E+02 -0.33415819683E+02  0.54068865534E+02  0.10566000000E+00 0.  1.
         23    2    1    0    0    0  0.13982913003E+02 -0.13504928479E+02 -0.20450066642E+02  0.96784575585E+02  0.92580472543E+02 0.  0.
         13    1    3    3    0    0 -0.23769958737E+02 -0.33037842405E+02  0.12965753041E+02  0.42715710051E+02  0.10566000000E+00 0. -1.
         22    1    1    0    0    0 -0.13982913003E+02  0.13504928479E+02  0.20450066642E+02  0.28215424415E+02  0.00000000000E+00 0.  1.
</event>
<event>
 5    1  0.1315753E-009  0.9118800E+02  0.7818608E-02  0.1130116E+00
         25   -1    0    0    0    0  0.00000000000E+00  0.00000000000E+00  0.99999998245E-14  0.12500000000E+03  0.12500000000E+03 0.  0.
        -13    1    3    3    0    0  0.21378003004E+02 -0.14985358522E+02  0.20102314516E+02  0.32949873981E+02  0.10566000000E+00 0.  1.
         23    2    1    0    0    0 -0.18122159428E+02  0.63995522820E+01 -0.22879774549E+02  0.95119387303E+02  0.90304190521E+02 0.  0.
         13    1    3    3    0    0 -0.39500162432E+02  0.21384910804E+02 -0.42982089064E+02  0.62169513322E+02  0.10566000000E+00 0. -1.
         22    1    1    0    0    0  0.18122159428E+02 -0.63995522820E+01  0.22879774549E+02  0.29880612697E+02  0.00000000000E+00 0. -1.
</event>
<event>
 5    1  0.1315753E-009  0.9118800E+02  0.7818608E-02  0.1130116E+00
         25   -1    0    0    0    0  0.00000000000E+00  0.00000000000E+00  0.99999998245E-14  0.12500000000E+03  0.12500000000E+03 0.  0.
        -13    1    3    3    0    0 -0.20197042959E+02 -0.36396926438E+02  0.27134499132E+02  0.49688519857E+02  0.10566000000E+00 0. -1.
         23    2    1    0    0    0 -0.15873027903E+02 -0.17531335342E+02 -0.15645772420E+02  0.96643502891E+02  0.92389803132E+02 0.  0.
         13    1    3    3    0    0  0.43240150562E+01  0.18865591096E+02 -0.42780271551E+02  0.46954983033E+02  0.10566000000E+00 0.  1.
         22    1    1    0    0    0  0.15873027903E+02  0.17531335342E+02  0.15645772420E+02  0.28356497109E+02  0.00000000000E+00 0.  1.
</event>
<event>
 5    1  0.1315753E-009  0.9118800E+02  0.7818608E-02  0.1130116E+00
         25   -1    0    0    0    0  0.00000000000E+00  0.00000000000E+00  0.99999998245E-14  0.12500000000E+03  0.12500000000E+03 0.  0.
        -13    1    3    3    0    0 -0.23827725022E+02 -0.21437770765E+02  0.13925023582E+02  0.34946472510E+02  0.10566000000E+00 0.  1.
         23    2    1    0    0    0  0.86192614007E+01  0.27630590916E+02 -0.22878113028E+01  0.95965963043E+02  0.91468523334E+02 0.  0.
         13    1    3    3    0    0  0.32446986423E+02  0.49068361681E+02 -0.16212834885E+02  0.61019490533E+02  0.10566000000E+00 0. -1.
         22    1    1    0    0    0 -0.86192614007E+01 -0.27630590916E+02  0.22878113028E+01  0.29034036957E+02  0.00000000000E+00 0. -1.
</event>
<event>
 5    1  0.1315753E-009  0.9118800E+02  0.7818608E-02  0.1130116E+00
         25   -1    0    0    0    0  0.00000000000E+00  0.00000000000E+00  0.99999998245E-14  0.12500000000E+03  0.12500000000E+03 0.  0.
        -13    1    3    3    0    0 -0.33233784615E+02  0.80556918437E+01 -0.93069175128E+01  0.35440210052E+02  0.10566000000E+00 0.  1.
         23    2    1    0    0    0  0.17126041891E+02 -0.11820947392E+02  0.19251456524E+02  0.96651196032E+02  0.92400211082E+02 0.  0.
         13    1    3    3    0    0  0.50359826506E+02 -0.19876639235E+02  0.28558374037E+02  0.61210985980E+02  0.10566000000E+00 0. -1.
         22    1    1    0    0    0 -0.17126041891E+02  0.11820947392E+02 -0.19251456524E+02  0.28348803968E+02  0.00000000000E+00 0. -1.
</event>
<event>
 5    1  0.1315753E-009  0.9118800E+02  0.7818608E-02  0.1130116E+00
         25   -1    0    0    0    0  0.00000000000E+00  0.00000000000E+00  0.99999998245E-14  0.12500000000E+03  0.12500000000E+03 0.  0.
        -13    1    3    3    0    0  0.46860365760E+02 -0.25843644730E+02 -0.20909934609E+02  0.57454541871E+02  0.10566000000E+00 0.  1.
         23    2    1    0    0    0  0.13083973810E+02 -0.25835085885E+02 -0.24732966082E+01  0.95935257967E+02  0.91426552444E+02 0.  0.
         13    1    3    3    0    0 -0.33776391951E+02  0.85588456729E-02  0.18436638001E+02  0.38480716096E+02  0.10566000000E+00 0. -1.
         22    1    1    0    0    0 -0.13083973810E+02  0.25835085885E+02  0.24732966082E+01  0.29064742033E+02  0.00000000000E+00 0.  1.
</event>
<event>
 5    1  0.1315753E-009  0.9118800E+02  0.7818608E-02  0.1130116E+00
         25   -1    0    0    0    0  0.00000000000E+00  0.00000000000E+00  0.99999998245E-14  0.12500000000E+03  0.12500000000E+03 0.  0.
        -13    1    3    3    0    0 -0.15057308828E+02 -0.35867545956E+02  0.39571868207E+02  0.55490065052E+02  0.10566000000E+00 0.  1.
         23    2    1    0    0    0  0.11706953458E+02 -0.93241400978E+01  0.24917847561E+02  0.95932983041E+02  0.91423442071E+02 0.  0.
         13    1    3    3    0    0  0.26764262286E+02  0.26543405859E+02 -0.14654020646E+02  0.40442917988E+02  0.10566000000E+00 0. -1.
         22    1    1    0    0    0 -0.11706953458E+02  0.93241400978E+01 -0.24917847561E+02  0.29067016959E+02  0.00000000000E+00 0.  1.
</event>
<event>
 5    1  0.1315753E-009  0.9118800E+02  0.7818608E-02  0.1130116E+00
         25   -1    0    0    0    0  0.00000000000E+00  0.00000000000E+00  0.99999998245E-14  0.12500000000E+03  0.12500000000E+03 0.  0.
        -13    1    3    3    0    0 -0.20468668522E+02 -0.20248490175E+02 -0.28753486591E+02  0.40690808551E+02  0.10566000000E+00 0. -1.
         23    2    1    0    0    0  0.17271678768E+01 -0.17304857433E+02  0.22465397971E+02  0.96589873185E+02  0.92317215601E+02 0.  0.
         13    1    3    3    0    0  0.22195836399E+02  0.29436327417E+01  0.51218884562E+02  0.55899064634E+02  0.10566000000E+00 0.  1.
         22    1    1    0    0    0 -0.17271678768E+01  0.17304857433E+02 -0.22465397971E+02  0.28410126815E+02  0.00000000000E+00 0.  1.
</event>
<event>
 5    1  0.1315753E-009  0.9118800E+02  0.7818608E-02  0.1130116E+00
         25   -1    0    0    0    0  0.00000000000E+00  0.00000000000E+00  0.99999998245E-14  0.12500000000E+03  0.12500000000E+03 0.  0.
        -13    1    3    3    0    0  0.11061195931E+02  0.23126094205E+02  0.53412989311E+02  0.59246306887E+02  0.10566000000E+00 0.  1.
         23    2    1    0    0    0 -0.76293684737E+01  0.16865284569E+02  0.23209560446E+02  0.95312817867E+02  0.90571543361E+02 0.  0.
         13    1    3    3    0    0 -0.18690564405E+02 -0.62608096364E+01 -0.30203428864E+02  0.36066510980E+02  0.10566000000E+00 0. -1.
         22    1    1    0    0    0  0.76293684737E+01 -0.16865284569E+02 -0.23209560446E+02  0.29687182133E+02  0.00000000000E+00 0.  1.
</event>
<event>
 5    1  0.1315753E-009  0.9118800E+02  0.7818608E-02  0.1130116E+00
         25   -1    0    0    0    0  0.00000000000E+00  0.00000000000E+00  0.99999998245E-14  0.12500000000E+03  0.12500000000E+03 0.  0.
        -13    1    3    3    0    0 -0.96495603953E+01 -0.95388440990E+01 -0.37704570051E+02  0.40071802173E+02  0.10566000000E+00 0.  1.
         23    2    1    0    0    0  0.22877951746E+02 -0.20330305605E+02  0.40913616024E+01  0.94121832278E+02  0.88912642912E+02 0.  0.
         13    1    3    3    0    0  0.32527512142E+02 -0.10791461506E+02  0.41795931654E+02  0.54050030105E+02  0.10566000000E+00 0. -1.
         22    1    1    0    0    0 -0.22877951746E+02  0.20330305605E+02 -0.40913616024E+01  0.30878167722E+02  0.00000000000E+00 0. -1.
</event>
<event>
 5    1  0.1315753E-009  0.9118800E+02  0.7818608E-02  0.1130116E+00
         25   -1    0    0    0    0  0.00000000000E+00  0.00000000000E+00  0.99999998245E-14  0.12500000000E+03  0.12500000000E+03 0.  0.
        -13    1    3    3    0    0  0.41681912073E+02 -0.77293176825E+00  0.10040216659E+02  0.42881188558E+02  0.10566000000E+00 0.  1.
         23    2    1    0    0    0 -0.54258930067E+01  0.49740557512E+01  0.29812273232E+02  0.94292457266E+02  0.89152197485E+02 0.  0.
         13    1    3    3    0    0 -0.47107805080E+02  0.57469875195E+01  0.19772056573E+02  0.51411268708E+02  0.10566000000E+00 0. -1.
         22    1    1    0    0    0  0.54258930067E+01 -0.49740557512E+01 -0.29812273232E+02  0.30707542734E+02  0.00000000000E+00 0.  1.
</event>
<event>
 5    1  0.1315753E-009  0.9118800E+02  0.7818608E-02  0.1130116E+00
         25   -1    0    0    0    0  0.00000000000E+00  0.00000000000E+00  0.99999998245E-14  0.12500000000E+03  0.12500000000E+03 0.  0.
        -13    1    3    3    0    0 -0.34914808635E+02  0.91949857099E+01 -0.18011190222E+02  0.40348553400E+02  0.10566000000E+00 0.  1.
         23    2    1    0    0    0 -0.73230592508E+01 -0.14290051083E+02  0.24186990443E+02  0.95968236990E+02  0.91471630835E+02 0.  0.
         13    1    3    3    0    0  0.27591749384E+02 -0.23485036793E+02  0.42198180665E+02  0.55619683591E+02  0.10566000000E+00 0. -1.
         22    1    1    0    0    0  0.73230592508E+01  0.14290051083E+02 -0.24186990443E+02  0.29031763010E+02  0.00000000000E+00 0. -1.
</event>
<event>
 5    1  0.1315753E-009  0.9118800E+02  0.7818608E-02  0.1130116E+00
         25   -1    0    0    0    0  0.00000000000E+00  0.00000000000E+00  0.99999998245E-14  0.12500000000E+03  0.12500000000E+03 0.  0.
        -13    1    3    3    0    0 -0.26193054392E+02 -0.56042676569E+02  0.83049986330E+01  0.62416679356E+02  0.10566000000E+00 0.  1.
         23    2    1    0    0    0 -0.12133766694E+02 -0.26984072416E+02  0.62303332494E+01  0.94764499165E+02  0.89811607219E+02 0.  0.
         13    1    3    3    0    0  0.14059287698E+02  0.29058604154E+02 -0.20746653836E+01  0.32347819810E+02  0.10566000000E+00 0. -1.
         22    1    1    0    0    0  0.12133766694E+02  0.26984072416E+02 -0.62303332494E+01  0.30235500835E+02  0.00000000000E+00 0.  1.
</event>
<event>
 5    1  0.1315753E-009  0.9118800E+02  0.7818608E-02  0.1130116E+00
         25   -1    0    0    0    0  0.00000000000E+00  0.00000000000E+00  0.99999998245E-14  0.12500000000E+03  0.12500000000E+03 0.  0.
        -13    1    3    3    0    0  0.43494341625E+02  0.29529162624E+02  0.31609556666E+02  0.61342517354E+02  0.10566000000E+00 0.  1.
         23    2    1    0    0    0  0.25289730906E+02  0.14009563115E+02  0.78874315950E+01  0.95032518872E+02  0.90183866174E+02 0.  0.
         13    1    3    3    0    0 -0.18204610720E+02 -0.15519599509E+02 -0.23722125071E+02  0.33690001518E+02  0.10566000000E+00 0. -1.
         22    1    1    0    0    0 -0.25289730906E+02 -0.14009563115E+02 -0.78874315950E+01  0.29967481128E+02  0.00000000000E+00 0.  1.
</event>
<event>
 5    1  0.1315753E-009  0.9118800E+02  0.7818608E-02  0.1130116E+00
         25   -1    0    0    0    0  0.00000000000E+00  0.00000000000E+00  0.99999998245E-14  0.12500000000E+03  0.12500000000E+03 0.  0.
        -13    1    3    3    0    0  0.53753186459E+02 -0.18460841144E+01 -0.29625675953E+02  0.61404437305E+02  0.10566000000E+00 0.  1.
         23    2    1    0    0    0  0.31810825844E+02 -0.37105451933E+01 -0.86295840443E+01  0.91831241999E+02  0.85631831113E+02 0.  0.
         13    1    3    3    0    0 -0.21942360614E+02 -0.18644610789E+01  0.20996091909E+02  0.30426804695E+02  0.10566000000E+00 0. -1.
         22    1    1    0    0    0 -0.31810825844E+02  0.37105451933E+01  0.86295840443E+01  0.33168758001E+02  0.00000000000E+00 0.  1.
</event>
<event>
 5    1  0.1315753E-009  0.9118800E+02  0.7818608E-02  0.1130116E+00
         25   -1    0    0    0    0  0.00000000000E+00  0.00000000000E+00  0.99999998245E-14  0.12500000000E+03  0.12500000000E+03 0.  0.
        -13    1    3    3    0    0  0.33727112898E+02 -0.19219170763E+02 -0.12475192738E+02  0.40774210809E+02  0.10566000000E+00 0. -1.
         23    2    1    0    0    0  0.33856684284E+01  0.26509502124E+02 -0.12121857660E+02  0.95654542316E+02  0.91041944064E+02 0.  0.
         13    1    3    3    0    0 -0.30341444470E+02  0.45728672887E+02  0.35333507782E+00  0.54880331506E+02  0.10566000000E+00 0.  1.
         22    1    1    0    0    0 -0.33856684284E+01 -0.26509502124E+02  0.12121857660E+02  0.29345457684E+02  0.00000000000E+00 0. -1.
</event>
<event>
 5    1  0.1315753E-009  0.9118800E+02  0.7818608E-02  0.1130116E+00
         25   -1    0    0    0    0  0.00000000000E+00  0.00000000000E+00  0.99999998245E-14  0.12500000000E+03  0.12500000000E+03 0.  0.
        -13    1    3    3    0    0 -0.14269747423E+02 -0.20807970129E+02  0.18314307956E+02  0.31177273010E+02  0.10566000000E+00 0. -1.
         23    2    1    0    0    0  0.21282920206E+02  0.11973512939E+02 -0.20444326897E+02  0.93151951286E+02  0.87538493370E+02 0.  0.
         13    1    3    3    0    0  0.35552667629E+02  0.32781483069E+02 -0.38758634853E+02  0.61974678276E+02  0.10566000000E+00 0.  1.
         22    1    1    0    0    0 -0.21282920206E+02 -0.11973512939E+02  0.20444326897E+02  0.31848048714E+02  0.00000000000E+00 0.  1.
</event>
<event>
 5    1  0.1315753E-009  0.9118800E+02  0.7818608E-02  0.1130116E+00
         25   -1    0    0    0    0  0.00000000000E+00  0.00000000000E+00  0.99999998245E-14  0.12500000000E+03  0.12500000000E+03 0.  0.
        -13    1    3    3    0    0  0.27695474090E+02 -0.37924815679E+02 -0.30843858616E+01  0.47062251641E+02  0.10566000000E+00 0.  1.
         23    2    1    0    0    0  0.29076915931E+02 -0.65230959292E+01  0.22556277237E+02  0.87626166060E+02  0.79256176510E+02 0.  0.
         13    1    3    3    0    0  0.13814418410E+01  0.31401719750E+02  0.25640663099E+02  0.40563914419E+02  0.10566000000E+00 0. -1.
         22    1    1    0    0    0 -0.29076915931E+02  0.65230959292E+01 -0.22556277237E+02  0.37373833940E+02  0.00000000000E+00 0. -1.
</event>
<event>
 5    1  0.1315753E-009  0.9118800E+02  0.7818608E-02  0.1130116E+00
         25   -1    0    0    0    0  0.00000000000E+00  0.00000000000E+00  0.99999998245E-14  0.12500000000E+03  0.12500000000E+03 0.  0.
        -13    1    3    3    0    0 -0.67325934019E+01  0.17086221403E+02 -0.51214958181E+02  0.54408178441E+02  0.10566000000E+00 0. -1.
         23    2    1    0    0    0  0.11214891935E+02 -0.85242621665E+01 -0.28972088004E+02  0.92784805916E+02  0.87012651258E+02 0.  0.
         13    1    3    3    0    0  0.17947485337E+02 -0.25610483569E+02  0.22242870178E+02  0.38376627475E+02  0.10566000000E+00 0.  1.
         22    1    1    0    0    0 -0.11214891935E+02  0.85242621665E+01  0.28972088004E+02  0.32215194084E+02  0.00000000000E+00 0. -1.
</event>
<event>
 5    1  0.1315753E-009  0.9118800E+02  0.7818608E-02  0.1130116E+00
         25   -1    0    0    0    0  0.00000000000E+00  0.00000000000E+00  0.99999998245E-14  0.12500000000E+03  0.12500000000E+03 0.  0.
        -13    1    3    3    0    0 -0.41347488321E+02 -0.16717625363E+02  0.16863765835E+02  0.47681144601E+02  0.10566000000E+00 0.  1.
         23    2    1    0    0    0  0.48465841399E+01 -0.26339651203E+02  0.13556534208E+02  0.94982568013E+02  0.90114604828E+02 0.  0.
         13    1    3    3    0    0  0.46194072461E+02 -0.96220258402E+01 -0.33072316267E+01  0.47301423413E+02  0.10566000000E+00 0. -1.
         22    1    1    0    0    0 -0.48465841399E+01  0.26339651203E+02 -0.13556534208E+02  0.30017431987E+02  0.00000000000E+00 0.  1.
</event>
<event>
 5    1  0.1315753E-009  0.9118800E+02  0.7818608E-02  0.1130116E+00
         25   -1    0    0    0    0  0.00000000000E+00  0.00000000000E+00  0.99999998245E-14  0.12500000000E+03  0.12500000000E+03 0.  0.
        -13    1    3    3    0    0 -0.28900973341E+01 -0.16823488944E+02  0.32176706031E+02  0.36424360226E+02  0.10566000000E+00 0.  1.
         23    2    1    0    0    0 -0.11861041489E+02  0.17887185342E+02 -0.17236262853E+02  0.97473204658E+02  0.93505621031E+02 0.  0.
         13    1    3    3    0    0 -0.89709441548E+01  0.34710674286E+02 -0.49412968884E+02  0.61048844431E+02  0.10566000000E+00 0. -1.
         22    1    1    0    0    0  0.11861041489E+02 -0.17887185342E+02  0.17236262853E+02  0.27526795342E+02  0.00000000000E+00 0. -1.
</event>
<event>
 5    1  0.1315753E-009  0.9118800E+02  0.7818608E-02  0.1130116E+00
         25   -1    0    0    0    0  0.00000000000E+00  0.00000000000E+00  0.99999998245E-14  0.12500000000E+03  0.12500000000E+03 0.  0.
        -13    1    3    3    0    0 -0.34202418033E+02 -0.11836280742E+02  0.12664473394E+02  0.38344530138E+02  0.10566000000E+00 0. -1.
         23    2    1    0    0    0  0.20631314855E+00  0.10375358265E+02 -0.27438609265E+02  0.95664562341E+02  0.91055700454E+02 0.  0.
         13    1    3    3    0    0  0.34408731182E+02  0.22211639006E+02 -0.40103082660E+02  0.57320032203E+02  0.10566000000E+00 0.  1.
         22    1    1    0    0    0 -0.20631314855E+00 -0.10375358265E+02  0.27438609265E+02  0.29335437659E+02  0.00000000000E+00 0.  1.
</event>
<event>
 5    1  0.1315753E-009  0.9118800E+02  0.7818608E-02  0.1130116E+00
         25   -1    0    0    0    0  0.00000000000E+00  0.00000000000E+00  0.99999998245E-14  0.12500000000E+03  0.12500000000E+03 0.  0.
        -13    1    3    3    0    0  0.40404730594E+02  0.11993284997E+02  0.19961464461E+02  0.46635312445E+02  0.10566000000E+00 0. -1.
         23    2    1    0    0    0 -0.10447564468E+02  0.57503234294E+01  0.24176139713E+02  0.98042560317E+02  0.94263673168E+02 0.  0.
         13    1    3    3    0    0 -0.50852295062E+02 -0.62429615680E+01  0.42146752515E+01  0.51407247871E+02  0.10566000000E+00 0.  1.
         22    1    1    0    0    0  0.10447564468E+02 -0.57503234294E+01 -0.24176139713E+02  0.26957439683E+02  0.00000000000E+00 0.  1.
</event>
<event>
 5    1  0.1315753E-009  0.9118800E+02  0.7818608E-02  0.1130116E+00
         25   -1    0    0    0    0  0.00000000000E+00  0.00000000000E+00  0.99999998245E-14  0.12500000000E+03  0.12500000000E+03 0.  0.
        -13    1    3    3    0    0  0.93764365018E+01 -0.18053209024E+02  0.30384018558E+02  0.36565498292E+02  0.10566000000E+00 0.  1.
         23    2    1    0    0    0  0.20352117194E+02 -0.10060175827E+02 -0.23612970044E+02  0.92243501923E+02  0.86231522548E+02 0.  0.
         13    1    3    3    0    0  0.10975680692E+02  0.79930331970E+01 -0.53996988602E+02  0.55678003632E+02  0.10566000000E+00 0. -1.
         22    1    1    0    0    0 -0.20352117194E+02  0.10060175827E+02  0.23612970044E+02  0.32756498077E+02  0.00000000000E+00 0. -1.
</event>
<event>
 5    1  0.1315753E-009  0.9118800E+02  0.7818608E-02  0.1130116E+00
         25   -1    0    0    0    0  0.00000000000E+00  0.00000000000E+00  0.99999998245E-14  0.12500000000E+03  0.12500000000E+03 0.  0.
        -13    1    3    3    0    0  0.54439555150E+00 -0.53134059552E+02 -0.23532777163E+02  0.58114777949E+02  0.10566000000E+00 0. -1.
         23    2    1    0    0    0  0.52985675753E+01 -0.30443534795E+02  0.36986772070E+01  0.93878241659E+02  0.88569523058E+02 0.  0.
         13    1    3    3    0    0  0.47541720238E+01  0.22690524757E+02  0.27231454370E+02  0.35763463710E+02  0.10566000000E+00 0.  1.
         22    1    1    0    0    0 -0.52985675753E+01  0.30443534795E+02 -0.36986772070E+01  0.31121758341E+02  0.00000000000E+00 0. -1.
</event>
<event>
 5    1  0.1315753E-009  0.9118800E+02  0.7818608E-02  0.1130116E+00
         25   -1    0    0    0    0  0.00000000000E+00  0.00000000000E+00  0.99999998245E-14  0.12500000000E+03  0.12500000000E+03 0.  0.
        -13    1    3    3    0    0  0.86490026046E+01  0.18505593849E+02 -0.35989433216E+02  0.41382517046E+02  0.10566000000E+00 0.  1.
         23    2    1    0    0    0  0.54851993711E+01  0.20912620406E+02  0.18820059954E+02  0.96336089571E+02  0.91972943809E+02 0.  0.
         13    1    3    3    0    0 -0.31638032335E+01  0.24070265571E+01  0.54809493170E+02  0.54953572526E+02  0.10566000000E+00 0. -1.
         22    1    1    0    0    0 -0.54851993711E+01 -0.20912620406E+02 -0.18820059954E+02  0.28663910429E+02  0.00000000000E+00 0. -1.
</event>
<event>
 5    1  0.1315753E-009  0.9118800E+02  0.7818608E-02  0.1130116E+00
         25   -1    0    0    0    0  0.00000000000E+00  0.00000000000E+00  0.99999998245E-14  0.12500000000E+03  0.12500000000E+03 0.  0.
        -13    1    3    3    0    0  0.54803529518E+02 -0.92165797479E+01  0.22178653510E+02  0.59835407790E+02  0.10566000000E+00 0. -1.
         23    2    1    0    0    0  0.22085006680E+02  0.40424866191E+01  0.19538000104E+02  0.95237226840E+02  0.90467158185E+02 0.  0.
         13    1    3    3    0    0 -0.32718522838E+02  0.13259066367E+02 -0.26406534061E+01  0.35401819050E+02  0.10566000000E+00 0.  1.
         22    1    1    0    0    0 -0.22085006680E+02 -0.40424866191E+01 -0.19538000104E+02  0.29762773160E+02  0.00000000000E+00 0. -1.
</event>
<event>
 5    1  0.1315753E-009  0.9118800E+02  0.7818608E-02  0.1130116E+00
         25   -1    0    0    0    0  0.00000000000E+00  0.00000000000E+00  0.99999998245E-14  0.12500000000E+03  0.12500000000E+03 0.  0.
        -13    1    3    3    0    0 -0.30343112574E+02 -0.27608676576E+01  0.25530624662E+02  0.39751111061E+02  0.10566000000E+00 0.  1.
         23    2    1    0    0    0  0.30383630453E+01  0.29292343398E+02 -0.49099666675E+01  0.95143998854E+02  0.90338251663E+02 0.  0.
         13    1    3    3    0    0  0.33381475620E+02  0.32053211056E+02 -0.30440591329E+02  0.55392887793E+02  0.10566000000E+00 0. -1.
         22    1    1    0    0    0 -0.30383630453E+01 -0.29292343398E+02  0.49099666675E+01  0.29856001146E+02  0.00000000000E+00 0. -1.
</event>
<event>
 5    1  0.1315753E-009  0.9118800E+02  0.7818608E-02  0.1130116E+00
         25   -1    0    0    0    0  0.00000000000E+00  0.00000000000E+00  0.99999998245E-14  0.12500000000E+03  0.12500000000E+03 0.  0.
        -13    1    3    3    0    0  0.18914031976E+02  0.72197246459E+01  0.21321230779E+01  0.20357360890E+02  0.10566000000E+00 0.  1.
         23    2    1    0    0    0 -0.40529140920E+02 -0.46133884547E+01 -0.11778156436E+02  0.82542732238E+02  0.70786178450E+02 0.  0.
         13    1    3    3    0    0 -0.59443172896E+02 -0.11833113101E+02 -0.13910279514E+02  0.62185371349E+02  0.10566000000E+00 0. -1.
         22    1    1    0    0    0  0.40529140920E+02  0.46133884547E+01  0.11778156436E+02  0.42457267762E+02  0.00000000000E+00 0. -1.
</event>
<event>
 5    1  0.1315753E-009  0.9118800E+02  0.7818608E-02  0.1130116E+00
         25   -1    0    0    0    0  0.00000000000E+00  0.00000000000E+00  0.99999998245E-14  0.12500000000E+03  0.12500000000E+03 0.  0.
        -13    1    3    3    0    0  0.16895404934E+02  0.41694275085E-02 -0.49438518444E+02  0.52245889745E+02  0.10566000000E+00 0.  1.
         23    2    1    0    0    0 -0.17916414941E+02 -0.63387511952E+00 -0.22277873540E+02  0.96404486865E+02  0.92065855322E+02 0.  0.
         13    1    3    3    0    0 -0.34811819875E+02 -0.63804454703E+00  0.27160644904E+02  0.44158597119E+02  0.10566000000E+00 0. -1.
         22    1    1    0    0    0  0.17916414941E+02  0.63387511952E+00  0.22277873540E+02  0.28595513135E+02  0.00000000000E+00 0.  1.
</event>
<event>
 5    1  0.1315753E-009  0.9118800E+02  0.7818608E-02  0.1130116E+00
         25   -1    0    0    0    0  0.00000000000E+00  0.00000000000E+00  0.99999998245E-14  0.12500000000E+03  0.12500000000E+03 0.  0.
        -13    1    3    3    0    0 -0.46573363967E+02 -0.10029811118E+02  0.10639772862E+01  0.47653106446E+02  0.10566000000E+00 0.  1.
         23    2    1    0    0    0 -0.32346173668E+01  0.20684672811E+02 -0.98192598510E+01  0.10187563400E+03  0.99216472929E+02 0.  0.
         13    1    3    3    0    0  0.43338746600E+02  0.30714483929E+02 -0.10883237137E+02  0.54222527556E+02  0.10566000000E+00 0. -1.
         22    1    1    0    0    0  0.32346173668E+01 -0.20684672811E+02  0.98192598510E+01  0.23124365998E+02  0.00000000000E+00 0. -1.
</event>
<event>
 5    1  0.1315753E-009  0.9118800E+02  0.7818608E-02  0.1130116E+00
         25   -1    0    0    0    0  0.00000000000E+00  0.00000000000E+00  0.99999998245E-14  0.12500000000E+03  0.12500000000E+03 0.  0.
        -13    1    3    3    0    0 -0.47419975022E+02 -0.31622072226E+02 -0.23727752971E+02  0.61738374679E+02  0.10566000000E+00 0.  1.
         23    2    1    0    0    0 -0.18692103007E+02 -0.20444658109E+02 -0.92498310671E+01  0.95794895399E+02  0.91234444426E+02 0.  0.
         13    1    3    3    0    0  0.28727872015E+02  0.11177414117E+02  0.14477921904E+02  0.34056520720E+02  0.10566000000E+00 0. -1.
         22    1    1    0    0    0  0.18692103007E+02  0.20444658109E+02  0.92498310671E+01  0.29205104601E+02  0.00000000000E+00 0.  1.
</event>
<event>
 5    1  0.1315753E-009  0.9118800E+02  0.7818608E-02  0.1130116E+00
         25   -1    0    0    0    0  0.00000000000E+00  0.00000000000E+00  0.99999998245E-14  0.12500000000E+03  0.12500000000E+03 0.  0.
        -13    1    3    3    0    0  0.21502311815E+02  0.14520025629E+02  0.48316877483E+02  0.54842614557E+02  0.10566000000E+00 0.  1.
         23    2    1    0    0    0 -0.69080124639E+01  0.20670458767E+02  0.20218002325E+02  0.95271964077E+02  0.90515142486E+02 0.  0.
         13    1    3    3    0    0 -0.28410324279E+02  0.61504331388E+01 -0.28098875159E+02  0.40429349520E+02  0.10566000000E+00 0. -1.
         22    1    1    0    0    0  0.69080124639E+01 -0.20670458767E+02 -0.20218002325E+02  0.29728035923E+02  0.00000000000E+00 0.  1.
</event>
<event>
 5    1  0.1315753E-009  0.9118800E+02  0.7818608E-02  0.1130116E+00
         25   -1    0    0    0    0  0.00000000000E+00  0.00000000000E+00  0.99999998245E-14  0.12500000000E+03  0.12500000000E+03 0.  0.
        -13    1    3    3    0    0  0.41151804995E+02 -0.22007945768E+01 -0.12821672048E+02  0.43159251491E+02  0.10566000000E+00 0. -1.
         23    2    1    0    0    0 -0.18388118122E+01  0.27774011986E+02 -0.91632822603E+01  0.95695687818E+02  0.91098419055E+02 0.  0.
         13    1    3    3    0    0 -0.42990616808E+02  0.29974806563E+02  0.36583897874E+01  0.52536436326E+02  0.10566000000E+00 0.  1.
         22    1    1    0    0    0  0.18388118122E+01 -0.27774011986E+02  0.91632822603E+01  0.29304312182E+02  0.00000000000E+00 0. -1.
</event>
<event>
 5    1  0.1315753E-009  0.9118800E+02  0.7818608E-02  0.1130116E+00
         25   -1    0    0    0    0  0.00000000000E+00  0.00000000000E+00  0.99999998245E-14  0.12500000000E+03  0.12500000000E+03 0.  0.
        -13    1    3    3    0    0  0.33077590986E+02  0.46093926417E+02  0.71058988047E+01  0.57177635836E+02  0.10566000000E+00 0.  1.
         23    2    1    0    0    0  0.27564982128E+02  0.77618219645E+01  0.13340109358E+01  0.96332009050E+02  0.91967397824E+02 0.  0.
         13    1    3    3    0    0 -0.55126088584E+01 -0.38332104452E+02 -0.57718878690E+01  0.39154373214E+02  0.10566000000E+00 0. -1.
         22    1    1    0    0    0 -0.27564982128E+02 -0.77618219645E+01 -0.13340109358E+01  0.28667990950E+02  0.00000000000E+00 0.  1.
</event>
<event>
 5    1  0.1315753E-009  0.9118800E+02  0.7818608E-02  0.1130116E+00
         25   -1    0    0    0    0  0.00000000000E+00  0.00000000000E+00  0.99999998245E-14  0.12500000000E+03  0.12500000000E+03 0.  0.
        -13    1    3    3    0    0  0.38305215892E+02 -0.21563676933E+02 -0.22265761478E+02  0.49275318625E+02  0.10566000000E+00 0.  1.
         23    2    1    0    0    0 -0.43144584344E+00  0.29340193313E+01 -0.29217250446E+02  0.95632631399E+02  0.91011855544E+02 0.  0.
         13    1    3    3    0    0 -0.38736661736E+02  0.24497696264E+02 -0.69514889684E+01  0.46357312773E+02  0.10566000000E+00 0. -1.
         22    1    1    0    0    0  0.43144584344E+00 -0.29340193313E+01  0.29217250446E+02  0.29367368601E+02  0.00000000000E+00 0.  1.
</event>
<event>
 5    1  0.1315753E-009  0.9118800E+02  0.7818608E-02  0.1130116E+00
         25   -1    0    0    0    0  0.00000000000E+00  0.00000000000E+00  0.99999998245E-14  0.12500000000E+03  0.12500000000E+03 0.  0.
        -13    1    3    3    0    0 -0.38868141961E+02  0.13540213632E+02  0.12334283215E+02  0.42967610490E+02  0.10566000000E+00 0.  1.
         23    2    1    0    0    0 -0.13244580275E+02 -0.17673371559E+02 -0.20386548409E+02  0.94943747324E+02  0.90060739676E+02 0.  0.
         13    1    3    3    0    0  0.25623561686E+02 -0.31213585191E+02 -0.32720831624E+02  0.51976136834E+02  0.10566000000E+00 0. -1.
         22    1    1    0    0    0  0.13244580275E+02  0.17673371559E+02  0.20386548409E+02  0.30056252676E+02  0.00000000000E+00 0. -1.
</event>
<event>
 5    1  0.1315753E-009  0.9118800E+02  0.7818608E-02  0.1130116E+00
         25   -1    0    0    0    0  0.00000000000E+00  0.00000000000E+00  0.99999998245E-14  0.12500000000E+03  0.12500000000E+03 0.  0.
        -13    1    3    3    0    0  0.53644656557E+01  0.38035744917E+02 -0.30612903530E+02  0.49118798945E+02  0.10566000000E+00 0.  1.
         23    2    1    0    0    0 -0.21434115987E+02  0.10269195471E+01 -0.19177131877E+02  0.96220870775E+02  0.91816216943E+02 0.  0.
         13    1    3    3    0    0 -0.26798581643E+02 -0.37008825370E+02  0.11435771653E+02  0.47102071830E+02  0.10566000000E+00 0. -1.
         22    1    1    0    0    0  0.21434115987E+02 -0.10269195471E+01  0.19177131877E+02  0.28779129225E+02  0.00000000000E+00 0. -1.
</event>
<event>
 5    1  0.1315753E-009  0.9118800E+02  0.7818608E-02  0.1130116E+00
         25   -1    0    0    0    0  0.00000000000E+00  0.00000000000E+00  0.99999998245E-14  0.12500000000E+03  0.12500000000E+03 0.  0.
        -13    1    3    3    0    0 -0.17729410134E+02 -0.21185046717E+02  0.42093791946E+02  0.50349147684E+02  0.10566000000E+00 0.  1.
         23    2    1    0    0    0  0.57893819044E+01 -0.29111864472E+02  0.39907854492E+02  0.75264153309E+02  0.56489276214E+02 0.  0.
         13    1    3    3    0    0  0.23518792039E+02 -0.79268177555E+01 -0.21859374537E+01  0.24915005624E+02  0.10566000000E+00 0. -1.
         22    1    1    0    0    0 -0.57893819044E+01  0.29111864472E+02 -0.39907854492E+02  0.49735846691E+02  0.00000000000E+00 0. -1.
</event>
<event>
 5    1  0.1315753E-009  0.9118800E+02  0.7818608E-02  0.1130116E+00
         25   -1    0    0    0    0  0.00000000000E+00  0.00000000000E+00  0.99999998245E-14  0.12500000000E+03  0.12500000000E+03 0.  0.
        -13    1    3    3    0    0 -0.37404910348E+02 -0.35078815340E+02 -0.17007546397E+02  0.54027015486E+02  0.10566000000E+00 0.  1.
         23    2    1    0    0    0 -0.10807508774E+02 -0.28082314253E+02  0.10697467530E+02  0.93064840203E+02  0.87414015185E+02 0.  0.
         13    1    3    3    0    0  0.26597401574E+02  0.69965010866E+01  0.27705013927E+02  0.39037824717E+02  0.10566000000E+00 0. -1.
         22    1    1    0    0    0  0.10807508774E+02  0.28082314253E+02 -0.10697467530E+02  0.31935159797E+02  0.00000000000E+00 0.  1.
</event>
<event>
 5    1  0.1315753E-009  0.9118800E+02  0.7818608E-02  0.1130116E+00
         25   -1    0    0    0    0  0.00000000000E+00  0.00000000000E+00  0.99999998245E-14  0.12500000000E+03  0.12500000000E+03 0.  0.
        -13    1    3    3    0    0 -0.29793354794E+02 -0.28350239656E+02  0.25757909453E+01  0.41207110326E+02  0.10566000000E+00 0.  1.
         23    2    1    0    0    0 -0.15855675740E+02  0.22786709995E+02 -0.96661214826E+01  0.95604923710E+02  0.90973792531E+02 0.  0.
         13    1    3    3    0    0  0.13937679054E+02  0.51136949651E+02 -0.12241912428E+02  0.54397813384E+02  0.10566000000E+00 0. -1.
         22    1    1    0    0    0  0.15855675740E+02 -0.22786709995E+02  0.96661214826E+01  0.29395076290E+02  0.00000000000E+00 0. -1.
</event>
<event>
 5    1  0.1315753E-009  0.9118800E+02  0.7818608E-02  0.1130116E+00
         25   -1    0    0    0    0  0.00000000000E+00  0.00000000000E+00  0.99999998245E-14  0.12500000000E+03  0.12500000000E+03 0.  0.
        -13    1    3    3    0    0  0.16977221329E+02  0.68034376432E+01 -0.29247223615E+02  0.34495275923E+02  0.10566000000E+00 0.  1.
         23    2    1    0    0    0  0.86949355380E+01  0.12833478098E+02  0.28184539861E+02  0.92833738929E+02  0.87082918717E+02 0.  0.
         13    1    3    3    0    0 -0.82822857908E+01  0.60300404547E+01  0.57431763476E+02  0.58338463005E+02  0.10566000000E+00 0. -1.
         22    1    1    0    0    0 -0.86949355380E+01 -0.12833478098E+02 -0.28184539861E+02  0.32166261071E+02  0.00000000000E+00 0. -1.
</event>
<event>
 5    1  0.1315753E-009  0.9118800E+02  0.7818608E-02  0.1130116E+00
         25   -1    0    0    0    0  0.00000000000E+00  0.00000000000E+00  0.99999998245E-14  0.12500000000E+03  0.12500000000E+03 0.  0.
        -13    1    3    3    0    0  0.41560438499E+02  0.98015198566E+00 -0.14109935555E+02  0.43901391681E+02  0.10566000000E+00 0.  1.
         23    2    1    0    0    0  0.90464391490E+01 -0.14248621587E+01  0.27068689385E+02  0.96424096892E+02  0.92092476473E+02 0.  0.
         13    1    3    3    0    0 -0.32513999350E+02 -0.24050141444E+01  0.41178624939E+02  0.52522705211E+02  0.10566000000E+00 0. -1.
         22    1    1    0    0    0 -0.90464391490E+01  0.14248621587E+01 -0.27068689385E+02  0.28575903108E+02  0.00000000000E+00 0. -1.
</event>
<event>
 5    1  0.1315753E-009  0.9118800E+02  0.7818608E-02  0.1130116E+00
         25   -1    0    0    0    0  0.00000000000E+00  0.00000000000E+00  0.99999998245E-14  0.12500000000E+03  0.12500000000E+03 0.  0.
        -13    1    3    3    0    0  0.11614985724E+02  0.52863001904E+02  0.13603493414E+02  0.55807446285E+02  0.10566000000E+00 0.  1.
         23    2    1    0    0    0 -0.13896805985E+02  0.24965437314E+02 -0.11895012510E+01  0.96402636659E+02  0.92063343219E+02 0.  0.
         13    1    3    3    0    0 -0.25511791709E+02 -0.27897564591E+02 -0.14792994665E+02  0.40595190374E+02  0.10566000000E+00 0. -1.
         22    1    1    0    0    0  0.13896805985E+02 -0.24965437314E+02  0.11895012510E+01  0.28597363341E+02  0.00000000000E+00 0.  1.
</event>
<event>
 5    1  0.1315753E-009  0.9118800E+02  0.7818608E-02  0.1130116E+00
         25   -1    0    0    0    0  0.00000000000E+00  0.00000000000E+00  0.99999998245E-14  0.12500000000E+03  0.12500000000E+03 0.  0.
        -13    1    3    3    0    0  0.17181422157E+02  0.35938656774E+02  0.10910011200E+02  0.41301668567E+02  0.10566000000E+00 0.  1.
         23    2    1    0    0    0 -0.10816438836E+02 -0.38882823152E+01  0.29442668664E+02  0.93393278776E+02  0.87882419710E+02 0.  0.
         13    1    3    3    0    0 -0.27997860994E+02 -0.39826939089E+02  0.18532657464E+02  0.52091610209E+02  0.10566000000E+00 0. -1.
         22    1    1    0    0    0  0.10816438836E+02  0.38882823152E+01 -0.29442668664E+02  0.31606721224E+02  0.00000000000E+00 0.  1.
</event>
<event>
 5    1  0.1315753E-009  0.9118800E+02  0.7818608E-02  0.1130116E+00
         25   -1    0    0    0    0  0.00000000000E+00  0.00000000000E+00  0.99999998245E-14  0.12500000000E+03  0.12500000000E+03 0.  0.
        -13    1    3    3    0    0 -0.80548687101E+01 -0.42637203525E+02 -0.32611247435E+02  0.54279983951E+02  0.10566000000E+00 0.  1.
         23    2    1    0    0    0 -0.24231884272E+02 -0.13699487676E+02 -0.66698524178E+01  0.96375760111E+02  0.92026844061E+02 0.  0.
         13    1    3    3    0    0 -0.16177015562E+02  0.28937715850E+02  0.25941395017E+02  0.42095776160E+02  0.10566000000E+00 0. -1.
         22    1    1    0    0    0  0.24231884272E+02  0.13699487676E+02  0.66698524178E+01  0.28624239889E+02  0.00000000000E+00 0.  1.
</event>
<event>
 5    1  0.1315753E-009  0.9118800E+02  0.7818608E-02  0.1130116E+00
         25   -1    0    0    0    0  0.00000000000E+00  0.00000000000E+00  0.99999998245E-14  0.12500000000E+03  0.12500000000E+03 0.  0.
        -13    1    3    3    0    0 -0.32623846911E+02 -0.26956727389E+02 -0.32496386808E+02  0.53357350556E+02  0.10566000000E+00 0.  1.
         23    2    1    0    0    0  0.45735499677E+01 -0.26069465152E+02 -0.10925151577E+02  0.96366220830E+02  0.92013885949E+02 0.  0.
         13    1    3    3    0    0  0.37197396879E+02  0.88726223701E+00  0.21571235230E+02  0.43008870274E+02  0.10566000000E+00 0. -1.
         22    1    1    0    0    0 -0.45735499677E+01  0.26069465152E+02  0.10925151577E+02  0.28633779170E+02  0.00000000000E+00 0.  1.
</event>
<event>
 5    1  0.1315753E-009  0.9118800E+02  0.7818608E-02  0.1130116E+00
         25   -1    0    0    0    0  0.00000000000E+00  0.00000000000E+00  0.99999998245E-14  0.12500000000E+03  0.12500000000E+03 0.  0.
        -13    1    3    3    0    0 -0.37967549860E+02 -0.26491626746E+02  0.32195327764E+00  0.46297472371E+02  0.10566000000E+00 0.  1.
         23    2    1    0    0    0  0.12675937198E+01 -0.91689418414E+01 -0.26531825511E+02  0.96899927878E+02  0.92736087741E+02 0.  0.
         13    1    3    3    0    0  0.39235143580E+02  0.17322684904E+02 -0.26853778789E+02  0.50602455507E+02  0.10566000000E+00 0. -1.
         22    1    1    0    0    0 -0.12675937198E+01  0.91689418414E+01  0.26531825511E+02  0.28100072122E+02  0.00000000000E+00 0. -1.
</event>
<event>
 5    1  0.1315753E-009  0.9118800E+02  0.7818608E-02  0.1130116E+00
         25   -1    0    0    0    0  0.00000000000E+00  0.00000000000E+00  0.99999998245E-14  0.12500000000E+03  0.12500000000E+03 0.  0.
        -13    1    3    3    0    0  0.13516374016E+02  0.52750763908E+02 -0.95343596767E+01  0.55283366738E+02  0.10566000000E+00 0. -1.
         23    2    1    0    0    0  0.13738311812E+02  0.11077917766E+02 -0.20076173444E+02  0.98269601319E+02  0.94564265607E+02 0.  0.
         13    1    3    3    0    0  0.22193779663E+00 -0.41672846142E+02 -0.10541813768E+02  0.42986234581E+02  0.10566000000E+00 0.  1.
         22    1    1    0    0    0 -0.13738311812E+02 -0.11077917766E+02  0.20076173444E+02  0.26730398681E+02  0.00000000000E+00 0. -1.
</event>
<event>
 5    1  0.1315753E-009  0.9118800E+02  0.7818608E-02  0.1130116E+00
         25   -1    0    0    0    0  0.00000000000E+00  0.00000000000E+00  0.99999998245E-14  0.12500000000E+03  0.12500000000E+03 0.  0.
        -13    1    3    3    0    0  0.50334683376E+02 -0.15890147732E+02  0.83907183072E+01  0.53446164159E+02  0.10566000000E+00 0.  1.
         23    2    1    0    0    0  0.13789370927E+02 -0.40749193582E+01  0.25681849845E+02  0.95566870200E+02  0.90921491134E+02 0.  0.
         13    1    3    3    0    0 -0.36545312449E+02  0.11815228374E+02  0.17291131538E+02  0.42120706041E+02  0.10566000000E+00 0. -1.
         22    1    1    0    0    0 -0.13789370927E+02  0.40749193582E+01 -0.25681849845E+02  0.29433129800E+02  0.00000000000E+00 0.  1.
</event>
<event>
 5    1  0.1315753E-009  0.9118800E+02  0.7818608E-02  0.1130116E+00
         25   -1    0    0    0    0  0.00000000000E+00  0.00000000000E+00  0.99999998245E-14  0.12500000000E+03  0.12500000000E+03 0.  0.
        -13    1    3    3    0    0 -0.13663046322E+01  0.43517421300E+02 -0.32443834626E+02  0.54297756070E+02  0.10566000000E+00 0.  1.
         23    2    1    0    0    0  0.99381009392E+01  0.24932185315E+02  0.50918501178E+01  0.97681386337E+02  0.93783509127E+02 0.  0.
         13    1    3    3    0    0  0.11304405571E+02 -0.18585235985E+02  0.37535684744E+02  0.43383630267E+02  0.10566000000E+00 0. -1.
         22    1    1    0    0    0 -0.99381009392E+01 -0.24932185315E+02 -0.50918501178E+01  0.27318613663E+02  0.00000000000E+00 0. -1.
</event>
<event>
 5    1  0.1315753E-009  0.9118800E+02  0.7818608E-02  0.1130116E+00
         25   -1    0    0    0    0  0.00000000000E+00  0.00000000000E+00  0.99999998245E-14  0.12500000000E+03  0.12500000000E+03 0.  0.
        -13    1    3    3    0    0  0.16117583846E+02 -0.30531390136E+02 -0.46043882928E+02  0.57549914090E+02  0.10566000000E+00 0.  1.
         23    2    1    0    0    0  0.16472241098E+02  0.52048901217E+00 -0.24978189371E+02  0.95074833670E+02  0.90242497846E+02 0.  0.
         13    1    3    3    0    0  0.35465725190E+00  0.31051879148E+02  0.21065693557E+02  0.37524919580E+02  0.10566000000E+00 0. -1.
         22    1    1    0    0    0 -0.16472241098E+02 -0.52048901217E+00  0.24978189371E+02  0.29925166330E+02  0.00000000000E+00 0.  1.
</event>
<event>
 5    1  0.1315753E-009  0.9118800E+02  0.7818608E-02  0.1130116E+00
         25   -1    0    0    0    0  0.00000000000E+00  0.00000000000E+00  0.99999998245E-14  0.12500000000E+03  0.12500000000E+03 0.  0.
        -13    1    3    3    0    0 -0.25594287382E+02 -0.81866903512E+01 -0.32828840913E+02  0.42424443487E+02  0.10566000000E+00 0.  1.
         23    2    1    0    0    0  0.10050021944E+02 -0.27157569329E+02  0.23084759671E+01  0.95950635562E+02  0.91447574547E+02 0.  0.
         13    1    3    3    0    0  0.35644309326E+02 -0.18970878978E+02  0.35137316880E+02  0.53526192075E+02  0.10566000000E+00 0. -1.
         22    1    1    0    0    0 -0.10050021944E+02  0.27157569329E+02 -0.23084759671E+01  0.29049364438E+02  0.00000000000E+00 0. -1.
</event>
<event>
 5    1  0.1315753E-009  0.9118800E+02  0.7818608E-02  0.1130116E+00
         25   -1    0    0    0    0  0.00000000000E+00  0.00000000000E+00  0.99999998245E-14  0.12500000000E+03  0.12500000000E+03 0.  0.
        -13    1    3    3    0    0  0.24825655885E+02  0.98649558316E+01  0.24263615202E+02  0.36088290766E+02  0.10566000000E+00 0.  1.
         23    2    1    0    0    0 -0.21143643343E+01 -0.40998138650E+01 -0.28054117718E+02  0.96569162320E+02  0.92289168270E+02 0.  0.
         13    1    3    3    0    0 -0.26940020219E+02 -0.13964769697E+02 -0.52317732919E+02  0.60480871554E+02  0.10566000000E+00 0. -1.
         22    1    1    0    0    0  0.21143643343E+01  0.40998138650E+01  0.28054117718E+02  0.28430837680E+02  0.00000000000E+00 0. -1.
</event>
<event>
 5    1  0.1315753E-009  0.9118800E+02  0.7818608E-02  0.1130116E+00
         25   -1    0    0    0    0  0.00000000000E+00  0.00000000000E+00  0.99999998245E-14  0.12500000000E+03  0.12500000000E+03 0.  0.
        -13    1    3    3    0    0 -0.13541035256E+02 -0.17671519035E+02  0.26101885726E+02  0.34306877201E+02  0.10566000000E+00 0.  1.
         23    2    1    0    0    0  0.64156126080E+01 -0.39844030590E+01 -0.29288856519E+02  0.94753137865E+02  0.89795793143E+02 0.  0.
         13    1    3    3    0    0  0.19956647864E+02  0.13687115976E+02 -0.55390742245E+02  0.60446260663E+02  0.10566000000E+00 0. -1.
         22    1    1    0    0    0 -0.64156126080E+01  0.39844030590E+01  0.29288856519E+02  0.30246862135E+02  0.00000000000E+00 0. -1.
</event>
<event>
 5    1  0.1315753E-009  0.9118800E+02  0.7818608E-02  0.1130116E+00
         25   -1    0    0    0    0  0.00000000000E+00  0.00000000000E+00  0.99999998245E-14  0.12500000000E+03  0.12500000000E+03 0.  0.
        -13    1    3    3    0    0  0.57136574859E+01  0.30708828902E+02  0.10915245151E+02  0.33088242551E+02  0.10566000000E+00 0. -1.
         23    2    1    0    0    0 -0.40215349196E+00 -0.25628981333E+02 -0.14890885259E+02  0.95356368721E+02  0.90631629028E+02 0.  0.
         13    1    3    3    0    0 -0.61158109779E+01 -0.56337810235E+02 -0.25806130409E+02  0.62268126170E+02  0.10566000000E+00 0.  1.
         22    1    1    0    0    0  0.40215349196E+00  0.25628981333E+02  0.14890885259E+02  0.29643631279E+02  0.00000000000E+00 0.  1.
</event>
<event>
 5    1  0.1315753E-009  0.9118800E+02  0.7818608E-02  0.1130116E+00
         25   -1    0    0    0    0  0.00000000000E+00  0.00000000000E+00  0.99999998245E-14  0.12500000000E+03  0.12500000000E+03 0.  0.
        -13    1    3    3    0    0 -0.21958655150E+02 -0.21886474443E+02 -0.16895306946E+02  0.35308113237E+02  0.10566000000E+00 0. -1.
         23    2    1    0    0    0  0.19867420019E+02  0.34317863279E+01  0.20032049072E+02  0.96578625550E+02  0.92301984743E+02 0.  0.
         13    1    3    3    0    0  0.41826075170E+02  0.25318260771E+02  0.36927356018E+02  0.61270512313E+02  0.10566000000E+00 0.  1.
         22    1    1    0    0    0 -0.19867420019E+02 -0.34317863279E+01 -0.20032049072E+02  0.28421374450E+02  0.00000000000E+00 0.  1.
</event>
<event>
 5    1  0.1315753E-009  0.9118800E+02  0.7818608E-02  0.1130116E+00
         25   -1    0    0    0    0  0.00000000000E+00  0.00000000000E+00  0.99999998245E-14  0.12500000000E+03  0.12500000000E+03 0.  0.
        -13    1    3    3    0    0 -0.11792332291E+02  0.42620730626E+02 -0.39871889362E+02  0.59542963525E+02  0.10566000000E+00 0. -1.
         23    2    1    0    0    0 -0.29758947335E+01  0.10780461119E+02 -0.28334863108E+02  0.94537912764E+02  0.89495688114E+02 0.  0.
         13    1    3    3    0    0  0.88164375577E+01 -0.31840269507E+02  0.11537026254E+02  0.34994949240E+02  0.10566000000E+00 0.  1.
         22    1    1    0    0    0  0.29758947335E+01 -0.10780461119E+02  0.28334863108E+02  0.30462087236E+02  0.00000000000E+00 0. -1.
</event>
<event>
 5    1  0.1315753E-009  0.9118800E+02  0.7818608E-02  0.1130116E+00
         25   -1    0    0    0    0  0.00000000000E+00  0.00000000000E+00  0.99999998245E-14  0.12500000000E+03  0.12500000000E+03 0.  0.
        -13    1    3    3    0    0 -0.52661361127E+02 -0.47283331271E+01  0.19173474077E+02  0.56242416041E+02  0.10566000000E+00 0.  1.
         23    2    1    0    0    0 -0.22522028340E+02 -0.19207600698E+02 -0.11606749152E+01  0.95377021565E+02  0.90660109150E+02 0.  0.
         13    1    3    3    0    0  0.30139332787E+02 -0.14479267571E+02 -0.20334148992E+02  0.39134605524E+02  0.10566000000E+00 0. -1.
         22    1    1    0    0    0  0.22522028340E+02  0.19207600698E+02  0.11606749152E+01  0.29622978435E+02  0.00000000000E+00 0.  1.
</event>
<event>
 5    1  0.1315753E-009  0.9118800E+02  0.7818608E-02  0.1130116E+00
         25   -1    0    0    0    0  0.00000000000E+00  0.00000000000E+00  0.99999998245E-14  0.12500000000E+03  0.12500000000E+03 0.  0.
        -13    1    3    3    0    0 -0.50007281702E+02  0.50478464981E+01  0.32260994639E+02  0.59724299214E+02  0.10566000000E+00 0.  1.
         23    2    1    0    0    0 -0.28155015598E+02 -0.63114907247E+01  0.63832443190E+01  0.95448593493E+02  0.90758737173E+02 0.  0.
         13    1    3    3    0    0  0.21852266104E+02 -0.11359337223E+02 -0.25877750320E+02  0.35724294278E+02  0.10566000000E+00 0. -1.
         22    1    1    0    0    0  0.28155015598E+02  0.63114907247E+01 -0.63832443190E+01  0.29551406507E+02  0.00000000000E+00 0.  1.
</event>
<event>
 5    1  0.1315753E-009  0.9118800E+02  0.7818608E-02  0.1130116E+00
         25   -1    0    0    0    0  0.00000000000E+00  0.00000000000E+00  0.99999998245E-14  0.12500000000E+03  0.12500000000E+03 0.  0.
        -13    1    3    3    0    0  0.10383603298E+02 -0.56307180613E+02  0.14750823495E+02  0.59126269660E+02  0.10566000000E+00 0.  1.
         23    2    1    0    0    0 -0.59020518410E+01 -0.31011439190E+02 -0.16452640399E+01  0.93389076724E+02  0.87876442697E+02 0.  0.
         13    1    3    3    0    0 -0.16285655139E+02  0.25295741423E+02 -0.16396087535E+02  0.34262807064E+02  0.10566000000E+00 0. -1.
         22    1    1    0    0    0  0.59020518410E+01  0.31011439190E+02  0.16452640399E+01  0.31610923276E+02  0.00000000000E+00 0.  1.
</event>
<event>
 5    1  0.1315753E-009  0.9118800E+02  0.7818608E-02  0.1130116E+00
         25   -1    0    0    0    0  0.00000000000E+00  0.00000000000E+00  0.99999998245E-14  0.12500000000E+03  0.12500000000E+03 0.  0.
        -13    1    3    3    0    0 -0.85137179236E+01 -0.29062079838E+01  0.32500251737E+02  0.33722499384E+02  0.10566000000E+00 0. -1.
         23    2    1    0    0    0 -0.79076093105E+01  0.42793038004E+01 -0.28483439131E+02  0.95131136099E+02  0.90320451863E+02 0.  0.
         13    1    3    3    0    0  0.60610861317E+00  0.71855117842E+01 -0.60983690868E+02  0.61408636715E+02  0.10566000000E+00 0.  1.
         22    1    1    0    0    0  0.79076093105E+01 -0.42793038004E+01  0.28483439131E+02  0.29868863901E+02  0.00000000000E+00 0.  1.
</event>
<event>
 5    1  0.1315753E-009  0.9118800E+02  0.7818608E-02  0.1130116E+00
         25   -1    0    0    0    0  0.00000000000E+00  0.00000000000E+00  0.99999998245E-14  0.12500000000E+03  0.12500000000E+03 0.  0.
        -13    1    3    3    0    0 -0.46096412847E+02 -0.87296955725E+01  0.26427896956E+02  0.53847300430E+02  0.10566000000E+00 0.  1.
         23    2    1    0    0    0 -0.22179848190E+01 -0.18696245050E+02  0.16589547510E+02  0.99906532279E+02  0.96703842064E+02 0.  0.
         13    1    3    3    0    0  0.43878428028E+02 -0.99665494780E+01 -0.98383494453E+01  0.46059231849E+02  0.10566000000E+00 0. -1.
         22    1    1    0    0    0  0.22179848190E+01  0.18696245050E+02 -0.16589547510E+02  0.25093467721E+02  0.00000000000E+00 0.  1.
</event>
<event>
 5    1  0.1315753E-009  0.9118800E+02  0.7818608E-02  0.1130116E+00
         25   -1    0    0    0    0  0.00000000000E+00  0.00000000000E+00  0.99999998245E-14  0.12500000000E+03  0.12500000000E+03 0.  0.
        -13    1    3    3    0    0  0.40393559451E+02 -0.41795001484E+02 -0.15989236606E+02  0.60283734501E+02  0.10566000000E+00 0.  1.
         23    2    1    0    0    0  0.25271116753E+02 -0.11839156321E+02 -0.89552572693E+00  0.97078736944E+02  0.92976794072E+02 0.  0.
         13    1    3    3    0    0 -0.15122442698E+02  0.29955845163E+02  0.15093710879E+02  0.36795002442E+02  0.10566000000E+00 0. -1.
         22    1    1    0    0    0 -0.25271116753E+02  0.11839156321E+02  0.89552572693E+00  0.27921263056E+02  0.00000000000E+00 0.  1.
</event>
<event>
 5    1  0.1315753E-009  0.9118800E+02  0.7818608E-02  0.1130116E+00
         25   -1    0    0    0    0  0.00000000000E+00  0.00000000000E+00  0.99999998245E-14  0.12500000000E+03  0.12500000000E+03 0.  0.
        -13    1    3    3    0    0  0.26644456714E+02  0.54009800257E+01  0.43518482203E+02  0.51312446015E+02  0.10566000000E+00 0.  1.
         23    2    1    0    0    0 -0.36927242146E+01  0.23682544899E+02  0.19396974717E+02  0.94165899183E+02  0.88974573872E+02 0.  0.
         13    1    3    3    0    0 -0.30337180929E+02  0.18281564874E+02 -0.24121507486E+02  0.42853453167E+02  0.10566000000E+00 0. -1.
         22    1    1    0    0    0  0.36927242146E+01 -0.23682544899E+02 -0.19396974717E+02  0.30834100817E+02  0.00000000000E+00 0.  1.
</event>
<event>
 5    1  0.1315753E-009  0.9118800E+02  0.7818608E-02  0.1130116E+00
         25   -1    0    0    0    0  0.00000000000E+00  0.00000000000E+00  0.99999998245E-14  0.12500000000E+03  0.12500000000E+03 0.  0.
        -13    1    3    3    0    0 -0.43445806758E+02  0.44150793508E+02 -0.78715133354E+01  0.62440392203E+02  0.10566000000E+00 0. -1.
         23    2    1    0    0    0 -0.20375567832E+02  0.20792893664E+02 -0.17598959143E+01  0.95834859421E+02  0.91289182575E+02 0.  0.
         13    1    3    3    0    0  0.23070238926E+02 -0.23357899844E+02  0.61116174211E+01  0.33394467218E+02  0.10566000000E+00 0.  1.
         22    1    1    0    0    0  0.20375567832E+02 -0.20792893664E+02  0.17598959143E+01  0.29165140579E+02  0.00000000000E+00 0. -1.
</event>
<event>
 5    1  0.1315753E-009  0.9118800E+02  0.7818608E-02  0.1130116E+00
         25   -1    0    0    0    0  0.00000000000E+00  0.00000000000E+00  0.99999998245E-14  0.12500000000E+03  0.12500000000E+03 0.  0.
        -13    1    3    3    0    0 -0.36458350715E+02  0.15679219197E+02  0.43738747629E+02  0.59060464438E+02  0.10566000000E+00 0.  1.
         23    2    1    0    0    0 -0.56564406879E+01  0.10217568737E+02  0.29189405038E+02  0.93560925608E+02  0.88120550395E+02 0.  0.
         13    1    3    3    0    0  0.30801910027E+02 -0.54616504601E+01 -0.14549342591E+02  0.34500461169E+02  0.10566000000E+00 0. -1.
         22    1    1    0    0    0  0.56564406879E+01 -0.10217568737E+02 -0.29189405038E+02  0.31439074392E+02  0.00000000000E+00 0.  1.
</event>
<event>
 5    1  0.1315753E-009  0.9118800E+02  0.7818608E-02  0.1130116E+00
         25   -1    0    0    0    0  0.00000000000E+00  0.00000000000E+00  0.99999998245E-14  0.12500000000E+03  0.12500000000E+03 0.  0.
        -13    1    3    3    0    0 -0.33129719863E+01  0.51476473858E+02 -0.21151662678E+02  0.55751297225E+02  0.10566000000E+00 0.  1.
         23    2    1    0    0    0 -0.67019780083E+01  0.28783229191E+02  0.94255324471E+01  0.93980144201E+02  0.88713223649E+02 0.  0.
         13    1    3    3    0    0 -0.33890060221E+01 -0.22693244666E+02  0.30577195126E+02  0.38228846976E+02  0.10566000000E+00 0. -1.
         22    1    1    0    0    0  0.67019780083E+01 -0.28783229191E+02 -0.94255324471E+01  0.31019855799E+02  0.00000000000E+00 0.  1.
</event>
<event>
 5    1  0.1315753E-009  0.9118800E+02  0.7818608E-02  0.1130116E+00
         25   -1    0    0    0    0  0.00000000000E+00  0.00000000000E+00  0.99999998245E-14  0.12500000000E+03  0.12500000000E+03 0.  0.
        -13    1    3    3    0    0  0.13834236100E+02 -0.57474385097E+02  0.18757610623E+02  0.62020562325E+02  0.10566000000E+00 0.  1.
         23    2    1    0    0    0  0.30349303118E+01 -0.27188307465E+02  0.13098206912E+02  0.94668862713E+02  0.89678401403E+02 0.  0.
         13    1    3    3    0    0 -0.10799305788E+02  0.30286077632E+02 -0.56594037107E+01  0.32648300388E+02  0.10566000000E+00 0. -1.
         22    1    1    0    0    0 -0.30349303118E+01  0.27188307465E+02 -0.13098206912E+02  0.30331137287E+02  0.00000000000E+00 0.  1.
</event>
<event>
 5    1  0.1315753E-009  0.9118800E+02  0.7818608E-02  0.1130116E+00
         25   -1    0    0    0    0  0.00000000000E+00  0.00000000000E+00  0.99999998245E-14  0.12500000000E+03  0.12500000000E+03 0.  0.
        -13    1    3    3    0    0  0.13129368300E+02  0.30159095411E+02 -0.51106662164E+02  0.60777079804E+02  0.10566000000E+00 0. -1.
         23    2    1    0    0    0 -0.13142829602E+00  0.21384989235E+02 -0.19964286233E+02  0.95744098668E+02  0.91164821433E+02 0.  0.
         13    1    3    3    0    0 -0.13260796596E+02 -0.87741061759E+01  0.31142375931E+02  0.34967018863E+02  0.10566000000E+00 0.  1.
         22    1    1    0    0    0  0.13142829602E+00 -0.21384989235E+02  0.19964286233E+02  0.29255901332E+02  0.00000000000E+00 0. -1.
</event>
<event>
 5    1  0.1315753E-009  0.9118800E+02  0.7818608E-02  0.1130116E+00
         25   -1    0    0    0    0  0.00000000000E+00  0.00000000000E+00  0.99999998245E-14  0.12500000000E+03  0.12500000000E+03 0.  0.
        -13    1    3    3    0    0  0.33559043673E+02 -0.75601218120E+01 -0.78160361878E+01  0.35276995901E+02  0.10566000000E+00 0.  1.
         23    2    1    0    0    0 -0.19527229860E+02 -0.73346332685E+01  0.20763651959E+02  0.95568065068E+02  0.90923133838E+02 0.  0.
         13    1    3    3    0    0 -0.53086273533E+02  0.22548854356E+00  0.28579688147E+02  0.60291069167E+02  0.10566000000E+00 0. -1.
         22    1    1    0    0    0  0.19527229860E+02  0.73346332685E+01 -0.20763651959E+02  0.29431934932E+02  0.00000000000E+00 0. -1.
</event>
<event>
 5    1  0.1315753E-009  0.9118800E+02  0.7818608E-02  0.1130116E+00
         25   -1    0    0    0    0  0.00000000000E+00  0.00000000000E+00  0.99999998245E-14  0.12500000000E+03  0.12500000000E+03 0.  0.
        -13    1    3    3    0    0  0.19799965874E+02  0.15974338908E+02  0.30926398613E+02  0.40045866795E+02  0.10566000000E+00 0.  1.
         23    2    1    0    0    0  0.16236313038E+02  0.49453490341E+01 -0.23678138455E+02  0.95867053379E+02  0.91333254321E+02 0.  0.
         13    1    3    3    0    0 -0.35636528360E+01 -0.11028989874E+02 -0.54604537068E+02  0.55821186584E+02  0.10566000000E+00 0. -1.
         22    1    1    0    0    0 -0.16236313038E+02 -0.49453490341E+01  0.23678138455E+02  0.29132946621E+02  0.00000000000E+00 0. -1.
</event>
<event>
 5    1  0.1315753E-009  0.9118800E+02  0.7818608E-02  0.1130116E+00
         25   -1    0    0    0    0  0.00000000000E+00  0.00000000000E+00  0.99999998245E-14  0.12500000000E+03  0.12500000000E+03 0.  0.
        -13    1    3    3    0    0 -0.31248993552E+01 -0.35820686969E+02 -0.15187160913E+02  0.39032648277E+02  0.10566000000E+00 0.  1.
         23    2    1    0    0    0 -0.67092783322E+01  0.21527971351E+02 -0.17372310787E+02  0.96534843259E+02  0.92242673501E+02 0.  0.
         13    1    3    3    0    0 -0.35843789770E+01  0.57348658319E+02 -0.21851498739E+01  0.57502194982E+02  0.10566000000E+00 0. -1.
         22    1    1    0    0    0  0.67092783322E+01 -0.21527971351E+02  0.17372310787E+02  0.28465156741E+02  0.00000000000E+00 0. -1.
</event>
<event>
 5    1  0.1315753E-009  0.9118800E+02  0.7818608E-02  0.1130116E+00
         25   -1    0    0    0    0  0.00000000000E+00  0.00000000000E+00  0.99999998245E-14  0.12500000000E+03  0.12500000000E+03 0.  0.
        -13    1    3    3    0    0  0.36423694861E+02 -0.12189541244E+02 -0.56556981516E+01  0.38823556621E+02  0.10566000000E+00 0.  1.
         23    2    1    0    0    0 -0.90355823220E+01  0.16787056114E+02  0.18983071993E+02  0.98096393863E+02  0.94335033078E+02 0.  0.
         13    1    3    3    0    0 -0.45459277183E+02  0.28976597358E+02  0.24638770145E+02  0.59272837242E+02  0.10566000000E+00 0. -1.
         22    1    1    0    0    0  0.90355823220E+01 -0.16787056114E+02 -0.18983071993E+02  0.26903606137E+02  0.00000000000E+00 0. -1.
</event>
<event>
 5    1  0.1315753E-009  0.9118800E+02  0.7818608E-02  0.1130116E+00
         25   -1    0    0    0    0  0.00000000000E+00  0.00000000000E+00  0.99999998245E-14  0.12500000000E+03  0.12500000000E+03 0.  0.
        -13    1    3    3    0    0  0.41631476030E+02 -0.12040302881E+02 -0.46507545039E+01  0.43586573293E+02  0.10566000000E+00 0.  1.
         23    2    1    0    0    0 -0.69161534148E+01 -0.23122743292E+02 -0.17706800196E+02  0.95066319829E+02  0.90230704071E+02 0.  0.
         13    1    3    3    0    0 -0.48547629445E+02 -0.11082440411E+02 -0.13056045693E+02  0.51479746536E+02  0.10566000000E+00 0. -1.
         22    1    1    0    0    0  0.69161534148E+01  0.23122743292E+02  0.17706800196E+02  0.29933680171E+02  0.00000000000E+00 0. -1.
</event>
<event>
 5    1  0.1315753E-009  0.9118800E+02  0.7818608E-02  0.1130116E+00
         25   -1    0    0    0    0  0.00000000000E+00  0.00000000000E+00  0.99999998245E-14  0.12500000000E+03  0.12500000000E+03 0.  0.
        -13    1    3    3    0    0 -0.19609409121E+02  0.27616022405E+01 -0.29595994279E+02  0.35610243111E+02  0.10566000000E+00 0. -1.
         23    2    1    0    0    0  0.26487154968E+01 -0.26689247911E+02  0.15604787843E+02  0.93970319830E+02  0.88699379690E+02 0.  0.
         13    1    3    3    0    0  0.22258124618E+02 -0.29450850151E+02  0.45200782122E+02  0.58360076719E+02  0.10566000000E+00 0.  1.
         22    1    1    0    0    0 -0.26487154968E+01  0.26689247911E+02 -0.15604787843E+02  0.31029680170E+02  0.00000000000E+00 0.  1.
</event>
<event>
 5    1  0.1315753E-009  0.9118800E+02  0.7818608E-02  0.1130116E+00
         25   -1    0    0    0    0  0.00000000000E+00  0.00000000000E+00  0.99999998245E-14  0.12500000000E+03  0.12500000000E+03 0.  0.
        -13    1    3    3    0    0  0.44443798168E+02 -0.41187215091E+02  0.14782693334E+02  0.62371284008E+02  0.10566000000E+00 0. -1.
         23    2    1    0    0    0  0.22003377185E+02 -0.20822816726E+02  0.44901970058E+01  0.94374844113E+02  0.89267637071E+02 0.  0.
         13    1    3    3    0    0 -0.22440420983E+02  0.20364398365E+02 -0.10292496329E+02  0.32003560105E+02  0.10566000000E+00 0.  1.
         22    1    1    0    0    0 -0.22003377185E+02  0.20822816726E+02 -0.44901970058E+01  0.30625155887E+02  0.00000000000E+00 0. -1.
</event>
<event>
 5    1  0.1315753E-009  0.9118800E+02  0.7818608E-02  0.1130116E+00
         25   -1    0    0    0    0  0.00000000000E+00  0.00000000000E+00  0.99999998245E-14  0.12500000000E+03  0.12500000000E+03 0.  0.
        -13    1    3    3    0    0  0.13430131427E+02  0.27570805362E+02 -0.35441658523E+02  0.46868326846E+02  0.10566000000E+00 0.  1.
         23    2    1    0    0    0  0.51211538956E+01 -0.19924895986E+02 -0.16326679805E+02  0.98736181337E+02  0.95179017301E+02 0.  0.
         13    1    3    3    0    0 -0.83089775318E+01 -0.47495701348E+02  0.19114978718E+02  0.51867854491E+02  0.10566000000E+00 0. -1.
         22    1    1    0    0    0 -0.51211538956E+01  0.19924895986E+02  0.16326679805E+02  0.26263818663E+02  0.00000000000E+00 0.  1.
</event>
<event>
 5    1  0.1315753E-009  0.9118800E+02  0.7818608E-02  0.1130116E+00
         25   -1    0    0    0    0  0.00000000000E+00  0.00000000000E+00  0.99999998245E-14  0.12500000000E+03  0.12500000000E+03 0.  0.
        -13    1    3    3    0    0  0.16559041328E+02 -0.40073891497E+02 -0.44290793519E+02  0.61982289277E+02  0.10566000000E+00 0. -1.
         23    2    1    0    0    0  0.53366289265E+01 -0.22575080331E+02 -0.17242442135E+02  0.96096441896E+02  0.91646661009E+02 0.  0.
         13    1    3    3    0    0 -0.11222412402E+02  0.17498811165E+02  0.27048351384E+02  0.34114152620E+02  0.10566000000E+00 0.  1.
         22    1    1    0    0    0 -0.53366289265E+01  0.22575080331E+02  0.17242442135E+02  0.28903558104E+02  0.00000000000E+00 0. -1.
</event>
<event>
 5    1  0.1315753E-009  0.9118800E+02  0.7818608E-02  0.1130116E+00
         25   -1    0    0    0    0  0.00000000000E+00  0.00000000000E+00  0.99999998245E-14  0.12500000000E+03  0.12500000000E+03 0.  0.
        -13    1    3    3    0    0 -0.89707511294E+01 -0.25748242843E+02  0.32173745275E+02  0.42173539505E+02  0.10566000000E+00 0.  1.
         23    2    1    0    0    0  0.26996426584E+02 -0.14335387203E+02 -0.36644177468E+01  0.94214640948E+02  0.89043024640E+02 0.  0.
         13    1    3    3    0    0  0.35967177713E+02  0.11412855641E+02 -0.35838163022E+02  0.52041101443E+02  0.10566000000E+00 0. -1.
         22    1    1    0    0    0 -0.26996426584E+02  0.14335387203E+02  0.36644177468E+01  0.30785359052E+02  0.00000000000E+00 0. -1.
</event>
<event>
 5    1  0.1315753E-009  0.9118800E+02  0.7818608E-02  0.1130116E+00
         25   -1    0    0    0    0  0.00000000000E+00  0.00000000000E+00  0.99999998245E-14  0.12500000000E+03  0.12500000000E+03 0.  0.
        -13    1    3    3    0    0 -0.46794738473E+02 -0.46339610484E+01  0.10666188045E+02  0.48218252511E+02  0.10566000000E+00 0. -1.
         23    2    1    0    0    0 -0.28539941549E+01 -0.26048426095E+02  0.95419704916E+01  0.97112458238E+02  0.93022118657E+02 0.  0.
         13    1    3    3    0    0  0.43940744318E+02 -0.21414465047E+02 -0.11242175537E+01  0.48894205727E+02  0.10566000000E+00 0.  1.
         22    1    1    0    0    0  0.28539941549E+01  0.26048426095E+02 -0.95419704916E+01  0.27887541762E+02  0.00000000000E+00 0.  1.
</event>
<event>
 5    1  0.1315753E-009  0.9118800E+02  0.7818608E-02  0.1130116E+00
         25   -1    0    0    0    0  0.00000000000E+00  0.00000000000E+00  0.99999998245E-14  0.12500000000E+03  0.12500000000E+03 0.  0.
        -13    1    3    3    0    0  0.76083063760E+01  0.45059161330E+02 -0.46970688262E+01  0.45937870709E+02  0.10566000000E+00 0. -1.
         23    2    1    0    0    0 -0.24235930973E+02  0.75169557684E+01 -0.13971827247E+02  0.96032830122E+02  0.91559857637E+02 0.  0.
         13    1    3    3    0    0 -0.31844237349E+02 -0.37542205562E+02 -0.92747584204E+01  0.50094959413E+02  0.10566000000E+00 0.  1.
         22    1    1    0    0    0  0.24235930973E+02 -0.75169557684E+01  0.13971827247E+02  0.28967169878E+02  0.00000000000E+00 0. -1.
</event>
<event>
 5    1  0.1315753E-009  0.9118800E+02  0.7818608E-02  0.1130116E+00
         25   -1    0    0    0    0  0.00000000000E+00  0.00000000000E+00  0.99999998245E-14  0.12500000000E+03  0.12500000000E+03 0.  0.
        -13    1    3    3    0    0  0.24507500730E+01  0.35079458216E+02 -0.64271593942E+01  0.35747644769E+02  0.10566000000E+00 0.  1.
         23    2    1    0    0    0  0.17274346356E+02 -0.21545039998E+02  0.84120345173E+01  0.96132126589E+02  0.91695319658E+02 0.  0.
         13    1    3    3    0    0  0.14823596283E+02 -0.56624498213E+02  0.14839193911E+02  0.60384481820E+02  0.10566000000E+00 0. -1.
         22    1    1    0    0    0 -0.17274346356E+02  0.21545039998E+02 -0.84120345173E+01  0.28867873411E+02  0.00000000000E+00 0. -1.
</event>
<event>
 5    1  0.1315753E-009  0.9118800E+02  0.7818608E-02  0.1130116E+00
         25   -1    0    0    0    0  0.00000000000E+00  0.00000000000E+00  0.99999998245E-14  0.12500000000E+03  0.12500000000E+03 0.  0.
        -13    1    3    3    0    0  0.32629628393E+02  0.13147474701E+02 -0.47978048222E+01  0.35504631180E+02  0.10566000000E+00 0.  1.
         23    2    1    0    0    0 -0.13114398334E+02 -0.25331900001E+02  0.48834707450E+01  0.96059701317E+02  0.91596535575E+02 0.  0.
         13    1    3    3    0    0 -0.45744026727E+02 -0.38479374702E+02  0.96812755672E+01  0.60555070137E+02  0.10566000000E+00 0. -1.
         22    1    1    0    0    0  0.13114398334E+02  0.25331900001E+02 -0.48834707450E+01  0.28940298683E+02  0.00000000000E+00 0. -1.
</event>
<event>
 5    1  0.1315753E-009  0.9118800E+02  0.7818608E-02  0.1130116E+00
         25   -1    0    0    0    0  0.00000000000E+00  0.00000000000E+00  0.99999998245E-14  0.12500000000E+03  0.12500000000E+03 0.  0.
        -13    1    3    3    0    0 -0.16060254274E+00 -0.37952760334E+02 -0.47860979933E+02  0.61082913932E+02  0.10566000000E+00 0. -1.
         23    2    1    0    0    0 -0.30271402840E+01 -0.19038734973E+02 -0.10521333831E+02  0.10303786273E+03  0.10067008336E+03 0.  0.
         13    1    3    3    0    0 -0.28665377413E+01  0.18914025361E+02  0.37339646103E+02  0.41954948803E+02  0.10566000000E+00 0.  1.
         22    1    1    0    0    0  0.30271402840E+01  0.19038734973E+02  0.10521333831E+02  0.21962137265E+02  0.00000000000E+00 0. -1.
</event>
<event>
 5    1  0.1315753E-009  0.9118800E+02  0.7818608E-02  0.1130116E+00
         25   -1    0    0    0    0  0.00000000000E+00  0.00000000000E+00  0.99999998245E-14  0.12500000000E+03  0.12500000000E+03 0.  0.
        -13    1    3    3    0    0  0.52831183369E+01 -0.62800560364E+01  0.43053453207E+02  0.43828774113E+02  0.10566000000E+00 0. -1.
         23    2    1    0    0    0  0.12121438196E+02  0.25815241003E+02  0.19655754932E+01  0.96412950152E+02  0.92077345411E+02 0.  0.
         13    1    3    3    0    0  0.68383198592E+01  0.32095297040E+02 -0.41087877714E+02  0.52584176038E+02  0.10566000000E+00 0.  1.
         22    1    1    0    0    0 -0.12121438196E+02 -0.25815241003E+02 -0.19655754932E+01  0.28587049848E+02  0.00000000000E+00 0.  1.
</event>
<event>
 5    1  0.1315753E-009  0.9118800E+02  0.7818608E-02  0.1130116E+00
         25   -1    0    0    0    0  0.00000000000E+00  0.00000000000E+00  0.99999998245E-14  0.12500000000E+03  0.12500000000E+03 0.  0.
        -13    1    3    3    0    0  0.53223233688E+01  0.19426354812E+01  0.38295763103E+02  0.38712757514E+02  0.10566000000E+00 0.  1.
         23    2    1    0    0    0  0.12151485171E+02 -0.88283326385E+01 -0.20897675057E+02  0.99264598860E+02  0.95870484066E+02 0.  0.
         13    1    3    3    0    0  0.68291618024E+01 -0.10770968120E+02 -0.59193438160E+02  0.60551841346E+02  0.10566000000E+00 0. -1.
         22    1    1    0    0    0 -0.12151485171E+02  0.88283326385E+01  0.20897675057E+02  0.25735401140E+02  0.00000000000E+00 0. -1.
</event>
<event>
 5    1  0.1315753E-009  0.9118800E+02  0.7818608E-02  0.1130116E+00
         25   -1    0    0    0    0  0.00000000000E+00  0.00000000000E+00  0.99999998245E-14  0.12500000000E+03  0.12500000000E+03 0.  0.
        -13    1    3    3    0    0  0.27586670353E+02  0.25670875503E+02  0.33560453301E+02  0.50461207080E+02  0.10566000000E+00 0.  1.
         23    2    1    0    0    0  0.20831102989E+02 -0.14780823022E+02  0.12608194385E+02  0.96515369993E+02  0.92216281092E+02 0.  0.
         13    1    3    3    0    0 -0.67555673637E+01 -0.40451698525E+02 -0.20952258915E+02  0.46054162913E+02  0.10566000000E+00 0. -1.
         22    1    1    0    0    0 -0.20831102989E+02  0.14780823022E+02 -0.12608194385E+02  0.28484630007E+02  0.00000000000E+00 0.  1.
</event>
<event>
 5    1  0.1315753E-009  0.9118800E+02  0.7818608E-02  0.1130116E+00
         25   -1    0    0    0    0  0.00000000000E+00  0.00000000000E+00  0.99999998245E-14  0.12500000000E+03  0.12500000000E+03 0.  0.
        -13    1    3    3    0    0 -0.91477251202E+01 -0.53269345932E+02 -0.27957161506E+01  0.54121449387E+02  0.10566000000E+00 0. -1.
         23    2    1    0    0    0  0.15080945554E+02 -0.20540527491E+02 -0.13411845942E+02  0.96203718990E+02  0.91792863271E+02 0.  0.
         13    1    3    3    0    0  0.24228670675E+02  0.32728818441E+02 -0.10616129792E+02  0.42082269604E+02  0.10566000000E+00 0.  1.
         22    1    1    0    0    0 -0.15080945554E+02  0.20540527491E+02  0.13411845942E+02  0.28796281010E+02  0.00000000000E+00 0. -1.
</event>
<event>
 5    1  0.1315753E-009  0.9118800E+02  0.7818608E-02  0.1130116E+00
         25   -1    0    0    0    0  0.00000000000E+00  0.00000000000E+00  0.99999998245E-14  0.12500000000E+03  0.12500000000E+03 0.  0.
        -13    1    3    3    0    0  0.10953283773E+02  0.41607511264E+01  0.15203143554E+02  0.19194608965E+02  0.10566000000E+00 0.  1.
         23    2    1    0    0    0  0.55446918771E+01 -0.40100900596E+02 -0.23458200812E+02  0.78212041913E+02  0.62673842057E+02 0.  0.
         13    1    3    3    0    0 -0.54085918960E+01 -0.44261651723E+02 -0.38661344366E+02  0.59017432948E+02  0.10566000000E+00 0. -1.
         22    1    1    0    0    0 -0.55446918771E+01  0.40100900596E+02  0.23458200812E+02  0.46787958087E+02  0.00000000000E+00 0. -1.
</event>
<event>
 5    1  0.1315753E-009  0.9118800E+02  0.7818608E-02  0.1130116E+00
         25   -1    0    0    0    0  0.00000000000E+00  0.00000000000E+00  0.99999998245E-14  0.12500000000E+03  0.12500000000E+03 0.  0.
        -13    1    3    3    0    0  0.47933676211E+02  0.63232966272E+01 -0.22448466442E+02  0.53306343008E+02  0.10566000000E+00 0.  1.
         23    2    1    0    0    0  0.11654680243E+02  0.24622828632E+02 -0.11805537631E+02  0.95310170426E+02  0.90567889489E+02 0.  0.
         13    1    3    3    0    0 -0.36278995968E+02  0.18299532004E+02  0.10642928811E+02  0.42003827417E+02  0.10566000000E+00 0. -1.
         22    1    1    0    0    0 -0.11654680243E+02 -0.24622828632E+02  0.11805537631E+02  0.29689829574E+02  0.00000000000E+00 0.  1.
</event>
<event>
 5    1  0.1315753E-009  0.9118800E+02  0.7818608E-02  0.1130116E+00
         25   -1    0    0    0    0  0.00000000000E+00  0.00000000000E+00  0.99999998245E-14  0.12500000000E+03  0.12500000000E+03 0.  0.
        -13    1    3    3    0    0  0.50892388181E+01  0.54607960420E+02  0.10075336827E+02  0.55762471872E+02  0.10566000000E+00 0. -1.
         23    2    1    0    0    0 -0.52496598397E+01  0.18446093111E+02  0.22558411293E+02  0.95390893300E+02  0.90679233152E+02 0.  0.
         13    1    3    3    0    0 -0.10338898658E+02 -0.36161867309E+02  0.12483074466E+02  0.39628421429E+02  0.10566000000E+00 0.  1.
         22    1    1    0    0    0  0.52496598397E+01 -0.18446093111E+02 -0.22558411293E+02  0.29609106700E+02  0.00000000000E+00 0. -1.
</event>
<event>
 5    1  0.1315753E-009  0.9118800E+02  0.7818608E-02  0.1130116E+00
         25   -1    0    0    0    0  0.00000000000E+00  0.00000000000E+00  0.99999998245E-14  0.12500000000E+03  0.12500000000E+03 0.  0.
        -13    1    3    3    0    0  0.73558890564E+01  0.37073250680E+02 -0.24022397243E+02  0.44784168555E+02  0.10566000000E+00 0.  1.
         23    2    1    0    0    0  0.29701109045E+02  0.52759852797E+01  0.64283801512E+01  0.94156589512E+02  0.88961493794E+02 0.  0.
         13    1    3    3    0    0  0.22345219988E+02 -0.31797265400E+02  0.30450777394E+02  0.49372420958E+02  0.10566000000E+00 0. -1.
         22    1    1    0    0    0 -0.29701109045E+02 -0.52759852797E+01 -0.64283801512E+01  0.30843410488E+02  0.00000000000E+00 0.  1.
</event>
<event>
 5    1  0.1315753E-009  0.9118800E+02  0.7818608E-02  0.1130116E+00
         25   -1    0    0    0    0  0.00000000000E+00  0.00000000000E+00  0.99999998245E-14  0.12500000000E+03  0.12500000000E+03 0.  0.
        -13    1    3    3    0    0  0.15725893997E+02  0.11040019621E+02  0.43392670514E+02  0.47456514765E+02  0.10566000000E+00 0. -1.
         23    2    1    0    0    0 -0.15185651355E+02 -0.16627118199E+02  0.18664009984E+02  0.95752601220E+02  0.91176478903E+02 0.  0.
         13    1    3    3    0    0 -0.30911545352E+02 -0.27667137820E+02 -0.24728660530E+02  0.48296086455E+02  0.10566000000E+00 0.  1.
         22    1    1    0    0    0  0.15185651355E+02  0.16627118199E+02 -0.18664009984E+02  0.29247398780E+02  0.00000000000E+00 0. -1.
</event>
<event>
 5    1  0.1315753E-009  0.9118800E+02  0.7818608E-02  0.1130116E+00
         25   -1    0    0    0    0  0.00000000000E+00  0.00000000000E+00  0.99999998245E-14  0.12500000000E+03  0.12500000000E+03 0.  0.
        -13    1    3    3    0    0  0.30587640902E+02  0.22207216102E+02  0.96933904881E+01  0.39022265518E+02  0.10566000000E+00 0.  1.
         23    2    1    0    0    0 -0.15704598654E+02  0.10007164527E+02 -0.21802805811E+02  0.96327014422E+02  0.91960608988E+02 0.  0.
         13    1    3    3    0    0 -0.46292239556E+02 -0.12200051575E+02 -0.31496196299E+02  0.57304748904E+02  0.10566000000E+00 0. -1.
         22    1    1    0    0    0  0.15704598654E+02 -0.10007164527E+02  0.21802805811E+02  0.28672985578E+02  0.00000000000E+00 0. -1.
</event>
<event>
 5    1  0.1315753E-009  0.9118800E+02  0.7818608E-02  0.1130116E+00
         25   -1    0    0    0    0  0.00000000000E+00  0.00000000000E+00  0.99999998245E-14  0.12500000000E+03  0.12500000000E+03 0.  0.
        -13    1    3    3    0    0  0.52542666897E+01 -0.41148350861E+01  0.58774155750E+02  0.59151937707E+02  0.10566000000E+00 0. -1.
         23    2    1    0    0    0 -0.52256657182E+01 -0.14076814693E+02  0.25969139839E+02  0.95002324789E+02  0.90142005731E+02 0.  0.
         13    1    3    3    0    0 -0.10479932408E+02 -0.99619796069E+01 -0.32805015912E+02  0.35850387083E+02  0.10566000000E+00 0.  1.
         22    1    1    0    0    0  0.52256657182E+01  0.14076814693E+02 -0.25969139839E+02  0.29997675211E+02  0.00000000000E+00 0. -1.
</event>
<event>
 5    1  0.1315753E-009  0.9118800E+02  0.7818608E-02  0.1130116E+00
         25   -1    0    0    0    0  0.00000000000E+00  0.00000000000E+00  0.99999998245E-14  0.12500000000E+03  0.12500000000E+03 0.  0.
        -13    1    3    3    0    0  0.12145116806E+02 -0.30674971883E+02 -0.13336363983E+02  0.35585496070E+02  0.10566000000E+00 0.  1.
         23    2    1    0    0    0 -0.93450183486E+01  0.10332768421E+02  0.25452160967E+02  0.95984349584E+02  0.91493646751E+02 0.  0.
         13    1    3    3    0    0 -0.21490135154E+02  0.41007740304E+02  0.38788524951E+02  0.60398853513E+02  0.10566000000E+00 0. -1.
         22    1    1    0    0    0  0.93450183486E+01 -0.10332768421E+02 -0.25452160967E+02  0.29015650416E+02  0.00000000000E+00 0. -1.
</event>
<event>
 5    1  0.1315753E-009  0.9118800E+02  0.7818608E-02  0.1130116E+00
         25   -1    0    0    0    0  0.00000000000E+00  0.00000000000E+00  0.99999998245E-14  0.12500000000E+03  0.12500000000E+03 0.  0.
        -13    1    3    3    0    0  0.22277400548E+01  0.43165639363E+02 -0.43676023664E+02  0.61447875915E+02  0.10566000000E+00 0.  1.
         23    2    1    0    0    0  0.86627354716E+01  0.17635506905E+02 -0.21530348834E+02  0.95851929557E+02  0.91312553295E+02 0.  0.
         13    1    3    3    0    0  0.64349954168E+01 -0.25530132457E+02  0.22145674830E+02  0.34404053642E+02  0.10566000000E+00 0. -1.
         22    1    1    0    0    0 -0.86627354716E+01 -0.17635506905E+02  0.21530348834E+02  0.29148070443E+02  0.00000000000E+00 0.  1.
</event>
<event>
 5    1  0.1315753E-009  0.9118800E+02  0.7818608E-02  0.1130116E+00
         25   -1    0    0    0    0  0.00000000000E+00  0.00000000000E+00  0.99999998245E-14  0.12500000000E+03  0.12500000000E+03 0.  0.
        -13    1    3    3    0    0  0.11051737554E+02  0.23445568508E+02 -0.40947977543E+02  0.48462187471E+02  0.10566000000E+00 0. -1.
         23    2    1    0    0    0  0.26000562918E+02 -0.88685109753E+01 -0.96024345865E+01  0.95898685443E+02  0.91376536161E+02 0.  0.
         13    1    3    3    0    0  0.14948825364E+02 -0.32314079483E+02  0.31345542956E+02  0.47436497972E+02  0.10566000000E+00 0.  1.
         22    1    1    0    0    0 -0.26000562918E+02  0.88685109753E+01  0.96024345865E+01  0.29101314557E+02  0.00000000000E+00 0. -1.
</event>
<event>
 5    1  0.1315753E-009  0.9118800E+02  0.7818608E-02  0.1130116E+00
         25   -1    0    0    0    0  0.00000000000E+00  0.00000000000E+00  0.99999998245E-14  0.12500000000E+03  0.12500000000E+03 0.  0.
        -13    1    3    3    0    0  0.26573866929E+02  0.41953428714E+02 -0.94769250455E+01  0.50557727962E+02  0.10566000000E+00 0.  1.
         23    2    1    0    0    0  0.29072971392E+02 -0.21874451686E+01  0.32541172848E+00  0.95843037285E+02  0.91300379634E+02 0.  0.
         13    1    3    3    0    0  0.24991044638E+01 -0.44140873882E+02  0.98023367740E+01  0.45285309323E+02  0.10566000000E+00 0. -1.
         22    1    1    0    0    0 -0.29072971392E+02  0.21874451686E+01 -0.32541172848E+00  0.29156962715E+02  0.00000000000E+00 0.  1.
</event>
<event>
 5    1  0.1315753E-009  0.9118800E+02  0.7818608E-02  0.1130116E+00
         25   -1    0    0    0    0  0.00000000000E+00  0.00000000000E+00  0.99999998245E-14  0.12500000000E+03  0.12500000000E+03 0.  0.
        -13    1    3    3    0    0 -0.24644570864E+02 -0.47974779070E+02 -0.44420735950E+01  0.54117256784E+02  0.10566000000E+00 0. -1.
         23    2    1    0    0    0 -0.18274537001E+02 -0.97856114614E+01 -0.20327944328E+02  0.95966532847E+02  0.91469302019E+02 0.  0.
         13    1    3    3    0    0  0.63700338627E+01  0.38189167609E+02 -0.15885870733E+02  0.41849276064E+02  0.10566000000E+00 0.  1.
         22    1    1    0    0    0  0.18274537001E+02  0.97856114614E+01  0.20327944328E+02  0.29033467153E+02  0.00000000000E+00 0. -1.
</event>
<event>
 5    1  0.1315753E-009  0.9118800E+02  0.7818608E-02  0.1130116E+00
         25   -1    0    0    0    0  0.00000000000E+00  0.00000000000E+00  0.99999998245E-14  0.12500000000E+03  0.12500000000E+03 0.  0.
        -13    1    3    3    0    0 -0.19989597425E+02  0.13757823880E+01 -0.32159957328E+02  0.37891302455E+02  0.10566000000E+00 0. -1.
         23    2    1    0    0    0 -0.10428887287E+02  0.81319660788E+01  0.25257291452E+02  0.96489978361E+02  0.92181856080E+02 0.  0.
         13    1    3    3    0    0  0.95607101381E+01  0.67561836908E+01  0.57417248780E+02  0.58598675906E+02  0.10566000000E+00 0.  1.
         22    1    1    0    0    0  0.10428887287E+02 -0.81319660788E+01 -0.25257291452E+02  0.28510021639E+02  0.00000000000E+00 0.  1.
</event>
<event>
 5    1  0.1315753E-009  0.9118800E+02  0.7818608E-02  0.1130116E+00
         25   -1    0    0    0    0  0.00000000000E+00  0.00000000000E+00  0.99999998245E-14  0.12500000000E+03  0.12500000000E+03 0.  0.
        -13    1    3    3    0    0 -0.10235307863E+02 -0.14682119767E+02  0.37974349416E+02  0.41980811635E+02  0.10566000000E+00 0.  1.
         23    2    1    0    0    0 -0.22510071852E+02  0.19011712775E+02 -0.17334562225E+01  0.95484691635E+02  0.90808440735E+02 0.  0.
         13    1    3    3    0    0 -0.12274763990E+02  0.33693832542E+02 -0.39707805639E+02  0.53503880000E+02  0.10566000000E+00 0. -1.
         22    1    1    0    0    0  0.22510071852E+02 -0.19011712775E+02  0.17334562225E+01  0.29515308365E+02  0.00000000000E+00 0.  1.
</event>
<event>
 5    1  0.1315753E-009  0.9118800E+02  0.7818608E-02  0.1130116E+00
         25   -1    0    0    0    0  0.00000000000E+00  0.00000000000E+00  0.99999998245E-14  0.12500000000E+03  0.12500000000E+03 0.  0.
        -13    1    3    3    0    0  0.38160732700E+02 -0.72757412522E+01  0.25873611699E+02  0.46675827549E+02  0.10566000000E+00 0. -1.
         23    2    1    0    0    0  0.21460900269E+02  0.76006991853E+01 -0.18036902167E+02  0.95953989805E+02  0.91452159358E+02 0.  0.
         13    1    3    3    0    0 -0.16699832431E+02  0.14876440438E+02 -0.43910513866E+02  0.49278162256E+02  0.10566000000E+00 0.  1.
         22    1    1    0    0    0 -0.21460900269E+02 -0.76006991853E+01  0.18036902167E+02  0.29046010195E+02  0.00000000000E+00 0. -1.
</event>
<event>
 5    1  0.1315753E-009  0.9118800E+02  0.7818608E-02  0.1130116E+00
         25   -1    0    0    0    0  0.00000000000E+00  0.00000000000E+00  0.99999998245E-14  0.12500000000E+03  0.12500000000E+03 0.  0.
        -13    1    3    3    0    0  0.41176061124E+02  0.21219661144E+02  0.86430846562E+01  0.47121715856E+02  0.10566000000E+00 0. -1.
         23    2    1    0    0    0 -0.38008780226E+00  0.59481848729E+01  0.28672080742E+02  0.95714959722E+02  0.91124859014E+02 0.  0.
         13    1    3    3    0    0 -0.41556148927E+02 -0.15271476271E+02  0.20028996086E+02  0.48593243866E+02  0.10566000000E+00 0.  1.
         22    1    1    0    0    0  0.38008780226E+00 -0.59481848729E+01 -0.28672080742E+02  0.29285040278E+02  0.00000000000E+00 0.  1.
</event>
<event>
 5    1  0.1315753E-009  0.9118800E+02  0.7818608E-02  0.1130116E+00
         25   -1    0    0    0    0  0.00000000000E+00  0.00000000000E+00  0.99999998245E-14  0.12500000000E+03  0.12500000000E+03 0.  0.
        -13    1    3    3    0    0 -0.92475506799E+01 -0.17573830883E+02  0.29761054338E+02  0.35778320878E+02  0.10566000000E+00 0.  1.
         23    2    1    0    0    0  0.17220282426E+02 -0.87790791439E+01 -0.22695668796E+02  0.95188865511E+02  0.90400311823E+02 0.  0.
         13    1    3    3    0    0  0.26467833106E+02  0.87947517395E+01 -0.52456723135E+02  0.59410544632E+02  0.10566000000E+00 0. -1.
         22    1    1    0    0    0 -0.17220282426E+02  0.87790791439E+01  0.22695668796E+02  0.29811134489E+02  0.00000000000E+00 0. -1.
</event>
<event>
 5    1  0.1315753E-009  0.9118800E+02  0.7818608E-02  0.1130116E+00
         25   -1    0    0    0    0  0.00000000000E+00  0.00000000000E+00  0.99999998245E-14  0.12500000000E+03  0.12500000000E+03 0.  0.
        -13    1    3    3    0    0  0.36070059535E+02 -0.29398825216E+01 -0.30004497501E+02  0.47010351396E+02  0.10566000000E+00 0.  1.
         23    2    1    0    0    0  0.25670473428E+02  0.99098454089E+01  0.14078302999E+02  0.94090828911E+02  0.88869045386E+02 0.  0.
         13    1    3    3    0    0 -0.10399586107E+02  0.12849727931E+02  0.44082800500E+02  0.47080477515E+02  0.10566000000E+00 0. -1.
         22    1    1    0    0    0 -0.25670473428E+02 -0.99098454089E+01 -0.14078302999E+02  0.30909171089E+02  0.00000000000E+00 0.  1.
</event>
<event>
 5    1  0.1315753E-009  0.9118800E+02  0.7818608E-02  0.1130116E+00
         25   -1    0    0    0    0  0.00000000000E+00  0.00000000000E+00  0.99999998245E-14  0.12500000000E+03  0.12500000000E+03 0.  0.
        -13    1    3    3    0    0  0.26596448468E+02 -0.11154819892E+02 -0.55146079847E+02  0.62232647095E+02  0.10566000000E+00 0.  1.
         23    2    1    0    0    0  0.11221198874E+02 -0.21815647044E+01 -0.28646778763E+02  0.94156646384E+02  0.88961573705E+02 0.  0.
         13    1    3    3    0    0 -0.15375249593E+02  0.89732551874E+01  0.26499301083E+02  0.31923999290E+02  0.10566000000E+00 0. -1.
         22    1    1    0    0    0 -0.11221198874E+02  0.21815647044E+01  0.28646778763E+02  0.30843353616E+02  0.00000000000E+00 0.  1.
</event>
<event>
 5    1  0.1315753E-009  0.9118800E+02  0.7818608E-02  0.1130116E+00
         25   -1    0    0    0    0  0.00000000000E+00  0.00000000000E+00  0.99999998245E-14  0.12500000000E+03  0.12500000000E+03 0.  0.
        -13    1    3    3    0    0 -0.28407825489E+02 -0.12510207193E+02 -0.37770040964E+02  0.48888618220E+02  0.10566000000E+00 0. -1.
         23    2    1    0    0    0 -0.95993238453E+01 -0.27878851807E+02  0.19540901541E+01  0.95450112273E+02  0.90760828930E+02 0.  0.
         13    1    3    3    0    0  0.18808501643E+02 -0.15368644614E+02  0.39724131118E+02  0.46561494053E+02  0.10566000000E+00 0.  1.
         22    1    1    0    0    0  0.95993238453E+01  0.27878851807E+02 -0.19540901541E+01  0.29549887727E+02  0.00000000000E+00 0.  1.
</event>
<event>
 5    1  0.1315753E-009  0.9118800E+02  0.7818608E-02  0.1130116E+00
         25   -1    0    0    0    0  0.00000000000E+00  0.00000000000E+00  0.99999998245E-14  0.12500000000E+03  0.12500000000E+03 0.  0.
        -13    1    3    3    0    0 -0.21630675823E+02  0.28758353607E+02 -0.89894811114E+01  0.37091117177E+02  0.10566000000E+00 0. -1.
         23    2    1    0    0    0  0.30076016410E+02  0.51573195028E+01 -0.50930865961E+01  0.94062898672E+02  0.88829751029E+02 0.  0.
         13    1    3    3    0    0  0.51706692232E+02 -0.23601034105E+02  0.38963945154E+01  0.56971781495E+02  0.10566000000E+00 0.  1.
         22    1    1    0    0    0 -0.30076016410E+02 -0.51573195028E+01  0.50930865961E+01  0.30937101328E+02  0.00000000000E+00 0.  1.
</event>
<event>
 5    1  0.1315753E-009  0.9118800E+02  0.7818608E-02  0.1130116E+00
         25   -1    0    0    0    0  0.00000000000E+00  0.00000000000E+00  0.99999998245E-14  0.12500000000E+03  0.12500000000E+03 0.  0.
        -13    1    3    3    0    0 -0.11237726700E+02 -0.20730650007E+02 -0.30247752393E+02  0.38353409757E+02  0.10566000000E+00 0. -1.
         23    2    1    0    0    0  0.24032229364E+02  0.17074885165E+02 -0.10280879088E+02  0.93778273167E+02  0.88428322905E+02 0.  0.
         13    1    3    3    0    0  0.35269956064E+02  0.37805535172E+02  0.19966873305E+02  0.55424863410E+02  0.10566000000E+00 0.  1.
         22    1    1    0    0    0 -0.24032229364E+02 -0.17074885165E+02  0.10280879088E+02  0.31221726833E+02  0.00000000000E+00 0.  1.
</event>
<event>
 5    1  0.1315753E-009  0.9118800E+02  0.7818608E-02  0.1130116E+00
         25   -1    0    0    0    0  0.00000000000E+00  0.00000000000E+00  0.99999998245E-14  0.12500000000E+03  0.12500000000E+03 0.  0.
        -13    1    3    3    0    0 -0.17225200525E+02 -0.10942470315E+02  0.31708534953E+02  0.37707924135E+02  0.10566000000E+00 0. -1.
         23    2    1    0    0    0  0.22037386801E+02  0.18599605920E+02  0.43776660959E-01  0.96162634070E+02  0.91736898342E+02 0.  0.
         13    1    3    3    0    0  0.39262587326E+02  0.29542076235E+02 -0.31664758292E+02  0.58454709934E+02  0.10566000000E+00 0.  1.
         22    1    1    0    0    0 -0.22037386801E+02 -0.18599605920E+02 -0.43776660959E-01  0.28837365930E+02  0.00000000000E+00 0.  1.
</event>
<event>
 5    1  0.1315753E-009  0.9118800E+02  0.7818608E-02  0.1130116E+00
         25   -1    0    0    0    0  0.00000000000E+00  0.00000000000E+00  0.99999998245E-14  0.12500000000E+03  0.12500000000E+03 0.  0.
        -13    1    3    3    0    0 -0.19809889532E+02 -0.18947035178E+02 -0.19934100615E+02  0.33893972867E+02  0.10566000000E+00 0.  1.
         23    2    1    0    0    0  0.24741214627E+02  0.16084852287E+02  0.36201169824E+01  0.95268612187E+02  0.90510513460E+02 0.  0.
         13    1    3    3    0    0  0.44551104158E+02  0.35031887465E+02  0.23554217598E+02  0.61374639321E+02  0.10566000000E+00 0. -1.
         22    1    1    0    0    0 -0.24741214627E+02 -0.16084852287E+02 -0.36201169824E+01  0.29731387813E+02  0.00000000000E+00 0. -1.
</event>
<event>
 5    1  0.1315753E-009  0.9118800E+02  0.7818608E-02  0.1130116E+00
         25   -1    0    0    0    0  0.00000000000E+00  0.00000000000E+00  0.99999998245E-14  0.12500000000E+03  0.12500000000E+03 0.  0.
        -13    1    3    3    0    0  0.41582730449E+02 -0.33455490928E+01 -0.38450832069E+02  0.56734414787E+02  0.10566000000E+00 0. -1.
         23    2    1    0    0    0  0.27885875548E+02  0.71793908971E+01 -0.31525919048E+01  0.96032698702E+02  0.91559678219E+02 0.  0.
         13    1    3    3    0    0 -0.13696854901E+02  0.10524939990E+02  0.35298240164E+02  0.39298283916E+02  0.10566000000E+00 0.  1.
         22    1    1    0    0    0 -0.27885875548E+02 -0.71793908971E+01  0.31525919048E+01  0.28967301298E+02  0.00000000000E+00 0. -1.
</event>
<event>
 5    1  0.1315753E-009  0.9118800E+02  0.7818608E-02  0.1130116E+00
         25   -1    0    0    0    0  0.00000000000E+00  0.00000000000E+00  0.99999998245E-14  0.12500000000E+03  0.12500000000E+03 0.  0.
        -13    1    3    3    0    0 -0.44636951592E+01 -0.12075041408E+02  0.31782799584E+02  0.34291233762E+02  0.10566000000E+00 0. -1.
         23    2    1    0    0    0  0.14315960555E+02  0.94306516961E+01 -0.23145767346E+02  0.96197040707E+02  0.91783768591E+02 0.  0.
         13    1    3    3    0    0  0.18779655714E+02  0.21505693104E+02 -0.54928566929E+02  0.61905806945E+02  0.10566000000E+00 0.  1.
         22    1    1    0    0    0 -0.14315960555E+02 -0.94306516961E+01  0.23145767346E+02  0.28802959293E+02  0.00000000000E+00 0.  1.
</event>
<event>
 5    1  0.1315753E-009  0.9118800E+02  0.7818608E-02  0.1130116E+00
         25   -1    0    0    0    0  0.00000000000E+00  0.00000000000E+00  0.99999998245E-14  0.12500000000E+03  0.12500000000E+03 0.  0.
        -13    1    3    3    0    0 -0.29833107455E+02  0.23597315658E+02  0.39912668858E+02  0.55135105932E+02  0.10566000000E+00 0. -1.
         23    2    1    0    0    0 -0.17490767063E+02  0.25319524346E+02  0.30165941950E+01  0.94079051015E+02  0.88852477477E+02 0.  0.
         13    1    3    3    0    0  0.12342340392E+02  0.17222086886E+01 -0.36896074663E+02  0.38943945084E+02  0.10566000000E+00 0.  1.
         22    1    1    0    0    0  0.17490767063E+02 -0.25319524346E+02 -0.30165941950E+01  0.30920948985E+02  0.00000000000E+00 0.  1.
</event>
<event>
 5    1  0.1315753E-009  0.9118800E+02  0.7818608E-02  0.1130116E+00
         25   -1    0    0    0    0  0.00000000000E+00  0.00000000000E+00  0.99999998245E-14  0.12500000000E+03  0.12500000000E+03 0.  0.
        -13    1    3    3    0    0 -0.35927166903E+02  0.16143029564E+02  0.17790820394E+02  0.43219014097E+02  0.10566000000E+00 0.  1.
         23    2    1    0    0    0 -0.11159763117E+02 -0.27380625586E+02  0.39810173907E+01  0.95165666259E+02  0.90368227629E+02 0.  0.
         13    1    3    3    0    0  0.24767403786E+02 -0.43523655149E+02 -0.13809803003E+02  0.51946652163E+02  0.10566000000E+00 0. -1.
         22    1    1    0    0    0  0.11159763117E+02  0.27380625586E+02 -0.39810173907E+01  0.29834333741E+02  0.00000000000E+00 0. -1.
</event>
<event>
 5    1  0.1315753E-009  0.9118800E+02  0.7818608E-02  0.1130116E+00
         25   -1    0    0    0    0  0.00000000000E+00  0.00000000000E+00  0.99999998245E-14  0.12500000000E+03  0.12500000000E+03 0.  0.
        -13    1    3    3    0    0 -0.31500386422E+02 -0.58767505480E+01 -0.16413984582E+02  0.36003341451E+02  0.10566000000E+00 0. -1.
         23    2    1    0    0    0  0.10878656859E+02 -0.94701824516E+01  0.25491640823E+02  0.95710867501E+02  0.91119245361E+02 0.  0.
         13    1    3    3    0    0  0.42379043281E+02 -0.35934319036E+01  0.41905625405E+02  0.59707526049E+02  0.10566000000E+00 0.  1.
         22    1    1    0    0    0 -0.10878656859E+02  0.94701824516E+01 -0.25491640823E+02  0.29289132499E+02  0.00000000000E+00 0.  1.
</event>
<event>
 5    1  0.1315753E-009  0.9118800E+02  0.7818608E-02  0.1130116E+00
         25   -1    0    0    0    0  0.00000000000E+00  0.00000000000E+00  0.99999998245E-14  0.12500000000E+03  0.12500000000E+03 0.  0.
        -13    1    3    3    0    0  0.23735327610E+02 -0.51850888614E+02  0.16589018765E+02  0.59389284677E+02  0.10566000000E+00 0.  1.
         23    2    1    0    0    0 -0.13330139309E+01 -0.28578531209E+02  0.12283274769E+02  0.93865000220E+02  0.88550833170E+02 0.  0.
         13    1    3    3    0    0 -0.25068341541E+02  0.23272357405E+02 -0.43057439961E+01  0.34475715543E+02  0.10566000000E+00 0. -1.
         22    1    1    0    0    0  0.13330139309E+01  0.28578531209E+02 -0.12283274769E+02  0.31134999780E+02  0.00000000000E+00 0.  1.
</event>
<event>
 5    1  0.1315753E-009  0.9118800E+02  0.7818608E-02  0.1130116E+00
         25   -1    0    0    0    0  0.00000000000E+00  0.00000000000E+00  0.99999998245E-14  0.12500000000E+03  0.12500000000E+03 0.  0.
        -13    1    3    3    0    0  0.18402241238E+02  0.24466831060E+02 -0.46940817867E+02  0.56042125680E+02  0.10566000000E+00 0.  1.
         23    2    1    0    0    0 -0.12923415239E+01 -0.47087868582E+01 -0.29075930892E+02  0.95516910312E+02  0.90852779694E+02 0.  0.
         13    1    3    3    0    0 -0.19694582762E+02 -0.29175617918E+02  0.17864886975E+02  0.39474784632E+02  0.10566000000E+00 0. -1.
         22    1    1    0    0    0  0.12923415239E+01  0.47087868582E+01  0.29075930892E+02  0.29483089688E+02  0.00000000000E+00 0.  1.
</event>
<event>
 5    1  0.1315753E-009  0.9118800E+02  0.7818608E-02  0.1130116E+00
         25   -1    0    0    0    0  0.00000000000E+00  0.00000000000E+00  0.99999998245E-14  0.12500000000E+03  0.12500000000E+03 0.  0.
        -13    1    3    3    0    0  0.40176331878E+02 -0.47289331604E+01  0.26555786175E+02  0.48391335954E+02  0.10566000000E+00 0.  1.
         23    2    1    0    0    0  0.39587790206E+02  0.20703511347E+02  0.86628987639E+01  0.79493139743E+02  0.65178868782E+02 0.  0.
         13    1    3    3    0    0 -0.58854167259E+00  0.25432444508E+02 -0.17892887411E+02  0.31101803788E+02  0.10566000000E+00 0. -1.
         22    1    1    0    0    0 -0.39587790206E+02 -0.20703511347E+02 -0.86628987639E+01  0.45506860257E+02  0.00000000000E+00 0.  1.
</event>
<event>
 5    1  0.1315753E-009  0.9118800E+02  0.7818608E-02  0.1130116E+00
         25   -1    0    0    0    0  0.00000000000E+00  0.00000000000E+00  0.99999998245E-14  0.12500000000E+03  0.12500000000E+03 0.  0.
        -13    1    3    3    0    0 -0.52416109085E+02 -0.14763539568E+02 -0.30074157309E+02  0.62208332996E+02  0.10566000000E+00 0. -1.
         23    2    1    0    0    0 -0.25135899919E+02 -0.90087390569E+01 -0.10340417536E+02  0.96366189934E+02  0.92013843977E+02 0.  0.
         13    1    3    3    0    0  0.27280209167E+02  0.57548005114E+01  0.19733739774E+02  0.34157856938E+02  0.10566000000E+00 0.  1.
         22    1    1    0    0    0  0.25135899919E+02  0.90087390569E+01  0.10340417536E+02  0.28633810066E+02  0.00000000000E+00 0. -1.
</event>
<event>
 5    1  0.1315753E-009  0.9118800E+02  0.7818608E-02  0.1130116E+00
         25   -1    0    0    0    0  0.00000000000E+00  0.00000000000E+00  0.99999998245E-14  0.12500000000E+03  0.12500000000E+03 0.  0.
        -13    1    3    3    0    0  0.35573851845E+02  0.21674746002E+02  0.35840919756E+02  0.54953400644E+02  0.10566000000E+00 0. -1.
         23    2    1    0    0    0  0.19399646002E+02 -0.11561499401E+02  0.18615773896E+02  0.95732926844E+02  0.91149501978E+02 0.  0.
         13    1    3    3    0    0 -0.16174205843E+02 -0.33236245403E+02 -0.17225145860E+02  0.40779526200E+02  0.10566000000E+00 0.  1.
         22    1    1    0    0    0 -0.19399646002E+02  0.11561499401E+02 -0.18615773896E+02  0.29267073156E+02  0.00000000000E+00 0. -1.
</event>
<event>
 5    1  0.1315753E-009  0.9118800E+02  0.7818608E-02  0.1130116E+00
         25   -1    0    0    0    0  0.00000000000E+00  0.00000000000E+00  0.99999998245E-14  0.12500000000E+03  0.12500000000E+03 0.  0.
        -13    1    3    3    0    0 -0.11015241219E+02 -0.10399550642E+02  0.94062114171E+01  0.17831830246E+02  0.10566000000E+00 0.  1.
         23    2    1    0    0    0  0.32142148499E+02 -0.22365861699E+02 -0.28550784238E+02  0.76538708640E+02  0.59242528306E+02 0.  0.
         13    1    3    3    0    0  0.43157389718E+02 -0.11966311058E+02 -0.37956995655E+02  0.58706878394E+02  0.10566000000E+00 0. -1.
         22    1    1    0    0    0 -0.32142148499E+02  0.22365861699E+02  0.28550784238E+02  0.48461291360E+02  0.00000000000E+00 0. -1.
</event>
<event>
 5    1  0.1315753E-009  0.9118800E+02  0.7818608E-02  0.1130116E+00
         25   -1    0    0    0    0  0.00000000000E+00  0.00000000000E+00  0.99999998245E-14  0.12500000000E+03  0.12500000000E+03 0.  0.
        -13    1    3    3    0    0 -0.78460626678E+01 -0.52792093561E+02 -0.16249053658E+02  0.55790758650E+02  0.10566000000E+00 0.  1.
         23    2    1    0    0    0  0.99568948932E+01 -0.25429834945E+02  0.80985163117E+01  0.96514877081E+02  0.92215612942E+02 0.  0.
         13    1    3    3    0    0  0.17802957561E+02  0.27362258616E+02  0.24347569970E+02  0.40724118431E+02  0.10566000000E+00 0. -1.
         22    1    1    0    0    0 -0.99568948932E+01  0.25429834945E+02 -0.80985163117E+01  0.28485122919E+02  0.00000000000E+00 0.  1.
</event>
<event>
 5    1  0.1315753E-009  0.9118800E+02  0.7818608E-02  0.1130116E+00
         25   -1    0    0    0    0  0.00000000000E+00  0.00000000000E+00  0.99999998245E-14  0.12500000000E+03  0.12500000000E+03 0.  0.
        -13    1    3    3    0    0 -0.28781569536E+01 -0.36905007608E+02 -0.25955877343E+02  0.45210420333E+02  0.10566000000E+00 0. -1.
         23    2    1    0    0    0  0.15828772490E+02  0.10548925111E+02 -0.21318355674E+02  0.96428998124E+02  0.92099128829E+02 0.  0.
         13    1    3    3    0    0  0.18706929444E+02  0.47453932719E+02  0.46375216687E+01  0.51218577791E+02  0.10566000000E+00 0.  1.
         22    1    1    0    0    0 -0.15828772490E+02 -0.10548925111E+02  0.21318355674E+02  0.28571001876E+02  0.00000000000E+00 0.  1.
</event>
<event>
 5    1  0.1315753E-009  0.9118800E+02  0.7818608E-02  0.1130116E+00
         25   -1    0    0    0    0  0.00000000000E+00  0.00000000000E+00  0.99999998245E-14  0.12500000000E+03  0.12500000000E+03 0.  0.
        -13    1    3    3    0    0  0.25995641165E+02 -0.27040806178E-01 -0.20894350010E+02  0.33352048170E+02  0.10566000000E+00 0. -1.
         23    2    1    0    0    0 -0.10489593542E+02 -0.17129393407E+02  0.24017359300E+02  0.93690556713E+02  0.88304242131E+02 0.  0.
         13    1    3    3    0    0 -0.36485234706E+02 -0.17102352600E+02  0.44911709310E+02  0.60338508543E+02  0.10566000000E+00 0.  1.
         22    1    1    0    0    0  0.10489593542E+02  0.17129393407E+02 -0.24017359300E+02  0.31309443287E+02  0.00000000000E+00 0.  1.
</event>
<event>
 5    1  0.1315753E-009  0.9118800E+02  0.7818608E-02  0.1130116E+00
         25   -1    0    0    0    0  0.00000000000E+00  0.00000000000E+00  0.99999998245E-14  0.12500000000E+03  0.12500000000E+03 0.  0.
        -13    1    3    3    0    0 -0.48519481537E+01  0.50115565563E+02  0.67122854946E+01  0.50795445201E+02  0.10566000000E+00 0. -1.
         23    2    1    0    0    0  0.24699388497E+02  0.24065922949E+02  0.40218543702E+01  0.90281075016E+02  0.83338279043E+02 0.  0.
         13    1    3    3    0    0  0.29551336650E+02 -0.26049642614E+02 -0.26904311244E+01  0.39485629814E+02  0.10566000000E+00 0.  1.
         22    1    1    0    0    0 -0.24699388497E+02 -0.24065922949E+02 -0.40218543702E+01  0.34718924984E+02  0.00000000000E+00 0.  1.
</event>
<event>
 5    1  0.1315753E-009  0.9118800E+02  0.7818608E-02  0.1130116E+00
         25   -1    0    0    0    0  0.00000000000E+00  0.00000000000E+00  0.99999998245E-14  0.12500000000E+03  0.12500000000E+03 0.  0.
        -13    1    3    3    0    0  0.11971734016E+02 -0.54131709808E+02 -0.24938741469E+02  0.60790759266E+02  0.10566000000E+00 0.  1.
         23    2    1    0    0    0  0.32266232637E+01 -0.17584460477E+02 -0.19130405576E+02  0.98816097207E+02  0.95283914182E+02 0.  0.
         13    1    3    3    0    0 -0.87451107521E+01  0.36547249330E+02  0.58083358927E+01  0.38025337941E+02  0.10566000000E+00 0. -1.
         22    1    1    0    0    0 -0.32266232637E+01  0.17584460477E+02  0.19130405576E+02  0.26183902793E+02  0.00000000000E+00 0.  1.
</event>
<event>
 5    1  0.1315753E-009  0.9118800E+02  0.7818608E-02  0.1130116E+00
         25   -1    0    0    0    0  0.00000000000E+00  0.00000000000E+00  0.99999998245E-14  0.12500000000E+03  0.12500000000E+03 0.  0.
        -13    1    3    3    0    0  0.28891092735E+02  0.24743582679E+01 -0.51395820517E+02  0.59011517680E+02  0.10566000000E+00 0.  1.
         23    2    1    0    0    0  0.28175517519E+02  0.30834144578E+01 -0.20264369609E+02  0.90157326339E+02  0.83152459885E+02 0.  0.
         13    1    3    3    0    0 -0.71557521645E+00  0.60905618994E+00  0.31131450908E+02  0.31145808659E+02  0.10566000000E+00 0. -1.
         22    1    1    0    0    0 -0.28175517519E+02 -0.30834144578E+01  0.20264369609E+02  0.34842673661E+02  0.00000000000E+00 0.  1.
</event>
<event>
 5    1  0.1315753E-009  0.9118800E+02  0.7818608E-02  0.1130116E+00
         25   -1    0    0    0    0  0.00000000000E+00  0.00000000000E+00  0.99999998245E-14  0.12500000000E+03  0.12500000000E+03 0.  0.
        -13    1    3    3    0    0 -0.26293608715E+02 -0.23182142745E+01 -0.28244144508E+02  0.38658386408E+02  0.10566000000E+00 0.  1.
         23    2    1    0    0    0  0.20097831419E+02  0.20611739067E+02 -0.35621606450E+01  0.95992145830E+02  0.91504297481E+02 0.  0.
         13    1    3    3    0    0  0.46391440134E+02  0.22929953341E+02  0.24681983863E+02  0.57333759421E+02  0.10566000000E+00 0. -1.
         22    1    1    0    0    0 -0.20097831419E+02 -0.20611739067E+02  0.35621606450E+01  0.29007854170E+02  0.00000000000E+00 0. -1.
</event>
<event>
 5    1  0.1315753E-009  0.9118800E+02  0.7818608E-02  0.1130116E+00
         25   -1    0    0    0    0  0.00000000000E+00  0.00000000000E+00  0.99999998245E-14  0.12500000000E+03  0.12500000000E+03 0.  0.
        -13    1    3    3    0    0  0.91789760359E+01 -0.22216885754E+02 -0.33198495641E+02  0.40987740735E+02  0.10566000000E+00 0.  1.
         23    2    1    0    0    0 -0.19713932753E+02  0.17904231106E+02 -0.18519417197E+02  0.92562838451E+02  0.86693192424E+02 0.  0.
         13    1    3    3    0    0 -0.28892908788E+02  0.40121116860E+02  0.14679078444E+02  0.51575097715E+02  0.10566000000E+00 0. -1.
         22    1    1    0    0    0  0.19713932753E+02 -0.17904231106E+02  0.18519417197E+02  0.32437161549E+02  0.00000000000E+00 0.  1.
</event>
<event>
 5    1  0.1315753E-009  0.9118800E+02  0.7818608E-02  0.1130116E+00
         25   -1    0    0    0    0  0.00000000000E+00  0.00000000000E+00  0.99999998245E-14  0.12500000000E+03  0.12500000000E+03 0.  0.
        -13    1    3    3    0    0  0.28488484320E+02  0.37604284379E+02 -0.19840521226E+01  0.47218889963E+02  0.10566000000E+00 0. -1.
         23    2    1    0    0    0 -0.15369318150E+02  0.24098688927E+02  0.10120228585E+02  0.94678691074E+02  0.89692099810E+02 0.  0.
         13    1    3    3    0    0 -0.43857802469E+02 -0.13505595452E+02  0.12104280708E+02  0.47459801110E+02  0.10566000000E+00 0.  1.
         22    1    1    0    0    0  0.15369318150E+02 -0.24098688927E+02 -0.10120228585E+02  0.30321308926E+02  0.00000000000E+00 0.  1.
</event>
<event>
 5    1  0.1315753E-009  0.9118800E+02  0.7818608E-02  0.1130116E+00
         25   -1    0    0    0    0  0.00000000000E+00  0.00000000000E+00  0.99999998245E-14  0.12500000000E+03  0.12500000000E+03 0.  0.
        -13    1    3    3    0    0 -0.43365216484E+01 -0.16745358646E+02  0.51197734369E+02  0.54041017984E+02  0.10566000000E+00 0.  1.
         23    2    1    0    0    0  0.20080533547E+02 -0.10589340683E+01  0.21259907892E+02  0.95736834545E+02  0.91154860738E+02 0.  0.
         13    1    3    3    0    0  0.24417055195E+02  0.15686424578E+02 -0.29937826477E+02  0.41695816560E+02  0.10566000000E+00 0. -1.
         22    1    1    0    0    0 -0.20080533547E+02  0.10589340683E+01 -0.21259907892E+02  0.29263165455E+02  0.00000000000E+00 0. -1.
</event>
<event>
 5    1  0.1315753E-009  0.9118800E+02  0.7818608E-02  0.1130116E+00
         25   -1    0    0    0    0  0.00000000000E+00  0.00000000000E+00  0.99999998245E-14  0.12500000000E+03  0.12500000000E+03 0.  0.
        -13    1    3    3    0    0  0.28653470701E+02 -0.53448990877E+01 -0.51890103238E+02  0.59516244065E+02  0.10566000000E+00 0. -1.
         23    2    1    0    0    0  0.13294782495E+02 -0.15714977779E+02 -0.20627769451E+02  0.95858678124E+02  0.91321791106E+02 0.  0.
         13    1    3    3    0    0 -0.15358688206E+02 -0.10370078691E+02  0.31262333787E+02  0.36342434059E+02  0.10566000000E+00 0.  1.
         22    1    1    0    0    0 -0.13294782495E+02  0.15714977779E+02  0.20627769451E+02  0.29141321876E+02  0.00000000000E+00 0. -1.
</event>
<event>
 5    1  0.1315753E-009  0.9118800E+02  0.7818608E-02  0.1130116E+00
         25   -1    0    0    0    0  0.00000000000E+00  0.00000000000E+00  0.99999998245E-14  0.12500000000E+03  0.12500000000E+03 0.  0.
        -13    1    3    3    0    0 -0.87965987172E+01 -0.16453057469E+02  0.51785822333E+02  0.55044216843E+02  0.10566000000E+00 0. -1.
         23    2    1    0    0    0  0.14045080088E+02 -0.17896399688E+02  0.17362856056E+02  0.96381576443E+02  0.92034744041E+02 0.  0.
         13    1    3    3    0    0  0.22841678805E+02 -0.14433422186E+01 -0.34422966277E+02  0.41337359600E+02  0.10566000000E+00 0.  1.
         22    1    1    0    0    0 -0.14045080088E+02  0.17896399688E+02 -0.17362856056E+02  0.28618423557E+02  0.00000000000E+00 0. -1.
</event>
<event>
 5    1  0.1315753E-009  0.9118800E+02  0.7818608E-02  0.1130116E+00
         25   -1    0    0    0    0  0.00000000000E+00  0.00000000000E+00  0.99999998245E-14  0.12500000000E+03  0.12500000000E+03 0.  0.
        -13    1    3    3    0    0 -0.40018566733E+02 -0.23896804486E+02  0.12954962897E+02  0.48377527590E+02  0.10566000000E+00 0. -1.
         23    2    1    0    0    0 -0.10306522983E+02  0.10889889863E+02  0.25146504752E+02  0.95722691065E+02  0.91135463823E+02 0.  0.
         13    1    3    3    0    0  0.29712043750E+02  0.34786694349E+02  0.12191541856E+02  0.47345163475E+02  0.10566000000E+00 0.  1.
         22    1    1    0    0    0  0.10306522983E+02 -0.10889889863E+02 -0.25146504752E+02  0.29277308935E+02  0.00000000000E+00 0.  1.
</event>
<event>
 5    1  0.1315753E-009  0.9118800E+02  0.7818608E-02  0.1130116E+00
         25   -1    0    0    0    0  0.00000000000E+00  0.00000000000E+00  0.99999998245E-14  0.12500000000E+03  0.12500000000E+03 0.  0.
        -13    1    3    3    0    0  0.16522020246E+02  0.26296597378E+02 -0.18706620157E+02  0.36255164989E+02  0.10566000000E+00 0.  1.
         23    2    1    0    0    0 -0.13535599050E+02 -0.44249999387E+01  0.24158346025E+02  0.96956841320E+02  0.92812770295E+02 0.  0.
         13    1    3    3    0    0 -0.30057619296E+02 -0.30721597317E+02  0.42864966182E+02  0.60701676330E+02  0.10566000000E+00 0. -1.
         22    1    1    0    0    0  0.13535599050E+02  0.44249999387E+01 -0.24158346025E+02  0.28043158680E+02  0.00000000000E+00 0. -1.
</event>
<event>
 5    1  0.1315753E-009  0.9118800E+02  0.7818608E-02  0.1130116E+00
         25   -1    0    0    0    0  0.00000000000E+00  0.00000000000E+00  0.99999998245E-14  0.12500000000E+03  0.12500000000E+03 0.  0.
        -13    1    3    3    0    0 -0.10299366100E+02 -0.37707009793E+02  0.42154678809E+02  0.57488465270E+02  0.10566000000E+00 0.  1.
         23    2    1    0    0    0 -0.23882785713E+01 -0.34784257058E+01  0.30063193432E+02  0.94642152263E+02  0.89641162786E+02 0.  0.
         13    1    3    3    0    0  0.79110875287E+01  0.34228584087E+02 -0.12091485377E+02  0.37153686993E+02  0.10566000000E+00 0. -1.
         22    1    1    0    0    0  0.23882785713E+01  0.34784257058E+01 -0.30063193432E+02  0.30357847737E+02  0.00000000000E+00 0.  1.
</event>
<event>
 5    1  0.1315753E-009  0.9118800E+02  0.7818608E-02  0.1130116E+00
         25   -1    0    0    0    0  0.00000000000E+00  0.00000000000E+00  0.99999998245E-14  0.12500000000E+03  0.12500000000E+03 0.  0.
        -13    1    3    3    0    0  0.80937614596E+01  0.31005009339E+01 -0.58961729254E+02  0.59595459234E+02  0.10566000000E+00 0.  1.
         23    2    1    0    0    0 -0.54485019509E+01  0.11247813851E+02 -0.25478977177E+02  0.96620821578E+02  0.92359111053E+02 0.  0.
         13    1    3    3    0    0 -0.13542263410E+02  0.81473129167E+01  0.33482752077E+02  0.37025362345E+02  0.10566000000E+00 0. -1.
         22    1    1    0    0    0  0.54485019509E+01 -0.11247813851E+02  0.25478977177E+02  0.28379178422E+02  0.00000000000E+00 0.  1.
</event>
<event>
 5    1  0.1315753E-009  0.9118800E+02  0.7818608E-02  0.1130116E+00
         25   -1    0    0    0    0  0.00000000000E+00  0.00000000000E+00  0.99999998245E-14  0.12500000000E+03  0.12500000000E+03 0.  0.
        -13    1    3    3    0    0 -0.44198943519E+02  0.21655082758E+02  0.23913201818E+02  0.54720577507E+02  0.10566000000E+00 0. -1.
         23    2    1    0    0    0 -0.10330346405E+02 -0.38649016039E+00  0.27822880342E+02  0.95318724724E+02  0.90579695191E+02 0.  0.
         13    1    3    3    0    0  0.33868597114E+02 -0.22041572919E+02  0.39096785247E+01  0.40598147217E+02  0.10566000000E+00 0.  1.
         22    1    1    0    0    0  0.10330346405E+02  0.38649016039E+00 -0.27822880342E+02  0.29681275276E+02  0.00000000000E+00 0. -1.
</event>
<event>
 5    1  0.1315753E-009  0.9118800E+02  0.7818608E-02  0.1130116E+00
         25   -1    0    0    0    0  0.00000000000E+00  0.00000000000E+00  0.99999998245E-14  0.12500000000E+03  0.12500000000E+03 0.  0.
        -13    1    3    3    0    0 -0.32761875668E+01  0.46664934599E+02  0.48983769933E+01  0.47035675687E+02  0.10566000000E+00 0.  1.
         23    2    1    0    0    0 -0.27259868693E+01 -0.26639135207E+01  0.24563316834E+02  0.10014272795E+03  0.97008669658E+02 0.  0.
         13    1    3    3    0    0  0.55020069757E+00 -0.49328848120E+02  0.19664939840E+02  0.53107052268E+02  0.10566000000E+00 0. -1.
         22    1    1    0    0    0  0.27259868693E+01  0.26639135207E+01 -0.24563316834E+02  0.24857272045E+02  0.00000000000E+00 0. -1.
</event>
<event>
 5    1  0.1315753E-009  0.9118800E+02  0.7818608E-02  0.1130116E+00
         25   -1    0    0    0    0  0.00000000000E+00  0.00000000000E+00  0.99999998245E-14  0.12500000000E+03  0.12500000000E+03 0.  0.
        -13    1    3    3    0    0  0.12084767801E+02 -0.18904696069E+02  0.46995640883E+02  0.52077159795E+02  0.10566000000E+00 0.  1.
         23    2    1    0    0    0  0.24868585320E+02 -0.15849026612E+02  0.62972798329E+01  0.94845499281E+02  0.89924272698E+02 0.  0.
         13    1    3    3    0    0  0.12783817519E+02  0.30556694572E+01 -0.40698361050E+02  0.42768339486E+02  0.10566000000E+00 0. -1.
         22    1    1    0    0    0 -0.24868585320E+02  0.15849026612E+02 -0.62972798329E+01  0.30154500719E+02  0.00000000000E+00 0.  1.
</event>
<event>
 5    1  0.1315753E-009  0.9118800E+02  0.7818608E-02  0.1130116E+00
         25   -1    0    0    0    0  0.00000000000E+00  0.00000000000E+00  0.99999998245E-14  0.12500000000E+03  0.12500000000E+03 0.  0.
        -13    1    3    3    0    0 -0.27300219877E+02 -0.59988892647E+01  0.42648078717E+02  0.50991748941E+02  0.10566000000E+00 0.  1.
         23    2    1    0    0    0  0.96497308920E+01 -0.19002356532E+02  0.15215160548E+02  0.98813973754E+02  0.95281128449E+02 0.  0.
         13    1    3    3    0    0  0.36949950768E+02 -0.13003467267E+02 -0.27432918169E+02  0.47822224813E+02  0.10566000000E+00 0. -1.
         22    1    1    0    0    0 -0.96497308920E+01  0.19002356532E+02 -0.15215160548E+02  0.26186026246E+02  0.00000000000E+00 0.  1.
</event>
<event>
 5    1  0.1315753E-009  0.9118800E+02  0.7818608E-02  0.1130116E+00
         25   -1    0    0    0    0  0.00000000000E+00  0.00000000000E+00  0.99999998245E-14  0.12500000000E+03  0.12500000000E+03 0.  0.
        -13    1    3    3    0    0 -0.99330618929E+01 -0.20867947891E+02 -0.33340834291E+02  0.40567959808E+02  0.10566000000E+00 0. -1.
         23    2    1    0    0    0 -0.18442639876E+02  0.22430630142E+02  0.14286113865E+00  0.95960638032E+02  0.91461245936E+02 0.  0.
         13    1    3    3    0    0 -0.85095779829E+01  0.43298578034E+02  0.33483695430E+02  0.55392678224E+02  0.10566000000E+00 0.  1.
         22    1    1    0    0    0  0.18442639876E+02 -0.22430630142E+02 -0.14286113865E+00  0.29039361968E+02  0.00000000000E+00 0.  1.
</event>
<event>
 5    1  0.1315753E-009  0.9118800E+02  0.7818608E-02  0.1130116E+00
         25   -1    0    0    0    0  0.00000000000E+00  0.00000000000E+00  0.99999998245E-14  0.12500000000E+03  0.12500000000E+03 0.  0.
        -13    1    3    3    0    0 -0.61790772923E+02 -0.57477689586E+01 -0.72507303247E+01  0.62479762489E+02  0.10566000000E+00 0.  1.
         23    2    1    0    0    0 -0.28970381457E+02 -0.16558378881E+01 -0.29534238280E+01  0.95832423598E+02  0.91285847202E+02 0.  0.
         13    1    3    3    0    0  0.32820391466E+02  0.40919310705E+01  0.42973064967E+01  0.33352661109E+02  0.10566000000E+00 0. -1.
         22    1    1    0    0    0  0.28970381457E+02  0.16558378881E+01  0.29534238280E+01  0.29167576402E+02  0.00000000000E+00 0.  1.
</event>
<event>
 5    1  0.1315753E-009  0.9118800E+02  0.7818608E-02  0.1130116E+00
         25   -1    0    0    0    0  0.00000000000E+00  0.00000000000E+00  0.99999998245E-14  0.12500000000E+03  0.12500000000E+03 0.  0.
        -13    1    3    3    0    0 -0.44600873399E+02 -0.19597257961E+01  0.30563005128E+02  0.54103483064E+02  0.10566000000E+00 0. -1.
         23    2    1    0    0    0 -0.24492694159E+01 -0.65605415683E+01  0.27507049343E+02  0.96615543163E+02  0.92351966903E+02 0.  0.
         13    1    3    3    0    0  0.42151603983E+02 -0.46008157722E+01 -0.30559557841E+01  0.42512060100E+02  0.10566000000E+00 0.  1.
         22    1    1    0    0    0  0.24492694159E+01  0.65605415683E+01 -0.27507049343E+02  0.28384456837E+02  0.00000000000E+00 0. -1.
</event>
<event>
 5    1  0.1315753E-009  0.9118800E+02  0.7818608E-02  0.1130116E+00
         25   -1    0    0    0    0  0.00000000000E+00  0.00000000000E+00  0.99999998245E-14  0.12500000000E+03  0.12500000000E+03 0.  0.
        -13    1    3    3    0    0  0.30602020687E+02  0.41996755786E+02  0.44986847274E+01  0.52158033849E+02  0.10566000000E+00 0.  1.
         23    2    1    0    0    0 -0.91207074779E+01  0.28126956806E+02 -0.42346605546E+01  0.95129523705E+02  0.90318220345E+02 0.  0.
         13    1    3    3    0    0 -0.39722728165E+02 -0.13869798980E+02 -0.87333452820E+01  0.42971489856E+02  0.10566000000E+00 0. -1.
         22    1    1    0    0    0  0.91207074779E+01 -0.28126956806E+02  0.42346605546E+01  0.29870476295E+02  0.00000000000E+00 0. -1.
</event>
<event>
 5    1  0.1315753E-009  0.9118800E+02  0.7818608E-02  0.1130116E+00
         25   -1    0    0    0    0  0.00000000000E+00  0.00000000000E+00  0.99999998245E-14  0.12500000000E+03  0.12500000000E+03 0.  0.
        -13    1    3    3    0    0  0.98216585665E+01  0.20951432487E+02 -0.56357002924E+02  0.60922495376E+02  0.10566000000E+00 0.  1.
         23    2    1    0    0    0  0.50467605486E+01  0.42253848129E+00 -0.29529464480E+02  0.95039399150E+02  0.90193402128E+02 0.  0.
         13    1    3    3    0    0 -0.47748980180E+01 -0.20528894005E+02  0.26827538443E+02  0.34116903774E+02  0.10566000000E+00 0. -1.
         22    1    1    0    0    0 -0.50467605486E+01 -0.42253848129E+00  0.29529464480E+02  0.29960600850E+02  0.00000000000E+00 0.  1.
</event>
<event>
 5    1  0.1315753E-009  0.9118800E+02  0.7818608E-02  0.1130116E+00
         25   -1    0    0    0    0  0.00000000000E+00  0.00000000000E+00  0.99999998245E-14  0.12500000000E+03  0.12500000000E+03 0.  0.
        -13    1    3    3    0    0  0.82216210939E+01  0.30848509401E+02 -0.35887390121E+02  0.48032713013E+02  0.10566000000E+00 0.  1.
         23    2    1    0    0    0  0.60131452167E+01  0.26141299848E+02  0.11579312884E+02  0.95783464271E+02  0.91218781333E+02 0.  0.
         13    1    3    3    0    0 -0.22084758772E+01 -0.47072095532E+01  0.47466703005E+02  0.47750751258E+02  0.10566000000E+00 0. -1.
         22    1    1    0    0    0 -0.60131452167E+01 -0.26141299848E+02 -0.11579312884E+02  0.29216535729E+02  0.00000000000E+00 0.  1.
</event>
<event>
 5    1  0.1315753E-009  0.9118800E+02  0.7818608E-02  0.1130116E+00
         25   -1    0    0    0    0  0.00000000000E+00  0.00000000000E+00  0.99999998245E-14  0.12500000000E+03  0.12500000000E+03 0.  0.
        -13    1    3    3    0    0  0.28244546899E+02  0.41554146145E+02 -0.26598631672E+02  0.56850680403E+02  0.10566000000E+00 0.  1.
         23    2    1    0    0    0  0.29153364962E+02  0.96309895210E+01 -0.11068337699E+02  0.92362862454E+02  0.86404372653E+02 0.  0.
         13    1    3    3    0    0  0.90881806364E+00 -0.31923156624E+02  0.15530293973E+02  0.35512182051E+02  0.10566000000E+00 0. -1.
         22    1    1    0    0    0 -0.29153364962E+02 -0.96309895210E+01  0.11068337699E+02  0.32637137546E+02  0.00000000000E+00 0.  1.
</event>
<event>
 5    1  0.1315753E-009  0.9118800E+02  0.7818608E-02  0.1130116E+00
         25   -1    0    0    0    0  0.00000000000E+00  0.00000000000E+00  0.99999998245E-14  0.12500000000E+03  0.12500000000E+03 0.  0.
        -13    1    3    3    0    0 -0.38110447186E+02 -0.19736877615E+01  0.43447727284E+02  0.57827483071E+02  0.10566000000E+00 0.  1.
         23    2    1    0    0    0 -0.25208300336E+02  0.87339845378E+01  0.78270510439E+01  0.97197057354E+02  0.93135730729E+02 0.  0.
         13    1    3    3    0    0  0.12902146850E+02  0.10707672299E+02 -0.35620676240E+02  0.39369574283E+02  0.10566000000E+00 0. -1.
         22    1    1    0    0    0  0.25208300336E+02 -0.87339845378E+01 -0.78270510439E+01  0.27802942646E+02  0.00000000000E+00 0.  1.
</event>
<event>
 5    1  0.1315753E-009  0.9118800E+02  0.7818608E-02  0.1130116E+00
         25   -1    0    0    0    0  0.00000000000E+00  0.00000000000E+00  0.99999998245E-14  0.12500000000E+03  0.12500000000E+03 0.  0.
        -13    1    3    3    0    0 -0.39891779753E+02  0.13850269319E+01 -0.89875102883E+01  0.40915264837E+02  0.10566000000E+00 0. -1.
         23    2    1    0    0    0  0.12266364314E+02  0.22727464917E+01 -0.26310195540E+02  0.95882042320E+02  0.91353766096E+02 0.  0.
         13    1    3    3    0    0  0.52158144067E+02  0.88771955978E+00 -0.17322685251E+02  0.54966777483E+02  0.10566000000E+00 0.  1.
         22    1    1    0    0    0 -0.12266364314E+02 -0.22727464917E+01  0.26310195540E+02  0.29117957680E+02  0.00000000000E+00 0.  1.
</event>
<event>
 5    1  0.1315753E-009  0.9118800E+02  0.7818608E-02  0.1130116E+00
         25   -1    0    0    0    0  0.00000000000E+00  0.00000000000E+00  0.99999998245E-14  0.12500000000E+03  0.12500000000E+03 0.  0.
        -13    1    3    3    0    0 -0.42766754776E+01  0.20223458785E+02 -0.38744620685E+02  0.43913950339E+02  0.10566000000E+00 0.  1.
         23    2    1    0    0    0 -0.17990198782E+02  0.21152728069E+02  0.10705887651E+02  0.95239267694E+02  0.90469978023E+02 0.  0.
         13    1    3    3    0    0 -0.13713523304E+02  0.92926928481E+00  0.49450508336E+02  0.51325317355E+02  0.10566000000E+00 0. -1.
         22    1    1    0    0    0  0.17990198782E+02 -0.21152728069E+02 -0.10705887651E+02  0.29760732306E+02  0.00000000000E+00 0. -1.
</event>
<event>
 5    1  0.1315753E-009  0.9118800E+02  0.7818608E-02  0.1130116E+00
         25   -1    0    0    0    0  0.00000000000E+00  0.00000000000E+00  0.99999998245E-14  0.12500000000E+03  0.12500000000E+03 0.  0.
        -13    1    3    3    0    0 -0.27693363705E+02 -0.49521424555E+01 -0.27687834847E+02  0.39472439381E+02  0.10566000000E+00 0.  1.
         23    2    1    0    0    0 -0.47044134588E+01  0.26554016629E+02  0.12325604231E+02  0.95349235680E+02  0.90621790536E+02 0.  0.
         13    1    3    3    0    0  0.22988950246E+02  0.31506159084E+02  0.40013439078E+02  0.55876796298E+02  0.10566000000E+00 0. -1.
         22    1    1    0    0    0  0.47044134588E+01 -0.26554016629E+02 -0.12325604231E+02  0.29650764320E+02  0.00000000000E+00 0. -1.
</event>
<event>
 5    1  0.1315753E-009  0.9118800E+02  0.7818608E-02  0.1130116E+00
         25   -1    0    0    0    0  0.00000000000E+00  0.00000000000E+00  0.99999998245E-14  0.12500000000E+03  0.12500000000E+03 0.  0.
        -13    1    3    3    0    0  0.38659368317E+02 -0.32077236742E+02  0.28094739600E+02  0.57557114529E+02  0.10566000000E+00 0.  1.
         23    2    1    0    0    0  0.14154705412E+02 -0.26315416320E+02  0.21697760569E+00  0.95118502369E+02  0.90302965578E+02 0.  0.
         13    1    3    3    0    0 -0.24504662905E+02  0.57618204220E+01 -0.27877761994E+02  0.37561387840E+02  0.10566000000E+00 0. -1.
         22    1    1    0    0    0 -0.14154705412E+02  0.26315416320E+02 -0.21697760569E+00  0.29881497631E+02  0.00000000000E+00 0.  1.
</event>
<event>
 5    1  0.1315753E-009  0.9118800E+02  0.7818608E-02  0.1130116E+00
         25   -1    0    0    0    0  0.00000000000E+00  0.00000000000E+00  0.99999998245E-14  0.12500000000E+03  0.12500000000E+03 0.  0.
        -13    1    3    3    0    0 -0.45325434536E+02  0.37255617928E+02 -0.14323243547E+02  0.60394888466E+02  0.10566000000E+00 0. -1.
         23    2    1    0    0    0 -0.22825296485E+02  0.10754805767E+02 -0.15867161152E+02  0.95193510610E+02  0.90406734553E+02 0.  0.
         13    1    3    3    0    0  0.22500138051E+02 -0.26500812161E+02 -0.15439176058E+01  0.34798622144E+02  0.10566000000E+00 0.  1.
         22    1    1    0    0    0  0.22825296485E+02 -0.10754805767E+02  0.15867161152E+02  0.29806489390E+02  0.00000000000E+00 0. -1.
</event>
<event>
 5    1  0.1315753E-009  0.9118800E+02  0.7818608E-02  0.1130116E+00
         25   -1    0    0    0    0  0.00000000000E+00  0.00000000000E+00  0.99999998245E-14  0.12500000000E+03  0.12500000000E+03 0.  0.
        -13    1    3    3    0    0 -0.34759589744E+02 -0.47712688224E+02 -0.11084877599E+02  0.60063427909E+02  0.10566000000E+00 0. -1.
         23    2    1    0    0    0 -0.21597791200E+02 -0.13394089475E+02 -0.12141563142E+02  0.96834706230E+02  0.92648133049E+02 0.  0.
         13    1    3    3    0    0  0.13161798544E+02  0.34318598749E+02 -0.10566855435E+01  0.36771278321E+02  0.10566000000E+00 0.  1.
         22    1    1    0    0    0  0.21597791200E+02  0.13394089475E+02  0.12141563142E+02  0.28165293770E+02  0.00000000000E+00 0. -1.
</event>
<event>
 5    1  0.1315753E-009  0.9118800E+02  0.7818608E-02  0.1130116E+00
         25   -1    0    0    0    0  0.00000000000E+00  0.00000000000E+00  0.99999998245E-14  0.12500000000E+03  0.12500000000E+03 0.  0.
        -13    1    3    3    0    0 -0.11369315568E+02 -0.21845231311E+01  0.34471538271E+02  0.36363877579E+02  0.10566000000E+00 0.  1.
         23    2    1    0    0    0 -0.94592845024E+01 -0.32646122699E+02 -0.93329177114E+01  0.89753003765E+02  0.82542419041E+02 0.  0.
         13    1    3    3    0    0  0.19100310658E+01 -0.30461599568E+02 -0.43804455982E+02  0.53389126186E+02  0.10566000000E+00 0. -1.
         22    1    1    0    0    0  0.94592845024E+01  0.32646122699E+02  0.93329177114E+01  0.35246996235E+02  0.00000000000E+00 0. -1.
</event>
<event>
 5    1  0.1315753E-009  0.9118800E+02  0.7818608E-02  0.1130116E+00
         25   -1    0    0    0    0  0.00000000000E+00  0.00000000000E+00  0.99999998245E-14  0.12500000000E+03  0.12500000000E+03 0.  0.
        -13    1    3    3    0    0 -0.17706509169E+02  0.13012602811E+01  0.36776125982E+02  0.40837585036E+02  0.10566000000E+00 0.  1.
         23    2    1    0    0    0 -0.17709509090E+02 -0.17453607148E+02 -0.15037883663E+02  0.95941557858E+02  0.91435165360E+02 0.  0.
         13    1    3    3    0    0 -0.29999203913E-02 -0.18754867429E+02 -0.51814009645E+02  0.55103972822E+02  0.10566000000E+00 0. -1.
         22    1    1    0    0    0  0.17709509090E+02  0.17453607148E+02  0.15037883663E+02  0.29058442142E+02  0.00000000000E+00 0. -1.
</event>
<event>
 5    1  0.1315753E-009  0.9118800E+02  0.7818608E-02  0.1130116E+00
         25   -1    0    0    0    0  0.00000000000E+00  0.00000000000E+00  0.99999998245E-14  0.12500000000E+03  0.12500000000E+03 0.  0.
        -13    1    3    3    0    0  0.25988309790E+02 -0.19806480623E+02  0.11129084656E+01  0.32694627230E+02  0.10566000000E+00 0. -1.
         23    2    1    0    0    0 -0.27486841047E+02  0.11801627084E+02 -0.29254882313E+01  0.94943997040E+02  0.90061086269E+02 0.  0.
         13    1    3    3    0    0 -0.53475150837E+02  0.31608107707E+02 -0.40383966970E+01  0.62249369810E+02  0.10566000000E+00 0.  1.
         22    1    1    0    0    0  0.27486841047E+02 -0.11801627084E+02  0.29254882313E+01  0.30056002960E+02  0.00000000000E+00 0.  1.
</event>
<event>
 5    1  0.1315753E-009  0.9118800E+02  0.7818608E-02  0.1130116E+00
         25   -1    0    0    0    0  0.00000000000E+00  0.00000000000E+00  0.99999998245E-14  0.12500000000E+03  0.12500000000E+03 0.  0.
        -13    1    3    3    0    0  0.17471488262E+02  0.36096833750E+02  0.44872498392E+02  0.60181281017E+02  0.10566000000E+00 0. -1.
         23    2    1    0    0    0  0.18492380925E+02  0.11120561820E+02  0.17822528587E+02  0.97012903461E+02  0.92888243956E+02 0.  0.
         13    1    3    3    0    0  0.10208926630E+01 -0.24976271931E+02 -0.27049969805E+02  0.36831622444E+02  0.10566000000E+00 0.  1.
         22    1    1    0    0    0 -0.18492380925E+02 -0.11120561820E+02 -0.17822528587E+02  0.27987096539E+02  0.00000000000E+00 0. -1.
</event>
<event>
 5    1  0.1315753E-009  0.9118800E+02  0.7818608E-02  0.1130116E+00
         25   -1    0    0    0    0  0.00000000000E+00  0.00000000000E+00  0.99999998245E-14  0.12500000000E+03  0.12500000000E+03 0.  0.
        -13    1    3    3    0    0  0.16133203092E+02  0.41941707831E+02 -0.10702114454E+02  0.46194518242E+02  0.10566000000E+00 0.  1.
         23    2    1    0    0    0  0.78833802747E+01  0.10173494978E+02  0.26338616234E+02  0.95684980134E+02  0.91083725404E+02 0.  0.
         13    1    3    3    0    0 -0.82498228173E+01 -0.31768212853E+02  0.37040730687E+02  0.49490461892E+02  0.10566000000E+00 0. -1.
         22    1    1    0    0    0 -0.78833802747E+01 -0.10173494978E+02 -0.26338616234E+02  0.29315019866E+02  0.00000000000E+00 0. -1.
</event>
<event>
 5    1  0.1315753E-009  0.9118800E+02  0.7818608E-02  0.1130116E+00
         25   -1    0    0    0    0  0.00000000000E+00  0.00000000000E+00  0.99999998245E-14  0.12500000000E+03  0.12500000000E+03 0.  0.
        -13    1    3    3    0    0 -0.28529469207E+01 -0.38115766060E+02  0.97713284738E+01  0.39451754748E+02  0.10566000000E+00 0.  1.
         23    2    1    0    0    0 -0.71620993029E+01  0.42758417384E+01 -0.27623897891E+02  0.96144182151E+02  0.91711752452E+02 0.  0.
         13    1    3    3    0    0 -0.43091523823E+01  0.42391607799E+02 -0.37395226365E+02  0.56692427404E+02  0.10566000000E+00 0. -1.
         22    1    1    0    0    0  0.71620993029E+01 -0.42758417384E+01  0.27623897891E+02  0.28855817849E+02  0.00000000000E+00 0. -1.
</event>
<event>
 5    1  0.1315753E-009  0.9118800E+02  0.7818608E-02  0.1130116E+00
         25   -1    0    0    0    0  0.00000000000E+00  0.00000000000E+00  0.99999998245E-14  0.12500000000E+03  0.12500000000E+03 0.  0.
        -13    1    3    3    0    0 -0.47330534774E+01  0.29688551674E+02 -0.15106054892E+02  0.33645444776E+02  0.10566000000E+00 0. -1.
         23    2    1    0    0    0  0.32830945763E+02 -0.38285383792E+01 -0.23175235467E+02  0.84631444852E+02  0.74383205181E+02 0.  0.
         13    1    3    3    0    0  0.37563999240E+02 -0.33517090053E+02 -0.80691805753E+01  0.50986000076E+02  0.10566000000E+00 0.  1.
         22    1    1    0    0    0 -0.32830945763E+02  0.38285383792E+01  0.23175235467E+02  0.40368555148E+02  0.00000000000E+00 0.  1.
</event>
<event>
 5    1  0.1315753E-009  0.9118800E+02  0.7818608E-02  0.1130116E+00
         25   -1    0    0    0    0  0.00000000000E+00  0.00000000000E+00  0.99999998245E-14  0.12500000000E+03  0.12500000000E+03 0.  0.
        -13    1    3    3    0    0 -0.26929812140E+02  0.24244711447E+02 -0.19543316268E+02  0.41170052099E+02  0.10566000000E+00 0.  1.
         23    2    1    0    0    0  0.13538778940E+02 -0.12448246892E+02 -0.22575642323E+02  0.95880985384E+02  0.91352319873E+02 0.  0.
         13    1    3    3    0    0  0.40468591080E+02 -0.36692958339E+02 -0.30323260547E+01  0.54710933286E+02  0.10566000000E+00 0. -1.
         22    1    1    0    0    0 -0.13538778940E+02  0.12448246892E+02  0.22575642323E+02  0.29119014616E+02  0.00000000000E+00 0. -1.
</event>
<event>
 5    1  0.1315753E-009  0.9118800E+02  0.7818608E-02  0.1130116E+00
         25   -1    0    0    0    0  0.00000000000E+00  0.00000000000E+00  0.99999998245E-14  0.12500000000E+03  0.12500000000E+03 0.  0.
        -13    1    3    3    0    0 -0.34982300365E+02 -0.47222159188E+02 -0.17890286600E+02  0.61430995238E+02  0.10566000000E+00 0. -1.
         23    2    1    0    0    0 -0.15243732729E+02 -0.24645905853E+02 -0.66776042951E+00  0.96013141481E+02  0.91532974224E+02 0.  0.
         13    1    3    3    0    0  0.19738567636E+02  0.22576253336E+02  0.17222526171E+02  0.34582146243E+02  0.10566000000E+00 0.  1.
         22    1    1    0    0    0  0.15243732729E+02  0.24645905853E+02  0.66776042951E+00  0.28986858519E+02  0.00000000000E+00 0. -1.
</event>
<event>
 5    1  0.1315753E-009  0.9118800E+02  0.7818608E-02  0.1130116E+00
         25   -1    0    0    0    0  0.00000000000E+00  0.00000000000E+00  0.99999998245E-14  0.12500000000E+03  0.12500000000E+03 0.  0.
        -13    1    3    3    0    0  0.89527388440E+00 -0.43673893289E+02  0.21779913093E+02  0.48811742939E+02  0.10566000000E+00 0. -1.
         23    2    1    0    0    0 -0.25622070628E+02 -0.14853403986E+02 -0.31186416006E+01  0.95220140385E+02  0.90443546460E+02 0.  0.
         13    1    3    3    0    0 -0.26517344512E+02  0.28820489303E+02 -0.24898554694E+02  0.46408397447E+02  0.10566000000E+00 0.  1.
         22    1    1    0    0    0  0.25622070628E+02  0.14853403986E+02  0.31186416006E+01  0.29779859615E+02  0.00000000000E+00 0. -1.
</event>
<event>
 5    1  0.1315753E-009  0.9118800E+02  0.7818608E-02  0.1130116E+00
         25   -1    0    0    0    0  0.00000000000E+00  0.00000000000E+00  0.99999998245E-14  0.12500000000E+03  0.12500000000E+03 0.  0.
        -13    1    3    3    0    0  0.23596435283E+02  0.23701459232E+02 -0.23831107470E+02  0.41066820854E+02  0.10566000000E+00 0. -1.
         23    2    1    0    0    0 -0.31610358682E+01  0.15531183198E+02  0.23858216291E+02  0.96356950513E+02  0.92001291449E+02 0.  0.
         13    1    3    3    0    0 -0.26757471151E+02 -0.81702760340E+01  0.47689323761E+02  0.55290129659E+02  0.10566000000E+00 0.  1.
         22    1    1    0    0    0  0.31610358682E+01 -0.15531183198E+02 -0.23858216291E+02  0.28643049487E+02  0.00000000000E+00 0.  1.
</event>
<event>
 5    1  0.1315753E-009  0.9118800E+02  0.7818608E-02  0.1130116E+00
         25   -1    0    0    0    0  0.00000000000E+00  0.00000000000E+00  0.99999998245E-14  0.12500000000E+03  0.12500000000E+03 0.  0.
        -13    1    3    3    0    0 -0.39853604170E+01 -0.79367315121E+01  0.44238910574E+02  0.45121692982E+02  0.10566000000E+00 0.  1.
         23    2    1    0    0    0  0.10835753548E+02 -0.27033858186E+02 -0.38509950635E+00  0.95872841797E+02  0.91341176088E+02 0.  0.
         13    1    3    3    0    0  0.14821113965E+02 -0.19097126674E+02 -0.44624010080E+02  0.50751148815E+02  0.10566000000E+00 0. -1.
         22    1    1    0    0    0 -0.10835753548E+02  0.27033858186E+02  0.38509950635E+00  0.29127158203E+02  0.00000000000E+00 0. -1.
</event>
<event>
 5    1  0.1315753E-009  0.9118800E+02  0.7818608E-02  0.1130116E+00
         25   -1    0    0    0    0  0.00000000000E+00  0.00000000000E+00  0.99999998245E-14  0.12500000000E+03  0.12500000000E+03 0.  0.
        -13    1    3    3    0    0 -0.25752326769E+02 -0.38027226910E+02  0.23679004485E+02  0.51671643460E+02  0.10566000000E+00 0.  1.
         23    2    1    0    0    0  0.88569665913E+01 -0.11446915965E+02  0.25860605329E+02  0.95364739746E+02  0.90643173690E+02 0.  0.
         13    1    3    3    0    0  0.34609293360E+02  0.26580310944E+02  0.21816008443E+01  0.43693096286E+02  0.10566000000E+00 0. -1.
         22    1    1    0    0    0 -0.88569665913E+01  0.11446915965E+02 -0.25860605329E+02  0.29635260254E+02  0.00000000000E+00 0.  1.
</event>
<event>
 5    1  0.1315753E-009  0.9118800E+02  0.7818608E-02  0.1130116E+00
         25   -1    0    0    0    0  0.00000000000E+00  0.00000000000E+00  0.99999998245E-14  0.12500000000E+03  0.12500000000E+03 0.  0.
        -13    1    3    3    0    0 -0.30504789190E+02  0.46611610977E+02  0.18113928416E+02  0.58577384784E+02  0.10566000000E+00 0.  1.
         23    2    1    0    0    0 -0.53727175173E+01  0.24436852870E+02  0.21159435703E+02  0.92231912003E+02  0.86214720325E+02 0.  0.
         13    1    3    3    0    0  0.25132071673E+02 -0.22174758107E+02  0.30455072863E+01  0.33654527219E+02  0.10566000000E+00 0. -1.
         22    1    1    0    0    0  0.53727175173E+01 -0.24436852870E+02 -0.21159435703E+02  0.32768087997E+02  0.00000000000E+00 0.  1.
</event>
<event>
 5    1  0.1315753E-009  0.9118800E+02  0.7818608E-02  0.1130116E+00
         25   -1    0    0    0    0  0.00000000000E+00  0.00000000000E+00  0.99999998245E-14  0.12500000000E+03  0.12500000000E+03 0.  0.
        -13    1    3    3    0    0 -0.39357801815E+02  0.22391478297E+02  0.17358636097E+01  0.45314889943E+02  0.10566000000E+00 0.  1.
         23    2    1    0    0    0  0.39962053104E+01  0.11852625856E+02  0.26032671126E+02  0.96118269399E+02  0.91676427449E+02 0.  0.
         13    1    3    3    0    0  0.43354007126E+02 -0.10538852442E+02  0.24296807516E+02  0.50803379456E+02  0.10566000000E+00 0. -1.
         22    1    1    0    0    0 -0.39962053104E+01 -0.11852625856E+02 -0.26032671126E+02  0.28881730601E+02  0.00000000000E+00 0. -1.
</event>
<event>
 5    1  0.1315753E-009  0.9118800E+02  0.7818608E-02  0.1130116E+00
         25   -1    0    0    0    0  0.00000000000E+00  0.00000000000E+00  0.99999998245E-14  0.12500000000E+03  0.12500000000E+03 0.  0.
        -13    1    3    3    0    0 -0.22261603156E+02  0.29052466878E+02  0.11685368488E+02  0.38421137509E+02  0.10566000000E+00 0. -1.
         23    2    1    0    0    0  0.13986004561E+01  0.71060630863E+00 -0.30487955442E+02  0.94471710306E+02  0.89403174309E+02 0.  0.
         13    1    3    3    0    0  0.23660203612E+02 -0.28341860570E+02 -0.42173323930E+02  0.56050572797E+02  0.10566000000E+00 0.  1.
         22    1    1    0    0    0 -0.13986004561E+01 -0.71060630863E+00  0.30487955442E+02  0.30528289694E+02  0.00000000000E+00 0.  1.
</event>
<event>
 5    1  0.1315753E-009  0.9118800E+02  0.7818608E-02  0.1130116E+00
         25   -1    0    0    0    0  0.00000000000E+00  0.00000000000E+00  0.99999998245E-14  0.12500000000E+03  0.12500000000E+03 0.  0.
        -13    1    3    3    0    0  0.44786374149E+02 -0.12652128548E+02  0.13375996611E+02  0.48423383975E+02  0.10566000000E+00 0. -1.
         23    2    1    0    0    0  0.10046631872E+02  0.20232888112E+02  0.17482425930E+02  0.96435340196E+02  0.92107736097E+02 0.  0.
         13    1    3    3    0    0 -0.34739742278E+02  0.32885016661E+02  0.41064293194E+01  0.48011956220E+02  0.10566000000E+00 0.  1.
         22    1    1    0    0    0 -0.10046631872E+02 -0.20232888112E+02 -0.17482425930E+02  0.28564659804E+02  0.00000000000E+00 0.  1.
</event>
<event>
 5    1  0.1315753E-009  0.9118800E+02  0.7818608E-02  0.1130116E+00
         25   -1    0    0    0    0  0.00000000000E+00  0.00000000000E+00  0.99999998245E-14  0.12500000000E+03  0.12500000000E+03 0.  0.
        -13    1    3    3    0    0  0.39952482610E+02  0.37150610303E+02  0.20447828230E+02  0.58262282447E+02  0.10566000000E+00 0. -1.
         23    2    1    0    0    0  0.27313492653E+02  0.94779455854E+01 -0.19236015496E+01  0.96024862790E+02  0.91548979773E+02 0.  0.
         13    1    3    3    0    0 -0.12638989957E+02 -0.27672664718E+02 -0.22371429779E+02  0.37762580343E+02  0.10566000000E+00 0.  1.
         22    1    1    0    0    0 -0.27313492653E+02 -0.94779455854E+01  0.19236015496E+01  0.28975137210E+02  0.00000000000E+00 0. -1.
</event>
<event>
 5    1  0.1315753E-009  0.9118800E+02  0.7818608E-02  0.1130116E+00
         25   -1    0    0    0    0  0.00000000000E+00  0.00000000000E+00  0.99999998245E-14  0.12500000000E+03  0.12500000000E+03 0.  0.
        -13    1    3    3    0    0  0.16323937713E+02 -0.28929981881E+02  0.35004434292E+02  0.48256982689E+02  0.10566000000E+00 0. -1.
         23    2    1    0    0    0 -0.48882224196E+01  0.59334180788E+01  0.35101309865E+02  0.89066698972E+02  0.81496470740E+02 0.  0.
         13    1    3    3    0    0 -0.21212160133E+02  0.34863399959E+02  0.96875573328E-01  0.40809716284E+02  0.10566000000E+00 0.  1.
         22    1    1    0    0    0  0.48882224196E+01 -0.59334180788E+01 -0.35101309865E+02  0.35933301028E+02  0.00000000000E+00 0.  1.
</event>
<event>
 5    1  0.1315753E-009  0.9118800E+02  0.7818608E-02  0.1130116E+00
         25   -1    0    0    0    0  0.00000000000E+00  0.00000000000E+00  0.99999998245E-14  0.12500000000E+03  0.12500000000E+03 0.  0.
        -13    1    3    3    0    0 -0.80381404678E+01 -0.13842187360E+02  0.42512372129E+02  0.45426102641E+02  0.10566000000E+00 0.  1.
         23    2    1    0    0    0  0.17384329448E+02 -0.25636769251E+02  0.29839309539E+01  0.93881473494E+02  0.88574084096E+02 0.  0.
         13    1    3    3    0    0  0.25422469916E+02 -0.11794581892E+02 -0.39528441176E+02  0.48455370852E+02  0.10566000000E+00 0. -1.
         22    1    1    0    0    0 -0.17384329448E+02  0.25636769251E+02 -0.29839309539E+01  0.31118526506E+02  0.00000000000E+00 0.  1.
</event>
<event>
 5    1  0.1315753E-009  0.9118800E+02  0.7818608E-02  0.1130116E+00
         25   -1    0    0    0    0  0.00000000000E+00  0.00000000000E+00  0.99999998245E-14  0.12500000000E+03  0.12500000000E+03 0.  0.
        -13    1    3    3    0    0  0.21926833128E+02 -0.13886140858E+02  0.27085612225E+02  0.37513363920E+02  0.10566000000E+00 0.  1.
         23    2    1    0    0    0  0.56467836299E+01 -0.15699342369E+02 -0.26576808074E+02  0.93620353036E+02  0.88204808594E+02 0.  0.
         13    1    3    3    0    0 -0.16280049498E+02 -0.18132015104E+01 -0.53662420299E+02  0.56106989117E+02  0.10566000000E+00 0. -1.
         22    1    1    0    0    0 -0.56467836299E+01  0.15699342369E+02  0.26576808074E+02  0.31379646964E+02  0.00000000000E+00 0.  1.
</event>
<event>
 5    1  0.1315753E-009  0.9118800E+02  0.7818608E-02  0.1130116E+00
         25   -1    0    0    0    0  0.00000000000E+00  0.00000000000E+00  0.99999998245E-14  0.12500000000E+03  0.12500000000E+03 0.  0.
        -13    1    3    3    0    0  0.11281207834E+02  0.38637738899E+02  0.10525579713E+02  0.41604561165E+02  0.10566000000E+00 0. -1.
         23    2    1    0    0    0 -0.18830626857E+02  0.75930690659E+01 -0.21505834733E+02  0.95423858717E+02  0.90724664117E+02 0.  0.
         13    1    3    3    0    0 -0.30111834690E+02 -0.31044669833E+02 -0.32031414446E+02  0.53819297551E+02  0.10566000000E+00 0.  1.
         22    1    1    0    0    0  0.18830626857E+02 -0.75930690659E+01  0.21505834733E+02  0.29576141283E+02  0.00000000000E+00 0.  1.
</event>
<event>
 5    1  0.1315753E-009  0.9118800E+02  0.7818608E-02  0.1130116E+00
         25   -1    0    0    0    0  0.00000000000E+00  0.00000000000E+00  0.99999998245E-14  0.12500000000E+03  0.12500000000E+03 0.  0.
        -13    1    3    3    0    0  0.43562288832E+01 -0.49074121161E+02  0.17001112452E+02  0.52118087901E+02  0.10566000000E+00 0. -1.
         23    2    1    0    0    0 -0.13254585821E+02 -0.21324164904E+02 -0.13094952994E+02  0.96682481604E+02  0.92442524853E+02 0.  0.
         13    1    3    3    0    0 -0.17610814705E+02  0.27749956256E+02 -0.30096065446E+02  0.44564393704E+02  0.10566000000E+00 0.  1.
         22    1    1    0    0    0  0.13254585821E+02  0.21324164904E+02  0.13094952994E+02  0.28317518396E+02  0.00000000000E+00 0. -1.
</event>
<event>
 5    1  0.1315753E-009  0.9118800E+02  0.7818608E-02  0.1130116E+00
         25   -1    0    0    0    0  0.00000000000E+00  0.00000000000E+00  0.99999998245E-14  0.12500000000E+03  0.12500000000E+03 0.  0.
        -13    1    3    3    0    0 -0.50968134927E+02 -0.34543879639E+02 -0.68881364641E+01  0.61955532331E+02  0.10566000000E+00 0.  1.
         23    2    1    0    0    0 -0.28751427704E+02 -0.18648654552E+02  0.19706038269E+01  0.90673622517E+02  0.83925000026E+02 0.  0.
         13    1    3    3    0    0  0.22216707223E+02  0.15895225087E+02  0.88587402910E+01  0.28718090186E+02  0.10566000000E+00 0. -1.
         22    1    1    0    0    0  0.28751427704E+02  0.18648654552E+02 -0.19706038269E+01  0.34326377483E+02  0.00000000000E+00 0.  1.
</event>
<event>
 5    1  0.1315753E-009  0.9118800E+02  0.7818608E-02  0.1130116E+00
         25   -1    0    0    0    0  0.00000000000E+00  0.00000000000E+00  0.99999998245E-14  0.12500000000E+03  0.12500000000E+03 0.  0.
        -13    1    3    3    0    0 -0.25198508899E+01  0.28419072729E+02 -0.18768001163E+02  0.34150290994E+02  0.10566000000E+00 0.  1.
         23    2    1    0    0    0  0.10413811554E+02 -0.15927032875E+02  0.22106212697E+02  0.95831481232E+02  0.91284556788E+02 0.  0.
         13    1    3    3    0    0  0.12933662444E+02 -0.44346105604E+02  0.40874213860E+02  0.61681190238E+02  0.10566000000E+00 0. -1.
         22    1    1    0    0    0 -0.10413811554E+02  0.15927032875E+02 -0.22106212697E+02  0.29168518768E+02  0.00000000000E+00 0. -1.
</event>
<event>
 5    1  0.1315753E-009  0.9118800E+02  0.7818608E-02  0.1130116E+00
         25   -1    0    0    0    0  0.00000000000E+00  0.00000000000E+00  0.99999998245E-14  0.12500000000E+03  0.12500000000E+03 0.  0.
        -13    1    3    3    0    0  0.16121151702E+02 -0.30411707951E+02  0.27691895137E+02  0.44177095117E+02  0.10566000000E+00 0.  1.
         23    2    1    0    0    0  0.20908653738E+02 -0.76098570058E+01 -0.18598388029E+02  0.96000314449E+02  0.91515455592E+02 0.  0.
         13    1    3    3    0    0  0.47875020367E+01  0.22801850946E+02 -0.46290283166E+02  0.51823219331E+02  0.10566000000E+00 0. -1.
         22    1    1    0    0    0 -0.20908653738E+02  0.76098570058E+01  0.18598388029E+02  0.28999685551E+02  0.00000000000E+00 0. -1.
</event>
<event>
 5    1  0.1315753E-009  0.9118800E+02  0.7818608E-02  0.1130116E+00
         25   -1    0    0    0    0  0.00000000000E+00  0.00000000000E+00  0.99999998245E-14  0.12500000000E+03  0.12500000000E+03 0.  0.
        -13    1    3    3    0    0 -0.51704151620E+02  0.32933045961E+02  0.11578241121E+02  0.62385668566E+02  0.10566000000E+00 0. -1.
         23    2    1    0    0    0 -0.20989086750E+02  0.15110766161E+02  0.26521893802E+01  0.99001709189E+02  0.95527102422E+02 0.  0.
         13    1    3    3    0    0  0.30715064869E+02 -0.17822279800E+02 -0.89260517404E+01  0.36616040623E+02  0.10566000000E+00 0.  1.
         22    1    1    0    0    0  0.20989086750E+02 -0.15110766161E+02 -0.26521893802E+01  0.25998290811E+02  0.00000000000E+00 0. -1.
</event>
<event>
 5    1  0.1315753E-009  0.9118800E+02  0.7818608E-02  0.1130116E+00
         25   -1    0    0    0    0  0.00000000000E+00  0.00000000000E+00  0.99999998245E-14  0.12500000000E+03  0.12500000000E+03 0.  0.
        -13    1    3    3    0    0  0.30260119759E+02  0.34230541522E+01  0.21039881030E+02  0.37014590439E+02  0.10566000000E+00 0.  1.
         23    2    1    0    0    0 -0.24435604128E+02 -0.13700719851E+02  0.48717454364E+01  0.96565120413E+02  0.92283693594E+02 0.  0.
         13    1    3    3    0    0 -0.54695723887E+02 -0.17123774003E+02 -0.16168135593E+02  0.59550529974E+02  0.10566000000E+00 0. -1.
         22    1    1    0    0    0  0.24435604128E+02  0.13700719851E+02 -0.48717454364E+01  0.28434879587E+02  0.00000000000E+00 0. -1.
</event>
<event>
 5    1  0.1315753E-009  0.9118800E+02  0.7818608E-02  0.1130116E+00
         25   -1    0    0    0    0  0.00000000000E+00  0.00000000000E+00  0.99999998245E-14  0.12500000000E+03  0.12500000000E+03 0.  0.
        -13    1    3    3    0    0 -0.26005644755E+02 -0.31260091771E+02 -0.14796954560E+02  0.43271791330E+02  0.10566000000E+00 0. -1.
         23    2    1    0    0    0 -0.19820821496E+02  0.20344391015E+02 -0.51546472905E+01  0.96132551217E+02  0.91695898514E+02 0.  0.
         13    1    3    3    0    0  0.61848232594E+01  0.51604482786E+02  0.96423072690E+01  0.52860759887E+02  0.10566000000E+00 0.  1.
         22    1    1    0    0    0  0.19820821496E+02 -0.20344391015E+02  0.51546472905E+01  0.28867448783E+02  0.00000000000E+00 0.  1.
</event>
<event>
 5    1  0.1315753E-009  0.9118800E+02  0.7818608E-02  0.1130116E+00
         25   -1    0    0    0    0  0.00000000000E+00  0.00000000000E+00  0.99999998245E-14  0.12500000000E+03  0.12500000000E+03 0.  0.
        -13    1    3    3    0    0  0.23681994478E+02 -0.63550906557E+01  0.37663541435E+02  0.44941935396E+02  0.10566000000E+00 0.  1.
         23    2    1    0    0    0  0.76156731273E+01  0.27699459101E+02  0.30098634448E+01  0.96115440291E+02  0.91672569903E+02 0.  0.
         13    1    3    3    0    0 -0.16066321350E+02  0.34054549756E+02 -0.34653677991E+02  0.51173504894E+02  0.10566000000E+00 0. -1.
         22    1    1    0    0    0 -0.76156731273E+01 -0.27699459101E+02 -0.30098634448E+01  0.28884559709E+02  0.00000000000E+00 0. -1.
</event>
<event>
 5    1  0.1315753E-009  0.9118800E+02  0.7818608E-02  0.1130116E+00
         25   -1    0    0    0    0  0.00000000000E+00  0.00000000000E+00  0.99999998245E-14  0.12500000000E+03  0.12500000000E+03 0.  0.
        -13    1    3    3    0    0 -0.59281199223E+02 -0.80938745641E+01  0.14045894320E+01  0.59847768733E+02  0.10566000000E+00 0.  1.
         23    2    1    0    0    0 -0.23888975328E+02 -0.15707975535E+02  0.39428446457E+01  0.96138786209E+02  0.91704397671E+02 0.  0.
         13    1    3    3    0    0  0.35392223896E+02 -0.76141009705E+01  0.25382552137E+01  0.36291017476E+02  0.10566000000E+00 0. -1.
         22    1    1    0    0    0  0.23888975328E+02  0.15707975535E+02 -0.39428446457E+01  0.28861213791E+02  0.00000000000E+00 0.  1.
</event>
<event>
 5    1  0.1315753E-009  0.9118800E+02  0.7818608E-02  0.1130116E+00
         25   -1    0    0    0    0  0.00000000000E+00  0.00000000000E+00  0.99999998245E-14  0.12500000000E+03  0.12500000000E+03 0.  0.
        -13    1    3    3    0    0 -0.18886460978E+02  0.32879358795E+02 -0.14847013537E+02  0.40720948148E+02  0.10566000000E+00 0.  1.
         23    2    1    0    0    0 -0.61034218184E+01  0.83676881982E+01  0.29921265574E+02  0.93336896911E+02  0.87802188057E+02 0.  0.
         13    1    3    3    0    0  0.12783039160E+02 -0.24511670596E+02  0.44768279112E+02  0.52615948763E+02  0.10566000000E+00 0. -1.
         22    1    1    0    0    0  0.61034218184E+01 -0.83676881982E+01 -0.29921265574E+02  0.31663103089E+02  0.00000000000E+00 0. -1.
</event>
<event>
 5    1  0.1315753E-009  0.9118800E+02  0.7818608E-02  0.1130116E+00
         25   -1    0    0    0    0  0.00000000000E+00  0.00000000000E+00  0.99999998245E-14  0.12500000000E+03  0.12500000000E+03 0.  0.
        -13    1    3    3    0    0 -0.24533080865E+01 -0.34726635940E+02  0.16059316379E+02  0.38338893710E+02  0.10566000000E+00 0. -1.
         23    2    1    0    0    0 -0.13235214682E+02  0.29044617688E+01 -0.25928757413E+02  0.95744107144E+02  0.91164833055E+02 0.  0.
         13    1    3    3    0    0 -0.10781906595E+02  0.37631097709E+02 -0.41988073792E+02  0.57405213434E+02  0.10566000000E+00 0.  1.
         22    1    1    0    0    0  0.13235214682E+02 -0.29044617688E+01  0.25928757413E+02  0.29255892856E+02  0.00000000000E+00 0.  1.
</event>
<event>
 5    1  0.1315753E-009  0.9118800E+02  0.7818608E-02  0.1130116E+00
         25   -1    0    0    0    0  0.00000000000E+00  0.00000000000E+00  0.99999998245E-14  0.12500000000E+03  0.12500000000E+03 0.  0.
        -13    1    3    3    0    0 -0.14737308197E+02  0.25702688430E+02 -0.99208617162E+01  0.31245017309E+02  0.10566000000E+00 0.  1.
         23    2    1    0    0    0 -0.67687548112E+01 -0.31621862953E+02  0.77265351904E+01  0.91751577415E+02  0.85515462660E+02 0.  0.
         13    1    3    3    0    0  0.79685533858E+01 -0.57324551383E+02  0.17647396907E+02  0.60506560106E+02  0.10566000000E+00 0. -1.
         22    1    1    0    0    0  0.67687548112E+01  0.31621862953E+02 -0.77265351904E+01  0.33248422585E+02  0.00000000000E+00 0. -1.
</event>
<event>
 5    1  0.1315753E-009  0.9118800E+02  0.7818608E-02  0.1130116E+00
         25   -1    0    0    0    0  0.00000000000E+00  0.00000000000E+00  0.99999998245E-14  0.12500000000E+03  0.12500000000E+03 0.  0.
        -13    1    3    3    0    0  0.46804808114E+02 -0.33976648389E+02 -0.21893652509E+02  0.61842104448E+02  0.10566000000E+00 0. -1.
         23    2    1    0    0    0  0.18799353553E+02 -0.20245306596E+02 -0.14054595160E+02  0.94002906938E+02  0.88745291337E+02 0.  0.
         13    1    3    3    0    0 -0.28005454561E+02  0.13731341793E+02  0.78390573492E+01  0.32160802490E+02  0.10566000000E+00 0.  1.
         22    1    1    0    0    0 -0.18799353553E+02  0.20245306596E+02  0.14054595160E+02  0.30997093062E+02  0.00000000000E+00 0. -1.
</event>
<event>
 5    1  0.1315753E-009  0.9118800E+02  0.7818608E-02  0.1130116E+00
         25   -1    0    0    0    0  0.00000000000E+00  0.00000000000E+00  0.99999998245E-14  0.12500000000E+03  0.12500000000E+03 0.  0.
        -13    1    3    3    0    0  0.28058315373E+02 -0.24344630535E+02 -0.22303616306E+01  0.37214456525E+02  0.10566000000E+00 0. -1.
         23    2    1    0    0    0 -0.26475027807E+02 -0.76794782686E+01  0.10254403462E+02  0.95588194986E+02  0.90950803990E+02 0.  0.
         13    1    3    3    0    0 -0.54533343179E+02  0.16665152266E+02  0.12484765093E+02  0.58373738460E+02  0.10566000000E+00 0.  1.
         22    1    1    0    0    0  0.26475027807E+02  0.76794782686E+01 -0.10254403462E+02  0.29411805014E+02  0.00000000000E+00 0.  1.
</event>
<event>
 5    1  0.1315753E-009  0.9118800E+02  0.7818608E-02  0.1130116E+00
         25   -1    0    0    0    0  0.00000000000E+00  0.00000000000E+00  0.99999998245E-14  0.12500000000E+03  0.12500000000E+03 0.  0.
        -13    1    3    3    0    0 -0.36897058945E+01 -0.51642816316E+02  0.33626136686E+02  0.61735910451E+02  0.10566000000E+00 0.  1.
         23    2    1    0    0    0 -0.27818275245E+01 -0.27831465119E+02  0.99891458450E+01  0.95299628794E+02  0.90553338970E+02 0.  0.
         13    1    3    3    0    0  0.90787837004E+00  0.23811351198E+02 -0.23636990841E+02  0.33563718344E+02  0.10566000000E+00 0. -1.
         22    1    1    0    0    0  0.27818275245E+01  0.27831465119E+02 -0.99891458450E+01  0.29700371206E+02  0.00000000000E+00 0.  1.
</event>
<event>
 5    1  0.1315753E-009  0.9118800E+02  0.7818608E-02  0.1130116E+00
         25   -1    0    0    0    0  0.00000000000E+00  0.00000000000E+00  0.99999998245E-14  0.12500000000E+03  0.12500000000E+03 0.  0.
        -13    1    3    3    0    0 -0.48545827396E+01 -0.14428900811E+02  0.33163439801E+02  0.36490890037E+02  0.10566000000E+00 0. -1.
         23    2    1    0    0    0  0.26191509944E+02  0.12477213724E+02 -0.82632171432E+01  0.94834509568E+02  0.89908995055E+02 0.  0.
         13    1    3    3    0    0  0.31046092684E+02  0.26906114535E+02 -0.41426656944E+02  0.58343619531E+02  0.10566000000E+00 0.  1.
         22    1    1    0    0    0 -0.26191509944E+02 -0.12477213724E+02  0.82632171432E+01  0.30165490432E+02  0.00000000000E+00 0.  1.
</event>
<event>
 5    1  0.1315753E-009  0.9118800E+02  0.7818608E-02  0.1130116E+00
         25   -1    0    0    0    0  0.00000000000E+00  0.00000000000E+00  0.99999998245E-14  0.12500000000E+03  0.12500000000E+03 0.  0.
        -13    1    3    3    0    0 -0.25536966187E+02 -0.32491282139E+02 -0.40485768740E+02  0.57852646367E+02  0.10566000000E+00 0.  1.
         23    2    1    0    0    0 -0.90944134921E+01 -0.26228873325E+02 -0.59551570512E+01  0.96607641025E+02  0.92341270601E+02 0.  0.
         13    1    3    3    0    0  0.16442552695E+02  0.62624088140E+01  0.34530611689E+02  0.38754994658E+02  0.10566000000E+00 0. -1.
         22    1    1    0    0    0  0.90944134921E+01  0.26228873325E+02  0.59551570512E+01  0.28392358975E+02  0.00000000000E+00 0.  1.
</event>
<event>
 5    1  0.1315753E-009  0.9118800E+02  0.7818608E-02  0.1130116E+00
         25   -1    0    0    0    0  0.00000000000E+00  0.00000000000E+00  0.99999998245E-14  0.12500000000E+03  0.12500000000E+03 0.  0.
        -13    1    3    3    0    0 -0.14353837368E+02  0.37251002570E+02  0.41860179498E+02  0.57844235938E+02  0.10566000000E+00 0. -1.
         23    2    1    0    0    0  0.70015226867E+01  0.12435388363E+02  0.28347909258E+02  0.93262574727E+02  0.87696315098E+02 0.  0.
         13    1    3    3    0    0  0.21355360055E+02 -0.24815614207E+02 -0.13512270240E+02  0.35418338789E+02  0.10566000000E+00 0.  1.
         22    1    1    0    0    0 -0.70015226867E+01 -0.12435388363E+02 -0.28347909258E+02  0.31737425273E+02  0.00000000000E+00 0. -1.
</event>
<event>
 5    1  0.1315753E-009  0.9118800E+02  0.7818608E-02  0.1130116E+00
         25   -1    0    0    0    0  0.00000000000E+00  0.00000000000E+00  0.99999998245E-14  0.12500000000E+03  0.12500000000E+03 0.  0.
        -13    1    3    3    0    0  0.54526478869E+02 -0.19899857776E+02  0.86040180487E+01  0.58678629227E+02  0.10566000000E+00 0. -1.
         23    2    1    0    0    0  0.24357122108E+02  0.11842836228E+01  0.15470967506E+02  0.96120547778E+02  0.91679533946E+02 0.  0.
         13    1    3    3    0    0 -0.30169356761E+02  0.21084141399E+02  0.68669494572E+01  0.37441918551E+02  0.10566000000E+00 0.  1.
         22    1    1    0    0    0 -0.24357122108E+02 -0.11842836228E+01 -0.15470967506E+02  0.28879452222E+02  0.00000000000E+00 0. -1.
</event>
<event>
 5    1  0.1315753E-009  0.9118800E+02  0.7818608E-02  0.1130116E+00
         25   -1    0    0    0    0  0.00000000000E+00  0.00000000000E+00  0.99999998245E-14  0.12500000000E+03  0.12500000000E+03 0.  0.
        -13    1    3    3    0    0  0.32548118072E+02  0.87917660532E+01  0.82357659678E+01  0.34706111068E+02  0.10566000000E+00 0. -1.
         23    2    1    0    0    0  0.37086051592E+02 -0.29689734510E+02 -0.81911847801E+01  0.76792624361E+02  0.59775882178E+02 0.  0.
         13    1    3    3    0    0  0.45379335201E+01 -0.38481500563E+02 -0.16426950748E+02  0.42086513293E+02  0.10566000000E+00 0.  1.
         22    1    1    0    0    0 -0.37086051592E+02  0.29689734510E+02  0.81911847801E+01  0.48207375639E+02  0.00000000000E+00 0.  1.
</event>
<event>
 5    1  0.1315753E-009  0.9118800E+02  0.7818608E-02  0.1130116E+00
         25   -1    0    0    0    0  0.00000000000E+00  0.00000000000E+00  0.99999998245E-14  0.12500000000E+03  0.12500000000E+03 0.  0.
        -13    1    3    3    0    0 -0.31252756588E+02 -0.11743463418E+01  0.15946897780E+02  0.35105962407E+02  0.10566000000E+00 0. -1.
         23    2    1    0    0    0  0.18281403569E+02 -0.66946041587E+01 -0.20406512732E+02  0.96796220055E+02  0.92596193301E+02 0.  0.
         13    1    3    3    0    0  0.49534160157E+02 -0.55202578168E+01 -0.36353410512E+02  0.61690257648E+02  0.10566000000E+00 0.  1.
         22    1    1    0    0    0 -0.18281403569E+02  0.66946041587E+01  0.20406512732E+02  0.28203779945E+02  0.00000000000E+00 0.  1.
</event>
<event>
 5    1  0.1315753E-009  0.9118800E+02  0.7818608E-02  0.1130116E+00
         25   -1    0    0    0    0  0.00000000000E+00  0.00000000000E+00  0.99999998245E-14  0.12500000000E+03  0.12500000000E+03 0.  0.
        -13    1    3    3    0    0  0.13951231925E+02  0.51171237637E+02 -0.23875684681E+02  0.58165212254E+02  0.10566000000E+00 0. -1.
         23    2    1    0    0    0  0.98071191617E+01  0.15200099514E+02 -0.24700752775E+02  0.94383831083E+02  0.89280220491E+02 0.  0.
         13    1    3    3    0    0 -0.41441127635E+01 -0.35971138124E+02 -0.82506809436E+00  0.36218618829E+02  0.10566000000E+00 0.  1.
         22    1    1    0    0    0 -0.98071191617E+01 -0.15200099514E+02  0.24700752775E+02  0.30616168917E+02  0.00000000000E+00 0. -1.
</event>
<event>
 5    1  0.1315753E-009  0.9118800E+02  0.7818608E-02  0.1130116E+00
         25   -1    0    0    0    0  0.00000000000E+00  0.00000000000E+00  0.99999998245E-14  0.12500000000E+03  0.12500000000E+03 0.  0.
        -13    1    3    3    0    0 -0.38191551687E+02  0.18634764184E+02 -0.82684678847E+01  0.43292352461E+02  0.10566000000E+00 0.  1.
         23    2    1    0    0    0  0.59437652044E+01  0.20394131752E+02  0.20073190121E+02  0.95773609248E+02  0.91205275681E+02 0.  0.
         13    1    3    3    0    0  0.44135316891E+02  0.17593675679E+01  0.28341658006E+02  0.52481256787E+02  0.10566000000E+00 0. -1.
         22    1    1    0    0    0 -0.59437652044E+01 -0.20394131752E+02 -0.20073190121E+02  0.29226390752E+02  0.00000000000E+00 0. -1.
</event>
<event>
 5    1  0.1315753E-009  0.9118800E+02  0.7818608E-02  0.1130116E+00
         25   -1    0    0    0    0  0.00000000000E+00  0.00000000000E+00  0.99999998245E-14  0.12500000000E+03  0.12500000000E+03 0.  0.
        -13    1    3    3    0    0  0.15792168104E+01  0.56410740801E+02  0.63314216346E+01  0.56787002627E+02  0.10566000000E+00 0. -1.
         23    2    1    0    0    0  0.13261340785E+02  0.24002018305E+02 -0.11124923999E+02  0.95407366185E+02  0.90701937940E+02 0.  0.
         13    1    3    3    0    0  0.11682123975E+02 -0.32408722496E+02 -0.17456345634E+02  0.38620363557E+02  0.10566000000E+00 0.  1.
         22    1    1    0    0    0 -0.13261340785E+02 -0.24002018305E+02  0.11124923999E+02  0.29592633815E+02  0.00000000000E+00 0. -1.
</event>
<event>
 5    1  0.1315753E-009  0.9118800E+02  0.7818608E-02  0.1130116E+00
         25   -1    0    0    0    0  0.00000000000E+00  0.00000000000E+00  0.99999998245E-14  0.12500000000E+03  0.12500000000E+03 0.  0.
        -13    1    3    3    0    0 -0.33688072482E+02 -0.23018444492E+02  0.18341141725E+01  0.40842504247E+02  0.10566000000E+00 0. -1.
         23    2    1    0    0    0  0.18290535311E+02 -0.63135702961E+01  0.18806557961E+02  0.98016829797E+02  0.94229546583E+02 0.  0.
         13    1    3    3    0    0  0.51978607792E+02  0.16704874195E+02  0.16972443789E+02  0.57174325550E+02  0.10566000000E+00 0.  1.
         22    1    1    0    0    0 -0.18290535311E+02  0.63135702961E+01 -0.18806557961E+02  0.26983170203E+02  0.00000000000E+00 0.  1.
</event>
<event>
 5    1  0.1315753E-009  0.9118800E+02  0.7818608E-02  0.1130116E+00
         25   -1    0    0    0    0  0.00000000000E+00  0.00000000000E+00  0.99999998245E-14  0.12500000000E+03  0.12500000000E+03 0.  0.
        -13    1    3    3    0    0 -0.46281872058E+01 -0.74159406731E+01 -0.46225924431E+02  0.47045335012E+02  0.10566000000E+00 0. -1.
         23    2    1    0    0    0  0.57899608474E+01  0.25304605547E+02 -0.94140939257E+01  0.97387106763E+02  0.93390452888E+02 0.  0.
         13    1    3    3    0    0  0.10418148053E+02  0.32720546220E+02  0.36811830505E+02  0.50341771750E+02  0.10566000000E+00 0.  1.
         22    1    1    0    0    0 -0.57899608474E+01 -0.25304605547E+02  0.94140939257E+01  0.27612893237E+02  0.00000000000E+00 0.  1.
</event>
<event>
 5    1  0.1315753E-009  0.9118800E+02  0.7818608E-02  0.1130116E+00
         25   -1    0    0    0    0  0.00000000000E+00  0.00000000000E+00  0.99999998245E-14  0.12500000000E+03  0.12500000000E+03 0.  0.
        -13    1    3    3    0    0  0.57152689311E+02  0.98505771285E+01  0.12854504783E+02  0.59402973179E+02  0.10566000000E+00 0. -1.
         23    2    1    0    0    0  0.21151018304E+02  0.15305744832E+02  0.13040752726E+02  0.95816226567E+02  0.91263665507E+02 0.  0.
         13    1    3    3    0    0 -0.36001671007E+02  0.54551677032E+01  0.18624794332E+00  0.36413253388E+02  0.10566000000E+00 0.  1.
         22    1    1    0    0    0 -0.21151018304E+02 -0.15305744832E+02 -0.13040752726E+02  0.29183773433E+02  0.00000000000E+00 0. -1.
</event>
<event>
 5    1  0.1315753E-009  0.9118800E+02  0.7818608E-02  0.1130116E+00
         25   -1    0    0    0    0  0.00000000000E+00  0.00000000000E+00  0.99999998245E-14  0.12500000000E+03  0.12500000000E+03 0.  0.
        -13    1    3    3    0    0 -0.30328998491E+02 -0.10835914520E+02  0.50862016805E+02  0.60201504221E+02  0.10566000000E+00 0.  1.
         23    2    1    0    0    0 -0.23127946520E+02 -0.83233334035E+01  0.16510660415E+02  0.95389500231E+02  0.90677312807E+02 0.  0.
         13    1    3    3    0    0  0.72010519708E+01  0.25125811165E+01 -0.34351356390E+02  0.35187996010E+02  0.10566000000E+00 0. -1.
         22    1    1    0    0    0  0.23127946520E+02  0.83233334035E+01 -0.16510660415E+02  0.29610499769E+02  0.00000000000E+00 0.  1.
</event>
<event>
 5    1  0.1315753E-009  0.9118800E+02  0.7818608E-02  0.1130116E+00
         25   -1    0    0    0    0  0.00000000000E+00  0.00000000000E+00  0.99999998245E-14  0.12500000000E+03  0.12500000000E+03 0.  0.
        -13    1    3    3    0    0  0.28123674117E+02  0.18703468120E+02 -0.14741936156E+02  0.36852362356E+02  0.10566000000E+00 0.  1.
         23    2    1    0    0    0 -0.41318510642E+01 -0.28326635233E+02  0.20458899270E+01  0.96300590208E+02  0.91924684128E+02 0.  0.
         13    1    3    3    0    0 -0.32255525181E+02 -0.47030103353E+02  0.16787826083E+02  0.59448227852E+02  0.10566000000E+00 0. -1.
         22    1    1    0    0    0  0.41318510642E+01  0.28326635233E+02 -0.20458899270E+01  0.28699409792E+02  0.00000000000E+00 0. -1.
</event>
<event>
 5    1  0.1315753E-009  0.9118800E+02  0.7818608E-02  0.1130116E+00
         25   -1    0    0    0    0  0.00000000000E+00  0.00000000000E+00  0.99999998245E-14  0.12500000000E+03  0.12500000000E+03 0.  0.
        -13    1    3    3    0    0  0.37232317133E+02  0.44306487831E+02  0.20349015741E+02  0.61346588403E+02  0.10566000000E+00 0.  1.
         23    2    1    0    0    0  0.16860778141E+02  0.13175138766E+02  0.14847137199E+02  0.98955660807E+02  0.95466827755E+02 0.  0.
         13    1    3    3    0    0 -0.20371538992E+02 -0.31131349065E+02 -0.55018785416E+01  0.37609072404E+02  0.10566000000E+00 0. -1.
         22    1    1    0    0    0 -0.16860778141E+02 -0.13175138766E+02 -0.14847137199E+02  0.26044339193E+02  0.00000000000E+00 0.  1.
</event>
<event>
 5    1  0.1315753E-009  0.9118800E+02  0.7818608E-02  0.1130116E+00
         25   -1    0    0    0    0  0.00000000000E+00  0.00000000000E+00  0.99999998245E-14  0.12500000000E+03  0.12500000000E+03 0.  0.
        -13    1    3    3    0    0 -0.30293104017E+01 -0.18586197294E+02 -0.25928171592E+02  0.32045353758E+02  0.10566000000E+00 0. -1.
         23    2    1    0    0    0 -0.29734263946E+02 -0.16478728883E+02  0.20249685690E+02  0.85430760324E+02  0.75714530183E+02 0.  0.
         13    1    3    3    0    0 -0.26704953545E+02  0.21074684111E+01  0.46177857282E+02  0.53385406565E+02  0.10566000000E+00 0.  1.
         22    1    1    0    0    0  0.29734263946E+02  0.16478728883E+02 -0.20249685690E+02  0.39569239676E+02  0.00000000000E+00 0.  1.
</event>
<event>
 5    1  0.1315753E-009  0.9118800E+02  0.7818608E-02  0.1130116E+00
         25   -1    0    0    0    0  0.00000000000E+00  0.00000000000E+00  0.99999998245E-14  0.12500000000E+03  0.12500000000E+03 0.  0.
        -13    1    3    3    0    0 -0.65400396505E+01  0.54674183167E+02  0.24765994298E+02  0.60377181627E+02  0.10566000000E+00 0. -1.
         23    2    1    0    0    0  0.86464930781E+00  0.21235423813E+02  0.21478943206E+02  0.94783517011E+02  0.89838072402E+02 0.  0.
         13    1    3    3    0    0  0.74046889583E+01 -0.33438759354E+02 -0.32870510920E+01  0.34406335385E+02  0.10566000000E+00 0.  1.
         22    1    1    0    0    0 -0.86464930781E+00 -0.21235423813E+02 -0.21478943206E+02  0.30216482989E+02  0.00000000000E+00 0. -1.
</event>
<event>
 5    1  0.1315753E-009  0.9118800E+02  0.7818608E-02  0.1130116E+00
         25   -1    0    0    0    0  0.00000000000E+00  0.00000000000E+00  0.99999998245E-14  0.12500000000E+03  0.12500000000E+03 0.  0.
        -13    1    3    3    0    0 -0.32091082129E+02  0.20298686078E+01 -0.47061134628E+02  0.56997539203E+02  0.10566000000E+00 0.  1.
         23    2    1    0    0    0 -0.20145444251E+02  0.16896473478E+02 -0.13882449062E+02  0.95266985823E+02  0.90508267334E+02 0.  0.
         13    1    3    3    0    0  0.11945637878E+02  0.14866604871E+02  0.33178685566E+02  0.38269446620E+02  0.10566000000E+00 0. -1.
         22    1    1    0    0    0  0.20145444251E+02 -0.16896473478E+02  0.13882449062E+02  0.29733014177E+02  0.00000000000E+00 0.  1.
</event>
<event>
 5    1  0.1315753E-009  0.9118800E+02  0.7818608E-02  0.1130116E+00
         25   -1    0    0    0    0  0.00000000000E+00  0.00000000000E+00  0.99999998245E-14  0.12500000000E+03  0.12500000000E+03 0.  0.
        -13    1    3    3    0    0  0.10291073377E+02  0.28081621471E+02  0.13328560274E+02  0.32743630506E+02  0.10566000000E+00 0.  1.
         23    2    1    0    0    0 -0.13338528552E+02 -0.26462726387E+02 -0.49973567378E+01  0.94947282882E+02  0.90065646728E+02 0.  0.
         13    1    3    3    0    0 -0.23629601929E+02 -0.54544347858E+02 -0.18325917012E+02  0.62203652376E+02  0.10566000000E+00 0. -1.
         22    1    1    0    0    0  0.13338528552E+02  0.26462726387E+02  0.49973567378E+01  0.30052717118E+02  0.00000000000E+00 0. -1.
</event>
<event>
 5    1  0.1315753E-009  0.9118800E+02  0.7818608E-02  0.1130116E+00
         25   -1    0    0    0    0  0.00000000000E+00  0.00000000000E+00  0.99999998245E-14  0.12500000000E+03  0.12500000000E+03 0.  0.
        -13    1    3    3    0    0 -0.22472528886E+02 -0.50080507969E+02  0.59843161232E+01  0.55216800310E+02  0.10566000000E+00 0.  1.
         23    2    1    0    0    0 -0.18374347516E+02 -0.16966367845E+02  0.21504271853E+02  0.92016549719E+02  0.85901905856E+02 0.  0.
         13    1    3    3    0    0  0.40981813699E+01  0.33114140124E+02  0.15519955730E+02  0.36799749409E+02  0.10566000000E+00 0. -1.
         22    1    1    0    0    0  0.18374347516E+02  0.16966367845E+02 -0.21504271853E+02  0.32983450281E+02  0.00000000000E+00 0.  1.
</event>
<event>
 5    1  0.1315753E-009  0.9118800E+02  0.7818608E-02  0.1130116E+00
         25   -1    0    0    0    0  0.00000000000E+00  0.00000000000E+00  0.99999998245E-14  0.12500000000E+03  0.12500000000E+03 0.  0.
        -13    1    3    3    0    0  0.42691280789E+01  0.31002725113E+02  0.28076083654E+02  0.42043692230E+02  0.10566000000E+00 0. -1.
         23    2    1    0    0    0 -0.22409622714E+02 -0.13461969501E+02  0.11005512675E+02  0.96635636403E+02  0.92379159450E+02 0.  0.
         13    1    3    3    0    0 -0.26678750793E+02 -0.44464694614E+02 -0.17070570979E+02  0.54591944173E+02  0.10566000000E+00 0.  1.
         22    1    1    0    0    0  0.22409622714E+02  0.13461969501E+02 -0.11005512675E+02  0.28364363597E+02  0.00000000000E+00 0.  1.
</event>
<event>
 5    1  0.1315753E-009  0.9118800E+02  0.7818608E-02  0.1130116E+00
         25   -1    0    0    0    0  0.00000000000E+00  0.00000000000E+00  0.99999998245E-14  0.12500000000E+03  0.12500000000E+03 0.  0.
        -13    1    3    3    0    0 -0.48306035817E+02 -0.29258440833E+02  0.10577493644E+02  0.57458019389E+02  0.10566000000E+00 0.  1.
         23    2    1    0    0    0 -0.89842679474E+01 -0.25440407735E+02  0.70000593558E+01  0.97126495605E+02  0.93040979687E+02 0.  0.
         13    1    3    3    0    0  0.39321767870E+02  0.38180330974E+01 -0.35774342879E+01  0.39668476215E+02  0.10566000000E+00 0. -1.
         22    1    1    0    0    0  0.89842679474E+01  0.25440407735E+02 -0.70000593558E+01  0.27873504395E+02  0.00000000000E+00 0.  1.
</event>
<event>
 5    1  0.1315753E-009  0.9118800E+02  0.7818608E-02  0.1130116E+00
         25   -1    0    0    0    0  0.00000000000E+00  0.00000000000E+00  0.99999998245E-14  0.12500000000E+03  0.12500000000E+03 0.  0.
        -13    1    3    3    0    0 -0.17163434205E+02  0.10057551010E+02  0.24293199009E+02  0.31399179737E+02  0.10566000000E+00 0.  1.
         23    2    1    0    0    0  0.84703123536E+01 -0.16370771674E+02 -0.25629895763E+02  0.93430395735E+02  0.87935197355E+02 0.  0.
         13    1    3    3    0    0  0.25633746559E+02 -0.26428322685E+02 -0.49923094772E+02  0.62031215998E+02  0.10566000000E+00 0. -1.
         22    1    1    0    0    0 -0.84703123536E+01  0.16370771674E+02  0.25629895763E+02  0.31569604265E+02  0.00000000000E+00 0. -1.
</event>
<event>
 5    1  0.1315753E-009  0.9118800E+02  0.7818608E-02  0.1130116E+00
         25   -1    0    0    0    0  0.00000000000E+00  0.00000000000E+00  0.99999998245E-14  0.12500000000E+03  0.12500000000E+03 0.  0.
        -13    1    3    3    0    0 -0.17201975532E+02 -0.52797557350E+02 -0.14401688245E+02  0.57366451979E+02  0.10566000000E+00 0.  1.
         23    2    1    0    0    0 -0.92463726756E+01 -0.21238752888E+02 -0.24342819715E+02  0.91397129534E+02  0.84995778622E+02 0.  0.
         13    1    3    3    0    0  0.79556028560E+01  0.31558804463E+02 -0.99411314700E+01  0.34030677555E+02  0.10566000000E+00 0. -1.
         22    1    1    0    0    0  0.92463726756E+01  0.21238752888E+02  0.24342819715E+02  0.33602870466E+02  0.00000000000E+00 0.  1.
</event>
<event>
 5    1  0.1315753E-009  0.9118800E+02  0.7818608E-02  0.1130116E+00
         25   -1    0    0    0    0  0.00000000000E+00  0.00000000000E+00  0.99999998245E-14  0.12500000000E+03  0.12500000000E+03 0.  0.
        -13    1    3    3    0    0  0.19855883139E+02  0.72823784151E+01 -0.83280591785E+01  0.22730087205E+02  0.10566000000E+00 0. -1.
         23    2    1    0    0    0 -0.36433655764E+02 -0.17508654306E+02 -0.30951085645E+01  0.84459354409E+02  0.74093445069E+02 0.  0.
         13    1    3    3    0    0 -0.56289538903E+02 -0.24791032721E+02  0.52329506140E+01  0.61729267204E+02  0.10566000000E+00 0.  1.
         22    1    1    0    0    0  0.36433655764E+02  0.17508654306E+02  0.30951085645E+01  0.40540645591E+02  0.00000000000E+00 0.  1.
</event>
<event>
 5    1  0.1315753E-009  0.9118800E+02  0.7818608E-02  0.1130116E+00
         25   -1    0    0    0    0  0.00000000000E+00  0.00000000000E+00  0.99999998245E-14  0.12500000000E+03  0.12500000000E+03 0.  0.
        -13    1    3    3    0    0  0.32332910041E+02 -0.34290695748E+02 -0.32168569338E+02  0.57062219585E+02  0.10566000000E+00 0. -1.
         23    2    1    0    0    0  0.24182813372E+02 -0.17880006161E+02  0.94813532636E+00  0.94910100640E+02  0.90014027573E+02 0.  0.
         13    1    3    3    0    0 -0.81500966691E+01  0.16410689588E+02  0.33116704665E+02  0.37847881055E+02  0.10566000000E+00 0.  1.
         22    1    1    0    0    0 -0.24182813372E+02  0.17880006161E+02 -0.94813532636E+00  0.30089899360E+02  0.00000000000E+00 0. -1.
</event>
<event>
 5    1  0.1315753E-009  0.9118800E+02  0.7818608E-02  0.1130116E+00
         25   -1    0    0    0    0  0.00000000000E+00  0.00000000000E+00  0.99999998245E-14  0.12500000000E+03  0.12500000000E+03 0.  0.
        -13    1    3    3    0    0  0.19187924300E+01  0.30915489140E+01  0.48100967060E+02  0.48238507805E+02  0.10566000000E+00 0.  1.
         23    2    1    0    0    0 -0.26603776507E+02 -0.37044231733E+01  0.99488121367E+01  0.96356282741E+02  0.92000384158E+02 0.  0.
         13    1    3    3    0    0 -0.28522568937E+02 -0.67959720873E+01 -0.38152154924E+02  0.48117774936E+02  0.10566000000E+00 0. -1.
         22    1    1    0    0    0  0.26603776507E+02  0.37044231733E+01 -0.99488121367E+01  0.28643717259E+02  0.00000000000E+00 0.  1.
</event>
<event>
 5    1  0.1315753E-009  0.9118800E+02  0.7818608E-02  0.1130116E+00
         25   -1    0    0    0    0  0.00000000000E+00  0.00000000000E+00  0.99999998245E-14  0.12500000000E+03  0.12500000000E+03 0.  0.
        -13    1    3    3    0    0 -0.31971854405E+02  0.30524613151E+02 -0.44452149877E+01  0.44426597692E+02  0.10566000000E+00 0.  1.
         23    2    1    0    0    0  0.17577167556E+02  0.24905990983E+02 -0.36382306097E+01  0.94299805732E+02  0.89162500150E+02 0.  0.
         13    1    3    3    0    0  0.49549021961E+02 -0.56186221685E+01  0.80698437808E+00  0.49873208040E+02  0.10566000000E+00 0. -1.
         22    1    1    0    0    0 -0.17577167556E+02 -0.24905990983E+02  0.36382306097E+01  0.30700194268E+02  0.00000000000E+00 0. -1.
</event>
<event>
 5    1  0.1315753E-009  0.9118800E+02  0.7818608E-02  0.1130116E+00
         25   -1    0    0    0    0  0.00000000000E+00  0.00000000000E+00  0.99999998245E-14  0.12500000000E+03  0.12500000000E+03 0.  0.
        -13    1    3    3    0    0 -0.17189622394E+02 -0.35280363186E+02  0.40513914194E+01  0.39453923519E+02  0.10566000000E+00 0. -1.
         23    2    1    0    0    0 -0.35140071564E+01  0.15588713567E+02  0.24324668410E+02  0.95895949934E+02  0.91372794001E+02 0.  0.
         13    1    3    3    0    0  0.13675615238E+02  0.50869076753E+02  0.20273276990E+02  0.56442026415E+02  0.10566000000E+00 0.  1.
         22    1    1    0    0    0  0.35140071564E+01 -0.15588713567E+02 -0.24324668410E+02  0.29104050066E+02  0.00000000000E+00 0.  1.
</event>
<event>
 5    1  0.1315753E-009  0.9118800E+02  0.7818608E-02  0.1130116E+00
         25   -1    0    0    0    0  0.00000000000E+00  0.00000000000E+00  0.99999998245E-14  0.12500000000E+03  0.12500000000E+03 0.  0.
        -13    1    3    3    0    0  0.50612598220E+01 -0.38523349673E+02  0.16306590644E+02  0.42137642121E+02  0.10566000000E+00 0. -1.
         23    2    1    0    0    0  0.20259805026E+02  0.11609495335E+02  0.19438761052E+02  0.94617348489E+02  0.89606568522E+02 0.  0.
         13    1    3    3    0    0  0.15198545204E+02  0.50132845008E+02  0.31321704073E+01  0.52479706368E+02  0.10566000000E+00 0.  1.
         22    1    1    0    0    0 -0.20259805026E+02 -0.11609495335E+02 -0.19438761052E+02  0.30382651511E+02  0.00000000000E+00 0.  1.
</event>
<event>
 5    1  0.1315753E-009  0.9118800E+02  0.7818608E-02  0.1130116E+00
         25   -1    0    0    0    0  0.00000000000E+00  0.00000000000E+00  0.99999998245E-14  0.12500000000E+03  0.12500000000E+03 0.  0.
        -13    1    3    3    0    0 -0.40424127786E+02  0.28130002742E+02 -0.23356742746E+02  0.54506474453E+02  0.10566000000E+00 0.  1.
         23    2    1    0    0    0 -0.25876833166E+02  0.35754937971E+01  0.87370471551E+01  0.97454934315E+02  0.93481193717E+02 0.  0.
         13    1    3    3    0    0  0.14547294620E+02 -0.24554508945E+02  0.32093789901E+02  0.42948459862E+02  0.10566000000E+00 0. -1.
         22    1    1    0    0    0  0.25876833166E+02 -0.35754937971E+01 -0.87370471551E+01  0.27545065685E+02  0.00000000000E+00 0.  1.
</event>
<event>
 5    1  0.1315753E-009  0.9118800E+02  0.7818608E-02  0.1130116E+00
         25   -1    0    0    0    0  0.00000000000E+00  0.00000000000E+00  0.99999998245E-14  0.12500000000E+03  0.12500000000E+03 0.  0.
        -13    1    3    3    0    0 -0.13503481669E+02  0.51627603306E+02 -0.12350196771E+02  0.54774920946E+02  0.10566000000E+00 0. -1.
         23    2    1    0    0    0  0.10009519986E+02  0.33852475839E+02  0.55570454981E+01  0.89264004625E+02  0.81798540062E+02 0.  0.
         13    1    3    3    0    0  0.23513001656E+02 -0.17775127467E+02  0.17907242269E+02  0.34489083679E+02  0.10566000000E+00 0.  1.
         22    1    1    0    0    0 -0.10009519986E+02 -0.33852475839E+02 -0.55570454981E+01  0.35735995375E+02  0.00000000000E+00 0. -1.
</event>
<event>
 5    1  0.1315753E-009  0.9118800E+02  0.7818608E-02  0.1130116E+00
         25   -1    0    0    0    0  0.00000000000E+00  0.00000000000E+00  0.99999998245E-14  0.12500000000E+03  0.12500000000E+03 0.  0.
        -13    1    3    3    0    0  0.48209631472E+02 -0.19025148781E+02 -0.20088823018E+02  0.55585041397E+02  0.10566000000E+00 0. -1.
         23    2    1    0    0    0  0.21594180735E+02 -0.18357567234E+02  0.92335916739E+01  0.95191140049E+02  0.90403456860E+02 0.  0.
         13    1    3    3    0    0 -0.26615450737E+02  0.66758154670E+00  0.29322414692E+02  0.39606098652E+02  0.10566000000E+00 0.  1.
         22    1    1    0    0    0 -0.21594180735E+02  0.18357567234E+02 -0.92335916739E+01  0.29808859951E+02  0.00000000000E+00 0. -1.
</event>
<event>
 5    1  0.1315753E-009  0.9118800E+02  0.7818608E-02  0.1130116E+00
         25   -1    0    0    0    0  0.00000000000E+00  0.00000000000E+00  0.99999998245E-14  0.12500000000E+03  0.12500000000E+03 0.  0.
        -13    1    3    3    0    0  0.63981299283E+01  0.12902021511E+02  0.27167105064E+02  0.30748349342E+02  0.10566000000E+00 0. -1.
         23    2    1    0    0    0 -0.17105631266E+02  0.12650117655E+02 -0.27486239651E+02  0.90241958228E+02  0.83279586676E+02 0.  0.
         13    1    3    3    0    0 -0.23503761194E+02 -0.25190385592E+00 -0.54653344714E+02  0.59493608886E+02  0.10566000000E+00 0.  1.
         22    1    1    0    0    0  0.17105631266E+02 -0.12650117655E+02  0.27486239651E+02  0.34758041772E+02  0.00000000000E+00 0.  1.
</event>
<event>
 5    1  0.1315753E-009  0.9118800E+02  0.7818608E-02  0.1130116E+00
         25   -1    0    0    0    0  0.00000000000E+00  0.00000000000E+00  0.99999998245E-14  0.12500000000E+03  0.12500000000E+03 0.  0.
        -13    1    3    3    0    0 -0.57531484372E+02 -0.52662470008E+01 -0.17560668964E+02  0.60382061161E+02  0.10566000000E+00 0.  1.
         23    2    1    0    0    0 -0.24140244916E+02 -0.13353711295E+02 -0.10656685080E+02  0.95425721195E+02  0.90727230194E+02 0.  0.
         13    1    3    3    0    0  0.33391239456E+02 -0.80874642940E+01  0.69039838842E+01  0.35043660034E+02  0.10566000000E+00 0. -1.
         22    1    1    0    0    0  0.24140244916E+02  0.13353711295E+02  0.10656685080E+02  0.29574278805E+02  0.00000000000E+00 0.  1.
</event>
<event>
 5    1  0.1315753E-009  0.9118800E+02  0.7818608E-02  0.1130116E+00
         25   -1    0    0    0    0  0.00000000000E+00  0.00000000000E+00  0.99999998245E-14  0.12500000000E+03  0.12500000000E+03 0.  0.
        -13    1    3    3    0    0  0.16085931674E+02  0.49125864313E+02 -0.45176139837E+01  0.51889572579E+02  0.10566000000E+00 0.  1.
         23    2    1    0    0    0 -0.17628930295E+02  0.22526123328E+02  0.52171578582E+01  0.95923821578E+02  0.91410915073E+02 0.  0.
         13    1    3    3    0    0 -0.33714861969E+02 -0.26599740985E+02  0.97347718419E+01  0.44034248999E+02  0.10566000000E+00 0. -1.
         22    1    1    0    0    0  0.17628930295E+02 -0.22526123328E+02 -0.52171578582E+01  0.29076178422E+02  0.00000000000E+00 0.  1.
</event>
<event>
 5    1  0.1315753E-009  0.9118800E+02  0.7818608E-02  0.1130116E+00
         25   -1    0    0    0    0  0.00000000000E+00  0.00000000000E+00  0.99999998245E-14  0.12500000000E+03  0.12500000000E+03 0.  0.
        -13    1    3    3    0    0  0.38246185615E+02  0.20263531267E+02 -0.12486034196E+02  0.45047681711E+02  0.10566000000E+00 0.  1.
         23    2    1    0    0    0  0.30190096751E+02 -0.13380046449E+02 -0.26784432305E+02  0.82480905481E+02  0.70676915399E+02 0.  0.
         13    1    3    3    0    0 -0.80560888642E+01 -0.33643577716E+02 -0.14298398109E+02  0.37433223770E+02  0.10566000000E+00 0. -1.
         22    1    1    0    0    0 -0.30190096751E+02  0.13380046449E+02  0.26784432305E+02  0.42519094519E+02  0.00000000000E+00 0.  1.
</event>
<event>
 5    1  0.1315753E-009  0.9118800E+02  0.7818608E-02  0.1130116E+00
         25   -1    0    0    0    0  0.00000000000E+00  0.00000000000E+00  0.99999998245E-14  0.12500000000E+03  0.12500000000E+03 0.  0.
        -13    1    3    3    0    0  0.28812406792E+01 -0.33130801890E+02 -0.22115584750E+02  0.39938225231E+02  0.10566000000E+00 0.  1.
         23    2    1    0    0    0  0.19174174854E+02 -0.18316460193E+02  0.22843328276E+02  0.90000580833E+02  0.82916495393E+02 0.  0.
         13    1    3    3    0    0  0.16292934175E+02  0.14814341697E+02  0.44958913026E+02  0.50062355602E+02  0.10566000000E+00 0. -1.
         22    1    1    0    0    0 -0.19174174854E+02  0.18316460193E+02 -0.22843328276E+02  0.34999419167E+02  0.00000000000E+00 0. -1.
</event>
<event>
 5    1  0.1315753E-009  0.9118800E+02  0.7818608E-02  0.1130116E+00
         25   -1    0    0    0    0  0.00000000000E+00  0.00000000000E+00  0.99999998245E-14  0.12500000000E+03  0.12500000000E+03 0.  0.
        -13    1    3    3    0    0  0.46177797870E+02  0.40402047238E+02 -0.28903805643E+01  0.61425401106E+02  0.10566000000E+00 0. -1.
         23    2    1    0    0    0  0.21409017236E+02  0.18375293919E+02 -0.95111590587E+01  0.95226528717E+02  0.90452375199E+02 0.  0.
         13    1    3    3    0    0 -0.24768780634E+02 -0.22026753319E+02 -0.66207784944E+01  0.33801127611E+02  0.10566000000E+00 0.  1.
         22    1    1    0    0    0 -0.21409017236E+02 -0.18375293919E+02  0.95111590587E+01  0.29773471283E+02  0.00000000000E+00 0. -1.
</event>
<event>
 5    1  0.1315753E-009  0.9118800E+02  0.7818608E-02  0.1130116E+00
         25   -1    0    0    0    0  0.00000000000E+00  0.00000000000E+00  0.99999998245E-14  0.12500000000E+03  0.12500000000E+03 0.  0.
        -13    1    3    3    0    0 -0.70690761915E+01  0.33333533624E+02 -0.10527162134E+02  0.35664108130E+02  0.10566000000E+00 0.  1.
         23    2    1    0    0    0 -0.33772347278E+01 -0.27013704394E+02 -0.96050170452E+01  0.96131292167E+02  0.91694182159E+02 0.  0.
         13    1    3    3    0    0  0.36918414638E+01 -0.60347238018E+02  0.92214508864E+00  0.60467184037E+02  0.10566000000E+00 0. -1.
         22    1    1    0    0    0  0.33772347278E+01  0.27013704394E+02  0.96050170452E+01  0.28868707833E+02  0.00000000000E+00 0. -1.
</event>
<event>
 5    1  0.1315753E-009  0.9118800E+02  0.7818608E-02  0.1130116E+00
         25   -1    0    0    0    0  0.00000000000E+00  0.00000000000E+00  0.99999998245E-14  0.12500000000E+03  0.12500000000E+03 0.  0.
        -13    1    3    3    0    0  0.15045531569E+02  0.39972703161E+02  0.38465649298E+02  0.57478712217E+02  0.10566000000E+00 0. -1.
         23    2    1    0    0    0  0.88858930991E+01  0.33180152941E+01  0.27010213835E+02  0.96372740734E+02  0.92022742752E+02 0.  0.
         13    1    3    3    0    0 -0.61596384695E+01 -0.36654687866E+02 -0.11455435463E+02  0.38894028518E+02  0.10566000000E+00 0.  1.
         22    1    1    0    0    0 -0.88858930991E+01 -0.33180152941E+01 -0.27010213835E+02  0.28627259266E+02  0.00000000000E+00 0. -1.
</event>
<event>
 5    1  0.1315753E-009  0.9118800E+02  0.7818608E-02  0.1130116E+00
         25   -1    0    0    0    0  0.00000000000E+00  0.00000000000E+00  0.99999998245E-14  0.12500000000E+03  0.12500000000E+03 0.  0.
        -13    1    3    3    0    0 -0.33877289580E+02  0.30114864326E+02 -0.16105476903E+02  0.48103776910E+02  0.10566000000E+00 0. -1.
         23    2    1    0    0    0 -0.33748945214E+02 -0.90091029919E+01 -0.14257173290E+02  0.87271731685E+02  0.78695189950E+02 0.  0.
         13    1    3    3    0    0  0.12834436623E+00 -0.39123967318E+02  0.18483036121E+01  0.39167954775E+02  0.10566000000E+00 0.  1.
         22    1    1    0    0    0  0.33748945214E+02  0.90091029919E+01  0.14257173290E+02  0.37728268315E+02  0.00000000000E+00 0.  1.
</event>
<event>
 5    1  0.1315753E-009  0.9118800E+02  0.7818608E-02  0.1130116E+00
         25   -1    0    0    0    0  0.00000000000E+00  0.00000000000E+00  0.99999998245E-14  0.12500000000E+03  0.12500000000E+03 0.  0.
        -13    1    3    3    0    0  0.49488761324E+02 -0.20005995971E+02  0.27903175292E+02  0.60232679897E+02  0.10566000000E+00 0. -1.
         23    2    1    0    0    0  0.16484586881E+02 -0.19365575161E+02  0.12612410021E+02  0.96612679019E+02  0.92348090152E+02 0.  0.
         13    1    3    3    0    0 -0.33004174443E+02  0.64042081070E+00 -0.15290765272E+02  0.36379999122E+02  0.10566000000E+00 0.  1.
         22    1    1    0    0    0 -0.16484586881E+02  0.19365575161E+02 -0.12612410021E+02  0.28387320981E+02  0.00000000000E+00 0. -1.
</event>
<event>
 5    1  0.1315753E-009  0.9118800E+02  0.7818608E-02  0.1130116E+00
         25   -1    0    0    0    0  0.00000000000E+00  0.00000000000E+00  0.99999998245E-14  0.12500000000E+03  0.12500000000E+03 0.  0.
        -13    1    3    3    0    0  0.50088386354E+02  0.26960565455E+02  0.20118959880E+02  0.60336574711E+02  0.10566000000E+00 0. -1.
         23    2    1    0    0    0  0.15670811350E+02  0.19713346873E+02  0.14457946845E+02  0.95961704591E+02  0.91462703588E+02 0.  0.
         13    1    3    3    0    0 -0.34417575004E+02 -0.72472185811E+01 -0.56610130355E+01  0.35625129880E+02  0.10566000000E+00 0.  1.
         22    1    1    0    0    0 -0.15670811350E+02 -0.19713346873E+02 -0.14457946845E+02  0.29038295409E+02  0.00000000000E+00 0. -1.
</event>
<event>
 5    1  0.1315753E-009  0.9118800E+02  0.7818608E-02  0.1130116E+00
         25   -1    0    0    0    0  0.00000000000E+00  0.00000000000E+00  0.99999998245E-14  0.12500000000E+03  0.12500000000E+03 0.  0.
        -13    1    3    3    0    0 -0.24932212915E+02  0.48177520646E+02 -0.30689940566E+02  0.62326337550E+02  0.10566000000E+00 0. -1.
         23    2    1    0    0    0 -0.11025211556E+02  0.26442487896E+02 -0.18767687726E+02  0.90751108652E+02  0.84040330574E+02 0.  0.
         13    1    3    3    0    0  0.13907001358E+02 -0.21735032750E+02  0.11922252840E+02  0.28424771102E+02  0.10566000000E+00 0.  1.
         22    1    1    0    0    0  0.11025211556E+02 -0.26442487896E+02  0.18767687726E+02  0.34248891348E+02  0.00000000000E+00 0. -1.
</event>
<event>
 5    1  0.1315753E-009  0.9118800E+02  0.7818608E-02  0.1130116E+00
         25   -1    0    0    0    0  0.00000000000E+00  0.00000000000E+00  0.99999998245E-14  0.12500000000E+03  0.12500000000E+03 0.  0.
        -13    1    3    3    0    0  0.34846590461E+02  0.26066441637E+02 -0.44595281204E+02  0.62309666313E+02  0.10566000000E+00 0. -1.
         23    2    1    0    0    0  0.16863208233E+02  0.86199771035E+01 -0.20907713816E+02  0.96789996558E+02  0.92587791524E+02 0.  0.
         13    1    3    3    0    0 -0.17983382227E+02 -0.17446464533E+02  0.23687567387E+02  0.34480330245E+02  0.10566000000E+00 0.  1.
         22    1    1    0    0    0 -0.16863208233E+02 -0.86199771035E+01  0.20907713816E+02  0.28210003442E+02  0.00000000000E+00 0. -1.
</event>
<event>
 5    1  0.1315753E-009  0.9118800E+02  0.7818608E-02  0.1130116E+00
         25   -1    0    0    0    0  0.00000000000E+00  0.00000000000E+00  0.99999998245E-14  0.12500000000E+03  0.12500000000E+03 0.  0.
        -13    1    3    3    0    0  0.11081935917E+02 -0.20925666703E+02  0.29269451321E+02  0.37648436558E+02  0.10566000000E+00 0.  1.
         23    2    1    0    0    0 -0.10683446949E+02 -0.18613830905E+02 -0.22530846445E+02  0.93883287751E+02  0.88576644426E+02 0.  0.
         13    1    3    3    0    0 -0.21765382866E+02  0.23118357984E+01 -0.51800297765E+02  0.56234851193E+02  0.10566000000E+00 0. -1.
         22    1    1    0    0    0  0.10683446949E+02  0.18613830905E+02  0.22530846445E+02  0.31116712249E+02  0.00000000000E+00 0. -1.
</event>
<event>
 5    1  0.1315753E-009  0.9118800E+02  0.7818608E-02  0.1130116E+00
         25   -1    0    0    0    0  0.00000000000E+00  0.00000000000E+00  0.99999998245E-14  0.12500000000E+03  0.12500000000E+03 0.  0.
        -13    1    3    3    0    0  0.83958644586E+01 -0.27950340680E+02 -0.17199439214E+02  0.33875418188E+02  0.10566000000E+00 0.  1.
         23    2    1    0    0    0  0.17901441951E+02  0.78242548911E+01  0.27092214978E+02  0.91598372780E+02  0.85291225780E+02 0.  0.
         13    1    3    3    0    0  0.95055774928E+01  0.35774595571E+02  0.44291654192E+02  0.57722954592E+02  0.10566000000E+00 0. -1.
         22    1    1    0    0    0 -0.17901441951E+02 -0.78242548911E+01 -0.27092214978E+02  0.33401627220E+02  0.00000000000E+00 0. -1.
</event>
<event>
 5    1  0.1315753E-009  0.9118800E+02  0.7818608E-02  0.1130116E+00
         25   -1    0    0    0    0  0.00000000000E+00  0.00000000000E+00  0.99999998245E-14  0.12500000000E+03  0.12500000000E+03 0.  0.
        -13    1    3    3    0    0 -0.34452160403E+02 -0.21964030970E+02  0.45323743785E+02  0.61021495619E+02  0.10566000000E+00 0.  1.
         23    2    1    0    0    0 -0.12488725079E+02 -0.18686811385E+02  0.18179270139E+02  0.96092370616E+02  0.91641107883E+02 0.  0.
         13    1    3    3    0    0  0.21963435324E+02  0.32772195848E+01 -0.27144473646E+02  0.35070874996E+02  0.10566000000E+00 0. -1.
         22    1    1    0    0    0  0.12488725079E+02  0.18686811385E+02 -0.18179270139E+02  0.28907629384E+02  0.00000000000E+00 0.  1.
</event>
<event>
 5    1  0.1315753E-009  0.9118800E+02  0.7818608E-02  0.1130116E+00
         25   -1    0    0    0    0  0.00000000000E+00  0.00000000000E+00  0.99999998245E-14  0.12500000000E+03  0.12500000000E+03 0.  0.
        -13    1    3    3    0    0  0.92834051538E+01  0.22229661883E+01 -0.51395484940E+02  0.52274565767E+02  0.10566000000E+00 0. -1.
         23    2    1    0    0    0 -0.20328808948E+02 -0.50695317646E+01 -0.20419033436E+02  0.95744273176E+02  0.91165060709E+02 0.  0.
         13    1    3    3    0    0 -0.29612214101E+02 -0.72924979529E+01  0.30976451504E+02  0.43469707409E+02  0.10566000000E+00 0.  1.
         22    1    1    0    0    0  0.20328808948E+02  0.50695317646E+01  0.20419033436E+02  0.29255726824E+02  0.00000000000E+00 0. -1.
</event>
<event>
 5    1  0.1315753E-009  0.9118800E+02  0.7818608E-02  0.1130116E+00
         25   -1    0    0    0    0  0.00000000000E+00  0.00000000000E+00  0.99999998245E-14  0.12500000000E+03  0.12500000000E+03 0.  0.
        -13    1    3    3    0    0  0.99208339088E+01 -0.17850227613E+02 -0.28748230521E+02  0.35263656835E+02  0.10566000000E+00 0.  1.
         23    2    1    0    0    0 -0.24624200369E+02  0.11974445706E+02  0.10713832529E+02  0.95597197391E+02  0.90963175779E+02 0.  0.
         13    1    3    3    0    0 -0.34545034278E+02  0.29824673319E+02  0.39462063050E+02  0.60333540556E+02  0.10566000000E+00 0. -1.
         22    1    1    0    0    0  0.24624200369E+02 -0.11974445706E+02 -0.10713832529E+02  0.29402802609E+02  0.00000000000E+00 0. -1.
</event>
<event>
 5    1  0.1315753E-009  0.9118800E+02  0.7818608E-02  0.1130116E+00
         25   -1    0    0    0    0  0.00000000000E+00  0.00000000000E+00  0.99999998245E-14  0.12500000000E+03  0.12500000000E+03 0.  0.
        -13    1    3    3    0    0  0.20954789257E+02  0.26394656409E+02 -0.18697944246E+02  0.38540956953E+02  0.10566000000E+00 0. -1.
         23    2    1    0    0    0 -0.66836188812E+01 -0.15032999031E+02 -0.31058736481E+02  0.89853066521E+02  0.82693812527E+02 0.  0.
         13    1    3    3    0    0 -0.27638408138E+02 -0.41427655440E+02 -0.12360792234E+02  0.51312109568E+02  0.10566000000E+00 0.  1.
         22    1    1    0    0    0  0.66836188812E+01  0.15032999031E+02  0.31058736481E+02  0.35146933479E+02  0.00000000000E+00 0.  1.
</event>
<event>
 5    1  0.1315753E-009  0.9118800E+02  0.7818608E-02  0.1130116E+00
         25   -1    0    0    0    0  0.00000000000E+00  0.00000000000E+00  0.99999998245E-14  0.12500000000E+03  0.12500000000E+03 0.  0.
        -13    1    3    3    0    0  0.63282694636E+01  0.47740920382E+01  0.31222613699E+02  0.32213377957E+02  0.10566000000E+00 0.  1.
         23    2    1    0    0    0 -0.38464647037E+02  0.64595993835E+01  0.27669876476E+02  0.77178691360E+02  0.60577824656E+02 0.  0.
         13    1    3    3    0    0 -0.44792916500E+02  0.16855073453E+01 -0.35527372231E+01  0.44965313403E+02  0.10566000000E+00 0. -1.
         22    1    1    0    0    0  0.38464647037E+02 -0.64595993835E+01 -0.27669876476E+02  0.47821308640E+02  0.00000000000E+00 0. -1.
</event>
<event>
 5    1  0.1315753E-009  0.9118800E+02  0.7818608E-02  0.1130116E+00
         25   -1    0    0    0    0  0.00000000000E+00  0.00000000000E+00  0.99999998245E-14  0.12500000000E+03  0.12500000000E+03 0.  0.
        -13    1    3    3    0    0 -0.17096643162E+02 -0.45020826565E+02  0.75824493186E+01  0.48751151101E+02  0.10566000000E+00 0.  1.
         23    2    1    0    0    0 -0.24712570972E+02 -0.71252860164E+01 -0.16640085006E+02  0.94367120706E+02  0.89256821457E+02 0.  0.
         13    1    3    3    0    0 -0.76159278092E+01  0.37895540548E+02 -0.24222534324E+02  0.45615969605E+02  0.10566000000E+00 0. -1.
         22    1    1    0    0    0  0.24712570972E+02  0.71252860164E+01  0.16640085006E+02  0.30632879294E+02  0.00000000000E+00 0. -1.
</event>
<event>
 5    1  0.1315753E-009  0.9118800E+02  0.7818608E-02  0.1130116E+00
         25   -1    0    0    0    0  0.00000000000E+00  0.00000000000E+00  0.99999998245E-14  0.12500000000E+03  0.12500000000E+03 0.  0.
        -13    1    3    3    0    0 -0.24200195228E+02 -0.48126353277E+02 -0.22677600671E+02  0.58447241723E+02  0.10566000000E+00 0.  1.
         23    2    1    0    0    0  0.24939570692E+01 -0.27685612945E+02 -0.39781774336E+01  0.96919065512E+02  0.92761879983E+02 0.  0.
         13    1    3    3    0    0  0.26694152297E+02  0.20440740332E+02  0.18699423237E+02  0.38471823789E+02  0.10566000000E+00 0. -1.
         22    1    1    0    0    0 -0.24939570692E+01  0.27685612945E+02  0.39781774336E+01  0.28080934488E+02  0.00000000000E+00 0.  1.
</event>
<event>
 5    1  0.1315753E-009  0.9118800E+02  0.7818608E-02  0.1130116E+00
         25   -1    0    0    0    0  0.00000000000E+00  0.00000000000E+00  0.99999998245E-14  0.12500000000E+03  0.12500000000E+03 0.  0.
        -13    1    3    3    0    0 -0.11093205973E+02 -0.45852617653E+02  0.30792389955E+01  0.47275941463E+02  0.10566000000E+00 0.  1.
         23    2    1    0    0    0  0.13268334383E+02 -0.84147654292E+01  0.23773792092E+02  0.96503506094E+02  0.92200198066E+02 0.  0.
         13    1    3    3    0    0  0.24361540356E+02  0.37437852224E+02  0.20694553096E+02  0.49227564631E+02  0.10566000000E+00 0. -1.
         22    1    1    0    0    0 -0.13268334383E+02  0.84147654292E+01 -0.23773792092E+02  0.28496493906E+02  0.00000000000E+00 0. -1.
</event>
<event>
 5    1  0.1315753E-009  0.9118800E+02  0.7818608E-02  0.1130116E+00
         25   -1    0    0    0    0  0.00000000000E+00  0.00000000000E+00  0.99999998245E-14  0.12500000000E+03  0.12500000000E+03 0.  0.
        -13    1    3    3    0    0 -0.27461652397E+02  0.21628526355E+02  0.44460695155E+01  0.35237965362E+02  0.10566000000E+00 0. -1.
         23    2    1    0    0    0  0.50984141910E+01 -0.28309037733E+02 -0.56059472443E+01  0.95694333498E+02  0.91096560718E+02 0.  0.
         13    1    3    3    0    0  0.32560066588E+02 -0.49937564088E+02 -0.10052016760E+02  0.60456368136E+02  0.10566000000E+00 0.  1.
         22    1    1    0    0    0 -0.50984141910E+01  0.28309037733E+02  0.56059472443E+01  0.29305666502E+02  0.00000000000E+00 0.  1.
</event>
<event>
 5    1  0.1315753E-009  0.9118800E+02  0.7818608E-02  0.1130116E+00
         25   -1    0    0    0    0  0.00000000000E+00  0.00000000000E+00  0.99999998245E-14  0.12500000000E+03  0.12500000000E+03 0.  0.
        -13    1    3    3    0    0 -0.44226130406E+02  0.24819830457E+02  0.39419935584E+01  0.50867721315E+02  0.10566000000E+00 0.  1.
         23    2    1    0    0    0 -0.21423630543E+01  0.26146073170E+02  0.15499140858E+02  0.94529846916E+02  0.89484421711E+02 0.  0.
         13    1    3    3    0    0  0.42083767351E+02  0.13262427130E+01  0.11557147300E+02  0.43662125601E+02  0.10566000000E+00 0. -1.
         22    1    1    0    0    0  0.21423630543E+01 -0.26146073170E+02 -0.15499140858E+02  0.30470153084E+02  0.00000000000E+00 0.  1.
</event>
<event>
 5    1  0.1315753E-009  0.9118800E+02  0.7818608E-02  0.1130116E+00
         25   -1    0    0    0    0  0.00000000000E+00  0.00000000000E+00  0.99999998245E-14  0.12500000000E+03  0.12500000000E+03 0.  0.
        -13    1    3    3    0    0 -0.13701565323E+02 -0.50867740343E+02 -0.10859493332E+02  0.53788471436E+02  0.10566000000E+00 0.  1.
         23    2    1    0    0    0  0.16941251588E+02 -0.24956307083E+02 -0.29235952338E+01  0.94695368709E+02  0.89715339699E+02 0.  0.
         13    1    3    3    0    0  0.30642816911E+02  0.25911433260E+02  0.79358980986E+01  0.40906897274E+02  0.10566000000E+00 0. -1.
         22    1    1    0    0    0 -0.16941251588E+02  0.24956307083E+02  0.29235952338E+01  0.30304631291E+02  0.00000000000E+00 0.  1.
</event>
<event>
 5    1  0.1315753E-009  0.9118800E+02  0.7818608E-02  0.1130116E+00
         25   -1    0    0    0    0  0.00000000000E+00  0.00000000000E+00  0.99999998245E-14  0.12500000000E+03  0.12500000000E+03 0.  0.
        -13    1    3    3    0    0  0.83020111811E+01 -0.23255163678E+02 -0.50120479323E+02  0.55873067206E+02  0.10566000000E+00 0. -1.
         23    2    1    0    0    0  0.21577016948E+02 -0.13892357924E+02 -0.13348778042E+02  0.96073279752E+02  0.91615063926E+02 0.  0.
         13    1    3    3    0    0  0.13275005767E+02  0.93628057541E+01  0.36771701281E+02  0.40200212547E+02  0.10566000000E+00 0.  1.
         22    1    1    0    0    0 -0.21577016948E+02  0.13892357924E+02  0.13348778042E+02  0.28926720248E+02  0.00000000000E+00 0. -1.
</event>
<event>
 5    1  0.1315753E-009  0.9118800E+02  0.7818608E-02  0.1130116E+00
         25   -1    0    0    0    0  0.00000000000E+00  0.00000000000E+00  0.99999998245E-14  0.12500000000E+03  0.12500000000E+03 0.  0.
        -13    1    3    3    0    0 -0.32541220618E+02 -0.89195522653E+01 -0.32735298519E+02  0.47011704767E+02  0.10566000000E+00 0.  1.
         23    2    1    0    0    0 -0.17551302521E+02  0.26803246722E+02 -0.14294020178E+02  0.89917507673E+02  0.82791164493E+02 0.  0.
         13    1    3    3    0    0  0.14989918098E+02  0.35722798988E+02  0.18441278341E+02  0.42905802906E+02  0.10566000000E+00 0. -1.
         22    1    1    0    0    0  0.17551302521E+02 -0.26803246722E+02  0.14294020178E+02  0.35082492327E+02  0.00000000000E+00 0.  1.
</event>
<event>
 5    1  0.1315753E-009  0.9118800E+02  0.7818608E-02  0.1130116E+00
         25   -1    0    0    0    0  0.00000000000E+00  0.00000000000E+00  0.99999998245E-14  0.12500000000E+03  0.12500000000E+03 0.  0.
        -13    1    3    3    0    0  0.26509282024E+02  0.10951698679E+02  0.32159403488E+02  0.43091996172E+02  0.10566000000E+00 0. -1.
         23    2    1    0    0    0  0.11499503466E+01 -0.24642525400E+02 -0.42401556463E+01  0.99968912053E+02  0.96784440967E+02 0.  0.
         13    1    3    3    0    0 -0.25359331677E+02 -0.35594224079E+02 -0.36399559134E+02  0.56876915881E+02  0.10566000000E+00 0.  1.
         22    1    1    0    0    0 -0.11499503466E+01  0.24642525400E+02  0.42401556463E+01  0.25031087947E+02  0.00000000000E+00 0.  1.
</event>
<event>
 5    1  0.1315753E-009  0.9118800E+02  0.7818608E-02  0.1130116E+00
         25   -1    0    0    0    0  0.00000000000E+00  0.00000000000E+00  0.99999998245E-14  0.12500000000E+03  0.12500000000E+03 0.  0.
        -13    1    3    3    0    0  0.27609077914E+02  0.19631039791E+02 -0.29684941965E+02  0.45042711397E+02  0.10566000000E+00 0.  1.
         23    2    1    0    0    0 -0.22304739146E+01  0.25240730824E+02  0.12281863448E+02  0.96841277086E+02  0.92656997962E+02 0.  0.
         13    1    3    3    0    0 -0.29839551828E+02  0.56096910335E+01  0.41966805413E+02  0.51798565689E+02  0.10566000000E+00 0. -1.
         22    1    1    0    0    0  0.22304739146E+01 -0.25240730824E+02 -0.12281863448E+02  0.28158722914E+02  0.00000000000E+00 0. -1.
</event>
<event>
 5    1  0.1315753E-009  0.9118800E+02  0.7818608E-02  0.1130116E+00
         25   -1    0    0    0    0  0.00000000000E+00  0.00000000000E+00  0.99999998245E-14  0.12500000000E+03  0.12500000000E+03 0.  0.
        -13    1    3    3    0    0 -0.53795065263E+02 -0.20533692494E+02 -0.19880218865E+02  0.60916137765E+02  0.10566000000E+00 0. -1.
         23    2    1    0    0    0 -0.27296901633E+02 -0.60235679418E+00 -0.12908987415E+02  0.94798582342E+02  0.89859031741E+02 0.  0.
         13    1    3    3    0    0  0.26498163630E+02  0.19931335700E+02  0.69712314501E+01  0.33882444577E+02  0.10566000000E+00 0.  1.
         22    1    1    0    0    0  0.27296901633E+02  0.60235679418E+00  0.12908987415E+02  0.30201417658E+02  0.00000000000E+00 0. -1.
</event>
<event>
 5    1  0.1315753E-009  0.9118800E+02  0.7818608E-02  0.1130116E+00
         25   -1    0    0    0    0  0.00000000000E+00  0.00000000000E+00  0.99999998245E-14  0.12500000000E+03  0.12500000000E+03 0.  0.
        -13    1    3    3    0    0 -0.93070437073E+01 -0.22482819381E+02 -0.26483796218E+02  0.35965272918E+02  0.10566000000E+00 0.  1.
         23    2    1    0    0    0  0.26424358328E+02  0.16484100624E+02 -0.16449654573E+02  0.89778367130E+02  0.82580819702E+02 0.  0.
         13    1    3    3    0    0  0.35731402035E+02  0.38966920006E+02  0.10034141645E+02  0.53813094212E+02  0.10566000000E+00 0. -1.
         22    1    1    0    0    0 -0.26424358328E+02 -0.16484100624E+02  0.16449654573E+02  0.35221632870E+02  0.00000000000E+00 0. -1.
</event>
<event>
 5    1  0.1315753E-009  0.9118800E+02  0.7818608E-02  0.1130116E+00
         25   -1    0    0    0    0  0.00000000000E+00  0.00000000000E+00  0.99999998245E-14  0.12500000000E+03  0.12500000000E+03 0.  0.
        -13    1    3    3    0    0  0.80523063701E+01 -0.39714061537E+02  0.68409585153E+01  0.41095695627E+02  0.10566000000E+00 0. -1.
         23    2    1    0    0    0 -0.26347180967E+02 -0.23573303373E+01 -0.12886852134E+02  0.95575487954E+02  0.90933338158E+02 0.  0.
         13    1    3    3    0    0 -0.34399487337E+02  0.37356731200E+02 -0.19727810649E+02  0.54479792327E+02  0.10566000000E+00 0.  1.
         22    1    1    0    0    0  0.26347180967E+02  0.23573303373E+01  0.12886852134E+02  0.29424512046E+02  0.00000000000E+00 0.  1.
</event>
<event>
 5    1  0.1315753E-009  0.9118800E+02  0.7818608E-02  0.1130116E+00
         25   -1    0    0    0    0  0.00000000000E+00  0.00000000000E+00  0.99999998245E-14  0.12500000000E+03  0.12500000000E+03 0.  0.
        -13    1    3    3    0    0 -0.31313071549E+02 -0.10445358130E+02 -0.22694613873E+02  0.40058340195E+02  0.10566000000E+00 0. -1.
         23    2    1    0    0    0  0.20825242732E+02 -0.13586505779E+02  0.56706228889E+01  0.99496277956E+02  0.96172082690E+02 0.  0.
         13    1    3    3    0    0  0.52138314281E+02 -0.31411476491E+01  0.28365236762E+02  0.59437937761E+02  0.10566000000E+00 0.  1.
         22    1    1    0    0    0 -0.20825242732E+02  0.13586505779E+02 -0.56706228889E+01  0.25503722044E+02  0.00000000000E+00 0.  1.
</event>
<event>
 5    1  0.1315753E-009  0.9118800E+02  0.7818608E-02  0.1130116E+00
         25   -1    0    0    0    0  0.00000000000E+00  0.00000000000E+00  0.99999998245E-14  0.12500000000E+03  0.12500000000E+03 0.  0.
        -13    1    3    3    0    0  0.72608073578E+01 -0.19825363230E+02  0.57997946513E+02  0.61721449387E+02  0.10566000000E+00 0.  1.
         23    2    1    0    0    0  0.77316592349E+00 -0.15068009243E+02  0.24055738847E+02  0.96604203487E+02  0.92336617178E+02 0.  0.
         13    1    3    3    0    0 -0.64876414343E+01  0.47573539867E+01 -0.33942207666E+02  0.34882754100E+02  0.10566000000E+00 0. -1.
         22    1    1    0    0    0 -0.77316592349E+00  0.15068009243E+02 -0.24055738847E+02  0.28395796513E+02  0.00000000000E+00 0.  1.
</event>
<event>
 5    1  0.1315753E-009  0.9118800E+02  0.7818608E-02  0.1130116E+00
         25   -1    0    0    0    0  0.00000000000E+00  0.00000000000E+00  0.99999998245E-14  0.12500000000E+03  0.12500000000E+03 0.  0.
        -13    1    3    3    0    0 -0.80168013574E+01 -0.14623647051E+02  0.48978773389E+02  0.51740231578E+02  0.10566000000E+00 0.  1.
         23    2    1    0    0    0 -0.24525451319E+02 -0.10871414973E+02  0.66036125493E+01  0.97372239964E+02  0.93370552054E+02 0.  0.
         13    1    3    3    0    0 -0.16508649962E+02  0.37522320771E+01 -0.42375160839E+02  0.45632008386E+02  0.10566000000E+00 0. -1.
         22    1    1    0    0    0  0.24525451319E+02  0.10871414973E+02 -0.66036125493E+01  0.27627760036E+02  0.00000000000E+00 0.  1.
</event>
<event>
 5    1  0.1315753E-009  0.9118800E+02  0.7818608E-02  0.1130116E+00
         25   -1    0    0    0    0  0.00000000000E+00  0.00000000000E+00  0.99999998245E-14  0.12500000000E+03  0.12500000000E+03 0.  0.
        -13    1    3    3    0    0  0.31869040100E+02 -0.42123398560E+02  0.26815752815E+02  0.59237759801E+02  0.10566000000E+00 0. -1.
         23    2    1    0    0    0  0.24352451606E+02 -0.14738780051E+02  0.28578807072E+01  0.96391591817E+02  0.92048345744E+02 0.  0.
         13    1    3    3    0    0 -0.75165884934E+01  0.27384618509E+02 -0.23957872108E+02  0.37153832016E+02  0.10566000000E+00 0.  1.
         22    1    1    0    0    0 -0.24352451606E+02  0.14738780051E+02 -0.28578807072E+01  0.28608408183E+02  0.00000000000E+00 0. -1.
</event>
<event>
 5    1  0.1315753E-009  0.9118800E+02  0.7818608E-02  0.1130116E+00
         25   -1    0    0    0    0  0.00000000000E+00  0.00000000000E+00  0.99999998245E-14  0.12500000000E+03  0.12500000000E+03 0.  0.
        -13    1    3    3    0    0 -0.51797500294E+00  0.29009628220E+02 -0.44565055799E+02  0.53177835515E+02  0.10566000000E+00 0. -1.
         23    2    1    0    0    0  0.77450854870E+01 -0.96643340969E+01 -0.24553780741E+02  0.97499566341E+02  0.93540855166E+02 0.  0.
         13    1    3    3    0    0  0.82630604900E+01 -0.38673962317E+02  0.20011275058E+02  0.44321730826E+02  0.10566000000E+00 0.  1.
         22    1    1    0    0    0 -0.77450854870E+01  0.96643340969E+01  0.24553780741E+02  0.27500433659E+02  0.00000000000E+00 0. -1.
</event>
<event>
 5    1  0.1315753E-009  0.9118800E+02  0.7818608E-02  0.1130116E+00
         25   -1    0    0    0    0  0.00000000000E+00  0.00000000000E+00  0.99999998245E-14  0.12500000000E+03  0.12500000000E+03 0.  0.
        -13    1    3    3    0    0 -0.75684185907E+01  0.20372976632E+02 -0.15193889768E+02  0.26518004961E+02  0.10566000000E+00 0. -1.
         23    2    1    0    0    0  0.37558426732E+02 -0.60425511944E+01  0.11541636651E+02  0.85246293001E+02  0.75409371104E+02 0.  0.
         13    1    3    3    0    0  0.45126845323E+02 -0.26415527826E+02  0.26735526420E+02  0.58728288040E+02  0.10566000000E+00 0.  1.
         22    1    1    0    0    0 -0.37558426732E+02  0.60425511944E+01 -0.11541636651E+02  0.39753706999E+02  0.00000000000E+00 0.  1.
</event>
<event>
 5    1  0.1315753E-009  0.9118800E+02  0.7818608E-02  0.1130116E+00
         25   -1    0    0    0    0  0.00000000000E+00  0.00000000000E+00  0.99999998245E-14  0.12500000000E+03  0.12500000000E+03 0.  0.
        -13    1    3    3    0    0 -0.25534648716E+02 -0.44857752878E+02 -0.87492046303E+01  0.52352612389E+02  0.10566000000E+00 0.  1.
         23    2    1    0    0    0  0.46961867056E+01 -0.27959353187E+02  0.13584345339E+02  0.93562537658E+02  0.88122837077E+02 0.  0.
         13    1    3    3    0    0  0.30230835421E+02  0.16898399691E+02  0.22333549970E+02  0.41209925269E+02  0.10566000000E+00 0. -1.
         22    1    1    0    0    0 -0.46961867056E+01  0.27959353187E+02 -0.13584345339E+02  0.31437462342E+02  0.00000000000E+00 0.  1.
</event>
<event>
 5    1  0.1315753E-009  0.9118800E+02  0.7818608E-02  0.1130116E+00
         25   -1    0    0    0    0  0.00000000000E+00  0.00000000000E+00  0.99999998245E-14  0.12500000000E+03  0.12500000000E+03 0.  0.
        -13    1    3    3    0    0 -0.28030844094E+02 -0.16275058913E+02 -0.10022938848E+02  0.33927514357E+02  0.10566000000E+00 0. -1.
         23    2    1    0    0    0  0.24156417256E+02 -0.41428038331E+00  0.17639863869E+02  0.95085640235E+02  0.90257465390E+02 0.  0.
         13    1    3    3    0    0  0.52187261349E+02  0.15860778530E+02  0.27662802717E+02  0.61158125878E+02  0.10566000000E+00 0.  1.
         22    1    1    0    0    0 -0.24156417256E+02  0.41428038331E+00 -0.17639863869E+02  0.29914359765E+02  0.00000000000E+00 0.  1.
</event>
<event>
 5    1  0.1315753E-009  0.9118800E+02  0.7818608E-02  0.1130116E+00
         25   -1    0    0    0    0  0.00000000000E+00  0.00000000000E+00  0.99999998245E-14  0.12500000000E+03  0.12500000000E+03 0.  0.
        -13    1    3    3    0    0  0.25500463525E+01  0.28026694804E+02  0.37780604353E+02  0.47110334189E+02  0.10566000000E+00 0. -1.
         23    2    1    0    0    0 -0.16256138460E+02  0.24347929918E+02 -0.61913696879E+01  0.95076484372E+02  0.90244784298E+02 0.  0.
         13    1    3    3    0    0 -0.18806184812E+02 -0.36787648866E+01 -0.43971974041E+02  0.47966150183E+02  0.10566000000E+00 0.  1.
         22    1    1    0    0    0  0.16256138460E+02 -0.24347929918E+02  0.61913696879E+01  0.29923515628E+02  0.00000000000E+00 0. -1.
</event>
<event>
 5    1  0.1315753E-009  0.9118800E+02  0.7818608E-02  0.1130116E+00
         25   -1    0    0    0    0  0.00000000000E+00  0.00000000000E+00  0.99999998245E-14  0.12500000000E+03  0.12500000000E+03 0.  0.
        -13    1    3    3    0    0 -0.23566236219E+02 -0.14702008418E+02  0.26431495500E+02  0.38342556767E+02  0.10566000000E+00 0. -1.
         23    2    1    0    0    0  0.39423216718E+01 -0.11005914137E+02 -0.25344571804E+02  0.97089081597E+02  0.92990700607E+02 0.  0.
         13    1    3    3    0    0  0.27508557891E+02  0.36960942808E+01 -0.51776067303E+02  0.58746524830E+02  0.10566000000E+00 0.  1.
         22    1    1    0    0    0 -0.39423216718E+01  0.11005914137E+02  0.25344571804E+02  0.27910918403E+02  0.00000000000E+00 0.  1.
</event>
<event>
 5    1  0.1315753E-009  0.9118800E+02  0.7818608E-02  0.1130116E+00
         25   -1    0    0    0    0  0.00000000000E+00  0.00000000000E+00  0.99999998245E-14  0.12500000000E+03  0.12500000000E+03 0.  0.
        -13    1    3    3    0    0 -0.11993900974E+02 -0.17365056170E+02  0.28007005709E+02  0.35068538167E+02  0.10566000000E+00 0.  1.
         23    2    1    0    0    0 -0.38110521210E+01 -0.37872721220E+01 -0.29650920596E+02  0.94866220938E+02  0.89953072401E+02 0.  0.
         13    1    3    3    0    0  0.81828488532E+01  0.13577784048E+02 -0.57657926305E+02  0.59797682771E+02  0.10566000000E+00 0. -1.
         22    1    1    0    0    0  0.38110521210E+01  0.37872721220E+01  0.29650920596E+02  0.30133779062E+02  0.00000000000E+00 0. -1.
</event>
<event>
 5    1  0.1315753E-009  0.9118800E+02  0.7818608E-02  0.1130116E+00
         25   -1    0    0    0    0  0.00000000000E+00  0.00000000000E+00  0.99999998245E-14  0.12500000000E+03  0.12500000000E+03 0.  0.
        -13    1    3    3    0    0 -0.25018533946E+02 -0.29072536329E+02 -0.39819345877E+02  0.55287710023E+02  0.10566000000E+00 0. -1.
         23    2    1    0    0    0 -0.17921338749E+02  0.53264357872E+01 -0.25873056871E+02  0.93078841303E+02  0.87434034138E+02 0.  0.
         13    1    3    3    0    0  0.70971951976E+01  0.34398972117E+02  0.13946289006E+02  0.37791131280E+02  0.10566000000E+00 0.  1.
         22    1    1    0    0    0  0.17921338749E+02 -0.53264357872E+01  0.25873056871E+02  0.31921158697E+02  0.00000000000E+00 0. -1.
</event>
<event>
 5    1  0.1315753E-009  0.9118800E+02  0.7818608E-02  0.1130116E+00
         25   -1    0    0    0    0  0.00000000000E+00  0.00000000000E+00  0.99999998245E-14  0.12500000000E+03  0.12500000000E+03 0.  0.
        -13    1    3    3    0    0  0.74067655560E+01  0.11175616483E+02 -0.32316119627E+02  0.34987102360E+02  0.10566000000E+00 0.  1.
         23    2    1    0    0    0 -0.95477010484E+01  0.66141396938E+01  0.26339029590E+02  0.96213719953E+02  0.91806481189E+02 0.  0.
         13    1    3    3    0    0 -0.16954466604E+02 -0.45614767893E+01  0.58655149216E+02  0.61226617594E+02  0.10566000000E+00 0. -1.
         22    1    1    0    0    0  0.95477010484E+01 -0.66141396938E+01 -0.26339029590E+02  0.28786280047E+02  0.00000000000E+00 0. -1.
</event>
<event>
 5    1  0.1315753E-009  0.9118800E+02  0.7818608E-02  0.1130116E+00
         25   -1    0    0    0    0  0.00000000000E+00  0.00000000000E+00  0.99999998245E-14  0.12500000000E+03  0.12500000000E+03 0.  0.
        -13    1    3    3    0    0 -0.22502757594E+02  0.18300156854E+02 -0.36768833256E+02  0.46831913299E+02  0.10566000000E+00 0. -1.
         23    2    1    0    0    0 -0.38628734658E+01 -0.22775856296E+02 -0.18110317279E+02  0.95646209557E+02  0.91030502521E+02 0.  0.
         13    1    3    3    0    0  0.18639884129E+02 -0.41076013150E+02  0.18658515977E+02  0.48814296257E+02  0.10566000000E+00 0.  1.
         22    1    1    0    0    0  0.38628734658E+01  0.22775856296E+02  0.18110317279E+02  0.29353790443E+02  0.00000000000E+00 0. -1.
</event>
<event>
 5    1  0.1315753E-009  0.9118800E+02  0.7818608E-02  0.1130116E+00
         25   -1    0    0    0    0  0.00000000000E+00  0.00000000000E+00  0.99999998245E-14  0.12500000000E+03  0.12500000000E+03 0.  0.
        -13    1    3    3    0    0  0.23897407348E+02  0.30105632482E+02  0.32511984822E+02  0.50343574627E+02  0.10566000000E+00 0. -1.
         23    2    1    0    0    0 -0.91625268934E+01  0.30755635052E+02  0.68847420004E+01  0.92178350759E+02  0.86137028563E+02 0.  0.
         13    1    3    3    0    0 -0.33059934241E+02  0.65000256971E+00 -0.25627242822E+02  0.41834776132E+02  0.10566000000E+00 0.  1.
         22    1    1    0    0    0  0.91625268934E+01 -0.30755635052E+02 -0.68847420004E+01  0.32821649241E+02  0.00000000000E+00 0. -1.
</event>
<event>
 5    1  0.1315753E-009  0.9118800E+02  0.7818608E-02  0.1130116E+00
         25   -1    0    0    0    0  0.00000000000E+00  0.00000000000E+00  0.99999998245E-14  0.12500000000E+03  0.12500000000E+03 0.  0.
        -13    1    3    3    0    0 -0.42271847017E+01 -0.32784484467E+02 -0.17059458181E+02  0.37198491767E+02  0.10566000000E+00 0. -1.
         23    2    1    0    0    0  0.94974332573E+01  0.23555595772E+02 -0.15577662415E+02  0.95205186744E+02  0.90422877006E+02 0.  0.
         13    1    3    3    0    0  0.13724617959E+02  0.56340080239E+02  0.14817957667E+01  0.58006694977E+02  0.10566000000E+00 0.  1.
         22    1    1    0    0    0 -0.94974332573E+01 -0.23555595772E+02  0.15577662415E+02  0.29794813256E+02  0.00000000000E+00 0.  1.
</event>
<event>
 5    1  0.1315753E-009  0.9118800E+02  0.7818608E-02  0.1130116E+00
         25   -1    0    0    0    0  0.00000000000E+00  0.00000000000E+00  0.99999998245E-14  0.12500000000E+03  0.12500000000E+03 0.  0.
        -13    1    3    3    0    0 -0.14094262821E+02 -0.16820078633E+02 -0.50114262119E+02  0.54708442872E+02  0.10566000000E+00 0.  1.
         23    2    1    0    0    0 -0.15321114238E+02 -0.23476383642E+02 -0.10237500514E+02  0.95155678142E+02  0.90354410714E+02 0.  0.
         13    1    3    3    0    0 -0.12268514166E+01 -0.66563050090E+01  0.39876761606E+02  0.40447235270E+02  0.10566000000E+00 0. -1.
         22    1    1    0    0    0  0.15321114238E+02  0.23476383642E+02  0.10237500514E+02  0.29844321858E+02  0.00000000000E+00 0.  1.
</event>
<event>
 5    1  0.1315753E-009  0.9118800E+02  0.7818608E-02  0.1130116E+00
         25   -1    0    0    0    0  0.00000000000E+00  0.00000000000E+00  0.99999998245E-14  0.12500000000E+03  0.12500000000E+03 0.  0.
        -13    1    3    3    0    0  0.54964250475E+02  0.57362504426E+01  0.41974089551E+01  0.55422042595E+02  0.10566000000E+00 0. -1.
         23    2    1    0    0    0  0.21355594218E+02 -0.15600759544E+02  0.11948004898E+02  0.95979319033E+02  0.91486773679E+02 0.  0.
         13    1    3    3    0    0 -0.33608656257E+02 -0.21337009987E+02  0.77505959428E+01  0.40557276438E+02  0.10566000000E+00 0.  1.
         22    1    1    0    0    0 -0.21355594218E+02  0.15600759544E+02 -0.11948004898E+02  0.29020680967E+02  0.00000000000E+00 0. -1.
</event>
<event>
 5    1  0.1315753E-009  0.9118800E+02  0.7818608E-02  0.1130116E+00
         25   -1    0    0    0    0  0.00000000000E+00  0.00000000000E+00  0.99999998245E-14  0.12500000000E+03  0.12500000000E+03 0.  0.
        -13    1    3    3    0    0 -0.83061726413E+01  0.37452594802E+02 -0.49932202566E+01  0.38686338337E+02  0.10566000000E+00 0. -1.
         23    2    1    0    0    0  0.14183784048E+02 -0.37598586266E+01  0.26141714261E+02  0.95021582909E+02  0.90168707028E+02 0.  0.
         13    1    3    3    0    0  0.22489956689E+02 -0.41212453429E+02  0.31134934517E+02  0.56335244572E+02  0.10566000000E+00 0.  1.
         22    1    1    0    0    0 -0.14183784048E+02  0.37598586266E+01 -0.26141714261E+02  0.29978417091E+02  0.00000000000E+00 0.  1.
</event>
<event>
 5    1  0.1315753E-009  0.9118800E+02  0.7818608E-02  0.1130116E+00
         25   -1    0    0    0    0  0.00000000000E+00  0.00000000000E+00  0.99999998245E-14  0.12500000000E+03  0.12500000000E+03 0.  0.
        -13    1    3    3    0    0 -0.97507744239E+01 -0.36128418807E+01 -0.36557643439E+02  0.38007929254E+02  0.10566000000E+00 0.  1.
         23    2    1    0    0    0 -0.19663309887E+02  0.12444727457E+01  0.20759926530E+02  0.96378871133E+02  0.92031069662E+02 0.  0.
         13    1    3    3    0    0 -0.99125354627E+01  0.48573146263E+01  0.57317569969E+02  0.58370941879E+02  0.10566000000E+00 0. -1.
         22    1    1    0    0    0  0.19663309887E+02 -0.12444727457E+01 -0.20759926530E+02  0.28621128867E+02  0.00000000000E+00 0. -1.
</event>
<event>
 5    1  0.1315753E-009  0.9118800E+02  0.7818608E-02  0.1130116E+00
         25   -1    0    0    0    0  0.00000000000E+00  0.00000000000E+00  0.99999998245E-14  0.12500000000E+03  0.12500000000E+03 0.  0.
        -13    1    3    3    0    0  0.39809511230E+02  0.16692322162E+02 -0.91323559071E+01  0.44123031310E+02  0.10566000000E+00 0.  1.
         23    2    1    0    0    0 -0.10418724267E+02  0.19052252499E+02 -0.19898966935E+02  0.95546527782E+02  0.90893519821E+02 0.  0.
         13    1    3    3    0    0 -0.50228235497E+02  0.23599303367E+01 -0.10766611028E+02  0.51423496472E+02  0.10566000000E+00 0. -1.
         22    1    1    0    0    0  0.10418724267E+02 -0.19052252499E+02  0.19898966935E+02  0.29453472218E+02  0.00000000000E+00 0. -1.
</event>
<event>
 5    1  0.1315753E-009  0.9118800E+02  0.7818608E-02  0.1130116E+00
         25   -1    0    0    0    0  0.00000000000E+00  0.00000000000E+00  0.99999998245E-14  0.12500000000E+03  0.12500000000E+03 0.  0.
        -13    1    3    3    0    0 -0.27917712801E+02 -0.42957967481E+02  0.30631153240E+02  0.59691409525E+02  0.10566000000E+00 0. -1.
         23    2    1    0    0    0 -0.23170850891E+02 -0.11534186470E+02  0.14521834417E+02  0.95321565685E+02  0.90583615634E+02 0.  0.
         13    1    3    3    0    0  0.47468619106E+01  0.31423781012E+02 -0.16109318823E+02  0.35630156161E+02  0.10566000000E+00 0.  1.
         22    1    1    0    0    0  0.23170850891E+02  0.11534186470E+02 -0.14521834417E+02  0.29678434315E+02  0.00000000000E+00 0. -1.
</event>
<event>
 5    1  0.1315753E-009  0.9118800E+02  0.7818608E-02  0.1130116E+00
         25   -1    0    0    0    0  0.00000000000E+00  0.00000000000E+00  0.99999998245E-14  0.12500000000E+03  0.12500000000E+03 0.  0.
        -13    1    3    3    0    0  0.26656920269E+02  0.24698112051E+02 -0.27455920247E+02  0.45545876407E+02  0.10566000000E+00 0. -1.
         23    2    1    0    0    0  0.15003669060E+02 -0.21491932386E+02 -0.15063486382E+02  0.94768859352E+02  0.89817675532E+02 0.  0.
         13    1    3    3    0    0 -0.11653251209E+02 -0.46190044436E+02  0.12392433865E+02  0.49222982944E+02  0.10566000000E+00 0.  1.
         22    1    1    0    0    0 -0.15003669060E+02  0.21491932386E+02  0.15063486382E+02  0.30231140648E+02  0.00000000000E+00 0.  1.
</event>
<event>
 5    1  0.1315753E-009  0.9118800E+02  0.7818608E-02  0.1130116E+00
         25   -1    0    0    0    0  0.00000000000E+00  0.00000000000E+00  0.99999998245E-14  0.12500000000E+03  0.12500000000E+03 0.  0.
        -13    1    3    3    0    0  0.39044444306E+02 -0.69750390555E+01 -0.39031039270E+02  0.55646679968E+02  0.10566000000E+00 0.  1.
         23    2    1    0    0    0  0.15687119632E+02  0.17339287191E+02 -0.19059894721E+02  0.94833525406E+02  0.89907626770E+02 0.  0.
         13    1    3    3    0    0 -0.23357324673E+02  0.24314326247E+02  0.19971144549E+02  0.39186845438E+02  0.10566000000E+00 0. -1.
         22    1    1    0    0    0 -0.15687119632E+02 -0.17339287191E+02  0.19059894721E+02  0.30166474594E+02  0.00000000000E+00 0.  1.
</event>
<event>
 4    1  0.1315753E-009  0.9118800E+02  0.7818608E-02  0.1130116E+00
         25   -1    0    0    0    0  0.00000000000E+00  0.00000000000E+00  0.99999998245E-14  0.12500000000E+03  0.12500000000E+03 0.  0.
        -13    1    1    0    0    0 -0.10401489827E+02  0.31288701022E+01 -0.55788285439E+01  0.12211278012E+02  0.10566000000E+00 0. -1.
         13    1    1    0    0    0 -0.40776343557E+01 -0.18611723413E+02  0.55432338770E+02  0.58615515829E+02  0.10566000000E+00 0.  1.
         22    1    1    0    0    0  0.14479124182E+02  0.15482853311E+02 -0.49853510226E+02  0.54173206159E+02  0.00000000000E+00 0.  1.
</event>
<event>
 5    1  0.1315753E-009  0.9118800E+02  0.7818608E-02  0.1130116E+00
         25   -1    0    0    0    0  0.00000000000E+00  0.00000000000E+00  0.99999998245E-14  0.12500000000E+03  0.12500000000E+03 0.  0.
        -13    1    3    3    0    0 -0.10054792383E+02  0.12456201733E+01  0.38785232860E+02  0.40086854099E+02  0.10566000000E+00 0.  1.
         23    2    1    0    0    0 -0.98060945889E+01  0.23805476330E+02 -0.12695201166E+02  0.96294106406E+02  0.91915866974E+02 0.  0.
         13    1    3    3    0    0  0.24869779438E+00  0.22559856156E+02 -0.51480434026E+02  0.56207252307E+02  0.10566000000E+00 0. -1.
         22    1    1    0    0    0  0.98060945889E+01 -0.23805476330E+02  0.12695201166E+02  0.28705893594E+02  0.00000000000E+00 0. -1.
</event>
<event>
 5    1  0.1315753E-009  0.9118800E+02  0.7818608E-02  0.1130116E+00
         25   -1    0    0    0    0  0.00000000000E+00  0.00000000000E+00  0.99999998245E-14  0.12500000000E+03  0.12500000000E+03 0.  0.
        -13    1    3    3    0    0 -0.16429776379E+02 -0.33926862333E+02  0.28436869924E+02  0.47219024500E+02  0.10566000000E+00 0.  1.
         23    2    1    0    0    0 -0.73715552687E+01  0.14714140277E+02  0.22604770414E+02  0.97038930696E+02  0.92923262286E+02 0.  0.
         13    1    3    3    0    0  0.90582211107E+01  0.48641002610E+02 -0.58320995100E+01  0.49819906195E+02  0.10566000000E+00 0. -1.
         22    1    1    0    0    0  0.73715552687E+01 -0.14714140277E+02 -0.22604770414E+02  0.27961069304E+02  0.00000000000E+00 0.  1.
</event>
<event>
 5    1  0.1315753E-009  0.9118800E+02  0.7818608E-02  0.1130116E+00
         25   -1    0    0    0    0  0.00000000000E+00  0.00000000000E+00  0.99999998245E-14  0.12500000000E+03  0.12500000000E+03 0.  0.
        -13    1    3    3    0    0 -0.14102489046E+02  0.48859942782E+01  0.60422941828E+02  0.62239024740E+02  0.10566000000E+00 0. -1.
         23    2    1    0    0    0 -0.32797150440E+01  0.54137489779E+00  0.29926040863E+02  0.94889909677E+02  0.89985984571E+02 0.  0.
         13    1    3    3    0    0  0.10822774002E+02 -0.43446193804E+01 -0.30496900965E+02  0.32650884937E+02  0.10566000000E+00 0.  1.
         22    1    1    0    0    0  0.32797150440E+01 -0.54137489779E+00 -0.29926040863E+02  0.30110090323E+02  0.00000000000E+00 0. -1.
</event>
<event>
 5    1  0.1315753E-009  0.9118800E+02  0.7818608E-02  0.1130116E+00
         25   -1    0    0    0    0  0.00000000000E+00  0.00000000000E+00  0.99999998245E-14  0.12500000000E+03  0.12500000000E+03 0.  0.
        -13    1    3    3    0    0 -0.28060499569E+02 -0.49814018244E+01  0.23263244488E+02  0.36788526857E+02  0.10566000000E+00 0.  1.
         23    2    1    0    0    0  0.20970988998E+02 -0.14378140306E+02 -0.10955210282E+02  0.97313723065E+02  0.93292179556E+02 0.  0.
         13    1    3    3    0    0  0.49031488567E+02 -0.93967384818E+01 -0.34218454769E+02  0.60525196208E+02  0.10566000000E+00 0. -1.
         22    1    1    0    0    0 -0.20970988998E+02  0.14378140306E+02  0.10955210282E+02  0.27686276935E+02  0.00000000000E+00 0. -1.
</event>
<event>
 5    1  0.1315753E-009  0.9118800E+02  0.7818608E-02  0.1130116E+00
         25   -1    0    0    0    0  0.00000000000E+00  0.00000000000E+00  0.99999998245E-14  0.12500000000E+03  0.12500000000E+03 0.  0.
        -13    1    3    3    0    0  0.76476264258E+01  0.36599121696E+02 -0.16047576355E+01  0.37424167459E+02  0.10566000000E+00 0. -1.
         23    2    1    0    0    0  0.13449261702E+00 -0.17966305952E+02 -0.22387110723E+02  0.96294792034E+02  0.91916799382E+02 0.  0.
         13    1    3    3    0    0 -0.75131338087E+01 -0.54565427648E+02 -0.20782353088E+02  0.58870624576E+02  0.10566000000E+00 0.  1.
         22    1    1    0    0    0 -0.13449261702E+00  0.17966305952E+02  0.22387110723E+02  0.28705207966E+02  0.00000000000E+00 0. -1.
</event>
<event>
 5    1  0.1315753E-009  0.9118800E+02  0.7818608E-02  0.1130116E+00
         25   -1    0    0    0    0  0.00000000000E+00  0.00000000000E+00  0.99999998245E-14  0.12500000000E+03  0.12500000000E+03 0.  0.
        -13    1    3    3    0    0 -0.43686743415E+02  0.26037987872E+02  0.12619146069E+02  0.52400022654E+02  0.10566000000E+00 0.  1.
         23    2    1    0    0    0 -0.27145225108E+02 -0.11968129224E+02  0.15961923766E+01  0.95290621121E+02  0.90540903907E+02 0.  0.
         13    1    3    3    0    0  0.16541518307E+02 -0.38006117097E+02 -0.11022953693E+02  0.42890598467E+02  0.10566000000E+00 0. -1.
         22    1    1    0    0    0  0.27145225108E+02  0.11968129224E+02 -0.15961923766E+01  0.29709378879E+02  0.00000000000E+00 0.  1.
</event>
<event>
 5    1  0.1315753E-009  0.9118800E+02  0.7818608E-02  0.1130116E+00
         25   -1    0    0    0    0  0.00000000000E+00  0.00000000000E+00  0.99999998245E-14  0.12500000000E+03  0.12500000000E+03 0.  0.
        -13    1    3    3    0    0 -0.40794328330E+01 -0.60442304032E+02  0.12577958082E+02  0.61871884426E+02  0.10566000000E+00 0.  1.
         23    2    1    0    0    0  0.15346086386E+00 -0.29663536293E+02  0.14547936988E+00  0.95335710022E+02  0.90603131875E+02 0.  0.
         13    1    3    3    0    0  0.42328936969E+01  0.30778767739E+02 -0.12432478712E+02  0.33463825596E+02  0.10566000000E+00 0. -1.
         22    1    1    0    0    0 -0.15346086386E+00  0.29663536293E+02 -0.14547936988E+00  0.29664289978E+02  0.00000000000E+00 0.  1.
</event>
<event>
 5    1  0.1315753E-009  0.9118800E+02  0.7818608E-02  0.1130116E+00
         25   -1    0    0    0    0  0.00000000000E+00  0.00000000000E+00  0.99999998245E-14  0.12500000000E+03  0.12500000000E+03 0.  0.
        -13    1    3    3    0    0  0.43824005568E+02  0.14354517968E+02 -0.25691937481E+02  0.52789037362E+02  0.10566000000E+00 0. -1.
         23    2    1    0    0    0  0.13584230409E+02  0.20728014002E+02  0.84271634686E+01  0.98823694600E+02  0.95293880443E+02 0.  0.
         13    1    3    3    0    0 -0.30239775159E+02  0.63734960338E+01  0.34119100949E+02  0.46034657237E+02  0.10566000000E+00 0.  1.
         22    1    1    0    0    0 -0.13584230409E+02 -0.20728014002E+02 -0.84271634686E+01  0.26176305400E+02  0.00000000000E+00 0.  1.
</event>
<event>
 5    1  0.1315753E-009  0.9118800E+02  0.7818608E-02  0.1130116E+00
         25   -1    0    0    0    0  0.00000000000E+00  0.00000000000E+00  0.99999998245E-14  0.12500000000E+03  0.12500000000E+03 0.  0.
        -13    1    3    3    0    0  0.73610401936E+01 -0.43567878169E+02 -0.39933840707E+02  0.59557264196E+02  0.10566000000E+00 0.  1.
         23    2    1    0    0    0 -0.90525807822E+01 -0.15920838652E+02 -0.22005082275E+02  0.96370540205E+02  0.92019753593E+02 0.  0.
         13    1    3    3    0    0 -0.16413620976E+02  0.27647039517E+02  0.17928758432E+02  0.36813276009E+02  0.10566000000E+00 0. -1.
         22    1    1    0    0    0  0.90525807822E+01  0.15920838652E+02  0.22005082275E+02  0.28629459795E+02  0.00000000000E+00 0.  1.
</event>
<event>
 5    1  0.1315753E-009  0.9118800E+02  0.7818608E-02  0.1130116E+00
         25   -1    0    0    0    0  0.00000000000E+00  0.00000000000E+00  0.99999998245E-14  0.12500000000E+03  0.12500000000E+03 0.  0.
        -13    1    3    3    0    0 -0.22221613089E+02  0.14196249096E+02  0.56662035345E+02  0.62497447869E+02  0.10566000000E+00 0.  1.
         23    2    1    0    0    0 -0.11730194627E+02  0.79106515439E+01  0.29965971748E+02  0.91861874877E+02  0.85676535406E+02 0.  0.
         13    1    3    3    0    0  0.10491418462E+02 -0.62855975516E+01 -0.26696063596E+02  0.29364427008E+02  0.10566000000E+00 0. -1.
         22    1    1    0    0    0  0.11730194627E+02 -0.79106515439E+01 -0.29965971748E+02  0.33138125123E+02  0.00000000000E+00 0.  1.
</event>
<event>
 5    1  0.1315753E-009  0.9118800E+02  0.7818608E-02  0.1130116E+00
         25   -1    0    0    0    0  0.00000000000E+00  0.00000000000E+00  0.99999998245E-14  0.12500000000E+03  0.12500000000E+03 0.  0.
        -13    1    3    3    0    0 -0.55186038847E+01  0.37264819445E+01  0.35723750624E+02  0.36339223701E+02  0.10566000000E+00 0. -1.
         23    2    1    0    0    0 -0.19913301498E+02 -0.68310087271E+01 -0.20673372155E+02  0.95494228141E+02  0.90821567016E+02 0.  0.
         13    1    3    3    0    0 -0.14394697613E+02 -0.10557490672E+02 -0.56397122778E+02  0.59155004440E+02  0.10566000000E+00 0.  1.
         22    1    1    0    0    0  0.19913301498E+02  0.68310087271E+01  0.20673372155E+02  0.29505771859E+02  0.00000000000E+00 0.  1.
</event>
<event>
 5    1  0.1315753E-009  0.9118800E+02  0.7818608E-02  0.1130116E+00
         25   -1    0    0    0    0  0.00000000000E+00  0.00000000000E+00  0.99999998245E-14  0.12500000000E+03  0.12500000000E+03 0.  0.
        -13    1    3    3    0    0  0.20713992531E+02 -0.29370840301E+02 -0.48822634655E+02  0.60624884043E+02  0.10566000000E+00 0. -1.
         23    2    1    0    0    0  0.19488041805E+01 -0.20912661634E+02 -0.20379645764E+02  0.95734538859E+02  0.91151712627E+02 0.  0.
         13    1    3    3    0    0 -0.18765188350E+02  0.84581786670E+01  0.28442988891E+02  0.35109654816E+02  0.10566000000E+00 0.  1.
         22    1    1    0    0    0 -0.19488041805E+01  0.20912661634E+02  0.20379645764E+02  0.29265461141E+02  0.00000000000E+00 0. -1.
</event>
<event>
 5    1  0.1315753E-009  0.9118800E+02  0.7818608E-02  0.1130116E+00
         25   -1    0    0    0    0  0.00000000000E+00  0.00000000000E+00  0.99999998245E-14  0.12500000000E+03  0.12500000000E+03 0.  0.
        -13    1    3    3    0    0 -0.13617474941E+02 -0.21300999659E+02  0.47669657223E+02  0.53959017727E+02  0.10566000000E+00 0.  1.
         23    2    1    0    0    0 -0.25799475120E+02 -0.92434250695E+01  0.91712041889E+01  0.96100781849E+02  0.91652580227E+02 0.  0.
         13    1    3    3    0    0 -0.12182000178E+02  0.12057574590E+02 -0.38498453034E+02  0.42141764122E+02  0.10566000000E+00 0. -1.
         22    1    1    0    0    0  0.25799475120E+02  0.92434250695E+01 -0.91712041889E+01  0.28899218151E+02  0.00000000000E+00 0.  1.
</event>
<event>
 5    1  0.1315753E-009  0.9118800E+02  0.7818608E-02  0.1130116E+00
         25   -1    0    0    0    0  0.00000000000E+00  0.00000000000E+00  0.99999998245E-14  0.12500000000E+03  0.12500000000E+03 0.  0.
        -13    1    3    3    0    0  0.15006347903E+02  0.55877779285E+02 -0.38626957599E+01  0.57986621541E+02  0.10566000000E+00 0. -1.
         23    2    1    0    0    0  0.13751553765E+01  0.24228022712E+02 -0.17535344909E+02  0.95060453278E+02  0.90222576550E+02 0.  0.
         13    1    3    3    0    0 -0.13631192526E+02 -0.31649756573E+02 -0.13672649149E+02  0.37073831736E+02  0.10566000000E+00 0.  1.
         22    1    1    0    0    0 -0.13751553765E+01 -0.24228022712E+02  0.17535344909E+02  0.29939546722E+02  0.00000000000E+00 0.  1.
</event>
<event>
 5    1  0.1315753E-009  0.9118800E+02  0.7818608E-02  0.1130116E+00
         25   -1    0    0    0    0  0.00000000000E+00  0.00000000000E+00  0.99999998245E-14  0.12500000000E+03  0.12500000000E+03 0.  0.
        -13    1    3    3    0    0  0.17882504722E+02 -0.19075619018E+02  0.22884071788E+02  0.34747016011E+02  0.10566000000E+00 0.  1.
         23    2    1    0    0    0  0.34949018939E+01  0.88264286521E+00 -0.30899441242E+02  0.93891016302E+02  0.88587550341E+02 0.  0.
         13    1    3    3    0    0 -0.14387602828E+02  0.19958261883E+02 -0.53783513030E+02  0.59144000291E+02  0.10566000000E+00 0. -1.
         22    1    1    0    0    0 -0.34949018939E+01 -0.88264286521E+00  0.30899441242E+02  0.31108983698E+02  0.00000000000E+00 0. -1.
</event>
<event>
 5    1  0.1315753E-009  0.9118800E+02  0.7818608E-02  0.1130116E+00
         25   -1    0    0    0    0  0.00000000000E+00  0.00000000000E+00  0.99999998245E-14  0.12500000000E+03  0.12500000000E+03 0.  0.
        -13    1    3    3    0    0 -0.53739731109E+02 -0.18791893368E+02 -0.14986119971E+02  0.58870102020E+02  0.10566000000E+00 0.  1.
         23    2    1    0    0    0 -0.18099842919E+02 -0.12885146237E+02 -0.19704615265E+02  0.95303145454E+02  0.90558193243E+02 0.  0.
         13    1    3    3    0    0  0.35639888191E+02  0.59067471313E+01 -0.47184952940E+01  0.36433043433E+02  0.10566000000E+00 0. -1.
         22    1    1    0    0    0  0.18099842919E+02  0.12885146237E+02  0.19704615265E+02  0.29696854546E+02  0.00000000000E+00 0.  1.
</event>
<event>
 5    1  0.1315753E-009  0.9118800E+02  0.7818608E-02  0.1130116E+00
         25   -1    0    0    0    0  0.00000000000E+00  0.00000000000E+00  0.99999998245E-14  0.12500000000E+03  0.12500000000E+03 0.  0.
        -13    1    3    3    0    0 -0.20334318990E+02 -0.13468465057E+02 -0.45170249945E+02  0.51334654220E+02  0.10566000000E+00 0.  1.
         23    2    1    0    0    0 -0.28637279433E+02 -0.54344244572E+01 -0.22701955571E+01  0.95763370058E+02  0.91191241435E+02 0.  0.
         13    1    3    3    0    0 -0.83029604425E+01  0.80340406002E+01  0.42900054388E+02  0.44428715838E+02  0.10566000000E+00 0. -1.
         22    1    1    0    0    0  0.28637279433E+02  0.54344244572E+01  0.22701955571E+01  0.29236629942E+02  0.00000000000E+00 0. -1.
</event>
<event>
 5    1  0.1315753E-009  0.9118800E+02  0.7818608E-02  0.1130116E+00
         25   -1    0    0    0    0  0.00000000000E+00  0.00000000000E+00  0.99999998245E-14  0.12500000000E+03  0.12500000000E+03 0.  0.
        -13    1    3    3    0    0  0.31635128293E+02  0.29087967444E+02  0.71777854133E+01  0.43570895786E+02  0.10566000000E+00 0. -1.
         23    2    1    0    0    0  0.15746123276E+02 -0.14934964289E+02  0.23381122695E+02  0.93099052444E+02  0.87462924208E+02 0.  0.
         13    1    3    3    0    0 -0.15889005017E+02 -0.44022931733E+02  0.16203337281E+02  0.49528156658E+02  0.10566000000E+00 0.  1.
         22    1    1    0    0    0 -0.15746123276E+02  0.14934964289E+02 -0.23381122695E+02  0.31900947556E+02  0.00000000000E+00 0.  1.
</event>
<event>
 5    1  0.1315753E-009  0.9118800E+02  0.7818608E-02  0.1130116E+00
         25   -1    0    0    0    0  0.00000000000E+00  0.00000000000E+00  0.99999998245E-14  0.12500000000E+03  0.12500000000E+03 0.  0.
        -13    1    3    3    0    0 -0.58768075006E+02 -0.12254197845E+02 -0.13469360605E+02  0.61524684834E+02  0.10566000000E+00 0.  1.
         23    2    1    0    0    0 -0.25454093863E+02 -0.13251091767E+02 -0.65900894809E+01  0.95556297673E+02  0.90906954729E+02 0.  0.
         13    1    3    3    0    0  0.33313981144E+02 -0.99689392144E+00  0.68792711245E+01  0.34031612838E+02  0.10566000000E+00 0. -1.
         22    1    1    0    0    0  0.25454093863E+02  0.13251091767E+02  0.65900894809E+01  0.29443702327E+02  0.00000000000E+00 0.  1.
</event>
<event>
 5    1  0.1315753E-009  0.9118800E+02  0.7818608E-02  0.1130116E+00
         25   -1    0    0    0    0  0.00000000000E+00  0.00000000000E+00  0.99999998245E-14  0.12500000000E+03  0.12500000000E+03 0.  0.
        -13    1    3    3    0    0 -0.10247819580E+02  0.75654236718E+01 -0.55711752948E+02  0.57149488379E+02  0.10566000000E+00 0. -1.
         23    2    1    0    0    0 -0.22081703444E+02  0.26248081136E+01 -0.20007755436E+02  0.95086766771E+02  0.90259025547E+02 0.  0.
         13    1    3    3    0    0 -0.11833883864E+02 -0.49406155582E+01  0.35703997512E+02  0.37937278392E+02  0.10566000000E+00 0.  1.
         22    1    1    0    0    0  0.22081703444E+02 -0.26248081136E+01  0.20007755436E+02  0.29913233229E+02  0.00000000000E+00 0. -1.
</event>
<event>
 5    1  0.1315753E-009  0.9118800E+02  0.7818608E-02  0.1130116E+00
         25   -1    0    0    0    0  0.00000000000E+00  0.00000000000E+00  0.99999998245E-14  0.12500000000E+03  0.12500000000E+03 0.  0.
        -13    1    3    3    0    0 -0.17751981045E+02  0.12173163827E+02 -0.53225838413E+02  0.57413585390E+02  0.10566000000E+00 0. -1.
         23    2    1    0    0    0 -0.99497906212E+01  0.21325166861E+02 -0.15975130913E+02  0.96557674449E+02  0.92273607344E+02 0.  0.
         13    1    3    3    0    0  0.78021904236E+01  0.91520030345E+01  0.37250707500E+02  0.39144089059E+02  0.10566000000E+00 0.  1.
         22    1    1    0    0    0  0.99497906212E+01 -0.21325166861E+02  0.15975130913E+02  0.28442325551E+02  0.00000000000E+00 0. -1.
</event>
<event>
 5    1  0.1315753E-009  0.9118800E+02  0.7818608E-02  0.1130116E+00
         25   -1    0    0    0    0  0.00000000000E+00  0.00000000000E+00  0.99999998245E-14  0.12500000000E+03  0.12500000000E+03 0.  0.
        -13    1    3    3    0    0 -0.24467769032E+02 -0.38539395605E+02 -0.12803559952E+02  0.47412013735E+02  0.10566000000E+00 0. -1.
         23    2    1    0    0    0  0.16225175499E+01 -0.16631683128E+02  0.22827691432E+02  0.96709560926E+02  0.92479134033E+02 0.  0.
         13    1    3    3    0    0  0.26090286582E+02  0.21907712476E+02  0.35631251383E+02  0.49297547191E+02  0.10566000000E+00 0.  1.
         22    1    1    0    0    0 -0.16225175499E+01  0.16631683128E+02 -0.22827691432E+02  0.28290439074E+02  0.00000000000E+00 0.  1.
</event>
<event>
 5    1  0.1315753E-009  0.9118800E+02  0.7818608E-02  0.1130116E+00
         25   -1    0    0    0    0  0.00000000000E+00  0.00000000000E+00  0.99999998245E-14  0.12500000000E+03  0.12500000000E+03 0.  0.
        -13    1    3    3    0    0  0.59781965780E+02 -0.15508234068E+02  0.84656927727E+01  0.62338333909E+02  0.10566000000E+00 0.  1.
         23    2    1    0    0    0  0.28250606112E+02 -0.97998529167E+01  0.61962950799E+01  0.94462679627E+02  0.89390547077E+02 0.  0.
         13    1    3    3    0    0 -0.31531359668E+02  0.57083811514E+01 -0.22693976928E+01  0.32124345718E+02  0.10566000000E+00 0. -1.
         22    1    1    0    0    0 -0.28250606112E+02  0.97998529167E+01 -0.61962950799E+01  0.30537320373E+02  0.00000000000E+00 0.  1.
</event>
<event>
 5    1  0.1315753E-009  0.9118800E+02  0.7818608E-02  0.1130116E+00
         25   -1    0    0    0    0  0.00000000000E+00  0.00000000000E+00  0.99999998245E-14  0.12500000000E+03  0.12500000000E+03 0.  0.
        -13    1    3    3    0    0  0.21547553933E+02 -0.30838081465E+02  0.50605226007E+01  0.37959246594E+02  0.10566000000E+00 0.  1.
         23    2    1    0    0    0 -0.63321749383E+01  0.69845159071E+01 -0.28028421906E+02  0.95428521572E+02  0.90731088349E+02 0.  0.
         13    1    3    3    0    0 -0.27879728871E+02  0.37822597372E+02 -0.33088944506E+02  0.57469274978E+02  0.10566000000E+00 0. -1.
         22    1    1    0    0    0  0.63321749383E+01 -0.69845159071E+01  0.28028421906E+02  0.29571478428E+02  0.00000000000E+00 0. -1.
</event>
<event>
 5    1  0.1315753E-009  0.9118800E+02  0.7818608E-02  0.1130116E+00
         25   -1    0    0    0    0  0.00000000000E+00  0.00000000000E+00  0.99999998245E-14  0.12500000000E+03  0.12500000000E+03 0.  0.
        -13    1    3    3    0    0  0.94765484502E+00  0.42111978043E+01  0.27386624794E+02  0.27724909707E+02  0.10566000000E+00 0.  1.
         23    2    1    0    0    0 -0.88654652195E+01  0.53482775018E+01 -0.33772094203E+02  0.89676425823E+02  0.82426369905E+02 0.  0.
         13    1    3    3    0    0 -0.98131200646E+01  0.11370796975E+01 -0.61158718997E+02  0.61951516115E+02  0.10566000000E+00 0. -1.
         22    1    1    0    0    0  0.88654652195E+01 -0.53482775018E+01  0.33772094203E+02  0.35323574177E+02  0.00000000000E+00 0. -1.
</event>
<event>
 5    1  0.1315753E-009  0.9118800E+02  0.7818608E-02  0.1130116E+00
         25   -1    0    0    0    0  0.00000000000E+00  0.00000000000E+00  0.99999998245E-14  0.12500000000E+03  0.12500000000E+03 0.  0.
        -13    1    3    3    0    0 -0.34055939089E+02 -0.38353913968E+01 -0.12214012328E+02  0.36382832154E+02  0.10566000000E+00 0. -1.
         23    2    1    0    0    0  0.23321770538E+02  0.59256282264E+01 -0.18111233189E+02  0.94882981248E+02  0.89976359740E+02 0.  0.
         13    1    3    3    0    0  0.57377709626E+02  0.97610196232E+01 -0.58972208606E+01  0.58500149094E+02  0.10566000000E+00 0.  1.
         22    1    1    0    0    0 -0.23321770538E+02 -0.59256282264E+01  0.18111233189E+02  0.30117018752E+02  0.00000000000E+00 0.  1.
</event>
<event>
 5    1  0.1315753E-009  0.9118800E+02  0.7818608E-02  0.1130116E+00
         25   -1    0    0    0    0  0.00000000000E+00  0.00000000000E+00  0.99999998245E-14  0.12500000000E+03  0.12500000000E+03 0.  0.
        -13    1    3    3    0    0 -0.11700278263E+02 -0.13337400970E+02  0.41894868594E+02  0.45496966433E+02  0.10566000000E+00 0. -1.
         23    2    1    0    0    0  0.26066864333E+02  0.32735502143E+01  0.14996859202E+02  0.94749325080E+02  0.89790485410E+02 0.  0.
         13    1    3    3    0    0  0.37767142596E+02  0.16610951184E+02 -0.26898009392E+02  0.49252358648E+02  0.10566000000E+00 0.  1.
         22    1    1    0    0    0 -0.26066864333E+02 -0.32735502143E+01 -0.14996859202E+02  0.30250674920E+02  0.00000000000E+00 0. -1.
</event>
<event>
 5    1  0.1315753E-009  0.9118800E+02  0.7818608E-02  0.1130116E+00
         25   -1    0    0    0    0  0.00000000000E+00  0.00000000000E+00  0.99999998245E-14  0.12500000000E+03  0.12500000000E+03 0.  0.
        -13    1    3    3    0    0  0.20007522085E+01  0.32365815911E+02 -0.50119689064E+02  0.59695422311E+02  0.10566000000E+00 0.  1.
         23    2    1    0    0    0  0.44178521086E+01  0.24841890437E+02 -0.15101606501E+02  0.95594295508E+02  0.90959187975E+02 0.  0.
         13    1    3    3    0    0  0.24170999001E+01 -0.75239254735E+01  0.35018082563E+02  0.35898873198E+02  0.10566000000E+00 0. -1.
         22    1    1    0    0    0 -0.44178521086E+01 -0.24841890437E+02  0.15101606501E+02  0.29405704492E+02  0.00000000000E+00 0.  1.
</event>
<event>
 5    1  0.1315753E-009  0.9118800E+02  0.7818608E-02  0.1130116E+00
         25   -1    0    0    0    0  0.00000000000E+00  0.00000000000E+00  0.99999998245E-14  0.12500000000E+03  0.12500000000E+03 0.  0.
        -13    1    3    3    0    0 -0.27680107751E+02 -0.17530249919E+02  0.14495878914E+02  0.35827917841E+02  0.10566000000E+00 0. -1.
         23    2    1    0    0    0  0.71381908764E+01 -0.71559315057E+01 -0.30041199730E+02  0.93304025399E+02  0.87755377897E+02 0.  0.
         13    1    3    3    0    0  0.34818298627E+02  0.10374318413E+02 -0.44537078643E+02  0.57476107558E+02  0.10566000000E+00 0.  1.
         22    1    1    0    0    0 -0.71381908764E+01  0.71559315057E+01  0.30041199730E+02  0.31695974601E+02  0.00000000000E+00 0.  1.
</event>
<event>
 5    1  0.1315753E-009  0.9118800E+02  0.7818608E-02  0.1130116E+00
         25   -1    0    0    0    0  0.00000000000E+00  0.00000000000E+00  0.99999998245E-14  0.12500000000E+03  0.12500000000E+03 0.  0.
        -13    1    3    3    0    0  0.35114360622E+02 -0.51892770052E+01  0.50867660451E+02  0.62028033674E+02  0.10566000000E+00 0.  1.
         23    2    1    0    0    0  0.20741210305E+02 -0.11620517816E+01  0.20769043880E+02  0.95624817397E+02  0.91001122791E+02 0.  0.
         13    1    3    3    0    0 -0.14373150317E+02  0.40272252236E+01 -0.30098616570E+02  0.33596783723E+02  0.10566000000E+00 0. -1.
         22    1    1    0    0    0 -0.20741210305E+02  0.11620517816E+01 -0.20769043880E+02  0.29375182603E+02  0.00000000000E+00 0.  1.
</event>
<event>
 5    1  0.1315753E-009  0.9118800E+02  0.7818608E-02  0.1130116E+00
         25   -1    0    0    0    0  0.00000000000E+00  0.00000000000E+00  0.99999998245E-14  0.12500000000E+03  0.12500000000E+03 0.  0.
        -13    1    3    3    0    0 -0.43315695512E+02  0.92338579514E+01 -0.38072753502E+01  0.44452447851E+02  0.10566000000E+00 0.  1.
         23    2    1    0    0    0  0.61545439483E+01  0.82459535674E+01 -0.24760737879E+02  0.98186415723E+02  0.94454242524E+02 0.  0.
         13    1    3    3    0    0  0.49470239460E+02 -0.98790438406E+00 -0.20953462529E+02  0.53733967872E+02  0.10566000000E+00 0. -1.
         22    1    1    0    0    0 -0.61545439483E+01 -0.82459535674E+01  0.24760737879E+02  0.26813584277E+02  0.00000000000E+00 0. -1.
</event>
<event>
 5    1  0.1315753E-009  0.9118800E+02  0.7818608E-02  0.1130116E+00
         25   -1    0    0    0    0  0.00000000000E+00  0.00000000000E+00  0.99999998245E-14  0.12500000000E+03  0.12500000000E+03 0.  0.
        -13    1    3    3    0    0  0.51935351800E+02 -0.11164399473E+02  0.14039142507E+02  0.54945730213E+02  0.10566000000E+00 0.  1.
         23    2    1    0    0    0  0.26696697696E+02  0.58346113568E+01 -0.12150373333E+02  0.95093680773E+02  0.90268600262E+02 0.  0.
         13    1    3    3    0    0 -0.25238654104E+02  0.16999010830E+02 -0.26189515841E+02  0.40147950561E+02  0.10566000000E+00 0. -1.
         22    1    1    0    0    0 -0.26696697696E+02 -0.58346113568E+01  0.12150373333E+02  0.29906319227E+02  0.00000000000E+00 0.  1.
</event>
<event>
 5    1  0.1315753E-009  0.9118800E+02  0.7818608E-02  0.1130116E+00
         25   -1    0    0    0    0  0.00000000000E+00  0.00000000000E+00  0.99999998245E-14  0.12500000000E+03  0.12500000000E+03 0.  0.
        -13    1    3    3    0    0 -0.13005907270E+02 -0.42403208251E+02  0.13288572192E+02  0.46301004404E+02  0.10566000000E+00 0. -1.
         23    2    1    0    0    0 -0.28203345991E+02  0.41629367924E+01  0.65784525659E+01  0.95741927507E+02  0.91161844413E+02 0.  0.
         13    1    3    3    0    0 -0.15197438721E+02  0.46566145043E+02 -0.67101196259E+01  0.49440923103E+02  0.10566000000E+00 0.  1.
         22    1    1    0    0    0  0.28203345991E+02 -0.41629367924E+01 -0.65784525659E+01  0.29258072493E+02  0.00000000000E+00 0.  1.
</event>
<event>
 5    1  0.1315753E-009  0.9118800E+02  0.7818608E-02  0.1130116E+00
         25   -1    0    0    0    0  0.00000000000E+00  0.00000000000E+00  0.99999998245E-14  0.12500000000E+03  0.12500000000E+03 0.  0.
        -13    1    3    3    0    0  0.16718465319E+01 -0.14661349622E+02 -0.33454670003E+02  0.36564687236E+02  0.10566000000E+00 0.  1.
         23    2    1    0    0    0  0.31759191105E+01 -0.75463475701E+01  0.26656613186E+02  0.97114361216E+02  0.93024675781E+02 0.  0.
         13    1    3    3    0    0  0.15040725785E+01  0.71150020519E+01  0.60111283189E+02  0.60549673981E+02  0.10566000000E+00 0. -1.
         22    1    1    0    0    0 -0.31759191105E+01  0.75463475701E+01 -0.26656613186E+02  0.27885638784E+02  0.00000000000E+00 0. -1.
</event>
<event>
 5    1  0.1315753E-009  0.9118800E+02  0.7818608E-02  0.1130116E+00
         25   -1    0    0    0    0  0.00000000000E+00  0.00000000000E+00  0.99999998245E-14  0.12500000000E+03  0.12500000000E+03 0.  0.
        -13    1    3    3    0    0 -0.33754622790E+02  0.33578015378E+02 -0.75636842419E+01  0.48208693819E+02  0.10566000000E+00 0.  1.
         23    2    1    0    0    0 -0.22477600839E+02 -0.12826816647E+02 -0.12575554261E+02  0.96226499522E+02  0.91823879686E+02 0.  0.
         13    1    3    3    0    0  0.11277021951E+02 -0.46404832025E+02 -0.50118700193E+01  0.48017805703E+02  0.10566000000E+00 0. -1.
         22    1    1    0    0    0  0.22477600839E+02  0.12826816647E+02  0.12575554261E+02  0.28773500478E+02  0.00000000000E+00 0.  1.
</event>
<event>
 5    1  0.1315753E-009  0.9118800E+02  0.7818608E-02  0.1130116E+00
         25   -1    0    0    0    0  0.00000000000E+00  0.00000000000E+00  0.99999998245E-14  0.12500000000E+03  0.12500000000E+03 0.  0.
        -13    1    3    3    0    0  0.44844833994E+02  0.10476627661E+02  0.25287877851E+02  0.52538621921E+02  0.10566000000E+00 0. -1.
         23    2    1    0    0    0  0.85960581623E+01  0.26530371437E+02  0.67337127755E+01  0.96310355314E+02  0.91937961846E+02 0.  0.
         13    1    3    3    0    0 -0.36248775832E+02  0.16053743776E+02 -0.18554165075E+02  0.43771733393E+02  0.10566000000E+00 0.  1.
         22    1    1    0    0    0 -0.85960581623E+01 -0.26530371437E+02 -0.67337127755E+01  0.28689644686E+02  0.00000000000E+00 0. -1.
</event>
<event>
 5    1  0.1315753E-009  0.9118800E+02  0.7818608E-02  0.1130116E+00
         25   -1    0    0    0    0  0.00000000000E+00  0.00000000000E+00  0.99999998245E-14  0.12500000000E+03  0.12500000000E+03 0.  0.
        -13    1    3    3    0    0  0.60604277928E+01  0.34418128949E+02 -0.16146316701E+02  0.38497416698E+02  0.10566000000E+00 0. -1.
         23    2    1    0    0    0  0.41480259907E+02  0.24599853755E+02 -0.90117957422E+01  0.75939045777E+02  0.57963449210E+02 0.  0.
         13    1    3    3    0    0  0.35419832114E+02 -0.98182751937E+01  0.71345209587E+01  0.37441629080E+02  0.10566000000E+00 0.  1.
         22    1    1    0    0    0 -0.41480259907E+02 -0.24599853755E+02  0.90117957422E+01  0.49060954223E+02  0.00000000000E+00 0. -1.
</event>
<event>
 5    1  0.1315753E-009  0.9118800E+02  0.7818608E-02  0.1130116E+00
         25   -1    0    0    0    0  0.00000000000E+00  0.00000000000E+00  0.99999998245E-14  0.12500000000E+03  0.12500000000E+03 0.  0.
        -13    1    3    3    0    0  0.27114611539E+02  0.20994215960E+02 -0.37462443355E+01  0.34496445808E+02  0.10566000000E+00 0.  1.
         23    2    1    0    0    0 -0.19224658841E+02 -0.14064868426E+02  0.16492274318E+02  0.96027545089E+02  0.91552642082E+02 0.  0.
         13    1    3    3    0    0 -0.46339270380E+02 -0.35059084386E+02  0.20238518654E+02  0.61531099281E+02  0.10566000000E+00 0. -1.
         22    1    1    0    0    0  0.19224658841E+02  0.14064868426E+02 -0.16492274318E+02  0.28972454911E+02  0.00000000000E+00 0. -1.
</event>
<event>
 5    1  0.1315753E-009  0.9118800E+02  0.7818608E-02  0.1130116E+00
         25   -1    0    0    0    0  0.00000000000E+00  0.00000000000E+00  0.99999998245E-14  0.12500000000E+03  0.12500000000E+03 0.  0.
        -13    1    3    3    0    0  0.24223857856E+02 -0.16300256611E+02  0.17788896644E+02  0.34189905862E+02  0.10566000000E+00 0.  1.
         23    2    1    0    0    0 -0.14616104990E+01  0.10016452191E+02 -0.29336888084E+02  0.93965847487E+02  0.88693076797E+02 0.  0.
         13    1    3    3    0    0 -0.25685468355E+02  0.26316708802E+02 -0.47125784729E+02  0.59775941625E+02  0.10566000000E+00 0. -1.
         22    1    1    0    0    0  0.14616104990E+01 -0.10016452191E+02  0.29336888084E+02  0.31034152513E+02  0.00000000000E+00 0. -1.
</event>
<event>
 5    1  0.1315753E-009  0.9118800E+02  0.7818608E-02  0.1130116E+00
         25   -1    0    0    0    0  0.00000000000E+00  0.00000000000E+00  0.99999998245E-14  0.12500000000E+03  0.12500000000E+03 0.  0.
        -13    1    3    3    0    0 -0.30317505589E+01 -0.35557451902E+02  0.82746605333E+01  0.36633387342E+02  0.10566000000E+00 0. -1.
         23    2    1    0    0    0 -0.18566410560E+02  0.15021871748E+02 -0.17406206916E+02  0.95447601263E+02  0.90757370587E+02 0.  0.
         13    1    3    3    0    0 -0.15534660001E+02  0.50579323650E+02 -0.25680867449E+02  0.58814213921E+02  0.10566000000E+00 0.  1.
         22    1    1    0    0    0  0.18566410560E+02 -0.15021871748E+02  0.17406206916E+02  0.29552398737E+02  0.00000000000E+00 0.  1.
</event>
<event>
 5    1  0.1315753E-009  0.9118800E+02  0.7818608E-02  0.1130116E+00
         25   -1    0    0    0    0  0.00000000000E+00  0.00000000000E+00  0.99999998245E-14  0.12500000000E+03  0.12500000000E+03 0.  0.
        -13    1    3    3    0    0  0.22348349083E+02 -0.27019704104E+02  0.23768891606E+02  0.42361356078E+02  0.10566000000E+00 0. -1.
         23    2    1    0    0    0 -0.12386698911E+02 -0.21095440472E+02 -0.16210852578E+02  0.95653114988E+02  0.91039984331E+02 0.  0.
         13    1    3    3    0    0 -0.34735047994E+02  0.59242636321E+01 -0.39979744183E+02  0.53291758910E+02  0.10566000000E+00 0.  1.
         22    1    1    0    0    0  0.12386698911E+02  0.21095440472E+02  0.16210852578E+02  0.29346885012E+02  0.00000000000E+00 0.  1.
</event>
<event>
 5    1  0.1315753E-009  0.9118800E+02  0.7818608E-02  0.1130116E+00
         25   -1    0    0    0    0  0.00000000000E+00  0.00000000000E+00  0.99999998245E-14  0.12500000000E+03  0.12500000000E+03 0.  0.
        -13    1    3    3    0    0 -0.75980245879E+01  0.50995051209E+01  0.45079265842E+02  0.45998764147E+02  0.10566000000E+00 0.  1.
         23    2    1    0    0    0  0.23363963411E+02  0.17415545962E+02  0.10486591779E+02  0.94029939707E+02  0.88783359515E+02 0.  0.
         13    1    3    3    0    0  0.30961987998E+02  0.12316040841E+02 -0.34592674063E+02  0.48031175560E+02  0.10566000000E+00 0. -1.
         22    1    1    0    0    0 -0.23363963411E+02 -0.17415545962E+02 -0.10486591779E+02  0.30970060293E+02  0.00000000000E+00 0.  1.
</event>
<event>
 5    1  0.1315753E-009  0.9118800E+02  0.7818608E-02  0.1130116E+00
         25   -1    0    0    0    0  0.00000000000E+00  0.00000000000E+00  0.99999998245E-14  0.12500000000E+03  0.12500000000E+03 0.  0.
        -13    1    3    3    0    0 -0.14155346722E+02  0.56355154100E+02 -0.10247823731E+02  0.59002595618E+02  0.10566000000E+00 0.  1.
         23    2    1    0    0    0 -0.17145668432E+02  0.17536431729E+02 -0.11402135624E+02  0.97953575457E+02  0.94145599282E+02 0.  0.
         13    1    3    3    0    0 -0.29903217103E+01 -0.38818722371E+02 -0.11543118933E+01  0.38950979839E+02  0.10566000000E+00 0. -1.
         22    1    1    0    0    0  0.17145668432E+02 -0.17536431729E+02  0.11402135624E+02  0.27046424543E+02  0.00000000000E+00 0.  1.
</event>
<event>
 5    1  0.1315753E-009  0.9118800E+02  0.7818608E-02  0.1130116E+00
         25   -1    0    0    0    0  0.00000000000E+00  0.00000000000E+00  0.99999998245E-14  0.12500000000E+03  0.12500000000E+03 0.  0.
        -13    1    3    3    0    0 -0.41310083807E+02  0.31851483206E+02  0.31356362714E+02  0.60862736163E+02  0.10566000000E+00 0.  1.
         23    2    1    0    0    0 -0.13135875727E+02  0.10819243477E+02  0.21888766253E+02  0.97274103286E+02  0.93239078832E+02 0.  0.
         13    1    3    3    0    0  0.28174208080E+02 -0.21032239729E+02 -0.94675964614E+01  0.36411367123E+02  0.10566000000E+00 0. -1.
         22    1    1    0    0    0  0.13135875727E+02 -0.10819243477E+02 -0.21888766253E+02  0.27725896714E+02  0.00000000000E+00 0.  1.
</event>
<event>
 5    1  0.1315753E-009  0.9118800E+02  0.7818608E-02  0.1130116E+00
         25   -1    0    0    0    0  0.00000000000E+00  0.00000000000E+00  0.99999998245E-14  0.12500000000E+03  0.12500000000E+03 0.  0.
        -13    1    3    3    0    0 -0.66339481718E+01 -0.36397739226E+02 -0.73102211963E+01  0.37712798717E+02  0.10566000000E+00 0.  1.
         23    2    1    0    0    0  0.24226738939E+02  0.11408835882E+02 -0.13607399189E+02  0.94962394761E+02  0.90086617710E+02 0.  0.
         13    1    3    3    0    0  0.30860687110E+02  0.47806575108E+02 -0.62971779923E+01  0.57249596044E+02  0.10566000000E+00 0. -1.
         22    1    1    0    0    0 -0.24226738939E+02 -0.11408835882E+02  0.13607399189E+02  0.30037605239E+02  0.00000000000E+00 0. -1.
</event>
<event>
 5    1  0.1315753E-009  0.9118800E+02  0.7818608E-02  0.1130116E+00
         25   -1    0    0    0    0  0.00000000000E+00  0.00000000000E+00  0.99999998245E-14  0.12500000000E+03  0.12500000000E+03 0.  0.
        -13    1    3    3    0    0  0.29539251020E+02  0.25738241318E+01  0.25442596875E+02  0.39070818027E+02  0.10566000000E+00 0. -1.
         23    2    1    0    0    0 -0.22948815720E+02 -0.13910692418E+02  0.11348582790E+02  0.95863324866E+02  0.91328151282E+02 0.  0.
         13    1    3    3    0    0 -0.52488066741E+02 -0.16484516550E+02 -0.14094014085E+02  0.56792506839E+02  0.10566000000E+00 0.  1.
         22    1    1    0    0    0  0.22948815720E+02  0.13910692418E+02 -0.11348582790E+02  0.29136675134E+02  0.00000000000E+00 0.  1.
</event>
<event>
 5    1  0.1315753E-009  0.9118800E+02  0.7818608E-02  0.1130116E+00
         25   -1    0    0    0    0  0.00000000000E+00  0.00000000000E+00  0.99999998245E-14  0.12500000000E+03  0.12500000000E+03 0.  0.
        -13    1    3    3    0    0  0.84555385675E+01 -0.30782853688E+02  0.18418126731E+02  0.36855376405E+02  0.10566000000E+00 0.  1.
         23    2    1    0    0    0  0.78567514369E+01  0.50385615508E+01 -0.27996499698E+02  0.95488652335E+02  0.90813892571E+02 0.  0.
         13    1    3    3    0    0 -0.59878713061E+00  0.35821415239E+02 -0.46414626429E+02  0.58633275930E+02  0.10566000000E+00 0. -1.
         22    1    1    0    0    0 -0.78567514369E+01 -0.50385615508E+01  0.27996499698E+02  0.29511347665E+02  0.00000000000E+00 0. -1.
</event>
<event>
 5    1  0.1315753E-009  0.9118800E+02  0.7818608E-02  0.1130116E+00
         25   -1    0    0    0    0  0.00000000000E+00  0.00000000000E+00  0.99999998245E-14  0.12500000000E+03  0.12500000000E+03 0.  0.
        -13    1    3    3    0    0  0.15382197634E+01  0.17009432788E+02  0.39832064601E+02  0.43339260010E+02  0.10566000000E+00 0.  1.
         23    2    1    0    0    0 -0.27104701729E+02  0.91433675900E+01 -0.38218524695E+01  0.96140468074E+02  0.91706690151E+02 0.  0.
         13    1    3    3    0    0 -0.28642921493E+02 -0.78660651980E+01 -0.43653917070E+02  0.52801208063E+02  0.10566000000E+00 0. -1.
         22    1    1    0    0    0  0.27104701729E+02 -0.91433675900E+01  0.38218524695E+01  0.28859531926E+02  0.00000000000E+00 0. -1.
</event>
<event>
 5    1  0.1315753E-009  0.9118800E+02  0.7818608E-02  0.1130116E+00
         25   -1    0    0    0    0  0.00000000000E+00  0.00000000000E+00  0.99999998245E-14  0.12500000000E+03  0.12500000000E+03 0.  0.
        -13    1    3    3    0    0  0.15696645441E+00  0.27777586285E+02  0.17216397608E+02  0.32680796333E+02  0.10566000000E+00 0. -1.
         23    2    1    0    0    0  0.16977392743E+02 -0.23673005894E+02 -0.11167245117E+02  0.93801435355E+02  0.88461058318E+02 0.  0.
         13    1    3    3    0    0  0.16820426288E+02 -0.51450592180E+02 -0.28383642725E+02  0.61120639022E+02  0.10566000000E+00 0.  1.
         22    1    1    0    0    0 -0.16977392743E+02  0.23673005894E+02  0.11167245117E+02  0.31198564645E+02  0.00000000000E+00 0. -1.
</event>
<event>
 5    1  0.1315753E-009  0.9118800E+02  0.7818608E-02  0.1130116E+00
         25   -1    0    0    0    0  0.00000000000E+00  0.00000000000E+00  0.99999998245E-14  0.12500000000E+03  0.12500000000E+03 0.  0.
        -13    1    3    3    0    0  0.18890089308E+02  0.21091349876E+02 -0.53077775989E+02  0.60157642753E+02  0.10566000000E+00 0.  1.
         23    2    1    0    0    0 -0.31529371281E+01  0.10778297425E+02 -0.26632161244E+02  0.96096977313E+02  0.91647391278E+02 0.  0.
         13    1    3    3    0    0 -0.22043026436E+02 -0.10313052450E+02  0.26445614744E+02  0.35939334559E+02  0.10566000000E+00 0. -1.
         22    1    1    0    0    0  0.31529371281E+01 -0.10778297425E+02  0.26632161244E+02  0.28903022687E+02  0.00000000000E+00 0.  1.
</event>
<event>
 5    1  0.1315753E-009  0.9118800E+02  0.7818608E-02  0.1130116E+00
         25   -1    0    0    0    0  0.00000000000E+00  0.00000000000E+00  0.99999998245E-14  0.12500000000E+03  0.12500000000E+03 0.  0.
        -13    1    3    3    0    0  0.27637303197E+02 -0.40085859693E+02 -0.17074214456E+02  0.51596866558E+02  0.10566000000E+00 0.  1.
         23    2    1    0    0    0  0.24356855470E+02  0.33646110734E+01 -0.16886703611E+02  0.95171527446E+02  0.90376334631E+02 0.  0.
         13    1    3    3    0    0 -0.32804477264E+01  0.43450470766E+02  0.18751084489E+00  0.43574660887E+02  0.10566000000E+00 0. -1.
         22    1    1    0    0    0 -0.24356855470E+02 -0.33646110734E+01  0.16886703611E+02  0.29828472554E+02  0.00000000000E+00 0. -1.
</event>
<event>
 5    1  0.1315753E-009  0.9118800E+02  0.7818608E-02  0.1130116E+00
         25   -1    0    0    0    0  0.00000000000E+00  0.00000000000E+00  0.99999998245E-14  0.12500000000E+03  0.12500000000E+03 0.  0.
        -13    1    3    3    0    0 -0.12602282527E+02 -0.37160862895E+02 -0.34576356340E+01  0.39391796915E+02  0.10566000000E+00 0. -1.
         23    2    1    0    0    0  0.23616804661E+02  0.11007093672E+01  0.16968533382E+02  0.95898519820E+02  0.91376309594E+02 0.  0.
         13    1    3    3    0    0  0.36219087188E+02  0.38261572262E+02  0.20426169017E+02  0.56506722905E+02  0.10566000000E+00 0.  1.
         22    1    1    0    0    0 -0.23616804661E+02 -0.11007093672E+01 -0.16968533382E+02  0.29101480180E+02  0.00000000000E+00 0.  1.
</event>
<event>
 5    1  0.1315753E-009  0.9118800E+02  0.7818608E-02  0.1130116E+00
         25   -1    0    0    0    0  0.00000000000E+00  0.00000000000E+00  0.99999998245E-14  0.12500000000E+03  0.12500000000E+03 0.  0.
        -13    1    3    3    0    0  0.21608054059E+02  0.33423200652E+02  0.41865497873E+02  0.57764603506E+02  0.10566000000E+00 0.  1.
         23    2    1    0    0    0  0.22019623673E+02  0.30932020042E+01  0.19038049940E+02  0.95727503166E+02  0.91142063788E+02 0.  0.
         13    1    3    3    0    0  0.41156961402E+00 -0.30329998647E+02 -0.22827447933E+02  0.37962899661E+02  0.10566000000E+00 0. -1.
         22    1    1    0    0    0 -0.22019623673E+02 -0.30932020042E+01 -0.19038049940E+02  0.29272496834E+02  0.00000000000E+00 0.  1.
</event>
<event>
 5    1  0.1315753E-009  0.9118800E+02  0.7818608E-02  0.1130116E+00
         25   -1    0    0    0    0  0.00000000000E+00  0.00000000000E+00  0.99999998245E-14  0.12500000000E+03  0.12500000000E+03 0.  0.
        -13    1    3    3    0    0 -0.41649058563E+02  0.17725865676E+02  0.36919515988E+02  0.58411576061E+02  0.10566000000E+00 0. -1.
         23    2    1    0    0    0 -0.30851711312E+02  0.70608225209E+01  0.60960248357E+01  0.92768884221E+02  0.86989775579E+02 0.  0.
         13    1    3    3    0    0  0.10797347251E+02 -0.10665043155E+02 -0.30823491152E+02  0.34357308160E+02  0.10566000000E+00 0.  1.
         22    1    1    0    0    0  0.30851711312E+02 -0.70608225209E+01 -0.60960248357E+01  0.32231115779E+02  0.00000000000E+00 0. -1.
</event>
<event>
 5    1  0.1315753E-009  0.9118800E+02  0.7818608E-02  0.1130116E+00
         25   -1    0    0    0    0  0.00000000000E+00  0.00000000000E+00  0.99999998245E-14  0.12500000000E+03  0.12500000000E+03 0.  0.
        -13    1    3    3    0    0  0.24518104759E+02 -0.28511849350E+02 -0.24619837148E+01  0.37684685778E+02  0.10566000000E+00 0. -1.
         23    2    1    0    0    0 -0.28387323080E+02 -0.60492191292E+01 -0.63361430113E+01  0.95291754142E+02  0.90542468132E+02 0.  0.
         13    1    3    3    0    0 -0.52905427838E+02  0.22462630221E+02 -0.38741592965E+01  0.57607068364E+02  0.10566000000E+00 0.  1.
         22    1    1    0    0    0  0.28387323080E+02  0.60492191292E+01  0.63361430113E+01  0.29708245858E+02  0.00000000000E+00 0.  1.
</event>
<event>
 5    1  0.1315753E-009  0.9118800E+02  0.7818608E-02  0.1130116E+00
         25   -1    0    0    0    0  0.00000000000E+00  0.00000000000E+00  0.99999998245E-14  0.12500000000E+03  0.12500000000E+03 0.  0.
        -13    1    3    3    0    0 -0.55543719352E+02 -0.17409820080E+02  0.18424377414E+01  0.58237550906E+02  0.10566000000E+00 0. -1.
         23    2    1    0    0    0 -0.20344091714E+02  0.29299919129E+01 -0.12019387841E+02  0.10118965342E+03  0.98348428328E+02 0.  0.
         13    1    3    3    0    0  0.35199627638E+02  0.20339811993E+02 -0.13861825583E+02  0.42952102513E+02  0.10566000000E+00 0.  1.
         22    1    1    0    0    0  0.20344091714E+02 -0.29299919129E+01  0.12019387841E+02  0.23810346582E+02  0.00000000000E+00 0. -1.
</event>
<event>
 5    1  0.1315753E-009  0.9118800E+02  0.7818608E-02  0.1130116E+00
         25   -1    0    0    0    0  0.00000000000E+00  0.00000000000E+00  0.99999998245E-14  0.12500000000E+03  0.12500000000E+03 0.  0.
        -13    1    3    3    0    0  0.65097773503E+01  0.51365014711E+02  0.11201072061E+02  0.52973739879E+02  0.10566000000E+00 0. -1.
         23    2    1    0    0    0  0.21550076424E+02  0.12168337246E+02 -0.77929432587E+01  0.99053821286E+02  0.95595268301E+02 0.  0.
         13    1    3    3    0    0  0.15040299074E+02 -0.39196677465E+02 -0.18994015320E+02  0.46080081408E+02  0.10566000000E+00 0.  1.
         22    1    1    0    0    0 -0.21550076424E+02 -0.12168337246E+02  0.77929432587E+01  0.25946178714E+02  0.00000000000E+00 0. -1.
</event>
<event>
 5    1  0.1315753E-009  0.9118800E+02  0.7818608E-02  0.1130116E+00
         25   -1    0    0    0    0  0.00000000000E+00  0.00000000000E+00  0.99999998245E-14  0.12500000000E+03  0.12500000000E+03 0.  0.
        -13    1    3    3    0    0  0.27534866202E+02 -0.33007802306E+02  0.13268627382E+02  0.44986125711E+02  0.10566000000E+00 0.  1.
         23    2    1    0    0    0 -0.19764146933E+02 -0.23356803762E+02  0.39778492950E+01  0.94145744687E+02  0.88946254399E+02 0.  0.
         13    1    3    3    0    0 -0.47299013134E+02  0.96509985443E+01 -0.92907780866E+01  0.49159618976E+02  0.10566000000E+00 0. -1.
         22    1    1    0    0    0  0.19764146933E+02  0.23356803762E+02 -0.39778492950E+01  0.30854255313E+02  0.00000000000E+00 0. -1.
</event>
<event>
 5    1  0.1315753E-009  0.9118800E+02  0.7818608E-02  0.1130116E+00
         25   -1    0    0    0    0  0.00000000000E+00  0.00000000000E+00  0.99999998245E-14  0.12500000000E+03  0.12500000000E+03 0.  0.
        -13    1    3    3    0    0  0.44928023610E+02 -0.17263690062E+02 -0.84101554404E+00  0.48138142582E+02  0.10566000000E+00 0. -1.
         23    2    1    0    0    0  0.23783503587E+02 -0.36292518568E+02  0.12903166812E+02  0.79730875195E+02  0.65633214142E+02 0.  0.
         13    1    3    3    0    0 -0.21144520023E+02 -0.19028828505E+02  0.13744182356E+02  0.31592732613E+02  0.10566000000E+00 0.  1.
         22    1    1    0    0    0 -0.23783503587E+02  0.36292518568E+02 -0.12903166812E+02  0.45269124805E+02  0.00000000000E+00 0. -1.
</event>
<event>
 5    1  0.1315753E-009  0.9118800E+02  0.7818608E-02  0.1130116E+00
         25   -1    0    0    0    0  0.00000000000E+00  0.00000000000E+00  0.99999998245E-14  0.12500000000E+03  0.12500000000E+03 0.  0.
        -13    1    3    3    0    0 -0.29054235131E+02 -0.80188531267E+01 -0.49267332299E+02  0.57755794345E+02  0.10566000000E+00 0.  1.
         23    2    1    0    0    0 -0.18535231771E+02  0.12436085733E+02 -0.28941215484E+02  0.88451333830E+02  0.80547088448E+02 0.  0.
         13    1    3    3    0    0  0.10519003360E+02  0.20454938859E+02  0.20326116815E+02  0.30695539485E+02  0.10566000000E+00 0. -1.
         22    1    1    0    0    0  0.18535231771E+02 -0.12436085733E+02  0.28941215484E+02  0.36548666170E+02  0.00000000000E+00 0.  1.
</event>
<event>
 5    1  0.1315753E-009  0.9118800E+02  0.7818608E-02  0.1130116E+00
         25   -1    0    0    0    0  0.00000000000E+00  0.00000000000E+00  0.99999998245E-14  0.12500000000E+03  0.12500000000E+03 0.  0.
        -13    1    3    3    0    0  0.25993415604E+02 -0.25258896902E+02 -0.12141644164E+02  0.38224340603E+02  0.10566000000E+00 0. -1.
         23    2    1    0    0    0 -0.10620884399E+02  0.21117536793E+02 -0.14338543693E+02  0.97353166893E+02  0.93345014453E+02 0.  0.
         13    1    3    3    0    0 -0.36614300003E+02  0.46376433695E+02 -0.21968995296E+01  0.59128826291E+02  0.10566000000E+00 0.  1.
         22    1    1    0    0    0  0.10620884399E+02 -0.21117536793E+02  0.14338543693E+02  0.27646833107E+02  0.00000000000E+00 0.  1.
</event>
<event>
 5    1  0.1315753E-009  0.9118800E+02  0.7818608E-02  0.1130116E+00
         25   -1    0    0    0    0  0.00000000000E+00  0.00000000000E+00  0.99999998245E-14  0.12500000000E+03  0.12500000000E+03 0.  0.
        -13    1    3    3    0    0  0.23253547734E+02  0.42280535226E+02 -0.31404873576E+01  0.48355402657E+02  0.10566000000E+00 0.  1.
         23    2    1    0    0    0  0.31962701061E+02 -0.14453144323E+01 -0.13145285816E+01  0.92977645647E+02  0.87289239954E+02 0.  0.
         13    1    3    3    0    0  0.87091533267E+01 -0.43725849658E+02  0.18259587759E+01  0.44622242990E+02  0.10566000000E+00 0. -1.
         22    1    1    0    0    0 -0.31962701061E+02  0.14453144323E+01  0.13145285816E+01  0.32022354353E+02  0.00000000000E+00 0.  1.
</event>
<event>
 5    1  0.1315753E-009  0.9118800E+02  0.7818608E-02  0.1130116E+00
         25   -1    0    0    0    0  0.00000000000E+00  0.00000000000E+00  0.99999998245E-14  0.12500000000E+03  0.12500000000E+03 0.  0.
        -13    1    3    3    0    0  0.57883274534E+02  0.18717527825E+02 -0.12463320411E+02  0.62098026043E+02  0.10566000000E+00 0.  1.
         23    2    1    0    0    0  0.25267562432E+02  0.12916203521E+02 -0.79362020333E+01  0.95533725594E+02  0.90875912092E+02 0.  0.
         13    1    3    3    0    0 -0.32615712102E+02 -0.58013243046E+01  0.45271183778E+01  0.33435699551E+02  0.10566000000E+00 0. -1.
         22    1    1    0    0    0 -0.25267562432E+02 -0.12916203521E+02  0.79362020333E+01  0.29466274406E+02  0.00000000000E+00 0.  1.
</event>
<event>
 5    1  0.1315753E-009  0.9118800E+02  0.7818608E-02  0.1130116E+00
         25   -1    0    0    0    0  0.00000000000E+00  0.00000000000E+00  0.99999998245E-14  0.12500000000E+03  0.12500000000E+03 0.  0.
        -13    1    3    3    0    0  0.35159164069E+02 -0.38276533018E+01  0.19033693522E+01  0.35418240029E+02  0.10566000000E+00 0.  1.
         23    2    1    0    0    0 -0.21117600482E+02 -0.16599388874E+01 -0.20020174056E+02  0.95853545388E+02  0.91314765219E+02 0.  0.
         13    1    3    3    0    0 -0.56276764551E+02  0.21677144144E+01 -0.21923543408E+02  0.60435305358E+02  0.10566000000E+00 0. -1.
         22    1    1    0    0    0  0.21117600482E+02  0.16599388874E+01  0.20020174056E+02  0.29146454612E+02  0.00000000000E+00 0. -1.
</event>
<event>
 5    1  0.1315753E-009  0.9118800E+02  0.7818608E-02  0.1130116E+00
         25   -1    0    0    0    0  0.00000000000E+00  0.00000000000E+00  0.99999998245E-14  0.12500000000E+03  0.12500000000E+03 0.  0.
        -13    1    3    3    0    0  0.46514384504E+02  0.30280792243E+02  0.22245014239E+02  0.59794365681E+02  0.10566000000E+00 0.  1.
         23    2    1    0    0    0  0.14563594240E+02  0.10085564353E+02  0.20880521810E+02  0.97617285077E+02  0.93698032366E+02 0.  0.
         13    1    3    3    0    0 -0.31950790264E+02 -0.20195227890E+02 -0.13644924291E+01  0.37822919396E+02  0.10566000000E+00 0. -1.
         22    1    1    0    0    0 -0.14563594240E+02 -0.10085564353E+02 -0.20880521810E+02  0.27382714923E+02  0.00000000000E+00 0.  1.
</event>
<event>
 5    1  0.1315753E-009  0.9118800E+02  0.7818608E-02  0.1130116E+00
         25   -1    0    0    0    0  0.00000000000E+00  0.00000000000E+00  0.99999998245E-14  0.12500000000E+03  0.12500000000E+03 0.  0.
        -13    1    3    3    0    0  0.17960821249E+02 -0.30217761967E+02 -0.37785300557E+01  0.35355235704E+02  0.10566000000E+00 0. -1.
         23    2    1    0    0    0 -0.65033457207E+01  0.25592079020E+02 -0.10336483686E+02  0.96643503229E+02  0.92389803590E+02 0.  0.
         13    1    3    3    0    0 -0.24464166970E+02  0.55809840987E+02 -0.65579536299E+01  0.61288267526E+02  0.10566000000E+00 0.  1.
         22    1    1    0    0    0  0.65033457207E+01 -0.25592079020E+02  0.10336483686E+02  0.28356496771E+02  0.00000000000E+00 0.  1.
</event>
<event>
 5    1  0.1315753E-009  0.9118800E+02  0.7818608E-02  0.1130116E+00
         25   -1    0    0    0    0  0.00000000000E+00  0.00000000000E+00  0.99999998245E-14  0.12500000000E+03  0.12500000000E+03 0.  0.
        -13    1    3    3    0    0  0.28859440806E+02 -0.12828898072E+02 -0.17033245169E+02  0.35883012059E+02  0.10566000000E+00 0.  1.
         23    2    1    0    0    0 -0.74219263045E+01  0.16819308593E+02  0.21617637743E+02  0.96622255318E+02  0.92361051475E+02 0.  0.
         13    1    3    3    0    0 -0.36281367111E+02  0.29648206666E+02  0.38650882912E+02  0.60739243260E+02  0.10566000000E+00 0. -1.
         22    1    1    0    0    0  0.74219263045E+01 -0.16819308593E+02 -0.21617637743E+02  0.28377744682E+02  0.00000000000E+00 0. -1.
</event>
<event>
 5    1  0.1315753E-009  0.9118800E+02  0.7818608E-02  0.1130116E+00
         25   -1    0    0    0    0  0.00000000000E+00  0.00000000000E+00  0.99999998245E-14  0.12500000000E+03  0.12500000000E+03 0.  0.
        -13    1    3    3    0    0  0.30652645845E+02 -0.40332206949E+02 -0.21626557781E+02  0.55081673723E+02  0.10566000000E+00 0. -1.
         23    2    1    0    0    0 -0.61221300950E+01 -0.25968448080E+02 -0.53349556200E+01  0.97791499048E+02  0.93930158958E+02 0.  0.
         13    1    3    3    0    0 -0.36774775940E+02  0.14363758868E+02  0.16291602161E+02  0.42709825325E+02  0.10566000000E+00 0.  1.
         22    1    1    0    0    0  0.61221300950E+01  0.25968448080E+02  0.53349556200E+01  0.27208500952E+02  0.00000000000E+00 0. -1.
</event>
<event>
 5    1  0.1315753E-009  0.9118800E+02  0.7818608E-02  0.1130116E+00
         25   -1    0    0    0    0  0.00000000000E+00  0.00000000000E+00  0.99999998245E-14  0.12500000000E+03  0.12500000000E+03 0.  0.
        -13    1    3    3    0    0  0.33010449977E+02 -0.34366920833E+01 -0.31192709000E+02  0.45546645529E+02  0.10566000000E+00 0.  1.
         23    2    1    0    0    0  0.23473964137E+02 -0.37130088308E+01  0.17703544529E+02  0.95365072705E+02  0.90643632850E+02 0.  0.
         13    1    3    3    0    0 -0.95364858398E+01 -0.27631674746E+00  0.48896253529E+02  0.49818427176E+02  0.10566000000E+00 0. -1.
         22    1    1    0    0    0 -0.23473964137E+02  0.37130088308E+01 -0.17703544529E+02  0.29634927295E+02  0.00000000000E+00 0. -1.
</event>
<event>
 5    1  0.1315753E-009  0.9118800E+02  0.7818608E-02  0.1130116E+00
         25   -1    0    0    0    0  0.00000000000E+00  0.00000000000E+00  0.99999998245E-14  0.12500000000E+03  0.12500000000E+03 0.  0.
        -13    1    3    3    0    0 -0.32252503836E+01 -0.25631646784E+02 -0.34594976131E+02  0.43176464589E+02  0.10566000000E+00 0.  1.
         23    2    1    0    0    0  0.22145398381E+02 -0.15338787087E+02  0.10626970269E+02  0.96040898566E+02  0.91570872233E+02 0.  0.
         13    1    3    3    0    0  0.25370648765E+02  0.10292859696E+02  0.45221946400E+02  0.52864433977E+02  0.10566000000E+00 0. -1.
         22    1    1    0    0    0 -0.22145398381E+02  0.15338787087E+02 -0.10626970269E+02  0.28959101434E+02  0.00000000000E+00 0.  1.
</event>
<event>
 5    1  0.1315753E-009  0.9118800E+02  0.7818608E-02  0.1130116E+00
         25   -1    0    0    0    0  0.00000000000E+00  0.00000000000E+00  0.99999998245E-14  0.12500000000E+03  0.12500000000E+03 0.  0.
        -13    1    3    3    0    0  0.25991591390E+02  0.24429187219E+02 -0.50630379572E+02  0.61933791349E+02  0.10566000000E+00 0. -1.
         23    2    1    0    0    0  0.12726717031E+02  0.16835083403E+02 -0.21259008394E+02  0.95044452977E+02  0.90200406009E+02 0.  0.
         13    1    3    3    0    0 -0.13264874359E+02 -0.75941038164E+01  0.29371371178E+02  0.33110661628E+02  0.10566000000E+00 0.  1.
         22    1    1    0    0    0 -0.12726717031E+02 -0.16835083403E+02  0.21259008394E+02  0.29955547023E+02  0.00000000000E+00 0. -1.
</event>
<event>
 5    1  0.1315753E-009  0.9118800E+02  0.7818608E-02  0.1130116E+00
         25   -1    0    0    0    0  0.00000000000E+00  0.00000000000E+00  0.99999998245E-14  0.12500000000E+03  0.12500000000E+03 0.  0.
        -13    1    3    3    0    0 -0.39490101657E+02 -0.31930232247E+01 -0.19657892515E+02  0.44227903278E+02  0.10566000000E+00 0. -1.
         23    2    1    0    0    0 -0.14943530850E+02  0.43454593299E+01  0.24889147671E+02  0.95645923573E+02  0.91030109817E+02 0.  0.
         13    1    3    3    0    0  0.24546570807E+02  0.75384825546E+01  0.44547040187E+02  0.51418020295E+02  0.10566000000E+00 0.  1.
         22    1    1    0    0    0  0.14943530850E+02 -0.43454593299E+01 -0.24889147671E+02  0.29354076427E+02  0.00000000000E+00 0.  1.
</event>
<event>
 5    1  0.1315753E-009  0.9118800E+02  0.7818608E-02  0.1130116E+00
         25   -1    0    0    0    0  0.00000000000E+00  0.00000000000E+00  0.99999998245E-14  0.12500000000E+03  0.12500000000E+03 0.  0.
        -13    1    3    3    0    0  0.79973072227E+01 -0.32342542145E+02  0.77583704032E+01  0.34208192448E+02  0.10566000000E+00 0.  1.
         23    2    1    0    0    0 -0.19873381636E+02  0.19411619529E+02 -0.97762786689E+01  0.95549399072E+02  0.90897468436E+02 0.  0.
         13    1    3    3    0    0 -0.27870688859E+02  0.51754161674E+02 -0.17534649072E+02  0.61341206624E+02  0.10566000000E+00 0. -1.
         22    1    1    0    0    0  0.19873381636E+02 -0.19411619529E+02  0.97762786689E+01  0.29450600928E+02  0.00000000000E+00 0. -1.
</event>
<event>
 5    1  0.1315753E-009  0.9118800E+02  0.7818608E-02  0.1130116E+00
         25   -1    0    0    0    0  0.00000000000E+00  0.00000000000E+00  0.99999998245E-14  0.12500000000E+03  0.12500000000E+03 0.  0.
        -13    1    3    3    0    0  0.39225070309E+02 -0.19590422524E+02  0.10388065725E+02  0.45059004305E+02  0.10566000000E+00 0. -1.
         23    2    1    0    0    0  0.15303414150E+02  0.24177779342E+02 -0.15407764277E+01  0.96344573105E+02  0.91984473017E+02 0.  0.
         13    1    3    3    0    0 -0.23921656160E+02  0.43768201866E+02 -0.11928842152E+02  0.51285568800E+02  0.10566000000E+00 0.  1.
         22    1    1    0    0    0 -0.15303414150E+02 -0.24177779342E+02  0.15407764277E+01  0.28655426895E+02  0.00000000000E+00 0.  1.
</event>
<event>
 5    1  0.1315753E-009  0.9118800E+02  0.7818608E-02  0.1130116E+00
         25   -1    0    0    0    0  0.00000000000E+00  0.00000000000E+00  0.99999998245E-14  0.12500000000E+03  0.12500000000E+03 0.  0.
        -13    1    3    3    0    0  0.53783401859E+02 -0.39952622126E-01 -0.10048082579E+02  0.54714084469E+02  0.10566000000E+00 0. -1.
         23    2    1    0    0    0  0.22257507397E+02 -0.21520713483E+02 -0.51644507606E+00  0.94035432187E+02  0.88791092159E+02 0.  0.
         13    1    3    3    0    0 -0.31525894463E+02 -0.21480760861E+02  0.95316375026E+01  0.39321347718E+02  0.10566000000E+00 0.  1.
         22    1    1    0    0    0 -0.22257507397E+02  0.21520713483E+02  0.51644507606E+00  0.30964567813E+02  0.00000000000E+00 0. -1.
</event>
<event>
 5    1  0.1315753E-009  0.9118800E+02  0.7818608E-02  0.1130116E+00
         25   -1    0    0    0    0  0.00000000000E+00  0.00000000000E+00  0.99999998245E-14  0.12500000000E+03  0.12500000000E+03 0.  0.
        -13    1    3    3    0    0 -0.19072918090E+02 -0.36255015765E+02  0.11740282465E+02  0.42615111979E+02  0.10566000000E+00 0.  1.
         23    2    1    0    0    0 -0.62920597549E+01  0.19288937704E+02 -0.83666927344E+01  0.10305336743E+03  0.10068933339E+03 0.  0.
         13    1    3    3    0    0  0.12780858335E+02  0.55543953468E+02 -0.20106975200E+02  0.60438255455E+02  0.10566000000E+00 0. -1.
         22    1    1    0    0    0  0.62920597549E+01 -0.19288937704E+02  0.83666927344E+01  0.21946632566E+02  0.00000000000E+00 0. -1.
</event>
<event>
 5    1  0.1315753E-009  0.9118800E+02  0.7818608E-02  0.1130116E+00
         25   -1    0    0    0    0  0.00000000000E+00  0.00000000000E+00  0.99999998245E-14  0.12500000000E+03  0.12500000000E+03 0.  0.
        -13    1    3    3    0    0  0.73862829411E+01 -0.47681302542E+02  0.17738298541E+02  0.51407413735E+02  0.10566000000E+00 0. -1.
         23    2    1    0    0    0 -0.65533074272E+01 -0.27917605232E+02 -0.15413553812E+02  0.92443646377E+02  0.86521162696E+02 0.  0.
         13    1    3    3    0    0 -0.13939590368E+02  0.19763697310E+02 -0.33151852353E+02  0.41036232642E+02  0.10566000000E+00 0.  1.
         22    1    1    0    0    0  0.65533074272E+01  0.27917605232E+02  0.15413553812E+02  0.32556353623E+02  0.00000000000E+00 0. -1.
</event>
<event>
 5    1  0.1315753E-009  0.9118800E+02  0.7818608E-02  0.1130116E+00
         25   -1    0    0    0    0  0.00000000000E+00  0.00000000000E+00  0.99999998245E-14  0.12500000000E+03  0.12500000000E+03 0.  0.
        -13    1    3    3    0    0  0.16700545505E+02  0.50665049737E+02  0.13339709874E+02  0.54989221749E+02  0.10566000000E+00 0.  1.
         23    2    1    0    0    0 -0.64814473537E+01  0.93367427844E+01  0.19150823159E+02  0.10273033558E+03  0.10028750618E+03 0.  0.
         13    1    3    3    0    0 -0.23181992859E+02 -0.41328306952E+02  0.58111132842E+01  0.47741113834E+02  0.10566000000E+00 0. -1.
         22    1    1    0    0    0  0.64814473537E+01 -0.93367427844E+01 -0.19150823159E+02  0.22269664418E+02  0.00000000000E+00 0.  1.
</event>
<event>
 5    1  0.1315753E-009  0.9118800E+02  0.7818608E-02  0.1130116E+00
         25   -1    0    0    0    0  0.00000000000E+00  0.00000000000E+00  0.99999998245E-14  0.12500000000E+03  0.12500000000E+03 0.  0.
        -13    1    3    3    0    0  0.45846219974E+02 -0.68514118056E+01  0.41759861074E+02  0.62391625163E+02  0.10566000000E+00 0. -1.
         23    2    1    0    0    0  0.24385925551E+02 -0.22882440232E+01  0.19030819363E+02  0.93982561174E+02  0.88716629182E+02 0.  0.
         13    1    3    3    0    0 -0.21460294423E+02  0.45631677825E+01 -0.22729041710E+02  0.31590936011E+02  0.10566000000E+00 0.  1.
         22    1    1    0    0    0 -0.24385925551E+02  0.22882440232E+01 -0.19030819363E+02  0.31017438826E+02  0.00000000000E+00 0. -1.
</event>
<event>
 5    1  0.1315753E-009  0.9118800E+02  0.7818608E-02  0.1130116E+00
         25   -1    0    0    0    0  0.00000000000E+00  0.00000000000E+00  0.99999998245E-14  0.12500000000E+03  0.12500000000E+03 0.  0.
        -13    1    3    3    0    0 -0.52303473812E+02  0.28182395529E+02  0.73480733861E+01  0.59865734248E+02  0.10566000000E+00 0. -1.
         23    2    1    0    0    0 -0.18385377123E+02  0.19359496910E+02  0.12897567789E+02  0.95349376610E+02  0.90621984928E+02 0.  0.
         13    1    3    3    0    0  0.33918096689E+02 -0.88228986187E+01  0.55494944026E+01  0.35483642361E+02  0.10566000000E+00 0.  1.
         22    1    1    0    0    0  0.18385377123E+02 -0.19359496910E+02 -0.12897567789E+02  0.29650623390E+02  0.00000000000E+00 0. -1.
</event>
<event>
 5    1  0.1315753E-009  0.9118800E+02  0.7818608E-02  0.1130116E+00
         25   -1    0    0    0    0  0.00000000000E+00  0.00000000000E+00  0.99999998245E-14  0.12500000000E+03  0.12500000000E+03 0.  0.
        -13    1    3    3    0    0 -0.49816490879E+02  0.19413075847E+02 -0.14543679023E+02  0.55408302996E+02  0.10566000000E+00 0. -1.
         23    2    1    0    0    0 -0.25883860090E+02  0.10185037157E+01  0.12772433605E+02  0.96118403383E+02  0.91676610134E+02 0.  0.
         13    1    3    3    0    0  0.23932630789E+02 -0.18394572131E+02  0.27316112628E+02  0.40710100387E+02  0.10566000000E+00 0.  1.
         22    1    1    0    0    0  0.25883860090E+02 -0.10185037157E+01 -0.12772433605E+02  0.28881596617E+02  0.00000000000E+00 0.  1.
</event>
<event>
 5    1  0.1315753E-009  0.9118800E+02  0.7818608E-02  0.1130116E+00
         25   -1    0    0    0    0  0.00000000000E+00  0.00000000000E+00  0.99999998245E-14  0.12500000000E+03  0.12500000000E+03 0.  0.
        -13    1    3    3    0    0 -0.19231966859E+02  0.35165082233E+02 -0.12743443299E+02  0.42057794389E+02  0.10566000000E+00 0.  1.
         23    2    1    0    0    0 -0.17357641775E+02 -0.14381273246E+02  0.14072369319E+02  0.98426698993E+02  0.94771698034E+02 0.  0.
         13    1    3    3    0    0  0.18743250841E+01 -0.49546355480E+02  0.26815812618E+02  0.56368904604E+02  0.10566000000E+00 0. -1.
         22    1    1    0    0    0  0.17357641775E+02  0.14381273246E+02 -0.14072369319E+02  0.26573301007E+02  0.00000000000E+00 0. -1.
</event>
<event>
 5    1  0.1315753E-009  0.9118800E+02  0.7818608E-02  0.1130116E+00
         25   -1    0    0    0    0  0.00000000000E+00  0.00000000000E+00  0.99999998245E-14  0.12500000000E+03  0.12500000000E+03 0.  0.
        -13    1    3    3    0    0  0.19387200768E+02  0.69026291821E+01 -0.12893734824E+02  0.24285168416E+02  0.10566000000E+00 0. -1.
         23    2    1    0    0    0 -0.25031118820E+01 -0.25862254917E+02  0.31842889634E+02  0.83901442620E+02  0.73146159536E+02 0.  0.
         13    1    3    3    0    0 -0.21890312650E+02 -0.32764884099E+02  0.44736624458E+02  0.59616274204E+02  0.10566000000E+00 0.  1.
         22    1    1    0    0    0  0.25031118820E+01  0.25862254917E+02 -0.31842889634E+02  0.41098557380E+02  0.00000000000E+00 0.  1.
</event>
<event>
 5    1  0.1315753E-009  0.9118800E+02  0.7818608E-02  0.1130116E+00
         25   -1    0    0    0    0  0.00000000000E+00  0.00000000000E+00  0.99999998245E-14  0.12500000000E+03  0.12500000000E+03 0.  0.
        -13    1    3    3    0    0  0.34590032853E+02 -0.17018183827E+02  0.65727139617E-01  0.38550025131E+02  0.10566000000E+00 0.  1.
         23    2    1    0    0    0 -0.16383922274E+02 -0.12999555282E+02 -0.22359374778E+02  0.94383615709E+02  0.89279918947E+02 0.  0.
         13    1    3    3    0    0 -0.50973955127E+02  0.40186285448E+01 -0.22425101918E+02  0.55833590577E+02  0.10566000000E+00 0. -1.
         22    1    1    0    0    0  0.16383922274E+02  0.12999555282E+02  0.22359374778E+02  0.30616384291E+02  0.00000000000E+00 0. -1.
</event>
<event>
 5    1  0.1315753E-009  0.9118800E+02  0.7818608E-02  0.1130116E+00
         25   -1    0    0    0    0  0.00000000000E+00  0.00000000000E+00  0.99999998245E-14  0.12500000000E+03  0.12500000000E+03 0.  0.
        -13    1    3    3    0    0  0.31818227663E+02  0.35651721117E+01  0.43198964343E+02  0.53770547218E+02  0.10566000000E+00 0. -1.
         23    2    1    0    0    0  0.54974485962E+01 -0.20029316395E+02  0.20727156163E+02  0.95657020278E+02  0.91045346227E+02 0.  0.
         13    1    3    3    0    0 -0.26320779067E+02 -0.23594488507E+02 -0.22471808179E+02  0.41886473061E+02  0.10566000000E+00 0.  1.
         22    1    1    0    0    0 -0.54974485962E+01  0.20029316395E+02 -0.20727156163E+02  0.29342979722E+02  0.00000000000E+00 0. -1.
</event>
<event>
 5    1  0.1315753E-009  0.9118800E+02  0.7818608E-02  0.1130116E+00
         25   -1    0    0    0    0  0.00000000000E+00  0.00000000000E+00  0.99999998245E-14  0.12500000000E+03  0.12500000000E+03 0.  0.
        -13    1    3    3    0    0 -0.23535307137E+02 -0.19162287574E+02 -0.32831668513E+02  0.44710553211E+02  0.10566000000E+00 0. -1.
         23    2    1    0    0    0  0.13106525654E+02  0.12458126190E+02 -0.25615736864E+02  0.93644746884E+02  0.88239371717E+02 0.  0.
         13    1    3    3    0    0  0.36641832790E+02  0.31620413764E+02  0.72159316488E+01  0.48934193673E+02  0.10566000000E+00 0.  1.
         22    1    1    0    0    0 -0.13106525654E+02 -0.12458126190E+02  0.25615736864E+02  0.31355253116E+02  0.00000000000E+00 0. -1.
</event>
<event>
 5    1  0.1315753E-009  0.9118800E+02  0.7818608E-02  0.1130116E+00
         25   -1    0    0    0    0  0.00000000000E+00  0.00000000000E+00  0.99999998245E-14  0.12500000000E+03  0.12500000000E+03 0.  0.
        -13    1    3    3    0    0 -0.39981151881E+02  0.49581904991E+01 -0.43598976914E+02  0.59362935497E+02  0.10566000000E+00 0. -1.
         23    2    1    0    0    0 -0.79538612517E+01  0.72607770591E+01 -0.27876236905E+02  0.95115767096E+02  0.90299179254E+02 0.  0.
         13    1    3    3    0    0  0.32027290629E+02  0.23025865600E+01  0.15722740010E+02  0.35752831599E+02  0.10566000000E+00 0.  1.
         22    1    1    0    0    0  0.79538612517E+01 -0.72607770591E+01  0.27876236905E+02  0.29884232904E+02  0.00000000000E+00 0. -1.
</event>
<event>
 5    1  0.1315753E-009  0.9118800E+02  0.7818608E-02  0.1130116E+00
         25   -1    0    0    0    0  0.00000000000E+00  0.00000000000E+00  0.99999998245E-14  0.12500000000E+03  0.12500000000E+03 0.  0.
        -13    1    3    3    0    0  0.31511718267E+01  0.37426629063E+02  0.50762055719E+00  0.37562631558E+02  0.10566000000E+00 0. -1.
         23    2    1    0    0    0 -0.17766047347E+02 -0.10888928894E+02  0.22242421521E+02  0.94521704019E+02  0.89473046247E+02 0.  0.
         13    1    3    3    0    0 -0.20917219174E+02 -0.48315557957E+02  0.21734800964E+02  0.56959072461E+02  0.10566000000E+00 0.  1.
         22    1    1    0    0    0  0.17766047347E+02  0.10888928894E+02 -0.22242421521E+02  0.30478295981E+02  0.00000000000E+00 0.  1.
</event>
<event>
 5    1  0.1315753E-009  0.9118800E+02  0.7818608E-02  0.1130116E+00
         25   -1    0    0    0    0  0.00000000000E+00  0.00000000000E+00  0.99999998245E-14  0.12500000000E+03  0.12500000000E+03 0.  0.
        -13    1    3    3    0    0 -0.43744752263E+02 -0.37637442096E+02  0.23954397871E+01  0.57757507684E+02  0.10566000000E+00 0. -1.
         23    2    1    0    0    0 -0.18913638474E+02 -0.10508209915E+02 -0.15230145419E+02  0.98540492722E+02  0.94921668656E+02 0.  0.
         13    1    3    3    0    0  0.24831113789E+02  0.27129232180E+02 -0.17625585206E+02  0.40782985038E+02  0.10566000000E+00 0.  1.
         22    1    1    0    0    0  0.18913638474E+02  0.10508209915E+02  0.15230145419E+02  0.26459507278E+02  0.00000000000E+00 0. -1.
</event>
<event>
 5    1  0.1315753E-009  0.9118800E+02  0.7818608E-02  0.1130116E+00
         25   -1    0    0    0    0  0.00000000000E+00  0.00000000000E+00  0.99999998245E-14  0.12500000000E+03  0.12500000000E+03 0.  0.
        -13    1    3    3    0    0 -0.14502118822E+02  0.41213163007E+02  0.93869684900E+01  0.44687387447E+02  0.10566000000E+00 0.  1.
         23    2    1    0    0    0 -0.11657567946E+02  0.47780544646E+01 -0.26344066878E+02  0.95798312470E+02  0.91239126024E+02 0.  0.
         13    1    3    3    0    0  0.28445508759E+01 -0.36435108543E+02 -0.35731035368E+02  0.51110925023E+02  0.10566000000E+00 0. -1.
         22    1    1    0    0    0  0.11657567946E+02 -0.47780544646E+01  0.26344066878E+02  0.29201687530E+02  0.00000000000E+00 0. -1.
</event>
<event>
 5    1  0.1315753E-009  0.9118800E+02  0.7818608E-02  0.1130116E+00
         25   -1    0    0    0    0  0.00000000000E+00  0.00000000000E+00  0.99999998245E-14  0.12500000000E+03  0.12500000000E+03 0.  0.
        -13    1    3    3    0    0 -0.43637895245E+02 -0.55567956457E+01 -0.11367199461E+02  0.45435319598E+02  0.10566000000E+00 0. -1.
         23    2    1    0    0    0  0.11456837540E+02  0.13073304694E+02  0.67517001484E+01  0.10635178623E+03  0.10470409045E+03 0.  0.
         13    1    3    3    0    0  0.55094732786E+02  0.18630100340E+02  0.18118899610E+02  0.60916466629E+02  0.10566000000E+00 0.  1.
         22    1    1    0    0    0 -0.11456837540E+02 -0.13073304694E+02 -0.67517001484E+01  0.18648213774E+02  0.00000000000E+00 0.  1.
</event>
<event>
 5    1  0.1315753E-009  0.9118800E+02  0.7818608E-02  0.1130116E+00
         25   -1    0    0    0    0  0.00000000000E+00  0.00000000000E+00  0.99999998245E-14  0.12500000000E+03  0.12500000000E+03 0.  0.
        -13    1    3    3    0    0  0.39379473185E+02  0.35333647921E+02 -0.22434517071E+02  0.57467628314E+02  0.10566000000E+00 0. -1.
         23    2    1    0    0    0  0.12642965739E+02  0.29392875608E+02  0.20605430072E+00  0.93002684838E+02  0.87325089233E+02 0.  0.
         13    1    3    3    0    0 -0.26736507446E+02 -0.59407723129E+01  0.22640571372E+02  0.35535056524E+02  0.10566000000E+00 0.  1.
         22    1    1    0    0    0 -0.12642965739E+02 -0.29392875608E+02 -0.20605430072E+00  0.31997315162E+02  0.00000000000E+00 0. -1.
</event>
<event>
 5    1  0.1315753E-009  0.9118800E+02  0.7818608E-02  0.1130116E+00
         25   -1    0    0    0    0  0.00000000000E+00  0.00000000000E+00  0.99999998245E-14  0.12500000000E+03  0.12500000000E+03 0.  0.
        -13    1    3    3    0    0 -0.26793184143E+02  0.37894166115E+02  0.15400559955E+02  0.48898169219E+02  0.10566000000E+00 0. -1.
         23    2    1    0    0    0 -0.14835662000E+02  0.93650146983E+01 -0.21630071051E+02  0.97149320637E+02  0.93071639930E+02 0.  0.
         13    1    3    3    0    0  0.11957522142E+02 -0.28529151416E+02 -0.37030631007E+02  0.48251151418E+02  0.10566000000E+00 0.  1.
         22    1    1    0    0    0  0.14835662000E+02 -0.93650146983E+01  0.21630071051E+02  0.27850679363E+02  0.00000000000E+00 0.  1.
</event>
<event>
 5    1  0.1315753E-009  0.9118800E+02  0.7818608E-02  0.1130116E+00
         25   -1    0    0    0    0  0.00000000000E+00  0.00000000000E+00  0.99999998245E-14  0.12500000000E+03  0.12500000000E+03 0.  0.
        -13    1    3    3    0    0 -0.11485051349E+02 -0.24984424624E+02 -0.29236881147E+01  0.27652974424E+02  0.10566000000E+00 0. -1.
         23    2    1    0    0    0  0.17993381521E+02  0.28733075207E+02  0.86521182996E+01  0.90011279811E+02  0.82932622970E+02 0.  0.
         13    1    3    3    0    0  0.29478432870E+02  0.53717499831E+02  0.11575806414E+02  0.62358305387E+02  0.10566000000E+00 0.  1.
         22    1    1    0    0    0 -0.17993381521E+02 -0.28733075207E+02 -0.86521182996E+01  0.34988720189E+02  0.00000000000E+00 0.  1.
</event>
<event>
 5    1  0.1315753E-009  0.9118800E+02  0.7818608E-02  0.1130116E+00
         25   -1    0    0    0    0  0.00000000000E+00  0.00000000000E+00  0.99999998245E-14  0.12500000000E+03  0.12500000000E+03 0.  0.
        -13    1    3    3    0    0 -0.20615748566E+02  0.18916186426E+01  0.32436670152E+02  0.38480333219E+02  0.10566000000E+00 0.  1.
         23    2    1    0    0    0 -0.93409931765E+01 -0.22047008767E+02 -0.17735519189E+02  0.95202795601E+02  0.90419571444E+02 0.  0.
         13    1    3    3    0    0  0.11274755389E+02 -0.23938627410E+02 -0.50172189341E+02  0.56722462382E+02  0.10566000000E+00 0. -1.
         22    1    1    0    0    0  0.93409931765E+01  0.22047008767E+02  0.17735519189E+02  0.29797204399E+02  0.00000000000E+00 0. -1.
</event>
<event>
 5    1  0.1315753E-009  0.9118800E+02  0.7818608E-02  0.1130116E+00
         25   -1    0    0    0    0  0.00000000000E+00  0.00000000000E+00  0.99999998245E-14  0.12500000000E+03  0.12500000000E+03 0.  0.
        -13    1    3    3    0    0 -0.14690334793E+02 -0.23374105599E+02 -0.25567744835E+02  0.37628120985E+02  0.10566000000E+00 0.  1.
         23    2    1    0    0    0 -0.61803359228E+01  0.19214082314E+02  0.17126365981E+02  0.98529451782E+02  0.94907128001E+02 0.  0.
         13    1    3    3    0    0  0.85099988704E+01  0.42588187913E+02  0.42694110815E+02  0.60901330797E+02  0.10566000000E+00 0. -1.
         22    1    1    0    0    0  0.61803359228E+01 -0.19214082314E+02 -0.17126365981E+02  0.26470548218E+02  0.00000000000E+00 0. -1.
</event>
<event>
 5    1  0.1315753E-009  0.9118800E+02  0.7818608E-02  0.1130116E+00
         25   -1    0    0    0    0  0.00000000000E+00  0.00000000000E+00  0.99999998245E-14  0.12500000000E+03  0.12500000000E+03 0.  0.
        -13    1    3    3    0    0  0.44004240091E+01 -0.38339465377E+02 -0.11659729055E+02  0.40314250365E+02  0.10566000000E+00 0. -1.
         23    2    1    0    0    0 -0.27961386271E+02  0.29284746280E+01  0.70840976812E+01  0.96006905550E+02  0.91524457865E+02 0.  0.
         13    1    3    3    0    0 -0.32361810280E+02  0.41267940005E+02  0.18743826736E+02  0.55692655185E+02  0.10566000000E+00 0.  1.
         22    1    1    0    0    0  0.27961386271E+02 -0.29284746280E+01 -0.70840976812E+01  0.28993094450E+02  0.00000000000E+00 0.  1.
</event>
<event>
 5    1  0.1315753E-009  0.9118800E+02  0.7818608E-02  0.1130116E+00
         25   -1    0    0    0    0  0.00000000000E+00  0.00000000000E+00  0.99999998245E-14  0.12500000000E+03  0.12500000000E+03 0.  0.
        -13    1    3    3    0    0 -0.12563486854E+02 -0.35183589443E+02 -0.15682307553E+02  0.40517553014E+02  0.10566000000E+00 0. -1.
         23    2    1    0    0    0  0.28761320566E+02 -0.87630131780E+01  0.63215506039E+01  0.94275970924E+02  0.89129079042E+02 0.  0.
         13    1    3    3    0    0  0.41324807419E+02  0.26420576265E+02  0.22003858156E+02  0.53758417910E+02  0.10566000000E+00 0.  1.
         22    1    1    0    0    0 -0.28761320566E+02  0.87630131780E+01 -0.63215506039E+01  0.30724029076E+02  0.00000000000E+00 0.  1.
</event>
<event>
 5    1  0.1315753E-009  0.9118800E+02  0.7818608E-02  0.1130116E+00
         25   -1    0    0    0    0  0.00000000000E+00  0.00000000000E+00  0.99999998245E-14  0.12500000000E+03  0.12500000000E+03 0.  0.
        -13    1    3    3    0    0 -0.37701294423E+02 -0.19554277790E+02 -0.29238424036E+02  0.51562137128E+02  0.10566000000E+00 0.  1.
         23    2    1    0    0    0  0.63369881486E+01 -0.20381675153E+02 -0.18149187379E+02  0.96982807004E+02  0.92847734227E+02 0.  0.
         13    1    3    3    0    0  0.44038282572E+02 -0.82739736309E+00  0.11089236657E+02  0.45420669876E+02  0.10566000000E+00 0. -1.
         22    1    1    0    0    0 -0.63369881486E+01  0.20381675153E+02  0.18149187379E+02  0.28017192996E+02  0.00000000000E+00 0.  1.
</event>
<event>
 5    1  0.1315753E-009  0.9118800E+02  0.7818608E-02  0.1130116E+00
         25   -1    0    0    0    0  0.00000000000E+00  0.00000000000E+00  0.99999998245E-14  0.12500000000E+03  0.12500000000E+03 0.  0.
        -13    1    3    3    0    0 -0.15444498957E+02 -0.13607255056E+02 -0.30752351245E+02  0.37005515932E+02  0.10566000000E+00 0. -1.
         23    2    1    0    0    0  0.25293567457E+02 -0.97400919967E+01  0.11256772361E+02  0.95651254358E+02  0.91037429607E+02 0.  0.
         13    1    3    3    0    0  0.40738066414E+02  0.38671630598E+01  0.42009123607E+02  0.58645738426E+02  0.10566000000E+00 0.  1.
         22    1    1    0    0    0 -0.25293567457E+02  0.97400919967E+01 -0.11256772361E+02  0.29348745642E+02  0.00000000000E+00 0.  1.
</event>
<event>
 5    1  0.1315753E-009  0.9118800E+02  0.7818608E-02  0.1130116E+00
         25   -1    0    0    0    0  0.00000000000E+00  0.00000000000E+00  0.99999998245E-14  0.12500000000E+03  0.12500000000E+03 0.  0.
        -13    1    3    3    0    0 -0.24459268574E+02  0.24111242869E+02 -0.43773352778E+02  0.55639243609E+02  0.10566000000E+00 0. -1.
         23    2    1    0    0    0 -0.12796740248E+02 -0.88641047218E+01 -0.25555893793E+02  0.95076219807E+02  0.90244417842E+02 0.  0.
         13    1    3    3    0    0  0.11662528326E+02 -0.32975347591E+02  0.18217458985E+02  0.39436976198E+02  0.10566000000E+00 0.  1.
         22    1    1    0    0    0  0.12796740248E+02  0.88641047218E+01  0.25555893793E+02  0.29923780193E+02  0.00000000000E+00 0. -1.
</event>
<event>
 5    1  0.1315753E-009  0.9118800E+02  0.7818608E-02  0.1130116E+00
         25   -1    0    0    0    0  0.00000000000E+00  0.00000000000E+00  0.99999998245E-14  0.12500000000E+03  0.12500000000E+03 0.  0.
        -13    1    3    3    0    0 -0.12923827063E+02  0.20333140391E+02  0.60596314767E+01  0.24843353272E+02  0.10566000000E+00 0. -1.
         23    2    1    0    0    0  0.11500451094E+02 -0.45337536645E+01 -0.40301215605E+02  0.82845483316E+02  0.71318797164E+02 0.  0.
         13    1    3    3    0    0  0.24424278157E+02 -0.24866894056E+02 -0.46360847082E+02  0.58002130044E+02  0.10566000000E+00 0.  1.
         22    1    1    0    0    0 -0.11500451094E+02  0.45337536645E+01  0.40301215605E+02  0.42154516684E+02  0.00000000000E+00 0.  1.
</event>
<event>
 5    1  0.1315753E-009  0.9118800E+02  0.7818608E-02  0.1130116E+00
         25   -1    0    0    0    0  0.00000000000E+00  0.00000000000E+00  0.99999998245E-14  0.12500000000E+03  0.12500000000E+03 0.  0.
        -13    1    3    3    0    0 -0.50868767318E+02  0.10417551035E+01 -0.31830344624E+02  0.60015820790E+02  0.10566000000E+00 0.  1.
         23    2    1    0    0    0 -0.15408760997E+02 -0.23984582103E+00 -0.24199243464E+02  0.96310440476E+02  0.91938077633E+02 0.  0.
         13    1    3    3    0    0  0.35460006321E+02 -0.12816009245E+01  0.76311011600E+01  0.36294619686E+02  0.10566000000E+00 0. -1.
         22    1    1    0    0    0  0.15408760997E+02  0.23984582103E+00  0.24199243464E+02  0.28689559524E+02  0.00000000000E+00 0.  1.
</event>
<event>
 5    1  0.1315753E-009  0.9118800E+02  0.7818608E-02  0.1130116E+00
         25   -1    0    0    0    0  0.00000000000E+00  0.00000000000E+00  0.99999998245E-14  0.12500000000E+03  0.12500000000E+03 0.  0.
        -13    1    3    3    0    0 -0.38359261177E+02 -0.43798068491E+02  0.22134973310E+02  0.62287012523E+02  0.10566000000E+00 0. -1.
         23    2    1    0    0    0 -0.21327074203E+02 -0.20415329928E+02  0.84368605006E+01  0.94294782117E+02  0.89155457092E+02 0.  0.
         13    1    3    3    0    0  0.17032186974E+02  0.23382738563E+02 -0.13698112809E+02  0.32007769594E+02  0.10566000000E+00 0.  1.
         22    1    1    0    0    0  0.21327074203E+02  0.20415329928E+02 -0.84368605006E+01  0.30705217883E+02  0.00000000000E+00 0. -1.
</event>
<event>
 5    1  0.1315753E-009  0.9118800E+02  0.7818608E-02  0.1130116E+00
         25   -1    0    0    0    0  0.00000000000E+00  0.00000000000E+00  0.99999998245E-14  0.12500000000E+03  0.12500000000E+03 0.  0.
        -13    1    3    3    0    0 -0.34585795899E+02  0.45751789438E-01 -0.45804602022E+01  0.34887980035E+02  0.10566000000E+00 0.  1.
         23    2    1    0    0    0  0.20798583969E+02 -0.93026525912E+01  0.18537366566E+02  0.95627318822E+02  0.91004558708E+02 0.  0.
         13    1    3    3    0    0  0.55384379868E+02 -0.93484043807E+01  0.23117826768E+02  0.60739338788E+02  0.10566000000E+00 0. -1.
         22    1    1    0    0    0 -0.20798583969E+02  0.93026525912E+01 -0.18537366566E+02  0.29372681178E+02  0.00000000000E+00 0. -1.
</event>
<event>
 5    1  0.1315753E-009  0.9118800E+02  0.7818608E-02  0.1130116E+00
         25   -1    0    0    0    0  0.00000000000E+00  0.00000000000E+00  0.99999998245E-14  0.12500000000E+03  0.12500000000E+03 0.  0.
        -13    1    3    3    0    0  0.72894440296E+00  0.19910759210E+02  0.27093959212E+02  0.33631287250E+02  0.10566000000E+00 0. -1.
         23    2    1    0    0    0 -0.94715598055E+01 -0.14926596533E+02 -0.23309098898E+02  0.95745464956E+02  0.91166694790E+02 0.  0.
         13    1    3    3    0    0 -0.10200504208E+02 -0.34837355743E+02 -0.50403058110E+02  0.62114177706E+02  0.10566000000E+00 0.  1.
         22    1    1    0    0    0  0.94715598055E+01  0.14926596533E+02  0.23309098898E+02  0.29254535044E+02  0.00000000000E+00 0.  1.
</event>
<event>
 5    1  0.1315753E-009  0.9118800E+02  0.7818608E-02  0.1130116E+00
         25   -1    0    0    0    0  0.00000000000E+00  0.00000000000E+00  0.99999998245E-14  0.12500000000E+03  0.12500000000E+03 0.  0.
        -13    1    3    3    0    0  0.33849855766E+02  0.27871377380E+02  0.32476884044E+02  0.54565424709E+02  0.10566000000E+00 0.  1.
         23    2    1    0    0    0  0.26875787771E+02 -0.61526328758E+01  0.11603937976E+02  0.95086554258E+02  0.90258731237E+02 0.  0.
         13    1    3    3    0    0 -0.69740679947E+01 -0.34024010256E+02 -0.20872946068E+02  0.40521129549E+02  0.10566000000E+00 0. -1.
         22    1    1    0    0    0 -0.26875787771E+02  0.61526328758E+01 -0.11603937976E+02  0.29913445742E+02  0.00000000000E+00 0.  1.
</event>
<event>
 5    1  0.1315753E-009  0.9118800E+02  0.7818608E-02  0.1130116E+00
         25   -1    0    0    0    0  0.00000000000E+00  0.00000000000E+00  0.99999998245E-14  0.12500000000E+03  0.12500000000E+03 0.  0.
        -13    1    3    3    0    0 -0.35782299389E+02 -0.35580620624E+02 -0.70595366401E+01  0.50952936472E+02  0.10566000000E+00 0.  1.
         23    2    1    0    0    0 -0.76731751305E+01 -0.79867468452E+01 -0.27516554110E+02  0.95338130675E+02  0.90606471451E+02 0.  0.
         13    1    3    3    0    0  0.28109124258E+02  0.27593873778E+02 -0.20457017470E+02  0.44385194203E+02  0.10566000000E+00 0. -1.
         22    1    1    0    0    0  0.76731751305E+01  0.79867468452E+01  0.27516554110E+02  0.29661869325E+02  0.00000000000E+00 0.  1.
</event>
<event>
 5    1  0.1315753E-009  0.9118800E+02  0.7818608E-02  0.1130116E+00
         25   -1    0    0    0    0  0.00000000000E+00  0.00000000000E+00  0.99999998245E-14  0.12500000000E+03  0.12500000000E+03 0.  0.
        -13    1    3    3    0    0  0.28014496824E+02  0.54326772873E+02  0.98711336037E+01  0.61916562612E+02  0.10566000000E+00 0.  1.
         23    2    1    0    0    0  0.16652194843E+02  0.28804520259E+02  0.11222821355E+02  0.89886644996E+02  0.82744554195E+02 0.  0.
         13    1    3    3    0    0 -0.11362301981E+02 -0.25522252613E+02  0.13516877515E+01  0.27970082384E+02  0.10566000000E+00 0. -1.
         22    1    1    0    0    0 -0.16652194843E+02 -0.28804520259E+02 -0.11222821355E+02  0.35113355004E+02  0.00000000000E+00 0.  1.
</event>
<event>
 5    1  0.1315753E-009  0.9118800E+02  0.7818608E-02  0.1130116E+00
         25   -1    0    0    0    0  0.00000000000E+00  0.00000000000E+00  0.99999998245E-14  0.12500000000E+03  0.12500000000E+03 0.  0.
        -13    1    3    3    0    0 -0.27519674764E+02 -0.76742483583E+01  0.20313278515E+02  0.35055199829E+02  0.10566000000E+00 0. -1.
         23    2    1    0    0    0  0.10910064582E+02 -0.10528917924E+02 -0.25753458399E+02  0.95114748765E+02  0.90297769581E+02 0.  0.
         13    1    3    3    0    0  0.38429739345E+02 -0.28546695653E+01 -0.46066736915E+02  0.60059548937E+02  0.10566000000E+00 0.  1.
         22    1    1    0    0    0 -0.10910064582E+02  0.10528917924E+02  0.25753458399E+02  0.29885251235E+02  0.00000000000E+00 0. -1.
</event>
<event>
 5    1  0.1315753E-009  0.9118800E+02  0.7818608E-02  0.1130116E+00
         25   -1    0    0    0    0  0.00000000000E+00  0.00000000000E+00  0.99999998245E-14  0.12500000000E+03  0.12500000000E+03 0.  0.
        -13    1    3    3    0    0 -0.38842012256E+02  0.98939806975E+00 -0.10348096704E+01  0.38868532513E+02  0.10566000000E+00 0.  1.
         23    2    1    0    0    0  0.15057320228E+02 -0.20713584107E+02 -0.97008376356E+01  0.97616031883E+02  0.93696360499E+02 0.  0.
         13    1    3    3    0    0  0.53899332483E+02 -0.21702982177E+02 -0.86660279652E+01  0.58747499370E+02  0.10566000000E+00 0. -1.
         22    1    1    0    0    0 -0.15057320228E+02  0.20713584107E+02  0.97008376356E+01  0.27383968117E+02  0.00000000000E+00 0. -1.
</event>
<event>
 5    1  0.1315753E-009  0.9118800E+02  0.7818608E-02  0.1130116E+00
         25   -1    0    0    0    0  0.00000000000E+00  0.00000000000E+00  0.99999998245E-14  0.12500000000E+03  0.12500000000E+03 0.  0.
        -13    1    3    3    0    0  0.16073961847E+02  0.35662008818E+02 -0.26602524203E+02  0.47305988843E+02  0.10566000000E+00 0.  1.
         23    2    1    0    0    0 -0.14767964807E+02  0.19499320158E+02  0.10670562563E+02  0.98313352092E+02  0.94622079997E+02 0.  0.
         13    1    3    3    0    0 -0.30841926655E+02 -0.16162688660E+02  0.37273086766E+02  0.51007363249E+02  0.10566000000E+00 0. -1.
         22    1    1    0    0    0  0.14767964807E+02 -0.19499320158E+02 -0.10670562563E+02  0.26686647908E+02  0.00000000000E+00 0. -1.
</event>
<event>
 5    1  0.1315753E-009  0.9118800E+02  0.7818608E-02  0.1130116E+00
         25   -1    0    0    0    0  0.00000000000E+00  0.00000000000E+00  0.99999998245E-14  0.12500000000E+03  0.12500000000E+03 0.  0.
        -13    1    3    3    0    0 -0.14895552046E+01  0.40949783447E+02 -0.13842231609E+02  0.43251844805E+02  0.10566000000E+00 0.  1.
         23    2    1    0    0    0  0.11319338823E+02  0.85537311703E+01  0.25511069744E+02  0.95809103683E+02  0.91253909071E+02 0.  0.
         13    1    3    3    0    0  0.12808894027E+02 -0.32396052277E+02  0.39353301353E+02  0.52557258878E+02  0.10566000000E+00 0. -1.
         22    1    1    0    0    0 -0.11319338823E+02 -0.85537311703E+01 -0.25511069744E+02  0.29190896317E+02  0.00000000000E+00 0. -1.
</event>
<event>
 5    1  0.1315753E-009  0.9118800E+02  0.7818608E-02  0.1130116E+00
         25   -1    0    0    0    0  0.00000000000E+00  0.00000000000E+00  0.99999998245E-14  0.12500000000E+03  0.12500000000E+03 0.  0.
        -13    1    3    3    0    0 -0.12310000898E+02  0.59969029995E+02  0.10120831737E+02  0.62050488151E+02  0.10566000000E+00 0. -1.
         23    2    1    0    0    0 -0.10198261929E+02  0.26105738005E+02  0.69265162955E+01  0.96129760459E+02  0.91692094069E+02 0.  0.
         13    1    3    3    0    0  0.21117389688E+01 -0.33863291990E+02 -0.31943154420E+01  0.34079272308E+02  0.10566000000E+00 0.  1.
         22    1    1    0    0    0  0.10198261929E+02 -0.26105738005E+02 -0.69265162955E+01  0.28870239541E+02  0.00000000000E+00 0. -1.
</event>
<event>
 5    1  0.1315753E-009  0.9118800E+02  0.7818608E-02  0.1130116E+00
         25   -1    0    0    0    0  0.00000000000E+00  0.00000000000E+00  0.99999998245E-14  0.12500000000E+03  0.12500000000E+03 0.  0.
        -13    1    3    3    0    0  0.75921928218E+01  0.39708272143E+02  0.30343043702E+02  0.50547994358E+02  0.10566000000E+00 0. -1.
         23    2    1    0    0    0  0.21987161918E+02 -0.16222520704E+01  0.19332399325E+02  0.95677505996E+02  0.91073467590E+02 0.  0.
         13    1    3    3    0    0  0.14394969096E+02 -0.41330524213E+02 -0.11010644378E+02  0.45129511638E+02  0.10566000000E+00 0.  1.
         22    1    1    0    0    0 -0.21987161918E+02  0.16222520704E+01 -0.19332399325E+02  0.29322494004E+02  0.00000000000E+00 0. -1.
</event>
<event>
 5    1  0.1315753E-009  0.9118800E+02  0.7818608E-02  0.1130116E+00
         25   -1    0    0    0    0  0.00000000000E+00  0.00000000000E+00  0.99999998245E-14  0.12500000000E+03  0.12500000000E+03 0.  0.
        -13    1    3    3    0    0  0.26451601680E+02  0.33120406917E+02  0.85399283378E+01  0.43238757219E+02  0.10566000000E+00 0.  1.
         23    2    1    0    0    0  0.51889290681E+01 -0.17812971323E+02  0.17899017327E+02  0.99220128909E+02  0.95812484714E+02 0.  0.
         13    1    3    3    0    0 -0.21262672612E+02 -0.50933378240E+02  0.93590889889E+01  0.55981371690E+02  0.10566000000E+00 0. -1.
         22    1    1    0    0    0 -0.51889290681E+01  0.17812971323E+02 -0.17899017327E+02  0.25779871091E+02  0.00000000000E+00 0. -1.
</event>
<event>
 5    1  0.1315753E-009  0.9118800E+02  0.7818608E-02  0.1130116E+00
         25   -1    0    0    0    0  0.00000000000E+00  0.00000000000E+00  0.99999998245E-14  0.12500000000E+03  0.12500000000E+03 0.  0.
        -13    1    3    3    0    0  0.22651232513E+02  0.46123828323E+01 -0.28616926333E+02  0.36787117942E+02  0.10566000000E+00 0.  1.
         23    2    1    0    0    0  0.11855969450E+02 -0.12083302493E+02  0.25472777891E+02  0.94415156952E+02  0.89324068638E+02 0.  0.
         13    1    3    3    0    0 -0.10795263062E+02 -0.16695685325E+02  0.54089704224E+02  0.57628039010E+02  0.10566000000E+00 0. -1.
         22    1    1    0    0    0 -0.11855969450E+02  0.12083302493E+02 -0.25472777891E+02  0.30584843048E+02  0.00000000000E+00 0. -1.
</event>
<event>
 5    1  0.1315753E-009  0.9118800E+02  0.7818608E-02  0.1130116E+00
         25   -1    0    0    0    0  0.00000000000E+00  0.00000000000E+00  0.99999998245E-14  0.12500000000E+03  0.12500000000E+03 0.  0.
        -13    1    3    3    0    0  0.54548416662E+02 -0.96533009810E+01  0.23338009536E+02  0.60111478382E+02  0.10566000000E+00 0.  1.
         23    2    1    0    0    0  0.26207621270E+02  0.37899282258E+01  0.12224379992E+01  0.98491561282E+02  0.94857210166E+02 0.  0.
         13    1    3    3    0    0 -0.28340795392E+02  0.13443229207E+02 -0.22115571537E+02  0.38380082900E+02  0.10566000000E+00 0. -1.
         22    1    1    0    0    0 -0.26207621270E+02 -0.37899282258E+01 -0.12224379992E+01  0.26508438718E+02  0.00000000000E+00 0. -1.
</event>
<event>
 5    1  0.1315753E-009  0.9118800E+02  0.7818608E-02  0.1130116E+00
         25   -1    0    0    0    0  0.00000000000E+00  0.00000000000E+00  0.99999998245E-14  0.12500000000E+03  0.12500000000E+03 0.  0.
        -13    1    3    3    0    0 -0.17131481176E+02  0.51892743872E+02  0.25417297557E+01  0.54706636417E+02  0.10566000000E+00 0. -1.
         23    2    1    0    0    0 -0.22517651950E+02  0.13671470855E+02  0.14259658767E+02  0.95045173463E+02  0.90201404456E+02 0.  0.
         13    1    3    3    0    0 -0.53861707747E+01 -0.38221273018E+02  0.11717929011E+02  0.40338537046E+02  0.10566000000E+00 0.  1.
         22    1    1    0    0    0  0.22517651950E+02 -0.13671470855E+02 -0.14259658767E+02  0.29954826537E+02  0.00000000000E+00 0.  1.
</event>
<event>
 5    1  0.1315753E-009  0.9118800E+02  0.7818608E-02  0.1130116E+00
         25   -1    0    0    0    0  0.00000000000E+00  0.00000000000E+00  0.99999998245E-14  0.12500000000E+03  0.12500000000E+03 0.  0.
        -13    1    3    3    0    0  0.44231976309E+02 -0.14835104341E+02 -0.31247536937E+02  0.56151293642E+02  0.10566000000E+00 0. -1.
         23    2    1    0    0    0  0.10845376568E+02 -0.24159666307E+02 -0.16317014757E+02  0.93894427517E+02  0.88592363549E+02 0.  0.
         13    1    3    3    0    0 -0.33386599741E+02 -0.93245619656E+01  0.14930522180E+02  0.37743133875E+02  0.10566000000E+00 0.  1.
         22    1    1    0    0    0 -0.10845376568E+02  0.24159666307E+02  0.16317014757E+02  0.31105572483E+02  0.00000000000E+00 0. -1.
</event>
<event>
 5    1  0.1315753E-009  0.9118800E+02  0.7818608E-02  0.1130116E+00
         25   -1    0    0    0    0  0.00000000000E+00  0.00000000000E+00  0.99999998245E-14  0.12500000000E+03  0.12500000000E+03 0.  0.
        -13    1    3    3    0    0  0.24938994480E+02  0.30943012017E+02 -0.81622209139E+01  0.40571621272E+02  0.10566000000E+00 0. -1.
         23    2    1    0    0    0 -0.22294971604E+02  0.64055801508E+01 -0.19148317948E+02  0.94920849478E+02  0.90028952951E+02 0.  0.
         13    1    3    3    0    0 -0.47233966083E+02 -0.24537431866E+02 -0.10986097034E+02  0.54349228206E+02  0.10566000000E+00 0.  1.
         22    1    1    0    0    0  0.22294971604E+02 -0.64055801508E+01  0.19148317948E+02  0.30079150522E+02  0.00000000000E+00 0.  1.
</event>
<event>
 5    1  0.1315753E-009  0.9118800E+02  0.7818608E-02  0.1130116E+00
         25   -1    0    0    0    0  0.00000000000E+00  0.00000000000E+00  0.99999998245E-14  0.12500000000E+03  0.12500000000E+03 0.  0.
        -13    1    3    3    0    0 -0.14832875955E+02  0.25507120803E+01 -0.55577221238E+02  0.57579154438E+02  0.10566000000E+00 0. -1.
         23    2    1    0    0    0  0.46852190761E+01 -0.12481441716E+02 -0.22888827990E+02  0.98511585328E+02  0.94883593587E+02 0.  0.
         13    1    3    3    0    0  0.19518095031E+02 -0.15032153796E+02  0.32688393248E+02  0.40932430890E+02  0.10566000000E+00 0.  1.
         22    1    1    0    0    0 -0.46852190761E+01  0.12481441716E+02  0.22888827990E+02  0.26488414672E+02  0.00000000000E+00 0. -1.
</event>
<event>
 5    1  0.1315753E-009  0.9118800E+02  0.7818608E-02  0.1130116E+00
         25   -1    0    0    0    0  0.00000000000E+00  0.00000000000E+00  0.99999998245E-14  0.12500000000E+03  0.12500000000E+03 0.  0.
        -13    1    3    3    0    0 -0.45968097429E+02 -0.47939668466E+00  0.31058644866E+02  0.55479242852E+02  0.10566000000E+00 0. -1.
         23    2    1    0    0    0 -0.18263637543E+02  0.19222733373E+02  0.57325321168E+01  0.97871862226E+02  0.94037043533E+02 0.  0.
         13    1    3    3    0    0  0.27704459886E+02  0.19702130057E+02 -0.25326112749E+02  0.42392619374E+02  0.10566000000E+00 0.  1.
         22    1    1    0    0    0  0.18263637543E+02 -0.19222733373E+02 -0.57325321168E+01  0.27128137774E+02  0.00000000000E+00 0. -1.
</event>
<event>
 5    1  0.1315753E-009  0.9118800E+02  0.7818608E-02  0.1130116E+00
         25   -1    0    0    0    0  0.00000000000E+00  0.00000000000E+00  0.99999998245E-14  0.12500000000E+03  0.12500000000E+03 0.  0.
        -13    1    3    3    0    0 -0.22864783554E+02  0.80592714543E+01  0.26200977262E+02  0.35696674311E+02  0.10566000000E+00 0.  1.
         23    2    1    0    0    0  0.19858012318E+02 -0.11854069114E+02 -0.14271450829E+02  0.97824019493E+02  0.93973426420E+02 0.  0.
         13    1    3    3    0    0  0.42722795872E+02 -0.19913340568E+02 -0.40472428091E+02  0.62127345182E+02  0.10566000000E+00 0. -1.
         22    1    1    0    0    0 -0.19858012318E+02  0.11854069114E+02  0.14271450829E+02  0.27175980507E+02  0.00000000000E+00 0. -1.
</event>
<event>
 5    1  0.1315753E-009  0.9118800E+02  0.7818608E-02  0.1130116E+00
         25   -1    0    0    0    0  0.00000000000E+00  0.00000000000E+00  0.99999998245E-14  0.12500000000E+03  0.12500000000E+03 0.  0.
        -13    1    3    3    0    0  0.27642893042E+02  0.21998134568E+02 -0.27831643205E+02  0.44973981230E+02  0.10566000000E+00 0. -1.
         23    2    1    0    0    0 -0.18199746857E+02  0.18024028081E+02 -0.21765884725E+02  0.91386756899E+02  0.84980522619E+02 0.  0.
         13    1    3    3    0    0 -0.45842639899E+02 -0.39741064868E+01  0.60657584795E+01  0.46412775668E+02  0.10566000000E+00 0.  1.
         22    1    1    0    0    0  0.18199746857E+02 -0.18024028081E+02  0.21765884725E+02  0.33613243101E+02  0.00000000000E+00 0. -1.
</event>
<event>
 5    1  0.1315753E-009  0.9118800E+02  0.7818608E-02  0.1130116E+00
         25   -1    0    0    0    0  0.00000000000E+00  0.00000000000E+00  0.99999998245E-14  0.12500000000E+03  0.12500000000E+03 0.  0.
        -13    1    3    3    0    0 -0.37373620848E+02  0.30910370478E+02 -0.97449574091E+01  0.49469322790E+02  0.10566000000E+00 0. -1.
         23    2    1    0    0    0  0.82392525224E+00  0.29156208828E+02  0.12002692194E+02  0.93459106133E+02  0.87975999757E+02 0.  0.
         13    1    3    3    0    0  0.38197546100E+02 -0.17541616504E+01  0.21747649603E+02  0.43989783342E+02  0.10566000000E+00 0.  1.
         22    1    1    0    0    0 -0.82392525224E+00 -0.29156208828E+02 -0.12002692194E+02  0.31540893867E+02  0.00000000000E+00 0.  1.
</event>
<event>
 5    1  0.1315753E-009  0.9118800E+02  0.7818608E-02  0.1130116E+00
         25   -1    0    0    0    0  0.00000000000E+00  0.00000000000E+00  0.99999998245E-14  0.12500000000E+03  0.12500000000E+03 0.  0.
        -13    1    3    3    0    0  0.37647053088E+02 -0.33316088399E+02  0.26068416917E+02  0.56628931449E+02  0.10566000000E+00 0. -1.
         23    2    1    0    0    0  0.24776208861E+02  0.18009215362E+01  0.16310449835E+02  0.95282419047E+02  0.90529579485E+02 0.  0.
         13    1    3    3    0    0 -0.12870844228E+02  0.35117009935E+02 -0.97579670819E+01  0.38653487598E+02  0.10566000000E+00 0.  1.
         22    1    1    0    0    0 -0.24776208861E+02 -0.18009215362E+01 -0.16310449835E+02  0.29717580953E+02  0.00000000000E+00 0. -1.
</event>
<event>
 5    1  0.1315753E-009  0.9118800E+02  0.7818608E-02  0.1130116E+00
         25   -1    0    0    0    0  0.00000000000E+00  0.00000000000E+00  0.99999998245E-14  0.12500000000E+03  0.12500000000E+03 0.  0.
        -13    1    3    3    0    0  0.43160294478E+02 -0.33467931199E+02 -0.27673155275E+02  0.61226857874E+02  0.10566000000E+00 0.  1.
         23    2    1    0    0    0  0.14221652365E+02 -0.22256739523E+02 -0.12158231810E+02  0.95923541293E+02  0.91410531797E+02 0.  0.
         13    1    3    3    0    0 -0.28938642113E+02  0.11211191676E+02  0.15514923465E+02  0.34696683420E+02  0.10566000000E+00 0. -1.
         22    1    1    0    0    0 -0.14221652365E+02  0.22256739523E+02  0.12158231810E+02  0.29076458707E+02  0.00000000000E+00 0.  1.
</event>
<event>
 5    1  0.1315753E-009  0.9118800E+02  0.7818608E-02  0.1130116E+00
         25   -1    0    0    0    0  0.00000000000E+00  0.00000000000E+00  0.99999998245E-14  0.12500000000E+03  0.12500000000E+03 0.  0.
        -13    1    3    3    0    0  0.16422029518E+02  0.15946453632E+02 -0.57112369184E+02  0.61528906335E+02  0.10566000000E+00 0.  1.
         23    2    1    0    0    0  0.93480393706E+01  0.15331522093E+02 -0.26262824727E+02  0.93185264854E+02  0.87586050336E+02 0.  0.
         13    1    3    3    0    0 -0.70739901474E+01 -0.61493153964E+00  0.30849544457E+02  0.31656358519E+02  0.10566000000E+00 0. -1.
         22    1    1    0    0    0 -0.93480393706E+01 -0.15331522093E+02  0.26262824727E+02  0.31814735146E+02  0.00000000000E+00 0.  1.
</event>
<event>
 5    1  0.1315753E-009  0.9118800E+02  0.7818608E-02  0.1130116E+00
         25   -1    0    0    0    0  0.00000000000E+00  0.00000000000E+00  0.99999998245E-14  0.12500000000E+03  0.12500000000E+03 0.  0.
        -13    1    3    3    0    0  0.13498773488E+01  0.28463365875E+02 -0.19509940899E+02  0.34534538128E+02  0.10566000000E+00 0.  1.
         23    2    1    0    0    0  0.47423573691E+01 -0.19722253943E+01  0.30986025959E+02  0.93591188639E+02  0.88163468396E+02 0.  0.
         13    1    3    3    0    0  0.33924800203E+01 -0.30435591270E+02  0.50495966858E+02  0.59056650511E+02  0.10566000000E+00 0. -1.
         22    1    1    0    0    0 -0.47423573691E+01  0.19722253943E+01 -0.30986025959E+02  0.31408811361E+02  0.00000000000E+00 0. -1.
</event>
<event>
 5    1  0.1315753E-009  0.9118800E+02  0.7818608E-02  0.1130116E+00
         25   -1    0    0    0    0  0.00000000000E+00  0.00000000000E+00  0.99999998245E-14  0.12500000000E+03  0.12500000000E+03 0.  0.
        -13    1    3    3    0    0  0.52249804344E+02 -0.16238628270E+00  0.33168815468E+02  0.61889012812E+02  0.10566000000E+00 0. -1.
         23    2    1    0    0    0  0.20082467763E+02 -0.23627594429E+01  0.19496729871E+02  0.96910667162E+02  0.92750562211E+02 0.  0.
         13    1    3    3    0    0 -0.32167336582E+02 -0.22003731602E+01 -0.13672085597E+02  0.35021654350E+02  0.10566000000E+00 0.  1.
         22    1    1    0    0    0 -0.20082467763E+02  0.23627594429E+01 -0.19496729871E+02  0.28089332838E+02  0.00000000000E+00 0. -1.
</event>
<event>
 5    1  0.1315753E-009  0.9118800E+02  0.7818608E-02  0.1130116E+00
         25   -1    0    0    0    0  0.00000000000E+00  0.00000000000E+00  0.99999998245E-14  0.12500000000E+03  0.12500000000E+03 0.  0.
        -13    1    3    3    0    0  0.11262064697E+02  0.16831902102E+02 -0.29069345201E+02  0.35428590490E+02  0.10566000000E+00 0.  1.
         23    2    1    0    0    0  0.12506612042E+02 -0.25535808642E+02  0.11712501187E+02  0.94248161814E+02  0.89090069331E+02 0.  0.
         13    1    3    3    0    0  0.12445473448E+01 -0.42367710744E+02  0.40781846389E+02  0.58819571324E+02  0.10566000000E+00 0. -1.
         22    1    1    0    0    0 -0.12506612042E+02  0.25535808642E+02 -0.11712501187E+02  0.30751838186E+02  0.00000000000E+00 0. -1.
</event>
<event>
 5    1  0.1315753E-009  0.9118800E+02  0.7818608E-02  0.1130116E+00
         25   -1    0    0    0    0  0.00000000000E+00  0.00000000000E+00  0.99999998245E-14  0.12500000000E+03  0.12500000000E+03 0.  0.
        -13    1    3    3    0    0 -0.71944475130E+01 -0.29026018678E+02 -0.23037584547E+02  0.37749321863E+02  0.10566000000E+00 0.  1.
         23    2    1    0    0    0  0.97168505888E+01  0.25321296266E+02 -0.95769641993E+01  0.96237116396E+02  0.91838331317E+02 0.  0.
         13    1    3    3    0    0  0.16911298102E+02  0.54347314944E+02  0.13460620348E+02  0.58487794533E+02  0.10566000000E+00 0. -1.
         22    1    1    0    0    0 -0.97168505888E+01 -0.25321296266E+02  0.95769641993E+01  0.28762883604E+02  0.00000000000E+00 0. -1.
</event>
<event>
 5    1  0.1315753E-009  0.9118800E+02  0.7818608E-02  0.1130116E+00
         25   -1    0    0    0    0  0.00000000000E+00  0.00000000000E+00  0.99999998245E-14  0.12500000000E+03  0.12500000000E+03 0.  0.
        -13    1    3    3    0    0 -0.33172278102E+02  0.47411883037E+02  0.16752481145E+02  0.60240712779E+02  0.10566000000E+00 0. -1.
         23    2    1    0    0    0 -0.20226489508E+02  0.24098780851E+02 -0.29552707469E+01  0.93399434475E+02  0.87891174863E+02 0.  0.
         13    1    3    3    0    0  0.12945788594E+02 -0.23313102186E+02 -0.19707751892E+02  0.33158721696E+02  0.10566000000E+00 0.  1.
         22    1    1    0    0    0  0.20226489508E+02 -0.24098780851E+02  0.29552707469E+01  0.31600565525E+02  0.00000000000E+00 0. -1.
</event>
<event>
 5    1  0.1315753E-009  0.9118800E+02  0.7818608E-02  0.1130116E+00
         25   -1    0    0    0    0  0.00000000000E+00  0.00000000000E+00  0.99999998245E-14  0.12500000000E+03  0.12500000000E+03 0.  0.
        -13    1    3    3    0    0  0.54485578843E+02 -0.79504953181E+01 -0.16162522395E+01  0.55086405882E+02  0.10566000000E+00 0.  1.
         23    2    1    0    0    0  0.21335537300E+02 -0.10800496503E+02  0.19198680337E+02  0.94333320962E+02  0.89209473939E+02 0.  0.
         13    1    3    3    0    0 -0.33150041543E+02 -0.28500011850E+01  0.20814932576E+02  0.39246915080E+02  0.10566000000E+00 0. -1.
         22    1    1    0    0    0 -0.21335537300E+02  0.10800496503E+02 -0.19198680337E+02  0.30666679038E+02  0.00000000000E+00 0.  1.
</event>
<event>
 5    1  0.1315753E-009  0.9118800E+02  0.7818608E-02  0.1130116E+00
         25   -1    0    0    0    0  0.00000000000E+00  0.00000000000E+00  0.99999998245E-14  0.12500000000E+03  0.12500000000E+03 0.  0.
        -13    1    3    3    0    0  0.70812791703E+00  0.31558958180E+02  0.13624499715E+02  0.34381789410E+02  0.10566000000E+00 0.  1.
         23    2    1    0    0    0  0.75794536103E+01 -0.23071073207E+02 -0.15018446789E+02  0.96446956731E+02  0.92123499623E+02 0.  0.
         13    1    3    3    0    0  0.68713256933E+01 -0.54630031387E+02 -0.28642946504E+02  0.62065167321E+02  0.10566000000E+00 0. -1.
         22    1    1    0    0    0 -0.75794536103E+01  0.23071073207E+02  0.15018446789E+02  0.28553043269E+02  0.00000000000E+00 0. -1.
</event>
<event>
 5    1  0.1315753E-009  0.9118800E+02  0.7818608E-02  0.1130116E+00
         25   -1    0    0    0    0  0.00000000000E+00  0.00000000000E+00  0.99999998245E-14  0.12500000000E+03  0.12500000000E+03 0.  0.
        -13    1    3    3    0    0 -0.49592359406E+02 -0.50873591905E+01  0.21097025481E+02  0.54132975008E+02  0.10566000000E+00 0.  1.
         23    2    1    0    0    0 -0.22696790559E+02 -0.14921011902E+02 -0.96726948961E+01  0.96166999386E+02  0.91742846296E+02 0.  0.
         13    1    3    3    0    0  0.26895568847E+02 -0.98336527115E+01 -0.30769720377E+02  0.42034024378E+02  0.10566000000E+00 0. -1.
         22    1    1    0    0    0  0.22696790559E+02  0.14921011902E+02  0.96726948961E+01  0.28833000614E+02  0.00000000000E+00 0.  1.
</event>
<event>
 5    1  0.1315753E-009  0.9118800E+02  0.7818608E-02  0.1130116E+00
         25   -1    0    0    0    0  0.00000000000E+00  0.00000000000E+00  0.99999998245E-14  0.12500000000E+03  0.12500000000E+03 0.  0.
        -13    1    3    3    0    0  0.24518493850E+02 -0.64883351202E+01  0.21170473651E+02  0.33037178330E+02  0.10566000000E+00 0.  1.
         23    2    1    0    0    0 -0.31258261503E+02  0.54109155180E+01  0.19650279311E+01  0.93216069254E+02  0.87630002359E+02 0.  0.
         13    1    3    3    0    0 -0.55776755353E+02  0.11899250638E+02 -0.19205445720E+02  0.60178890924E+02  0.10566000000E+00 0. -1.
         22    1    1    0    0    0  0.31258261503E+02 -0.54109155180E+01 -0.19650279311E+01  0.31783930746E+02  0.00000000000E+00 0. -1.
</event>
<event>
 5    1  0.1315753E-009  0.9118800E+02  0.7818608E-02  0.1130116E+00
         25   -1    0    0    0    0  0.00000000000E+00  0.00000000000E+00  0.99999998245E-14  0.12500000000E+03  0.12500000000E+03 0.  0.
        -13    1    3    3    0    0  0.48545717378E+01 -0.27674878893E+02 -0.56340381078E+01  0.28656924781E+02  0.10566000000E+00 0.  1.
         23    2    1    0    0    0 -0.95387360060E+01  0.20076300198E+02 -0.32745766085E+02  0.85423106354E+02  0.75701892898E+02 0.  0.
         13    1    3    3    0    0 -0.14393307744E+02  0.47751179091E+02 -0.27111727977E+02  0.56766181572E+02  0.10566000000E+00 0. -1.
         22    1    1    0    0    0  0.95387360060E+01 -0.20076300198E+02  0.32745766085E+02  0.39576893646E+02  0.00000000000E+00 0. -1.
</event>
<event>
 5    1  0.1315753E-009  0.9118800E+02  0.7818608E-02  0.1130116E+00
         25   -1    0    0    0    0  0.00000000000E+00  0.00000000000E+00  0.99999998245E-14  0.12500000000E+03  0.12500000000E+03 0.  0.
        -13    1    3    3    0    0  0.18847593246E+02 -0.22946001143E+02  0.14875835894E+02  0.33212232644E+02  0.10566000000E+00 0.  1.
         23    2    1    0    0    0 -0.22556720185E+02  0.60817947715E+01 -0.19676152727E+02  0.94455854255E+02  0.89381002253E+02 0.  0.
         13    1    3    3    0    0 -0.41404313431E+02  0.29027795914E+02 -0.34551988621E+02  0.61243621611E+02  0.10566000000E+00 0. -1.
         22    1    1    0    0    0  0.22556720185E+02 -0.60817947715E+01  0.19676152727E+02  0.30544145745E+02  0.00000000000E+00 0. -1.
</event>
<event>
 5    1  0.1315753E-009  0.9118800E+02  0.7818608E-02  0.1130116E+00
         25   -1    0    0    0    0  0.00000000000E+00  0.00000000000E+00  0.99999998245E-14  0.12500000000E+03  0.12500000000E+03 0.  0.
        -13    1    3    3    0    0 -0.16915733040E+02  0.15431335749E+02 -0.26609711920E+02  0.35104929565E+02  0.10566000000E+00 0. -1.
         23    2    1    0    0    0  0.72196875409E+01 -0.27405877523E+02  0.83725672939E+01  0.95448250575E+02  0.90758264879E+02 0.  0.
         13    1    3    3    0    0  0.24135420581E+02 -0.42837213271E+02  0.34982279214E+02  0.60343321010E+02  0.10566000000E+00 0.  1.
         22    1    1    0    0    0 -0.72196875409E+01  0.27405877523E+02 -0.83725672939E+01  0.29551749425E+02  0.00000000000E+00 0.  1.
</event>
<event>
 5    1  0.1315753E-009  0.9118800E+02  0.7818608E-02  0.1130116E+00
         25   -1    0    0    0    0  0.00000000000E+00  0.00000000000E+00  0.99999998245E-14  0.12500000000E+03  0.12500000000E+03 0.  0.
        -13    1    3    3    0    0 -0.62092969048E+02  0.30958743928E+01  0.19645009369E+01  0.62201219212E+02  0.10566000000E+00 0. -1.
         23    2    1    0    0    0 -0.25454876595E+02 -0.21574177693E+01  0.33203232406E+01  0.99238987980E+02  0.95837085698E+02 0.  0.
         13    1    3    3    0    0  0.36638092454E+02 -0.52532921621E+01  0.13558223037E+01  0.37037768768E+02  0.10566000000E+00 0.  1.
         22    1    1    0    0    0  0.25454876595E+02  0.21574177693E+01 -0.33203232406E+01  0.25761012020E+02  0.00000000000E+00 0. -1.
</event>
<event>
 5    1  0.1315753E-009  0.9118800E+02  0.7818608E-02  0.1130116E+00
         25   -1    0    0    0    0  0.00000000000E+00  0.00000000000E+00  0.99999998245E-14  0.12500000000E+03  0.12500000000E+03 0.  0.
        -13    1    3    3    0    0 -0.22659251504E+02  0.48896068052E+02 -0.24566482615E+02  0.59226601978E+02  0.10566000000E+00 0. -1.
         23    2    1    0    0    0  0.92346512780E+00  0.28457521701E+02 -0.49131944857E+01  0.96106699578E+02  0.91660650743E+02 0.  0.
         13    1    3    3    0    0  0.23582716632E+02 -0.20438546352E+02  0.19653288130E+02  0.36880097601E+02  0.10566000000E+00 0.  1.
         22    1    1    0    0    0 -0.92346512780E+00 -0.28457521701E+02  0.49131944857E+01  0.28893300422E+02  0.00000000000E+00 0. -1.
</event>
<event>
 5    1  0.1315753E-009  0.9118800E+02  0.7818608E-02  0.1130116E+00
         25   -1    0    0    0    0  0.00000000000E+00  0.00000000000E+00  0.99999998245E-14  0.12500000000E+03  0.12500000000E+03 0.  0.
        -13    1    3    3    0    0  0.41737640004E+02 -0.23702775474E+02 -0.29589844019E+02  0.56386365297E+02  0.10566000000E+00 0.  1.
         23    2    1    0    0    0  0.41198625336E+01 -0.79116531615E+01 -0.26198050939E+02  0.97325004136E+02  0.93307293574E+02 0.  0.
         13    1    3    3    0    0 -0.37617777470E+02  0.15791122312E+02  0.33917930800E+01  0.40938638839E+02  0.10566000000E+00 0. -1.
         22    1    1    0    0    0 -0.41198625336E+01  0.79116531615E+01  0.26198050939E+02  0.27674995864E+02  0.00000000000E+00 0.  1.
</event>
<event>
 5    1  0.1315753E-009  0.9118800E+02  0.7818608E-02  0.1130116E+00
         25   -1    0    0    0    0  0.00000000000E+00  0.00000000000E+00  0.99999998245E-14  0.12500000000E+03  0.12500000000E+03 0.  0.
        -13    1    3    3    0    0 -0.35310720182E+02  0.19227953675E+02  0.24573688765E+02  0.47121529112E+02  0.10566000000E+00 0.  1.
         23    2    1    0    0    0 -0.31027099725E+01  0.24258301957E+02 -0.13355877345E+02  0.97134762110E+02  0.93052085025E+02 0.  0.
         13    1    3    3    0    0  0.32208010210E+02  0.50303482822E+01 -0.37929566110E+02  0.50013232997E+02  0.10566000000E+00 0. -1.
         22    1    1    0    0    0  0.31027099725E+01 -0.24258301957E+02  0.13355877345E+02  0.27865237890E+02  0.00000000000E+00 0. -1.
</event>
<event>
 5    1  0.1315753E-009  0.9118800E+02  0.7818608E-02  0.1130116E+00
         25   -1    0    0    0    0  0.00000000000E+00  0.00000000000E+00  0.99999998245E-14  0.12500000000E+03  0.12500000000E+03 0.  0.
        -13    1    3    3    0    0  0.29240988016E+02 -0.36608774182E+01 -0.22057956556E+02  0.36810352009E+02  0.10566000000E+00 0.  1.
         23    2    1    0    0    0 -0.27116941847E+02  0.70098134853E+01 -0.81098763005E+01  0.95841191488E+02  0.91297852505E+02 0.  0.
         13    1    3    3    0    0 -0.56357929862E+02  0.10670690904E+02  0.13948080255E+02  0.59030839479E+02  0.10566000000E+00 0. -1.
         22    1    1    0    0    0  0.27116941847E+02 -0.70098134853E+01  0.81098763005E+01  0.29158808512E+02  0.00000000000E+00 0. -1.
</event>
<event>
 5    1  0.1315753E-009  0.9118800E+02  0.7818608E-02  0.1130116E+00
         25   -1    0    0    0    0  0.00000000000E+00  0.00000000000E+00  0.99999998245E-14  0.12500000000E+03  0.12500000000E+03 0.  0.
        -13    1    3    3    0    0 -0.77896666765E+01 -0.16382541602E+02 -0.29282064518E+02  0.34445856685E+02  0.10566000000E+00 0.  1.
         23    2    1    0    0    0  0.20153980494E+02  0.30629836885E+01  0.21364046209E+02  0.95470569439E+02  0.90788999112E+02 0.  0.
         13    1    3    3    0    0  0.27943647170E+02  0.19445525290E+02  0.50646110727E+02  0.61024712755E+02  0.10566000000E+00 0. -1.
         22    1    1    0    0    0 -0.20153980494E+02 -0.30629836885E+01 -0.21364046209E+02  0.29529430561E+02  0.00000000000E+00 0. -1.
</event>
<event>
 5    1  0.1315753E-009  0.9118800E+02  0.7818608E-02  0.1130116E+00
         25   -1    0    0    0    0  0.00000000000E+00  0.00000000000E+00  0.99999998245E-14  0.12500000000E+03  0.12500000000E+03 0.  0.
        -13    1    3    3    0    0 -0.14832926609E+02  0.67205959029E+01  0.42132747499E+02  0.45170363038E+02  0.10566000000E+00 0.  1.
         23    2    1    0    0    0  0.23705241137E+02 -0.10068495395E+02  0.15216913039E+02  0.95085663984E+02  0.90257498281E+02 0.  0.
         13    1    3    3    0    0  0.38538167745E+02 -0.16789091298E+02 -0.26915834460E+02  0.49915300946E+02  0.10566000000E+00 0. -1.
         22    1    1    0    0    0 -0.23705241137E+02  0.10068495395E+02 -0.15216913039E+02  0.29914336016E+02  0.00000000000E+00 0. -1.
</event>
<event>
 5    1  0.1315753E-009  0.9118800E+02  0.7818608E-02  0.1130116E+00
         25   -1    0    0    0    0  0.00000000000E+00  0.00000000000E+00  0.99999998245E-14  0.12500000000E+03  0.12500000000E+03 0.  0.
        -13    1    3    3    0    0  0.61587755235E+01  0.14601052242E+01  0.34309933386E+02  0.34889040058E+02  0.10566000000E+00 0.  1.
         23    2    1    0    0    0 -0.56324423383E+01  0.85721390676E+01 -0.26156828470E+02  0.96903992267E+02  0.92741566014E+02 0.  0.
         13    1    3    3    0    0 -0.11791217862E+02  0.71120338434E+01 -0.60466761856E+02  0.62014952209E+02  0.10566000000E+00 0. -1.
         22    1    1    0    0    0  0.56324423383E+01 -0.85721390676E+01  0.26156828470E+02  0.28096007733E+02  0.00000000000E+00 0. -1.
</event>
<event>
 5    1  0.1315753E-009  0.9118800E+02  0.7818608E-02  0.1130116E+00
         25   -1    0    0    0    0  0.00000000000E+00  0.00000000000E+00  0.99999998245E-14  0.12500000000E+03  0.12500000000E+03 0.  0.
        -13    1    3    3    0    0  0.28841902635E+02  0.36806869671E+01  0.48647102130E+02  0.56674107967E+02  0.10566000000E+00 0.  1.
         23    2    1    0    0    0  0.76403798870E+01 -0.16535384339E+02  0.23390580078E+02  0.95353523372E+02  0.90627704611E+02 0.  0.
         13    1    3    3    0    0 -0.21201522748E+02 -0.20216071306E+02 -0.25256522052E+02  0.38679415405E+02  0.10566000000E+00 0. -1.
         22    1    1    0    0    0 -0.76403798870E+01  0.16535384339E+02 -0.23390580078E+02  0.29646476628E+02  0.00000000000E+00 0.  1.
</event>
<event>
 5    1  0.1315753E-009  0.9118800E+02  0.7818608E-02  0.1130116E+00
         25   -1    0    0    0    0  0.00000000000E+00  0.00000000000E+00  0.99999998245E-14  0.12500000000E+03  0.12500000000E+03 0.  0.
        -13    1    3    3    0    0 -0.21118775380E+02  0.37927566157E+02 -0.59768667140E+01  0.43820509443E+02  0.10566000000E+00 0.  1.
         23    2    1    0    0    0 -0.18513870385E+02 -0.17345869463E+02 -0.48713973740E+01  0.99166434693E+02  0.95742407915E+02 0.  0.
         13    1    3    3    0    0  0.26049049948E+01 -0.55273435620E+02  0.11054693400E+01  0.55345925250E+02  0.10566000000E+00 0. -1.
         22    1    1    0    0    0  0.18513870385E+02  0.17345869463E+02  0.48713973740E+01  0.25833565307E+02  0.00000000000E+00 0.  1.
</event>
<event>
 5    1  0.1315753E-009  0.9118800E+02  0.7818608E-02  0.1130116E+00
         25   -1    0    0    0    0  0.00000000000E+00  0.00000000000E+00  0.99999998245E-14  0.12500000000E+03  0.12500000000E+03 0.  0.
        -13    1    3    3    0    0 -0.27986866913E+02 -0.16466065310E+02 -0.12199718949E+02  0.34687754797E+02  0.10566000000E+00 0.  1.
         23    2    1    0    0    0  0.11055750240E+02  0.16128053431E+02  0.21684609260E+02  0.95801267157E+02  0.91243173933E+02 0.  0.
         13    1    3    3    0    0  0.39042617153E+02  0.32594118742E+02  0.33884328209E+02  0.61113512360E+02  0.10566000000E+00 0. -1.
         22    1    1    0    0    0 -0.11055750240E+02 -0.16128053431E+02 -0.21684609260E+02  0.29198732843E+02  0.00000000000E+00 0. -1.
</event>
<event>
 5    1  0.1315753E-009  0.9118800E+02  0.7818608E-02  0.1130116E+00
         25   -1    0    0    0    0  0.00000000000E+00  0.00000000000E+00  0.99999998245E-14  0.12500000000E+03  0.12500000000E+03 0.  0.
        -13    1    3    3    0    0 -0.46352388376E+02  0.23434662372E+02  0.21651232649E+02  0.56271789983E+02  0.10566000000E+00 0.  1.
         23    2    1    0    0    0 -0.26443048991E+02 -0.83247542212E+01  0.10093024399E+02  0.95497364282E+02  0.90825883263E+02 0.  0.
         13    1    3    3    0    0  0.19909339385E+02 -0.31759416593E+02 -0.11558208250E+02  0.39225574299E+02  0.10566000000E+00 0. -1.
         22    1    1    0    0    0  0.26443048991E+02  0.83247542212E+01 -0.10093024399E+02  0.29502635718E+02  0.00000000000E+00 0.  1.
</event>
<event>
 5    1  0.1315753E-009  0.9118800E+02  0.7818608E-02  0.1130116E+00
         25   -1    0    0    0    0  0.00000000000E+00  0.00000000000E+00  0.99999998245E-14  0.12500000000E+03  0.12500000000E+03 0.  0.
        -13    1    3    3    0    0  0.32252326359E+02  0.35141599959E+02  0.86983309941E+01  0.48485221762E+02  0.10566000000E+00 0.  1.
         23    2    1    0    0    0  0.29082920426E+02 -0.83440133494E+01 -0.53099535782E+01  0.94281366790E+02  0.89136646210E+02 0.  0.
         13    1    3    3    0    0 -0.31694059327E+01 -0.43485613308E+02 -0.14008284572E+02  0.45796145028E+02  0.10566000000E+00 0. -1.
         22    1    1    0    0    0 -0.29082920426E+02  0.83440133494E+01  0.53099535782E+01  0.30718633210E+02  0.00000000000E+00 0. -1.
</event>
<event>
 5    1  0.1315753E-009  0.9118800E+02  0.7818608E-02  0.1130116E+00
         25   -1    0    0    0    0  0.00000000000E+00  0.00000000000E+00  0.99999998245E-14  0.12500000000E+03  0.12500000000E+03 0.  0.
        -13    1    3    3    0    0 -0.37257512118E+01  0.29722744873E+02  0.16435129339E+02  0.34167929778E+02  0.10566000000E+00 0.  1.
         23    2    1    0    0    0  0.25428702284E+02 -0.18627369856E+02 -0.15988649426E+01  0.93438089781E+02  0.87946133771E+02 0.  0.
         13    1    3    3    0    0  0.29154453495E+02 -0.48350114729E+02 -0.18033994282E+02  0.59270160003E+02  0.10566000000E+00 0. -1.
         22    1    1    0    0    0 -0.25428702284E+02  0.18627369856E+02  0.15988649426E+01  0.31561910219E+02  0.00000000000E+00 0. -1.
</event>
<event>
 5    1  0.1315753E-009  0.9118800E+02  0.7818608E-02  0.1130116E+00
         25   -1    0    0    0    0  0.00000000000E+00  0.00000000000E+00  0.99999998245E-14  0.12500000000E+03  0.12500000000E+03 0.  0.
        -13    1    3    3    0    0 -0.21665226171E+02 -0.53259053353E+02  0.12139600553E+02  0.58764699052E+02  0.10566000000E+00 0.  1.
         23    2    1    0    0    0 -0.26424529293E+00 -0.22878795013E+02  0.17344209149E+02  0.96288840535E+02  0.91908705429E+02 0.  0.
         13    1    3    3    0    0  0.21400980878E+02  0.30380258339E+02  0.52046085955E+01  0.37524141482E+02  0.10566000000E+00 0. -1.
         22    1    1    0    0    0  0.26424529293E+00  0.22878795013E+02 -0.17344209149E+02  0.28711159465E+02  0.00000000000E+00 0.  1.
</event>
<event>
 5    1  0.1315753E-009  0.9118800E+02  0.7818608E-02  0.1130116E+00
         25   -1    0    0    0    0  0.00000000000E+00  0.00000000000E+00  0.99999998245E-14  0.12500000000E+03  0.12500000000E+03 0.  0.
        -13    1    3    3    0    0  0.18649506968E+02 -0.23496902322E+02 -0.17832372805E+02  0.34898613336E+02  0.10566000000E+00 0.  1.
         23    2    1    0    0    0 -0.22015348668E+02  0.52887809195E+01  0.17839678433E+02  0.96174648187E+02  0.91753267226E+02 0.  0.
         13    1    3    3    0    0 -0.40664855636E+02  0.28785683242E+02  0.35672051237E+02  0.61276034851E+02  0.10566000000E+00 0. -1.
         22    1    1    0    0    0  0.22015348668E+02 -0.52887809195E+01 -0.17839678433E+02  0.28825351813E+02  0.00000000000E+00 0. -1.
</event>
<event>
 5    1  0.1315753E-009  0.9118800E+02  0.7818608E-02  0.1130116E+00
         25   -1    0    0    0    0  0.00000000000E+00  0.00000000000E+00  0.99999998245E-14  0.12500000000E+03  0.12500000000E+03 0.  0.
        -13    1    3    3    0    0  0.50833310651E+02 -0.13149971180E+02  0.33151455476E+02  0.62096516634E+02  0.10566000000E+00 0.  1.
         23    2    1    0    0    0  0.20598664752E+02 -0.10319687994E+02  0.15686719514E+02  0.97127538340E+02  0.93042380585E+02 0.  0.
         13    1    3    3    0    0 -0.30234645899E+02  0.28302831863E+01 -0.17464735961E+02  0.35031021706E+02  0.10566000000E+00 0. -1.
         22    1    1    0    0    0 -0.20598664752E+02  0.10319687994E+02 -0.15686719514E+02  0.27872461660E+02  0.00000000000E+00 0.  1.
</event>
<event>
 5    1  0.1315753E-009  0.9118800E+02  0.7818608E-02  0.1130116E+00
         25   -1    0    0    0    0  0.00000000000E+00  0.00000000000E+00  0.99999998245E-14  0.12500000000E+03  0.12500000000E+03 0.  0.
        -13    1    3    3    0    0 -0.32920819816E+02 -0.14680185886E+02  0.81010438692E+01  0.36944909133E+02  0.10566000000E+00 0.  1.
         23    2    1    0    0    0  0.74781771438E+01  0.10080674676E+02 -0.26540633348E+02  0.95641043039E+02  0.91023407758E+02 0.  0.
         13    1    3    3    0    0  0.40398996960E+02  0.24760860562E+02 -0.34641677217E+02  0.58696133907E+02  0.10566000000E+00 0. -1.
         22    1    1    0    0    0 -0.74781771438E+01 -0.10080674676E+02  0.26540633348E+02  0.29358956961E+02  0.00000000000E+00 0. -1.
</event>
<event>
 5    1  0.1315753E-009  0.9118800E+02  0.7818608E-02  0.1130116E+00
         25   -1    0    0    0    0  0.00000000000E+00  0.00000000000E+00  0.99999998245E-14  0.12500000000E+03  0.12500000000E+03 0.  0.
        -13    1    3    3    0    0  0.49547345529E+02 -0.12056752662E+01  0.16225653934E+02  0.52150514009E+02  0.10566000000E+00 0.  1.
         23    2    1    0    0    0  0.22865542054E+02 -0.64710377043E+00 -0.18241748259E+02  0.95742297830E+02  0.91162352194E+02 0.  0.
         13    1    3    3    0    0 -0.26681803475E+02  0.55857149577E+00 -0.34467402193E+02  0.43591783821E+02  0.10566000000E+00 0. -1.
         22    1    1    0    0    0 -0.22865542054E+02  0.64710377043E+00  0.18241748259E+02  0.29257702170E+02  0.00000000000E+00 0.  1.
</event>
<event>
 5    1  0.1315753E-009  0.9118800E+02  0.7818608E-02  0.1130116E+00
         25   -1    0    0    0    0  0.00000000000E+00  0.00000000000E+00  0.99999998245E-14  0.12500000000E+03  0.12500000000E+03 0.  0.
        -13    1    3    3    0    0 -0.12981794949E+02  0.34104229207E+02 -0.48045964033E+02  0.60332837442E+02  0.10566000000E+00 0. -1.
         23    2    1    0    0    0 -0.53471521571E+01  0.44754251555E+01 -0.26095337335E+02  0.97989111508E+02  0.94192769770E+02 0.  0.
         13    1    3    3    0    0  0.76346427918E+01 -0.29628804051E+02  0.21950626698E+02  0.37656274066E+02  0.10566000000E+00 0.  1.
         22    1    1    0    0    0  0.53471521571E+01 -0.44754251555E+01  0.26095337335E+02  0.27010888492E+02  0.00000000000E+00 0. -1.
</event>
<event>
 5    1  0.1315753E-009  0.9118800E+02  0.7818608E-02  0.1130116E+00
         25   -1    0    0    0    0  0.00000000000E+00  0.00000000000E+00  0.99999998245E-14  0.12500000000E+03  0.12500000000E+03 0.  0.
        -13    1    3    3    0    0 -0.17771142569E+02 -0.12899130419E+02  0.30483248904E+02  0.37569145606E+02  0.10566000000E+00 0.  1.
         23    2    1    0    0    0  0.13998243369E+02 -0.20222598466E+02 -0.16952622219E+02  0.95128680875E+02  0.90317053864E+02 0.  0.
         13    1    3    3    0    0  0.31769385939E+02 -0.73234680474E+01 -0.47435871123E+02  0.57559535269E+02  0.10566000000E+00 0. -1.
         22    1    1    0    0    0 -0.13998243369E+02  0.20222598466E+02  0.16952622219E+02  0.29871319125E+02  0.00000000000E+00 0. -1.
</event>
<event>
 5    1  0.1315753E-009  0.9118800E+02  0.7818608E-02  0.1130116E+00
         25   -1    0    0    0    0  0.00000000000E+00  0.00000000000E+00  0.99999998245E-14  0.12500000000E+03  0.12500000000E+03 0.  0.
        -13    1    3    3    0    0 -0.12676941565E+02  0.69399388482E+01  0.59319610598E+02  0.61054852094E+02  0.10566000000E+00 0. -1.
         23    2    1    0    0    0 -0.15836961807E+01  0.74521597866E+01  0.45891789081E+02  0.78480121623E+02  0.63206252901E+02 0.  0.
         13    1    3    3    0    0  0.11093245384E+02  0.51222093843E+00 -0.13427821517E+02  0.17425269529E+02  0.10566000000E+00 0.  1.
         22    1    1    0    0    0  0.15836961807E+01 -0.74521597866E+01 -0.45891789081E+02  0.46519878377E+02  0.00000000000E+00 0. -1.
</event>
<event>
 5    1  0.1315753E-009  0.9118800E+02  0.7818608E-02  0.1130116E+00
         25   -1    0    0    0    0  0.00000000000E+00  0.00000000000E+00  0.99999998245E-14  0.12500000000E+03  0.12500000000E+03 0.  0.
        -13    1    3    3    0    0 -0.47919672608E+01 -0.26553654997E+02  0.20580745070E+02  0.33935789008E+02  0.10566000000E+00 0. -1.
         23    2    1    0    0    0 -0.11016679998E+02  0.13972673914E+02 -0.24401055055E+02  0.94800424800E+02  0.89861594689E+02 0.  0.
         13    1    3    3    0    0 -0.62247127367E+01  0.40526328910E+02 -0.44981800125E+02  0.60864635792E+02  0.10566000000E+00 0.  1.
         22    1    1    0    0    0  0.11016679998E+02 -0.13972673914E+02  0.24401055055E+02  0.30199575200E+02  0.00000000000E+00 0.  1.
</event>
<event>
 5    1  0.1315753E-009  0.9118800E+02  0.7818608E-02  0.1130116E+00
         25   -1    0    0    0    0  0.00000000000E+00  0.00000000000E+00  0.99999998245E-14  0.12500000000E+03  0.12500000000E+03 0.  0.
        -13    1    3    3    0    0 -0.24073989117E+01  0.16500848184E+02 -0.55583824590E+02  0.58031424939E+02  0.10566000000E+00 0. -1.
         23    2    1    0    0    0 -0.72157032670E+01 -0.78397814069E+01 -0.27514180640E+02  0.95494768559E+02  0.90822310803E+02 0.  0.
         13    1    3    3    0    0 -0.48083043553E+01 -0.24340629591E+02  0.28069643951E+02  0.37463343620E+02  0.10566000000E+00 0.  1.
         22    1    1    0    0    0  0.72157032670E+01  0.78397814069E+01  0.27514180640E+02  0.29505231441E+02  0.00000000000E+00 0. -1.
</event>
<event>
 5    1  0.1315753E-009  0.9118800E+02  0.7818608E-02  0.1130116E+00
         25   -1    0    0    0    0  0.00000000000E+00  0.00000000000E+00  0.99999998245E-14  0.12500000000E+03  0.12500000000E+03 0.  0.
        -13    1    3    3    0    0  0.58700233189E+02 -0.20138730778E+02  0.79774454168E+00  0.62063946170E+02  0.10566000000E+00 0. -1.
         23    2    1    0    0    0  0.27880891618E+02 -0.45445600547E+01 -0.17432158593E+01  0.96697421583E+02  0.92462724358E+02 0.  0.
         13    1    3    3    0    0 -0.30819341570E+02  0.15594170724E+02 -0.25409604009E+01  0.34633475413E+02  0.10566000000E+00 0.  1.
         22    1    1    0    0    0 -0.27880891618E+02  0.45445600547E+01  0.17432158593E+01  0.28302578417E+02  0.00000000000E+00 0. -1.
</event>
<event>
 5    1  0.1315753E-009  0.9118800E+02  0.7818608E-02  0.1130116E+00
         25   -1    0    0    0    0  0.00000000000E+00  0.00000000000E+00  0.99999998245E-14  0.12500000000E+03  0.12500000000E+03 0.  0.
        -13    1    3    3    0    0 -0.33313131020E+02  0.27711095044E+02 -0.35015158212E+02  0.55711237247E+02  0.10566000000E+00 0. -1.
         23    2    1    0    0    0  0.68246545206E+00  0.70272921032E+01 -0.28006406519E+02  0.96117351238E+02  0.91675175536E+02 0.  0.
         13    1    3    3    0    0  0.33995596472E+02 -0.20683802941E+02  0.70087516936E+01  0.40406113992E+02  0.10566000000E+00 0.  1.
         22    1    1    0    0    0 -0.68246545206E+00 -0.70272921032E+01  0.28006406519E+02  0.28882648762E+02  0.00000000000E+00 0. -1.
</event>
<event>
 5    1  0.1315753E-009  0.9118800E+02  0.7818608E-02  0.1130116E+00
         25   -1    0    0    0    0  0.00000000000E+00  0.00000000000E+00  0.99999998245E-14  0.12500000000E+03  0.12500000000E+03 0.  0.
        -13    1    3    3    0    0 -0.11716286731E+02  0.57848516174E+02  0.20988629380E+01  0.59060465524E+02  0.10566000000E+00 0.  1.
         23    2    1    0    0    0 -0.14245507177E+02  0.22634755681E+02  0.11940318228E+02  0.95711131144E+02  0.91119607034E+02 0.  0.
         13    1    3    3    0    0 -0.25292204465E+01 -0.35213760493E+02  0.98414552898E+01  0.36650665619E+02  0.10566000000E+00 0. -1.
         22    1    1    0    0    0  0.14245507177E+02 -0.22634755681E+02 -0.11940318228E+02  0.29288868856E+02  0.00000000000E+00 0.  1.
</event>
<event>
 5    1  0.1315753E-009  0.9118800E+02  0.7818608E-02  0.1130116E+00
         25   -1    0    0    0    0  0.00000000000E+00  0.00000000000E+00  0.99999998245E-14  0.12500000000E+03  0.12500000000E+03 0.  0.
        -13    1    3    3    0    0 -0.58034376679E+01  0.18994283015E+02 -0.44025811387E+02  0.48298508345E+02  0.10566000000E+00 0.  1.
         23    2    1    0    0    0 -0.25884105227E+02  0.12073414717E+02 -0.83854794777E+00  0.96426281148E+02  0.92095441185E+02 0.  0.
         13    1    3    3    0    0 -0.20080667559E+02 -0.69208682976E+01  0.43187263439E+02  0.48127772804E+02  0.10566000000E+00 0. -1.
         22    1    1    0    0    0  0.25884105227E+02 -0.12073414717E+02  0.83854794777E+00  0.28573718852E+02  0.00000000000E+00 0. -1.
</event>
<event>
 5    1  0.1315753E-009  0.9118800E+02  0.7818608E-02  0.1130116E+00
         25   -1    0    0    0    0  0.00000000000E+00  0.00000000000E+00  0.99999998245E-14  0.12500000000E+03  0.12500000000E+03 0.  0.
        -13    1    3    3    0    0  0.14048568269E+02  0.53041593775E+02  0.26858778987E+02  0.61091555171E+02  0.10566000000E+00 0.  1.
         23    2    1    0    0    0  0.15426289231E+02  0.24467449915E+02  0.94922292798E+01  0.94557777323E+02  0.89523428949E+02 0.  0.
         13    1    3    3    0    0  0.13777209626E+01 -0.28574143860E+02 -0.17366549707E+02  0.33466222152E+02  0.10566000000E+00 0. -1.
         22    1    1    0    0    0 -0.15426289231E+02 -0.24467449915E+02 -0.94922292798E+01  0.30442222677E+02  0.00000000000E+00 0.  1.
</event>
<event>
 5    1  0.1315753E-009  0.9118800E+02  0.7818608E-02  0.1130116E+00
         25   -1    0    0    0    0  0.00000000000E+00  0.00000000000E+00  0.99999998245E-14  0.12500000000E+03  0.12500000000E+03 0.  0.
        -13    1    3    3    0    0 -0.16022240566E+01  0.52093731097E+02 -0.92735665116E+01  0.52937077190E+02  0.10566000000E+00 0.  1.
         23    2    1    0    0    0  0.14893796774E+02  0.31584431400E+02  0.13321193435E+02  0.87625467444E+02  0.79255074671E+02 0.  0.
         13    1    3    3    0    0  0.16496020831E+02 -0.20509299697E+02  0.22594759947E+02  0.34688390254E+02  0.10566000000E+00 0. -1.
         22    1    1    0    0    0 -0.14893796774E+02 -0.31584431400E+02 -0.13321193435E+02  0.37374532556E+02  0.00000000000E+00 0.  1.
</event>
<event>
 5    1  0.1315753E-009  0.9118800E+02  0.7818608E-02  0.1130116E+00
         25   -1    0    0    0    0  0.00000000000E+00  0.00000000000E+00  0.99999998245E-14  0.12500000000E+03  0.12500000000E+03 0.  0.
        -13    1    3    3    0    0  0.27381306677E+02 -0.17162050522E+02 -0.27013785203E+02  0.42119208070E+02  0.10566000000E+00 0.  1.
         23    2    1    0    0    0 -0.11295754216E+02 -0.25017816001E+02  0.95661242542E+01  0.95931186574E+02  0.91420985793E+02 0.  0.
         13    1    3    3    0    0 -0.38677060892E+02 -0.78557654794E+01  0.36579909457E+02  0.53811978504E+02  0.10566000000E+00 0. -1.
         22    1    1    0    0    0  0.11295754216E+02  0.25017816001E+02 -0.95661242542E+01  0.29068813426E+02  0.00000000000E+00 0. -1.
</event>
<event>
 5    1  0.1315753E-009  0.9118800E+02  0.7818608E-02  0.1130116E+00
         25   -1    0    0    0    0  0.00000000000E+00  0.00000000000E+00  0.99999998245E-14  0.12500000000E+03  0.12500000000E+03 0.  0.
        -13    1    3    3    0    0  0.52398893226E+00  0.53442605681E+02 -0.18251846435E+01  0.53476435272E+02  0.10566000000E+00 0. -1.
         23    2    1    0    0    0 -0.22459270796E+02  0.19595235960E+02  0.44356345700E+01  0.94865850417E+02  0.89952557520E+02 0.  0.
         13    1    3    3    0    0 -0.22983259728E+02 -0.33847369721E+02  0.62608192135E+01  0.41389415145E+02  0.10566000000E+00 0.  1.
         22    1    1    0    0    0  0.22459270796E+02 -0.19595235960E+02 -0.44356345700E+01  0.30134149583E+02  0.00000000000E+00 0.  1.
</event>
<event>
 5    1  0.1315753E-009  0.9118800E+02  0.7818608E-02  0.1130116E+00
         25   -1    0    0    0    0  0.00000000000E+00  0.00000000000E+00  0.99999998245E-14  0.12500000000E+03  0.12500000000E+03 0.  0.
        -13    1    3    3    0    0  0.29606456915E+02 -0.20809791288E+02 -0.37697093673E+02  0.52255829722E+02  0.10566000000E+00 0. -1.
         23    2    1    0    0    0  0.17268128641E+02  0.14218912669E+02 -0.24878089129E+02  0.91544282059E+02  0.85211915333E+02 0.  0.
         13    1    3    3    0    0 -0.12338328274E+02  0.35028703957E+02  0.12819004544E+02  0.39288452337E+02  0.10566000000E+00 0.  1.
         22    1    1    0    0    0 -0.17268128641E+02 -0.14218912669E+02  0.24878089129E+02  0.33455717941E+02  0.00000000000E+00 0. -1.
</event>
<event>
 5    1  0.1315753E-009  0.9118800E+02  0.7818608E-02  0.1130116E+00
         25   -1    0    0    0    0  0.00000000000E+00  0.00000000000E+00  0.99999998245E-14  0.12500000000E+03  0.12500000000E+03 0.  0.
        -13    1    3    3    0    0 -0.71034530489E+01 -0.20868071613E+02  0.49846871438E+02  0.54503735782E+02  0.10566000000E+00 0.  1.
         23    2    1    0    0    0 -0.24243837466E+02 -0.43710439121E+01  0.16966383116E+02  0.95087998462E+02  0.90260731304E+02 0.  0.
         13    1    3    3    0    0 -0.17140384417E+02  0.16497027700E+02 -0.32880488322E+02  0.40584262680E+02  0.10566000000E+00 0. -1.
         22    1    1    0    0    0  0.24243837466E+02  0.43710439121E+01 -0.16966383116E+02  0.29912001538E+02  0.00000000000E+00 0.  1.
</event>
<event>
 5    1  0.1315753E-009  0.9118800E+02  0.7818608E-02  0.1130116E+00
         25   -1    0    0    0    0  0.00000000000E+00  0.00000000000E+00  0.99999998245E-14  0.12500000000E+03  0.12500000000E+03 0.  0.
        -13    1    3    3    0    0 -0.21897864493E+01  0.31785400964E+02 -0.42258008975E+02  0.52923126945E+02  0.10566000000E+00 0. -1.
         23    2    1    0    0    0 -0.95166445207E+01  0.25868819380E+02  0.12197349325E+01  0.97409239004E+02  0.93420071457E+02 0.  0.
         13    1    3    3    0    0 -0.73268580713E+01 -0.59165815844E+01  0.43477743907E+02  0.44486112059E+02  0.10566000000E+00 0.  1.
         22    1    1    0    0    0  0.95166445207E+01 -0.25868819380E+02 -0.12197349325E+01  0.27590760996E+02  0.00000000000E+00 0. -1.
</event>
<event>
 5    1  0.1315753E-009  0.9118800E+02  0.7818608E-02  0.1130116E+00
         25   -1    0    0    0    0  0.00000000000E+00  0.00000000000E+00  0.99999998245E-14  0.12500000000E+03  0.12500000000E+03 0.  0.
        -13    1    3    3    0    0 -0.21206299977E+02  0.76439264326E+00 -0.11664730120E+02  0.24215047959E+02  0.10566000000E+00 0.  1.
         23    2    1    0    0    0 -0.34147265077E+01  0.24872764386E+01  0.43033338029E+02  0.81759797836E+02  0.69389836857E+02 0.  0.
         13    1    3    3    0    0  0.17791573470E+02  0.17228837953E+01  0.54698068150E+02  0.57544749877E+02  0.10566000000E+00 0. -1.
         22    1    1    0    0    0  0.34147265077E+01 -0.24872764386E+01 -0.43033338029E+02  0.43240202164E+02  0.00000000000E+00 0. -1.
</event>
<event>
 5    1  0.1315753E-009  0.9118800E+02  0.7818608E-02  0.1130116E+00
         25   -1    0    0    0    0  0.00000000000E+00  0.00000000000E+00  0.99999998245E-14  0.12500000000E+03  0.12500000000E+03 0.  0.
        -13    1    3    3    0    0 -0.30650627608E+02 -0.30128019343E+01  0.19882848671E+02  0.36658925020E+02  0.10566000000E+00 0. -1.
         23    2    1    0    0    0  0.25672109590E+02 -0.78099301539E+01 -0.37086620843E+01  0.97911138926E+02  0.94089238129E+02 0.  0.
         13    1    3    3    0    0  0.56322737198E+02 -0.47971282197E+01 -0.23591510756E+02  0.61252213907E+02  0.10566000000E+00 0.  1.
         22    1    1    0    0    0 -0.25672109590E+02  0.78099301539E+01  0.37086620843E+01  0.27088861074E+02  0.00000000000E+00 0.  1.
</event>
<event>
 5    1  0.1315753E-009  0.9118800E+02  0.7818608E-02  0.1130116E+00
         25   -1    0    0    0    0  0.00000000000E+00  0.00000000000E+00  0.99999998245E-14  0.12500000000E+03  0.12500000000E+03 0.  0.
        -13    1    3    3    0    0 -0.27285352676E+02  0.51442286369E+02  0.99573758190E+01  0.59075881667E+02  0.10566000000E+00 0.  1.
         23    2    1    0    0    0 -0.19410861157E+01  0.25570073020E+02  0.14440686335E+02  0.95569915540E+02  0.90925677808E+02 0.  0.
         13    1    3    3    0    0  0.25344266560E+02 -0.25872213349E+02  0.44833105158E+01  0.36494033872E+02  0.10566000000E+00 0. -1.
         22    1    1    0    0    0  0.19410861157E+01 -0.25570073020E+02 -0.14440686335E+02  0.29430084460E+02  0.00000000000E+00 0.  1.
</event>
<event>
 5    1  0.1315753E-009  0.9118800E+02  0.7818608E-02  0.1130116E+00
         25   -1    0    0    0    0  0.00000000000E+00  0.00000000000E+00  0.99999998245E-14  0.12500000000E+03  0.12500000000E+03 0.  0.
        -13    1    3    3    0    0  0.32575429495E+02 -0.25170835121E+02  0.65880573775E+01  0.41691044740E+02  0.10566000000E+00 0. -1.
         23    2    1    0    0    0 -0.16153766483E+02 -0.50565211366E+01  0.22579319995E+02  0.96780533863E+02  0.92575015344E+02 0.  0.
         13    1    3    3    0    0 -0.48729195978E+02  0.20114313984E+02  0.15991262617E+02  0.55089489123E+02  0.10566000000E+00 0.  1.
         22    1    1    0    0    0  0.16153766483E+02  0.50565211366E+01 -0.22579319995E+02  0.28219466137E+02  0.00000000000E+00 0.  1.
</event>
<event>
 5    1  0.1315753E-009  0.9118800E+02  0.7818608E-02  0.1130116E+00
         25   -1    0    0    0    0  0.00000000000E+00  0.00000000000E+00  0.99999998245E-14  0.12500000000E+03  0.12500000000E+03 0.  0.
        -13    1    3    3    0    0 -0.28478984296E+02  0.15264605169E+02  0.16884615777E+02  0.36457675893E+02  0.10566000000E+00 0. -1.
         23    2    1    0    0    0  0.28451858175E+02  0.27939311991E+01  0.41771018433E+01  0.96107743858E+02  0.91662074843E+02 0.  0.
         13    1    3    3    0    0  0.56930842472E+02 -0.12470673970E+02 -0.12707513934E+02  0.59650067965E+02  0.10566000000E+00 0.  1.
         22    1    1    0    0    0 -0.28451858175E+02 -0.27939311991E+01 -0.41771018433E+01  0.28892256142E+02  0.00000000000E+00 0.  1.
</event>
<event>
 5    1  0.1315753E-009  0.9118800E+02  0.7818608E-02  0.1130116E+00
         25   -1    0    0    0    0  0.00000000000E+00  0.00000000000E+00  0.99999998245E-14  0.12500000000E+03  0.12500000000E+03 0.  0.
        -13    1    3    3    0    0 -0.38408069036E+01  0.32986302602E+02  0.94840051632E+01  0.34537016012E+02  0.10566000000E+00 0. -1.
         23    2    1    0    0    0  0.56128883569E+01 -0.18978474760E+02 -0.21504624546E+02  0.95774396554E+02  0.91206354704E+02 0.  0.
         13    1    3    3    0    0  0.94536952605E+01 -0.51964777362E+02 -0.30988629709E+02  0.61237380542E+02  0.10566000000E+00 0.  1.
         22    1    1    0    0    0 -0.56128883569E+01  0.18978474760E+02  0.21504624546E+02  0.29225603446E+02  0.00000000000E+00 0.  1.
</event>
<event>
 5    1  0.1315753E-009  0.9118800E+02  0.7818608E-02  0.1130116E+00
         25   -1    0    0    0    0  0.00000000000E+00  0.00000000000E+00  0.99999998245E-14  0.12500000000E+03  0.12500000000E+03 0.  0.
        -13    1    3    3    0    0  0.36655338428E+02 -0.41717146213E+02 -0.18571495327E+02  0.58556346591E+02  0.10566000000E+00 0.  1.
         23    2    1    0    0    0  0.65595204023E+01 -0.24558917945E+02 -0.19100349261E+02  0.93203913756E+02  0.87612661408E+02 0.  0.
         13    1    3    3    0    0 -0.30095818026E+02  0.17158228267E+02 -0.52885393334E+00  0.34647567165E+02  0.10566000000E+00 0. -1.
         22    1    1    0    0    0 -0.65595204023E+01  0.24558917945E+02  0.19100349261E+02  0.31796086244E+02  0.00000000000E+00 0.  1.
</event>
<event>
 5    1  0.1315753E-009  0.9118800E+02  0.7818608E-02  0.1130116E+00
         25   -1    0    0    0    0  0.00000000000E+00  0.00000000000E+00  0.99999998245E-14  0.12500000000E+03  0.12500000000E+03 0.  0.
        -13    1    3    3    0    0  0.81389676395E+01  0.23727283191E+02 -0.28964172938E+02  0.38316592227E+02  0.10566000000E+00 0. -1.
         23    2    1    0    0    0  0.59367540837E+01 -0.28565990983E+02 -0.13181855484E+02  0.92984032049E+02  0.87298384934E+02 0.  0.
         13    1    3    3    0    0 -0.22022135558E+01 -0.52293274174E+02  0.15782317454E+02  0.54667439821E+02  0.10566000000E+00 0.  1.
         22    1    1    0    0    0 -0.59367540837E+01  0.28565990983E+02  0.13181855484E+02  0.32015967951E+02  0.00000000000E+00 0.  1.
</event>
<event>
 5    1  0.1315753E-009  0.9118800E+02  0.7818608E-02  0.1130116E+00
         25   -1    0    0    0    0  0.00000000000E+00  0.00000000000E+00  0.99999998245E-14  0.12500000000E+03  0.12500000000E+03 0.  0.
        -13    1    3    3    0    0 -0.15769966162E+01 -0.54247988073E+02 -0.23708626401E+02  0.59223654549E+02  0.10566000000E+00 0. -1.
         23    2    1    0    0    0  0.10747207451E+02 -0.16815050227E+02 -0.33979732713E+00  0.10504094581E+03  0.10312728277E+03 0.  0.
         13    1    3    3    0    0  0.12324204068E+02  0.37432937847E+02  0.23368829073E+02  0.45817291256E+02  0.10566000000E+00 0.  1.
         22    1    1    0    0    0 -0.10747207451E+02  0.16815050227E+02  0.33979732713E+00  0.19959054195E+02  0.00000000000E+00 0. -1.
</event>
<event>
 5    1  0.1315753E-009  0.9118800E+02  0.7818608E-02  0.1130116E+00
         25   -1    0    0    0    0  0.00000000000E+00  0.00000000000E+00  0.99999998245E-14  0.12500000000E+03  0.12500000000E+03 0.  0.
        -13    1    3    3    0    0  0.25902201505E+02  0.19451834764E+02  0.47197982336E+02  0.57244725688E+02  0.10566000000E+00 0.  1.
         23    2    1    0    0    0 -0.32988755683E+01  0.69769955512E+01  0.31311746286E+02  0.92751178278E+02  0.86964329294E+02 0.  0.
         13    1    3    3    0    0 -0.29201077074E+02 -0.12474839213E+02 -0.15886236050E+02  0.35506452590E+02  0.10566000000E+00 0. -1.
         22    1    1    0    0    0  0.32988755683E+01 -0.69769955512E+01 -0.31311746286E+02  0.32248821722E+02  0.00000000000E+00 0.  1.
</event>
<event>
 5    1  0.1315753E-009  0.9118800E+02  0.7818608E-02  0.1130116E+00
         25   -1    0    0    0    0  0.00000000000E+00  0.00000000000E+00  0.99999998245E-14  0.12500000000E+03  0.12500000000E+03 0.  0.
        -13    1    3    3    0    0 -0.49738399906E+02  0.24956539972E+02 -0.79617042538E+01  0.56215097716E+02  0.10566000000E+00 0. -1.
         23    2    1    0    0    0 -0.16822973477E+02  0.18843698072E+02  0.13869154986E+02  0.96182455801E+02  0.91763903308E+02 0.  0.
         13    1    3    3    0    0  0.32915426430E+02 -0.61128418998E+01  0.21830859239E+02  0.39967358085E+02  0.10566000000E+00 0.  1.
         22    1    1    0    0    0  0.16822973477E+02 -0.18843698072E+02 -0.13869154986E+02  0.28817544199E+02  0.00000000000E+00 0. -1.
</event>
<event>
 5    1  0.1315753E-009  0.9118800E+02  0.7818608E-02  0.1130116E+00
         25   -1    0    0    0    0  0.00000000000E+00  0.00000000000E+00  0.99999998245E-14  0.12500000000E+03  0.12500000000E+03 0.  0.
        -13    1    3    3    0    0  0.18158008433E+02  0.29385100294E+02 -0.26761439032E+01  0.34646360556E+02  0.10566000000E+00 0.  1.
         23    2    1    0    0    0 -0.15516177524E+02 -0.19246144593E+02 -0.16353140125E+02  0.95358963604E+02  0.90635207845E+02 0.  0.
         13    1    3    3    0    0 -0.33674185957E+02 -0.48631244887E+02 -0.13676996222E+02  0.60712603048E+02  0.10566000000E+00 0. -1.
         22    1    1    0    0    0  0.15516177524E+02  0.19246144593E+02  0.16353140125E+02  0.29641036396E+02  0.00000000000E+00 0. -1.
</event>
<event>
 5    1  0.1315753E-009  0.9118800E+02  0.7818608E-02  0.1130116E+00
         25   -1    0    0    0    0  0.00000000000E+00  0.00000000000E+00  0.99999998245E-14  0.12500000000E+03  0.12500000000E+03 0.  0.
        -13    1    3    3    0    0 -0.13203713927E+02  0.34787697098E+02 -0.29930103124E+02  0.47752949311E+02  0.10566000000E+00 0. -1.
         23    2    1    0    0    0 -0.20629116291E+02 -0.18570842571E+01 -0.33816875139E+02  0.85344102014E+02  0.75571327258E+02 0.  0.
         13    1    3    3    0    0 -0.74254023643E+01 -0.36644781355E+02 -0.38867720151E+01  0.37591152703E+02  0.10566000000E+00 0.  1.
         22    1    1    0    0    0  0.20629116291E+02  0.18570842571E+01  0.33816875139E+02  0.39655897986E+02  0.00000000000E+00 0. -1.
</event>
<event>
 5    1  0.1315753E-009  0.9118800E+02  0.7818608E-02  0.1130116E+00
         25   -1    0    0    0    0  0.00000000000E+00  0.00000000000E+00  0.99999998245E-14  0.12500000000E+03  0.12500000000E+03 0.  0.
        -13    1    3    3    0    0 -0.57509384158E+01  0.17960642332E+02 -0.37658042763E+02  0.42116473195E+02  0.10566000000E+00 0.  1.
         23    2    1    0    0    0  0.14770097757E+01  0.18706064873E+02  0.18444930634E+02  0.98688141703E+02  0.95115905220E+02 0.  0.
         13    1    3    3    0    0  0.72279481916E+01  0.74542254085E+00  0.56102973397E+02  0.56571668508E+02  0.10566000000E+00 0. -1.
         22    1    1    0    0    0 -0.14770097757E+01 -0.18706064873E+02 -0.18444930634E+02  0.26311858297E+02  0.00000000000E+00 0. -1.
</event>
<event>
 5    1  0.1315753E-009  0.9118800E+02  0.7818608E-02  0.1130116E+00
         25   -1    0    0    0    0  0.00000000000E+00  0.00000000000E+00  0.99999998245E-14  0.12500000000E+03  0.12500000000E+03 0.  0.
        -13    1    3    3    0    0 -0.47748697853E+01 -0.42393970367E+02  0.25409880223E+02  0.49656029663E+02  0.10566000000E+00 0.  1.
         23    2    1    0    0    0 -0.26629842886E+02 -0.42591622952E+01  0.10214321603E+02  0.96162154009E+02  0.91736244213E+02 0.  0.
         13    1    3    3    0    0 -0.21854973100E+02  0.38134808072E+02 -0.15195558619E+02  0.46506124346E+02  0.10566000000E+00 0. -1.
         22    1    1    0    0    0  0.26629842886E+02  0.42591622952E+01 -0.10214321603E+02  0.28837845991E+02  0.00000000000E+00 0.  1.
</event>
<event>
 5    1  0.1315753E-009  0.9118800E+02  0.7818608E-02  0.1130116E+00
         25   -1    0    0    0    0  0.00000000000E+00  0.00000000000E+00  0.99999998245E-14  0.12500000000E+03  0.12500000000E+03 0.  0.
        -13    1    3    3    0    0  0.24765588287E+02 -0.57222685994E+01  0.40887198925E+02  0.48144085007E+02  0.10566000000E+00 0. -1.
         23    2    1    0    0    0  0.15193791660E+02 -0.25211219265E+02 -0.12406425855E+01  0.95538226872E+02  0.90882103397E+02 0.  0.
         13    1    3    3    0    0 -0.95717966270E+01 -0.19488950665E+02 -0.42127841511E+02  0.47394141865E+02  0.10566000000E+00 0.  1.
         22    1    1    0    0    0 -0.15193791660E+02  0.25211219265E+02  0.12406425855E+01  0.29461773128E+02  0.00000000000E+00 0. -1.
</event>
<event>
 5    1  0.1315753E-009  0.9118800E+02  0.7818608E-02  0.1130116E+00
         25   -1    0    0    0    0  0.00000000000E+00  0.00000000000E+00  0.99999998245E-14  0.12500000000E+03  0.12500000000E+03 0.  0.
        -13    1    3    3    0    0  0.30695538274E+02  0.14943082451E+02  0.34742702179E+02  0.48709119288E+02  0.10566000000E+00 0.  1.
         23    2    1    0    0    0 -0.13207312658E+02  0.19550414621E+02  0.14798964405E+02  0.97149305808E+02  0.93071620014E+02 0.  0.
         13    1    3    3    0    0 -0.43902850932E+02  0.46073321696E+01 -0.19943737773E+02  0.48440186520E+02  0.10566000000E+00 0. -1.
         22    1    1    0    0    0  0.13207312658E+02 -0.19550414621E+02 -0.14798964405E+02  0.27850694192E+02  0.00000000000E+00 0.  1.
</event>
<event>
 5    1  0.1315753E-009  0.9118800E+02  0.7818608E-02  0.1130116E+00
         25   -1    0    0    0    0  0.00000000000E+00  0.00000000000E+00  0.99999998245E-14  0.12500000000E+03  0.12500000000E+03 0.  0.
        -13    1    3    3    0    0  0.31698140878E+01  0.31666179046E+02 -0.77781607562E+01  0.32761342548E+02  0.10566000000E+00 0.  1.
         23    2    1    0    0    0 -0.13218701988E+01 -0.24285391336E+02  0.18209707363E+02  0.94617093367E+02  0.89606212630E+02 0.  0.
         13    1    3    3    0    0 -0.44916842865E+01 -0.55951570383E+02  0.25987868120E+02  0.61855750820E+02  0.10566000000E+00 0. -1.
         22    1    1    0    0    0  0.13218701988E+01  0.24285391336E+02 -0.18209707363E+02  0.30382906633E+02  0.00000000000E+00 0. -1.
</event>
<event>
 5    1  0.1315753E-009  0.9118800E+02  0.7818608E-02  0.1130116E+00
         25   -1    0    0    0    0  0.00000000000E+00  0.00000000000E+00  0.99999998245E-14  0.12500000000E+03  0.12500000000E+03 0.  0.
        -13    1    3    3    0    0 -0.47497768760E+02  0.17954142281E+02 -0.30093581657E+02  0.59025622260E+02  0.10566000000E+00 0.  1.
         23    2    1    0    0    0 -0.28107851323E+02  0.77999407813E+01 -0.51075936647E+00  0.95825503306E+02  0.91276370582E+02 0.  0.
         13    1    3    3    0    0  0.19389917437E+02 -0.10154201500E+02  0.29582822290E+02  0.36799881046E+02  0.10566000000E+00 0. -1.
         22    1    1    0    0    0  0.28107851323E+02 -0.77999407813E+01  0.51075936647E+00  0.29174496694E+02  0.00000000000E+00 0.  1.
</event>
<event>
 5    1  0.1315753E-009  0.9118800E+02  0.7818608E-02  0.1130116E+00
         25   -1    0    0    0    0  0.00000000000E+00  0.00000000000E+00  0.99999998245E-14  0.12500000000E+03  0.12500000000E+03 0.  0.
        -13    1    3    3    0    0 -0.29619278983E+02 -0.48996228538E+02 -0.13021004588E+02  0.58715328688E+02  0.10566000000E+00 0. -1.
         23    2    1    0    0    0 -0.23446069277E+01 -0.22731863373E+02 -0.16608706370E+02  0.96749620864E+02  0.92533265456E+02 0.  0.
         13    1    3    3    0    0  0.27274672055E+02  0.26264365164E+02 -0.35877017815E+01  0.38034292176E+02  0.10566000000E+00 0.  1.
         22    1    1    0    0    0  0.23446069277E+01  0.22731863373E+02  0.16608706370E+02  0.28250379136E+02  0.00000000000E+00 0. -1.
</event>
<event>
 5    1  0.1315753E-009  0.9118800E+02  0.7818608E-02  0.1130116E+00
         25   -1    0    0    0    0  0.00000000000E+00  0.00000000000E+00  0.99999998245E-14  0.12500000000E+03  0.12500000000E+03 0.  0.
        -13    1    3    3    0    0 -0.21194838114E+01  0.27769186718E+02  0.23798255264E+02  0.36633155204E+02  0.10566000000E+00 0.  1.
         23    2    1    0    0    0  0.14338801439E+02 -0.18503763644E+02 -0.13202858483E+02  0.98124249446E+02  0.94371936303E+02 0.  0.
         13    1    3    3    0    0  0.16458285251E+02 -0.46272950361E+02 -0.37001113747E+02  0.61491094242E+02  0.10566000000E+00 0. -1.
         22    1    1    0    0    0 -0.14338801439E+02  0.18503763644E+02  0.13202858483E+02  0.26875750554E+02  0.00000000000E+00 0. -1.
</event>
<event>
 5    1  0.1315753E-009  0.9118800E+02  0.7818608E-02  0.1130116E+00
         25   -1    0    0    0    0  0.00000000000E+00  0.00000000000E+00  0.99999998245E-14  0.12500000000E+03  0.12500000000E+03 0.  0.
        -13    1    3    3    0    0 -0.14431525195E+02 -0.12450729853E+02 -0.43554723590E+02  0.47542767108E+02  0.10566000000E+00 0. -1.
         23    2    1    0    0    0  0.14585615571E+01 -0.24890727067E+02  0.45007029437E+01  0.99663622541E+02  0.96389343992E+02 0.  0.
         13    1    3    3    0    0  0.15890086752E+02 -0.12439997215E+02  0.48055426533E+02  0.52120855433E+02  0.10566000000E+00 0.  1.
         22    1    1    0    0    0 -0.14585615571E+01  0.24890727067E+02 -0.45007029437E+01  0.25336377459E+02  0.00000000000E+00 0.  1.
</event>
<event>
 5    1  0.1315753E-009  0.9118800E+02  0.7818608E-02  0.1130116E+00
         25   -1    0    0    0    0  0.00000000000E+00  0.00000000000E+00  0.99999998245E-14  0.12500000000E+03  0.12500000000E+03 0.  0.
        -13    1    3    3    0    0  0.22848995827E+02  0.17450487504E+02  0.28970262976E+02  0.40815235212E+02  0.10566000000E+00 0.  1.
         23    2    1    0    0    0  0.99351628740E+01 -0.27088230825E+02 -0.11715440074E+01  0.96123500455E+02  0.91683559671E+02 0.  0.
         13    1    3    3    0    0 -0.12913832953E+02 -0.44538718330E+02 -0.30141806984E+02  0.55308265244E+02  0.10566000000E+00 0. -1.
         22    1    1    0    0    0 -0.99351628740E+01  0.27088230825E+02  0.11715440074E+01  0.28876499545E+02  0.00000000000E+00 0. -1.
</event>
<event>
 5    1  0.1315753E-009  0.9118800E+02  0.7818608E-02  0.1130116E+00
         25   -1    0    0    0    0  0.00000000000E+00  0.00000000000E+00  0.99999998245E-14  0.12500000000E+03  0.12500000000E+03 0.  0.
        -13    1    3    3    0    0  0.38136054604E+02 -0.20313529438E+02 -0.24069933064E+02  0.49460802467E+02  0.10566000000E+00 0. -1.
         23    2    1    0    0    0  0.28652501520E+02  0.11633472937E+02  0.49890171325E+01  0.93675986402E+02  0.88283614564E+02 0.  0.
         13    1    3    3    0    0 -0.94835530833E+01  0.31947002375E+02  0.29058950196E+02  0.44215183935E+02  0.10566000000E+00 0.  1.
         22    1    1    0    0    0 -0.28652501520E+02 -0.11633472937E+02 -0.49890171325E+01  0.31324013598E+02  0.00000000000E+00 0.  1.
</event>
<event>
 5    1  0.1315753E-009  0.9118800E+02  0.7818608E-02  0.1130116E+00
         25   -1    0    0    0    0  0.00000000000E+00  0.00000000000E+00  0.99999998245E-14  0.12500000000E+03  0.12500000000E+03 0.  0.
        -13    1    3    3    0    0  0.91082498829E+00  0.28123157625E+02 -0.37966930311E+02  0.47257174675E+02  0.10566000000E+00 0.  1.
         23    2    1    0    0    0 -0.11058875311E+02 -0.74546190100E+01 -0.37928847185E+02  0.84794682982E+02  0.74657020738E+02 0.  0.
         13    1    3    3    0    0 -0.11969700299E+02 -0.35577776635E+02  0.38083125687E-01  0.37537508307E+02  0.10566000000E+00 0. -1.
         22    1    1    0    0    0  0.11058875311E+02  0.74546190100E+01  0.37928847185E+02  0.40205317018E+02  0.00000000000E+00 0.  1.
</event>
<event>
 5    1  0.1315753E-009  0.9118800E+02  0.7818608E-02  0.1130116E+00
         25   -1    0    0    0    0  0.00000000000E+00  0.00000000000E+00  0.99999998245E-14  0.12500000000E+03  0.12500000000E+03 0.  0.
        -13    1    3    3    0    0  0.28685709792E+02 -0.31774709654E+01  0.44380864438E+02  0.52939952401E+02  0.10566000000E+00 0. -1.
         23    2    1    0    0    0 -0.58078492413E+01 -0.17104412971E+02  0.22677794940E+02  0.96007338183E+02  0.91525048734E+02 0.  0.
         13    1    3    3    0    0 -0.34493559033E+02 -0.13926942006E+02 -0.21703069498E+02  0.43067385782E+02  0.10566000000E+00 0.  1.
         22    1    1    0    0    0  0.58078492413E+01  0.17104412971E+02 -0.22677794940E+02  0.28992661817E+02  0.00000000000E+00 0. -1.
</event>
<event>
 5    1  0.1315753E-009  0.9118800E+02  0.7818608E-02  0.1130116E+00
         25   -1    0    0    0    0  0.00000000000E+00  0.00000000000E+00  0.99999998245E-14  0.12500000000E+03  0.12500000000E+03 0.  0.
        -13    1    3    3    0    0  0.30413171755E+02  0.37704660591E+02 -0.20541056182E+02  0.52616999150E+02  0.10566000000E+00 0. -1.
         23    2    1    0    0    0  0.29852820051E+02 -0.79099529236E+00 -0.28065941389E+01  0.95005108615E+02  0.90145865982E+02 0.  0.
         13    1    3    3    0    0 -0.56035170352E+00 -0.38495655884E+02  0.17734462043E+02  0.42388109464E+02  0.10566000000E+00 0.  1.
         22    1    1    0    0    0 -0.29852820051E+02  0.79099529236E+00  0.28065941389E+01  0.29994891385E+02  0.00000000000E+00 0.  1.
</event>
<event>
 5    1  0.1315753E-009  0.9118800E+02  0.7818608E-02  0.1130116E+00
         25   -1    0    0    0    0  0.00000000000E+00  0.00000000000E+00  0.99999998245E-14  0.12500000000E+03  0.12500000000E+03 0.  0.
        -13    1    3    3    0    0 -0.30110929649E+02 -0.68382546110E+01 -0.33292192162E+02  0.45407169406E+02  0.10566000000E+00 0.  1.
         23    2    1    0    0    0 -0.25316743777E+02 -0.11249241245E+02  0.14561723329E+02  0.93702608250E+02  0.88321300163E+02 0.  0.
         13    1    3    3    0    0  0.47941858726E+01 -0.44109866345E+01  0.47853915491E+02  0.48295438844E+02  0.10566000000E+00 0. -1.
         22    1    1    0    0    0  0.25316743777E+02  0.11249241245E+02 -0.14561723329E+02  0.31297391750E+02  0.00000000000E+00 0. -1.
</event>
<event>
 5    1  0.1315753E-009  0.9118800E+02  0.7818608E-02  0.1130116E+00
         25   -1    0    0    0    0  0.00000000000E+00  0.00000000000E+00  0.99999998245E-14  0.12500000000E+03  0.12500000000E+03 0.  0.
        -13    1    3    3    0    0 -0.59585367728E+01  0.59925910658E+01  0.33711802877E+02  0.34755030217E+02  0.10566000000E+00 0.  1.
         23    2    1    0    0    0  0.18221086756E+02 -0.63940415320E+01 -0.21385448753E+02  0.96186302076E+02  0.91769142521E+02 0.  0.
         13    1    3    3    0    0  0.24179623528E+02 -0.12386632598E+02 -0.55097251630E+02  0.61431271859E+02  0.10566000000E+00 0. -1.
         22    1    1    0    0    0 -0.18221086756E+02  0.63940415320E+01  0.21385448753E+02  0.28813697924E+02  0.00000000000E+00 0. -1.
</event>
<event>
 5    1  0.1315753E-009  0.9118800E+02  0.7818608E-02  0.1130116E+00
         25   -1    0    0    0    0  0.00000000000E+00  0.00000000000E+00  0.99999998245E-14  0.12500000000E+03  0.12500000000E+03 0.  0.
        -13    1    3    3    0    0  0.72512817594E+01 -0.31111598064E+02  0.27630297768E+02  0.42236916791E+02  0.10566000000E+00 0. -1.
         23    2    1    0    0    0  0.33299300844E+02  0.15598445367E+01  0.12727388315E+01  0.91639897844E+02  0.85352061845E+02 0.  0.
         13    1    3    3    0    0  0.26048019085E+02  0.32671442600E+02 -0.26357558937E+02  0.49402981053E+02  0.10566000000E+00 0.  1.
         22    1    1    0    0    0 -0.33299300844E+02 -0.15598445367E+01 -0.12727388315E+01  0.33360102156E+02  0.00000000000E+00 0. -1.
</event>
<event>
 5    1  0.1315753E-009  0.9118800E+02  0.7818608E-02  0.1130116E+00
         25   -1    0    0    0    0  0.00000000000E+00  0.00000000000E+00  0.99999998245E-14  0.12500000000E+03  0.12500000000E+03 0.  0.
        -13    1    3    3    0    0 -0.17080563803E+02 -0.29083442035E+02  0.21473201389E+02  0.39983769236E+02  0.10566000000E+00 0.  1.
         23    2    1    0    0    0 -0.11248733309E+02  0.25233990491E+02  0.69096355201E+01  0.96521388022E+02  0.92224438223E+02 0.  0.
         13    1    3    3    0    0  0.58318304937E+01  0.54317432526E+02 -0.14563565868E+02  0.56537618786E+02  0.10566000000E+00 0. -1.
         22    1    1    0    0    0  0.11248733309E+02 -0.25233990491E+02 -0.69096355201E+01  0.28478611978E+02  0.00000000000E+00 0. -1.
</event>
<event>
 5    1  0.1315753E-009  0.9118800E+02  0.7818608E-02  0.1130116E+00
         25   -1    0    0    0    0  0.00000000000E+00  0.00000000000E+00  0.99999998245E-14  0.12500000000E+03  0.12500000000E+03 0.  0.
        -13    1    3    3    0    0 -0.31585785666E+02 -0.40747285430E+02  0.16316835172E+01  0.51581747558E+02  0.10566000000E+00 0.  1.
         23    2    1    0    0    0 -0.69996547370E+01 -0.66831283936E+01  0.23961621443E+02  0.99157812133E+02  0.95731149755E+02 0.  0.
         13    1    3    3    0    0  0.24586130929E+02  0.34064157037E+02  0.22329937926E+02  0.47576064575E+02  0.10566000000E+00 0. -1.
         22    1    1    0    0    0  0.69996547370E+01  0.66831283936E+01 -0.23961621443E+02  0.25842187867E+02  0.00000000000E+00 0.  1.
</event>
<event>
 5    1  0.1315753E-009  0.9118800E+02  0.7818608E-02  0.1130116E+00
         25   -1    0    0    0    0  0.00000000000E+00  0.00000000000E+00  0.99999998245E-14  0.12500000000E+03  0.12500000000E+03 0.  0.
        -13    1    3    3    0    0 -0.69737460362E+01  0.38070260749E+02  0.13110313076E+02  0.40864035046E+02  0.10566000000E+00 0.  1.
         23    2    1    0    0    0 -0.26908842422E+02 -0.10875641193E+02 -0.22175323894E+01  0.95891877049E+02  0.91367222034E+02 0.  0.
         13    1    3    3    0    0 -0.19935096386E+02 -0.48945901942E+02 -0.15327845466E+02  0.55027842003E+02  0.10566000000E+00 0. -1.
         22    1    1    0    0    0  0.26908842422E+02  0.10875641193E+02  0.22175323894E+01  0.29108122951E+02  0.00000000000E+00 0. -1.
</event>
<event>
 5    1  0.1315753E-009  0.9118800E+02  0.7818608E-02  0.1130116E+00
         25   -1    0    0    0    0  0.00000000000E+00  0.00000000000E+00  0.99999998245E-14  0.12500000000E+03  0.12500000000E+03 0.  0.
        -13    1    3    3    0    0  0.12559098715E+02  0.11517473170E+02 -0.37692253937E+02  0.41365448379E+02  0.10566000000E+00 0. -1.
         23    2    1    0    0    0 -0.27391361856E+02 -0.55846434608E+01 -0.31702011789E+01  0.96865943726E+02  0.92690268807E+02 0.  0.
         13    1    3    3    0    0 -0.39950460571E+02 -0.17102116631E+02  0.34522052758E+02  0.55500495347E+02  0.10566000000E+00 0.  1.
         22    1    1    0    0    0  0.27391361856E+02  0.55846434608E+01  0.31702011789E+01  0.28134056274E+02  0.00000000000E+00 0.  1.
</event>
<event>
 5    1  0.1315753E-009  0.9118800E+02  0.7818608E-02  0.1130116E+00
         25   -1    0    0    0    0  0.00000000000E+00  0.00000000000E+00  0.99999998245E-14  0.12500000000E+03  0.12500000000E+03 0.  0.
        -13    1    3    3    0    0 -0.69952965808E+01 -0.29899753259E+02  0.20121165378E+02  0.36712421323E+02  0.10566000000E+00 0.  1.
         23    2    1    0    0    0  0.18183365709E+02  0.64655227525E+01 -0.20556089780E+02  0.96804422332E+02  0.92607265282E+02 0.  0.
         13    1    3    3    0    0  0.25178662290E+02  0.36365276012E+02 -0.40677255157E+02  0.60092001009E+02  0.10566000000E+00 0. -1.
         22    1    1    0    0    0 -0.18183365709E+02 -0.64655227525E+01  0.20556089780E+02  0.28195577668E+02  0.00000000000E+00 0. -1.
</event>
<event>
 5    1  0.1315753E-009  0.9118800E+02  0.7818608E-02  0.1130116E+00
         25   -1    0    0    0    0  0.00000000000E+00  0.00000000000E+00  0.99999998245E-14  0.12500000000E+03  0.12500000000E+03 0.  0.
        -13    1    3    3    0    0 -0.38228884337E+01  0.24850822750E+01  0.42129606449E+02  0.42375759739E+02  0.10566000000E+00 0. -1.
         23    2    1    0    0    0 -0.30698041638E+02 -0.83410538442E+01  0.38936390042E+00  0.93186566612E+02  0.87587908144E+02 0.  0.
         13    1    3    3    0    0 -0.26875153205E+02 -0.10826136119E+02 -0.41740242549E+02  0.50810806873E+02  0.10566000000E+00 0.  1.
         22    1    1    0    0    0  0.30698041638E+02  0.83410538442E+01 -0.38936390042E+00  0.31813433388E+02  0.00000000000E+00 0.  1.
</event>
<event>
 5    1  0.1315753E-009  0.9118800E+02  0.7818608E-02  0.1130116E+00
         25   -1    0    0    0    0  0.00000000000E+00  0.00000000000E+00  0.99999998245E-14  0.12500000000E+03  0.12500000000E+03 0.  0.
        -13    1    3    3    0    0  0.33590645148E+02 -0.14739458939E+02  0.25853663042E+02  0.44877679842E+02  0.10566000000E+00 0.  1.
         23    2    1    0    0    0  0.20339512925E+02 -0.15929247382E+02 -0.19812647947E+02  0.92442700866E+02  0.86519796675E+02 0.  0.
         13    1    3    3    0    0 -0.13251132223E+02 -0.11897884437E+01 -0.45666310989E+02  0.47565021025E+02  0.10566000000E+00 0. -1.
         22    1    1    0    0    0 -0.20339512925E+02  0.15929247382E+02  0.19812647947E+02  0.32557299134E+02  0.00000000000E+00 0. -1.
</event>
<event>
 5    1  0.1315753E-009  0.9118800E+02  0.7818608E-02  0.1130116E+00
         25   -1    0    0    0    0  0.00000000000E+00  0.00000000000E+00  0.99999998245E-14  0.12500000000E+03  0.12500000000E+03 0.  0.
        -13    1    3    3    0    0  0.40573543490E+02 -0.37446293331E+02  0.16424904070E+02  0.57604044592E+02  0.10566000000E+00 0.  1.
         23    2    1    0    0    0  0.27160184329E+02 -0.31144747749E+01  0.13307810017E+02  0.94594846269E+02  0.89575172717E+02 0.  0.
         13    1    3    3    0    0 -0.13413359161E+02  0.34331818556E+02 -0.31170940527E+01  0.36990801677E+02  0.10566000000E+00 0. -1.
         22    1    1    0    0    0 -0.27160184329E+02  0.31144747749E+01 -0.13307810017E+02  0.30405153731E+02  0.00000000000E+00 0.  1.
</event>
<event>
 5    1  0.1315753E-009  0.9118800E+02  0.7818608E-02  0.1130116E+00
         25   -1    0    0    0    0  0.00000000000E+00  0.00000000000E+00  0.99999998245E-14  0.12500000000E+03  0.12500000000E+03 0.  0.
        -13    1    3    3    0    0  0.38701139940E+02 -0.21423257359E+02 -0.25648909174E+02  0.51133275804E+02  0.10566000000E+00 0. -1.
         23    2    1    0    0    0  0.36282361155E+00 -0.43020294964E+01 -0.31214524949E+02  0.93488324917E+02  0.88017505244E+02 0.  0.
         13    1    3    3    0    0 -0.38338316328E+02  0.17121227863E+02 -0.55656157741E+01  0.42355049114E+02  0.10566000000E+00 0.  1.
         22    1    1    0    0    0 -0.36282361155E+00  0.43020294964E+01  0.31214524949E+02  0.31511675083E+02  0.00000000000E+00 0. -1.
</event>
<event>
 5    1  0.1315753E-009  0.9118800E+02  0.7818608E-02  0.1130116E+00
         25   -1    0    0    0    0  0.00000000000E+00  0.00000000000E+00  0.99999998245E-14  0.12500000000E+03  0.12500000000E+03 0.  0.
        -13    1    3    3    0    0  0.35699502078E+02 -0.35393983706E+02  0.10908695858E+02  0.51441222192E+02  0.10566000000E+00 0.  1.
         23    2    1    0    0    0 -0.46118620570E+01 -0.31487462549E+02  0.88154466109E+00  0.93164380164E+02  0.87556239303E+02 0.  0.
         13    1    3    3    0    0 -0.40311364135E+02  0.39065211572E+01 -0.10027151197E+02  0.41723157972E+02  0.10566000000E+00 0. -1.
         22    1    1    0    0    0  0.46118620570E+01  0.31487462549E+02 -0.88154466109E+00  0.31835619836E+02  0.00000000000E+00 0.  1.
</event>
<event>
 5    1  0.1315753E-009  0.9118800E+02  0.7818608E-02  0.1130116E+00
         25   -1    0    0    0    0  0.00000000000E+00  0.00000000000E+00  0.99999998245E-14  0.12500000000E+03  0.12500000000E+03 0.  0.
        -13    1    3    3    0    0 -0.58990542393E+01  0.39975932858E+02  0.29321089825E+02  0.49926060543E+02  0.10566000000E+00 0. -1.
         23    2    1    0    0    0  0.22562802660E+02  0.80593311571E+01  0.20222961639E+02  0.93647152282E+02  0.88242779141E+02 0.  0.
         13    1    3    3    0    0  0.28461856899E+02 -0.31916601701E+02 -0.90981281859E+01  0.43721091739E+02  0.10566000000E+00 0.  1.
         22    1    1    0    0    0 -0.22562802660E+02 -0.80593311571E+01 -0.20222961639E+02  0.31352847718E+02  0.00000000000E+00 0. -1.
</event>
<event>
 5    1  0.1315753E-009  0.9118800E+02  0.7818608E-02  0.1130116E+00
         25   -1    0    0    0    0  0.00000000000E+00  0.00000000000E+00  0.99999998245E-14  0.12500000000E+03  0.12500000000E+03 0.  0.
        -13    1    3    3    0    0 -0.57328228323E+02 -0.15528392949E+02  0.12834782816E+02  0.60765117989E+02  0.10566000000E+00 0. -1.
         23    2    1    0    0    0 -0.24155878728E+02 -0.56567216664E+01  0.15935039288E+02  0.95513893878E+02  0.90848629431E+02 0.  0.
         13    1    3    3    0    0  0.33172349595E+02  0.98716712829E+01  0.31002564721E+01  0.34748775889E+02  0.10566000000E+00 0.  1.
         22    1    1    0    0    0  0.24155878728E+02  0.56567216664E+01 -0.15935039288E+02  0.29486106122E+02  0.00000000000E+00 0. -1.
</event>
<event>
 5    1  0.1315753E-009  0.9118800E+02  0.7818608E-02  0.1130116E+00
         25   -1    0    0    0    0  0.00000000000E+00  0.00000000000E+00  0.99999998245E-14  0.12500000000E+03  0.12500000000E+03 0.  0.
        -13    1    3    3    0    0 -0.27732619148E+02  0.44955799501E+02 -0.11134353721E+02  0.53982470029E+02  0.10566000000E+00 0. -1.
         23    2    1    0    0    0 -0.12926960082E+02  0.18968744823E+02  0.18071036867E+02  0.95785586595E+02  0.91221689574E+02 0.  0.
         13    1    3    3    0    0  0.14805659065E+02 -0.25987054678E+02  0.29205390588E+02  0.41803116566E+02  0.10566000000E+00 0.  1.
         22    1    1    0    0    0  0.12926960082E+02 -0.18968744823E+02 -0.18071036867E+02  0.29214413405E+02  0.00000000000E+00 0.  1.
</event>
<event>
 5    1  0.1315753E-009  0.9118800E+02  0.7818608E-02  0.1130116E+00
         25   -1    0    0    0    0  0.00000000000E+00  0.00000000000E+00  0.99999998245E-14  0.12500000000E+03  0.12500000000E+03 0.  0.
        -13    1    3    3    0    0 -0.39224728948E+02 -0.15871036179E+02 -0.30882228965E+02  0.52385039661E+02  0.10566000000E+00 0.  1.
         23    2    1    0    0    0 -0.22913955853E+02  0.17040673556E+02 -0.17661670745E+02  0.91423690769E+02  0.85034832230E+02 0.  0.
         13    1    3    3    0    0  0.16310773095E+02  0.32911709735E+02  0.13220558220E+02  0.39038651108E+02  0.10566000000E+00 0. -1.
         22    1    1    0    0    0  0.22913955853E+02 -0.17040673556E+02  0.17661670745E+02  0.33576309231E+02  0.00000000000E+00 0.  1.
</event>
<event>
 5    1  0.1315753E-009  0.9118800E+02  0.7818608E-02  0.1130116E+00
         25   -1    0    0    0    0  0.00000000000E+00  0.00000000000E+00  0.99999998245E-14  0.12500000000E+03  0.12500000000E+03 0.  0.
        -13    1    3    3    0    0  0.18962209383E+02  0.37698628538E+02  0.66194000604E+01  0.42715098027E+02  0.10566000000E+00 0. -1.
         23    2    1    0    0    0 -0.83711625989E+01  0.18050040722E+02  0.33663717900E+02  0.85895956269E+02  0.76478683744E+02 0.  0.
         13    1    3    3    0    0 -0.27333371982E+02 -0.19648587816E+02  0.27044317839E+02  0.43180858241E+02  0.10566000000E+00 0.  1.
         22    1    1    0    0    0  0.83711625989E+01 -0.18050040722E+02 -0.33663717900E+02  0.39104043731E+02  0.00000000000E+00 0.  1.
</event>
<event>
 5    1  0.1315753E-009  0.9118800E+02  0.7818608E-02  0.1130116E+00
         25   -1    0    0    0    0  0.00000000000E+00  0.00000000000E+00  0.99999998245E-14  0.12500000000E+03  0.12500000000E+03 0.  0.
        -13    1    3    3    0    0  0.17470727249E+02 -0.17911232433E+02 -0.16496491434E+02  0.29969717242E+02  0.10566000000E+00 0. -1.
         23    2    1    0    0    0 -0.24672750301E+02 -0.30948776440E+02  0.13346858105E+02  0.83230274219E+02  0.71990058722E+02 0.  0.
         13    1    3    3    0    0 -0.42143477551E+02 -0.13037544007E+02  0.29843349538E+02  0.53260556977E+02  0.10566000000E+00 0.  1.
         22    1    1    0    0    0  0.24672750301E+02  0.30948776440E+02 -0.13346858105E+02  0.41769725781E+02  0.00000000000E+00 0.  1.
</event>
<event>
 5    1  0.1315753E-009  0.9118800E+02  0.7818608E-02  0.1130116E+00
         25   -1    0    0    0    0  0.00000000000E+00  0.00000000000E+00  0.99999998245E-14  0.12500000000E+03  0.12500000000E+03 0.  0.
        -13    1    3    3    0    0  0.55509999344E+02 -0.10706453333E+00 -0.16619232139E+02  0.57944641951E+02  0.10566000000E+00 0.  1.
         23    2    1    0    0    0  0.19158793152E+02 -0.98499905353E+01 -0.19835777929E+02  0.95716220281E+02  0.91126588163E+02 0.  0.
         13    1    3    3    0    0 -0.36351206192E+02 -0.97429260019E+01 -0.32165457901E+01  0.37771578330E+02  0.10566000000E+00 0. -1.
         22    1    1    0    0    0 -0.19158793152E+02  0.98499905353E+01  0.19835777929E+02  0.29283779719E+02  0.00000000000E+00 0.  1.
</event>
<event>
 5    1  0.1315753E-009  0.9118800E+02  0.7818608E-02  0.1130116E+00
         25   -1    0    0    0    0  0.00000000000E+00  0.00000000000E+00  0.99999998245E-14  0.12500000000E+03  0.12500000000E+03 0.  0.
        -13    1    3    3    0    0 -0.24601485925E+02  0.35686180055E+02  0.31039297381E+02  0.53312153423E+02  0.10566000000E+00 0.  1.
         23    2    1    0    0    0 -0.24544599060E+02  0.24916801630E+01 -0.21285775978E+01  0.10023759592E+03  0.97130834346E+02 0.  0.
         13    1    3    3    0    0  0.56886864216E-01 -0.33194499892E+02 -0.33167874979E+02  0.46925442500E+02  0.10566000000E+00 0. -1.
         22    1    1    0    0    0  0.24544599060E+02 -0.24916801630E+01  0.21285775978E+01  0.24762404077E+02  0.00000000000E+00 0.  1.
</event>
<event>
 5    1  0.1315753E-009  0.9118800E+02  0.7818608E-02  0.1130116E+00
         25   -1    0    0    0    0  0.00000000000E+00  0.00000000000E+00  0.99999998245E-14  0.12500000000E+03  0.12500000000E+03 0.  0.
        -13    1    3    3    0    0 -0.25484569965E+02 -0.31941167201E+02  0.43185456390E+02  0.59453311734E+02  0.10566000000E+00 0.  1.
         23    2    1    0    0    0 -0.86855356738E+01 -0.36419480504E+01  0.27542272229E+02  0.95891941406E+02  0.91367310082E+02 0.  0.
         13    1    3    3    0    0  0.16799034292E+02  0.28299219151E+02 -0.15643184161E+02  0.36438629672E+02  0.10566000000E+00 0. -1.
         22    1    1    0    0    0  0.86855356738E+01  0.36419480504E+01 -0.27542272229E+02  0.29108058594E+02  0.00000000000E+00 0.  1.
</event>
<event>
 5    1  0.1315753E-009  0.9118800E+02  0.7818608E-02  0.1130116E+00
         25   -1    0    0    0    0  0.00000000000E+00  0.00000000000E+00  0.99999998245E-14  0.12500000000E+03  0.12500000000E+03 0.  0.
        -13    1    3    3    0    0  0.31584220224E+02 -0.21543466424E+02  0.11303674669E+02  0.39868134366E+02  0.10566000000E+00 0. -1.
         23    2    1    0    0    0 -0.85107261108E+01 -0.74475660991E+00 -0.25483943345E+02  0.98122156155E+02  0.94369163602E+02 0.  0.
         13    1    3    3    0    0 -0.40094946335E+02  0.20798709814E+02 -0.36787618014E+02  0.58254021790E+02  0.10566000000E+00 0.  1.
         22    1    1    0    0    0  0.85107261108E+01  0.74475660991E+00  0.25483943345E+02  0.26877843845E+02  0.00000000000E+00 0.  1.
</event>
<event>
 5    1  0.1315753E-009  0.9118800E+02  0.7818608E-02  0.1130116E+00
         25   -1    0    0    0    0  0.00000000000E+00  0.00000000000E+00  0.99999998245E-14  0.12500000000E+03  0.12500000000E+03 0.  0.
        -13    1    3    3    0    0 -0.15275141209E+02  0.62639391599E+01  0.34698121469E+02  0.38425742286E+02  0.10566000000E+00 0. -1.
         23    2    1    0    0    0  0.21601784588E+02 -0.18347012671E+02 -0.28376454542E+01  0.96516632870E+02  0.92217992916E+02 0.  0.
         13    1    3    3    0    0  0.36876925797E+02 -0.24610951831E+02 -0.37535766923E+02  0.58090890584E+02  0.10566000000E+00 0.  1.
         22    1    1    0    0    0 -0.21601784588E+02  0.18347012671E+02  0.28376454542E+01  0.28483367130E+02  0.00000000000E+00 0.  1.
</event>
<event>
 5    1  0.1315753E-009  0.9118800E+02  0.7818608E-02  0.1130116E+00
         25   -1    0    0    0    0  0.00000000000E+00  0.00000000000E+00  0.99999998245E-14  0.12500000000E+03  0.12500000000E+03 0.  0.
        -13    1    3    3    0    0  0.15309470389E+02 -0.26883462105E+02  0.10833109610E+02  0.32779076348E+02  0.10566000000E+00 0. -1.
         23    2    1    0    0    0 -0.54057993466E+01  0.30250977576E+02  0.18407875483E+01  0.94214730638E+02  0.89043150548E+02 0.  0.
         13    1    3    3    0    0 -0.20715269735E+02  0.57134439682E+02 -0.89923220615E+01  0.61435654290E+02  0.10566000000E+00 0.  1.
         22    1    1    0    0    0  0.54057993466E+01 -0.30250977576E+02 -0.18407875483E+01  0.30785269362E+02  0.00000000000E+00 0.  1.
</event>
<event>
 5    1  0.1315753E-009  0.9118800E+02  0.7818608E-02  0.1130116E+00
         25   -1    0    0    0    0  0.00000000000E+00  0.00000000000E+00  0.99999998245E-14  0.12500000000E+03  0.12500000000E+03 0.  0.
        -13    1    3    3    0    0 -0.19612464538E+01  0.11396053955E+02 -0.35522001012E+02  0.37356930460E+02  0.10566000000E+00 0.  1.
         23    2    1    0    0    0 -0.99453797497E+01 -0.26581287681E+02  0.78472071779E+01  0.95554217728E+02  0.90904094693E+02 0.  0.
         13    1    3    3    0    0 -0.79841332959E+01 -0.37977341636E+02  0.43369208190E+02  0.58197287268E+02  0.10566000000E+00 0. -1.
         22    1    1    0    0    0  0.99453797497E+01  0.26581287681E+02 -0.78472071779E+01  0.29445782272E+02  0.00000000000E+00 0. -1.
</event>
<event>
 5    1  0.1315753E-009  0.9118800E+02  0.7818608E-02  0.1130116E+00
         25   -1    0    0    0    0  0.00000000000E+00  0.00000000000E+00  0.99999998245E-14  0.12500000000E+03  0.12500000000E+03 0.  0.
        -13    1    3    3    0    0  0.60294487418E+02 -0.55159064124E+01 -0.92251494884E+01  0.61245122122E+02  0.10566000000E+00 0.  1.
         23    2    1    0    0    0  0.31840416908E+02  0.47055745356E+01 -0.14585760348E+00  0.92813421198E+02  0.87053749485E+02 0.  0.
         13    1    3    3    0    0 -0.28454070510E+02  0.10221480948E+02  0.90792918849E+01  0.31568299076E+02  0.10566000000E+00 0. -1.
         22    1    1    0    0    0 -0.31840416908E+02 -0.47055745356E+01  0.14585760348E+00  0.32186578802E+02  0.00000000000E+00 0.  1.
</event>
<event>
 5    1  0.1315753E-009  0.9118800E+02  0.7818608E-02  0.1130116E+00
         25   -1    0    0    0    0  0.00000000000E+00  0.00000000000E+00  0.99999998245E-14  0.12500000000E+03  0.12500000000E+03 0.  0.
        -13    1    3    3    0    0 -0.32416662684E+02  0.37268103196E+02  0.23703400792E+02  0.54786986672E+02  0.10566000000E+00 0. -1.
         23    2    1    0    0    0 -0.21036885066E+01  0.28049337080E+02 -0.36387373210E+01  0.96637503190E+02  0.92381685401E+02 0.  0.
         13    1    3    3    0    0  0.30312974178E+02 -0.92187661159E+01 -0.27342138113E+02  0.41850516518E+02  0.10566000000E+00 0.  1.
         22    1    1    0    0    0  0.21036885066E+01 -0.28049337080E+02  0.36387373210E+01  0.28362496810E+02  0.00000000000E+00 0. -1.
</event>
<event>
 5    1  0.1315753E-009  0.9118800E+02  0.7818608E-02  0.1130116E+00
         25   -1    0    0    0    0  0.00000000000E+00  0.00000000000E+00  0.99999998245E-14  0.12500000000E+03  0.12500000000E+03 0.  0.
        -13    1    3    3    0    0 -0.21534200559E+02  0.45796290580E+02  0.28682314417E+02  0.58169651443E+02  0.10566000000E+00 0.  1.
         23    2    1    0    0    0 -0.26098020761E+02  0.16957894788E+02  0.13562361320E+02  0.91049822860E+02  0.84483464152E+02 0.  0.
         13    1    3    3    0    0 -0.45638202018E+01 -0.28838395793E+02 -0.15119953098E+02  0.32880171417E+02  0.10566000000E+00 0. -1.
         22    1    1    0    0    0  0.26098020761E+02 -0.16957894788E+02 -0.13562361320E+02  0.33950177140E+02  0.00000000000E+00 0.  1.
</event>
<event>
 5    1  0.1315753E-009  0.9118800E+02  0.7818608E-02  0.1130116E+00
         25   -1    0    0    0    0  0.00000000000E+00  0.00000000000E+00  0.99999998245E-14  0.12500000000E+03  0.12500000000E+03 0.  0.
        -13    1    3    3    0    0 -0.18107462205E+02  0.12835425239E+02  0.57583966371E+02  0.61713472400E+02  0.10566000000E+00 0.  1.
         23    2    1    0    0    0 -0.37803571223E+01  0.14774215388E+01  0.29484054926E+02  0.95237887016E+02  0.90468070357E+02 0.  0.
         13    1    3    3    0    0  0.14327105083E+02 -0.11358003701E+02 -0.28099911445E+02  0.33524414616E+02  0.10566000000E+00 0. -1.
         22    1    1    0    0    0  0.37803571223E+01 -0.14774215388E+01 -0.29484054926E+02  0.29762112984E+02  0.00000000000E+00 0.  1.
</event>
<event>
 5    1  0.1315753E-009  0.9118800E+02  0.7818608E-02  0.1130116E+00
         25   -1    0    0    0    0  0.00000000000E+00  0.00000000000E+00  0.99999998245E-14  0.12500000000E+03  0.12500000000E+03 0.  0.
        -13    1    3    3    0    0  0.27487755655E+02 -0.29228784967E+02  0.43365134372E+02  0.59079984976E+02  0.10566000000E+00 0. -1.
         23    2    1    0    0    0  0.22074540992E+02 -0.16202715169E+02  0.90843411386E+01  0.96149721097E+02  0.91719301536E+02 0.  0.
         13    1    3    3    0    0 -0.54132146626E+01  0.13026069798E+02 -0.34280793233E+02  0.37069736121E+02  0.10566000000E+00 0.  1.
         22    1    1    0    0    0 -0.22074540992E+02  0.16202715169E+02 -0.90843411386E+01  0.28850278903E+02  0.00000000000E+00 0. -1.
</event>
<event>
 5    1  0.1315753E-009  0.9118800E+02  0.7818608E-02  0.1130116E+00
         25   -1    0    0    0    0  0.00000000000E+00  0.00000000000E+00  0.99999998245E-14  0.12500000000E+03  0.12500000000E+03 0.  0.
        -13    1    3    3    0    0  0.17700280098E+02 -0.43378240588E+02  0.25374337594E+02  0.53280764301E+02  0.10566000000E+00 0.  1.
         23    2    1    0    0    0  0.81759344750E+01 -0.23539609592E+02 -0.12528245362E+02  0.97108853446E+02  0.93017274532E+02 0.  0.
         13    1    3    3    0    0 -0.95243456231E+01  0.19838630996E+02 -0.37902582956E+02  0.43828089145E+02  0.10566000000E+00 0. -1.
         22    1    1    0    0    0 -0.81759344750E+01  0.23539609592E+02  0.12528245362E+02  0.27891146554E+02  0.00000000000E+00 0.  1.
</event>
<event>
 5    1  0.1315753E-009  0.9118800E+02  0.7818608E-02  0.1130116E+00
         25   -1    0    0    0    0  0.00000000000E+00  0.00000000000E+00  0.99999998245E-14  0.12500000000E+03  0.12500000000E+03 0.  0.
        -13    1    3    3    0    0  0.94008166053E+01 -0.39362556779E+02  0.20630552535E+01  0.40522260426E+02  0.10566000000E+00 0.  1.
         23    2    1    0    0    0  0.97911286828E+01  0.81096412135E+01 -0.26275042164E+02  0.95810784145E+02  0.91256210946E+02 0.  0.
         13    1    3    3    0    0  0.39031207746E+00  0.47472197992E+02 -0.28338097418E+02  0.55288523719E+02  0.10566000000E+00 0. -1.
         22    1    1    0    0    0 -0.97911286828E+01 -0.81096412135E+01  0.26275042164E+02  0.29189215855E+02  0.00000000000E+00 0. -1.
</event>
<event>
 5    1  0.1315753E-009  0.9118800E+02  0.7818608E-02  0.1130116E+00
         25   -1    0    0    0    0  0.00000000000E+00  0.00000000000E+00  0.99999998245E-14  0.12500000000E+03  0.12500000000E+03 0.  0.
        -13    1    3    3    0    0 -0.33198218816E+02  0.46408256391E+02  0.17007895282E+02  0.59540974629E+02  0.10566000000E+00 0. -1.
         23    2    1    0    0    0 -0.16343369472E+02  0.22050520704E+02 -0.58263932467E+01  0.96941524502E+02  0.92792139352E+02 0.  0.
         13    1    3    3    0    0  0.16854849344E+02 -0.24357735687E+02 -0.22834288528E+02  0.37400549873E+02  0.10566000000E+00 0.  1.
         22    1    1    0    0    0  0.16343369472E+02 -0.22050520704E+02  0.58263932467E+01  0.28058475498E+02  0.00000000000E+00 0. -1.
</event>
<event>
 5    1  0.1315753E-009  0.9118800E+02  0.7818608E-02  0.1130116E+00
         25   -1    0    0    0    0  0.00000000000E+00  0.00000000000E+00  0.99999998245E-14  0.12500000000E+03  0.12500000000E+03 0.  0.
        -13    1    3    3    0    0  0.18605961999E+02  0.38137641430E+02 -0.81110278261E+01  0.43202563028E+02  0.10566000000E+00 0.  1.
         23    2    1    0    0    0  0.16887285202E+02 -0.56454272078E+01  0.22244146930E+02  0.96506960105E+02  0.92204880707E+02 0.  0.
         13    1    3    3    0    0 -0.17186767977E+01 -0.43783068638E+02  0.30355174756E+02  0.53304397077E+02  0.10566000000E+00 0. -1.
         22    1    1    0    0    0 -0.16887285202E+02  0.56454272078E+01 -0.22244146930E+02  0.28493039895E+02  0.00000000000E+00 0. -1.
</event>
<event>
 5    1  0.1315753E-009  0.9118800E+02  0.7818608E-02  0.1130116E+00
         25   -1    0    0    0    0  0.00000000000E+00  0.00000000000E+00  0.99999998245E-14  0.12500000000E+03  0.12500000000E+03 0.  0.
        -13    1    3    3    0    0 -0.31607134078E+02 -0.25534655362E+02  0.36219785766E+00  0.40634614559E+02  0.10566000000E+00 0.  1.
         23    2    1    0    0    0  0.62756636688E+01  0.75666317335E+00 -0.29011487056E+02  0.95307865102E+02  0.90564707670E+02 0.  0.
         13    1    3    3    0    0  0.37882797747E+02  0.26291318536E+02 -0.29373684913E+02  0.54673250542E+02  0.10566000000E+00 0. -1.
         22    1    1    0    0    0 -0.62756636688E+01 -0.75666317335E+00  0.29011487056E+02  0.29692134898E+02  0.00000000000E+00 0. -1.
</event>
<event>
 5    1  0.1315753E-009  0.9118800E+02  0.7818608E-02  0.1130116E+00
         25   -1    0    0    0    0  0.00000000000E+00  0.00000000000E+00  0.99999998245E-14  0.12500000000E+03  0.12500000000E+03 0.  0.
        -13    1    3    3    0    0  0.17237716984E+02  0.15821966893E+02  0.51392372527E+02  0.56468226829E+02  0.10566000000E+00 0.  1.
         23    2    1    0    0    0  0.18752465621E+02  0.18666958392E+02  0.12078893105E+02  0.95913749621E+02  0.91397141122E+02 0.  0.
         13    1    3    3    0    0  0.15147486371E+01  0.28449914988E+01 -0.39313479422E+02  0.39445522792E+02  0.10566000000E+00 0. -1.
         22    1    1    0    0    0 -0.18752465621E+02 -0.18666958392E+02 -0.12078893105E+02  0.29086250379E+02  0.00000000000E+00 0.  1.
</event>
<event>
 5    1  0.1315753E-009  0.9118800E+02  0.7818608E-02  0.1130116E+00
         25   -1    0    0    0    0  0.00000000000E+00  0.00000000000E+00  0.99999998245E-14  0.12500000000E+03  0.12500000000E+03 0.  0.
        -13    1    3    3    0    0 -0.10642524347E+02 -0.41705731944E+02  0.12599072580E+02  0.44848402372E+02  0.10566000000E+00 0. -1.
         23    2    1    0    0    0 -0.53863895796E+01  0.13707545618E+02  0.19091495801E+02  0.10088786174E+03  0.97964102787E+02 0.  0.
         13    1    3    3    0    0  0.52561347676E+01  0.55413277562E+02  0.64924232204E+01  0.56039459367E+02  0.10566000000E+00 0.  1.
         22    1    1    0    0    0  0.53863895796E+01 -0.13707545618E+02 -0.19091495801E+02  0.24112138261E+02  0.00000000000E+00 0.  1.
</event>
<event>
 5    1  0.1315753E-009  0.9118800E+02  0.7818608E-02  0.1130116E+00
         25   -1    0    0    0    0  0.00000000000E+00  0.00000000000E+00  0.99999998245E-14  0.12500000000E+03  0.12500000000E+03 0.  0.
        -13    1    3    3    0    0 -0.12267282131E+02  0.26889211831E+02 -0.33030803428E+02  0.44323369264E+02  0.10566000000E+00 0.  1.
         23    2    1    0    0    0  0.18656716419E+02  0.23343215289E+02  0.62791346018E+01  0.94464671299E+02  0.89393332104E+02 0.  0.
         13    1    3    3    0    0  0.30923998550E+02 -0.35459965422E+01  0.39309938030E+02  0.50141302035E+02  0.10566000000E+00 0. -1.
         22    1    1    0    0    0 -0.18656716419E+02 -0.23343215289E+02 -0.62791346018E+01  0.30535328701E+02  0.00000000000E+00 0. -1.
</event>
<event>
 5    1  0.1315753E-009  0.9118800E+02  0.7818608E-02  0.1130116E+00
         25   -1    0    0    0    0  0.00000000000E+00  0.00000000000E+00  0.99999998245E-14  0.12500000000E+03  0.12500000000E+03 0.  0.
        -13    1    3    3    0    0  0.10653939866E+02 -0.36397101954E+02 -0.59256208978E+01  0.38384627293E+02  0.10566000000E+00 0. -1.
         23    2    1    0    0    0 -0.21926190782E+02  0.13435394323E+02 -0.83252606417E+01  0.97970800464E+02  0.94168466675E+02 0.  0.
         13    1    3    3    0    0 -0.32580130647E+02  0.49832496278E+02 -0.23996397439E+01  0.59586173171E+02  0.10566000000E+00 0.  1.
         22    1    1    0    0    0  0.21926190782E+02 -0.13435394323E+02  0.83252606417E+01  0.27029199536E+02  0.00000000000E+00 0.  1.
</event>
<event>
 5    1  0.1315753E-009  0.9118800E+02  0.7818608E-02  0.1130116E+00
         25   -1    0    0    0    0  0.00000000000E+00  0.00000000000E+00  0.99999998245E-14  0.12500000000E+03  0.12500000000E+03 0.  0.
        -13    1    3    3    0    0 -0.29767065334E+02 -0.39268033811E+01  0.99111856701E+01  0.31618676899E+02  0.10566000000E+00 0.  1.
         23    2    1    0    0    0  0.25683245879E+02  0.78392626996E+01  0.22826168823E+02  0.89756317705E+02  0.82547437430E+02 0.  0.
         13    1    3    3    0    0  0.55450311213E+02  0.11766066081E+02  0.12914983153E+02  0.58137640806E+02  0.10566000000E+00 0. -1.
         22    1    1    0    0    0 -0.25683245879E+02 -0.78392626996E+01 -0.22826168823E+02  0.35243682295E+02  0.00000000000E+00 0. -1.
</event>
<event>
 5    1  0.1315753E-009  0.9118800E+02  0.7818608E-02  0.1130116E+00
         25   -1    0    0    0    0  0.00000000000E+00  0.00000000000E+00  0.99999998245E-14  0.12500000000E+03  0.12500000000E+03 0.  0.
        -13    1    3    3    0    0  0.26974349823E+02 -0.28978141623E+02 -0.46455419196E+02  0.61036590476E+02  0.10566000000E+00 0.  1.
         23    2    1    0    0    0  0.70088447716E+01 -0.18866260843E+02 -0.13909075107E+02  0.10053528922E+03  0.97513190415E+02 0.  0.
         13    1    3    3    0    0 -0.19965505051E+02  0.10111880780E+02  0.32546344089E+02  0.39498698743E+02  0.10566000000E+00 0. -1.
         22    1    1    0    0    0 -0.70088447716E+01  0.18866260843E+02  0.13909075107E+02  0.24464710780E+02  0.00000000000E+00 0.  1.
</event>
<event>
 5    1  0.1315753E-009  0.9118800E+02  0.7818608E-02  0.1130116E+00
         25   -1    0    0    0    0  0.00000000000E+00  0.00000000000E+00  0.99999998245E-14  0.12500000000E+03  0.12500000000E+03 0.  0.
        -13    1    3    3    0    0  0.20488443061E+02  0.27336088510E+02 -0.13217212391E+02  0.36629822570E+02  0.10566000000E+00 0. -1.
         23    2    1    0    0    0 -0.18103701649E+02 -0.17099075314E+02 -0.15743517146E+02  0.95538487444E+02  0.90882461790E+02 0.  0.
         13    1    3    3    0    0 -0.38592144710E+02 -0.44435163824E+02 -0.25263047545E+01  0.58908664873E+02  0.10566000000E+00 0.  1.
         22    1    1    0    0    0  0.18103701649E+02  0.17099075314E+02  0.15743517146E+02  0.29461512556E+02  0.00000000000E+00 0.  1.
</event>
<event>
 5    1  0.1315753E-009  0.9118800E+02  0.7818608E-02  0.1130116E+00
         25   -1    0    0    0    0  0.00000000000E+00  0.00000000000E+00  0.99999998245E-14  0.12500000000E+03  0.12500000000E+03 0.  0.
        -13    1    3    3    0    0 -0.55379399370E+02 -0.25495380123E+02 -0.59742723577E+01  0.61258431064E+02  0.10566000000E+00 0. -1.
         23    2    1    0    0    0 -0.28656013342E+02 -0.42828453241E+01 -0.61597856003E+01  0.95378169818E+02  0.90661692320E+02 0.  0.
         13    1    3    3    0    0  0.26723386028E+02  0.21212534799E+02 -0.18551324266E+00  0.34119738754E+02  0.10566000000E+00 0.  1.
         22    1    1    0    0    0  0.28656013342E+02  0.42828453241E+01  0.61597856003E+01  0.29621830182E+02  0.00000000000E+00 0. -1.
</event>
<event>
 5    1  0.1315753E-009  0.9118800E+02  0.7818608E-02  0.1130116E+00
         25   -1    0    0    0    0  0.00000000000E+00  0.00000000000E+00  0.99999998245E-14  0.12500000000E+03  0.12500000000E+03 0.  0.
        -13    1    3    3    0    0  0.24021563765E+02  0.46138196557E+02 -0.17685712417E+02  0.54941462440E+02  0.10566000000E+00 0. -1.
         23    2    1    0    0    0  0.12784057663E+02  0.75435259158E+01 -0.25121343346E+02  0.95820918365E+02  0.91270091438E+02 0.  0.
         13    1    3    3    0    0 -0.11237506102E+02 -0.38594670642E+02 -0.74356309289E+01  0.40879455925E+02  0.10566000000E+00 0.  1.
         22    1    1    0    0    0 -0.12784057663E+02 -0.75435259158E+01  0.25121343346E+02  0.29179081635E+02  0.00000000000E+00 0. -1.
</event>
<event>
 5    1  0.1315753E-009  0.9118800E+02  0.7818608E-02  0.1130116E+00
         25   -1    0    0    0    0  0.00000000000E+00  0.00000000000E+00  0.99999998245E-14  0.12500000000E+03  0.12500000000E+03 0.  0.
        -13    1    3    3    0    0 -0.26302317263E+02  0.79208514954E+01  0.58917003230E+01  0.28094039911E+02  0.10566000000E+00 0. -1.
         23    2    1    0    0    0  0.27957853861E+02  0.22439402806E+02 -0.12242647720E+02  0.87117935458E+02  0.78450518574E+02 0.  0.
         13    1    3    3    0    0  0.54260171123E+02  0.14518551311E+02 -0.18134348043E+02  0.59023895547E+02  0.10566000000E+00 0.  1.
         22    1    1    0    0    0 -0.27957853861E+02 -0.22439402806E+02  0.12242647720E+02  0.37882064542E+02  0.00000000000E+00 0.  1.
</event>
<event>
 5    1  0.1315753E-009  0.9118800E+02  0.7818608E-02  0.1130116E+00
         25   -1    0    0    0    0  0.00000000000E+00  0.00000000000E+00  0.99999998245E-14  0.12500000000E+03  0.12500000000E+03 0.  0.
        -13    1    3    3    0    0 -0.10618116277E+01 -0.28843076685E+02  0.22163923236E+02  0.36390949065E+02  0.10566000000E+00 0. -1.
         23    2    1    0    0    0  0.22046218045E+02  0.19257928902E+02 -0.33419371523E+01  0.95536936690E+02  0.90880328853E+02 0.  0.
         13    1    3    3    0    0  0.23108029673E+02  0.48101005587E+02 -0.25505860389E+02  0.59145987625E+02  0.10566000000E+00 0.  1.
         22    1    1    0    0    0 -0.22046218045E+02 -0.19257928902E+02  0.33419371523E+01  0.29463063310E+02  0.00000000000E+00 0.  1.
</event>
<event>
 5    1  0.1315753E-009  0.9118800E+02  0.7818608E-02  0.1130116E+00
         25   -1    0    0    0    0  0.00000000000E+00  0.00000000000E+00  0.99999998245E-14  0.12500000000E+03  0.12500000000E+03 0.  0.
        -13    1    3    3    0    0  0.28276752916E+02  0.41810800691E+02  0.17430917553E+02  0.53400054875E+02  0.10566000000E+00 0.  1.
         23    2    1    0    0    0 -0.29791530366E+00  0.13225375526E+02  0.26997904782E+02  0.94935300202E+02  0.90049014711E+02 0.  0.
         13    1    3    3    0    0 -0.28574668219E+02 -0.28585425165E+02  0.95669872294E+01  0.41535245327E+02  0.10566000000E+00 0. -1.
         22    1    1    0    0    0  0.29791530366E+00 -0.13225375526E+02 -0.26997904782E+02  0.30064699798E+02  0.00000000000E+00 0.  1.
</event>
<event>
 5    1  0.1315753E-009  0.9118800E+02  0.7818608E-02  0.1130116E+00
         25   -1    0    0    0    0  0.00000000000E+00  0.00000000000E+00  0.99999998245E-14  0.12500000000E+03  0.12500000000E+03 0.  0.
        -13    1    3    3    0    0 -0.12973871605E+02  0.18392411434E+02 -0.14045633608E+02  0.26530984344E+02  0.10566000000E+00 0.  1.
         23    2    1    0    0    0  0.75533445661E+01 -0.36072470134E+02  0.50782161454E+01  0.87796984062E+02  0.79525128201E+02 0.  0.
         13    1    3    3    0    0  0.20527216171E+02 -0.54464881568E+02  0.19123849753E+02  0.61265999717E+02  0.10566000000E+00 0. -1.
         22    1    1    0    0    0 -0.75533445661E+01  0.36072470134E+02 -0.50782161454E+01  0.37203015938E+02  0.00000000000E+00 0. -1.
</event>
<event>
 5    1  0.1315753E-009  0.9118800E+02  0.7818608E-02  0.1130116E+00
         25   -1    0    0    0    0  0.00000000000E+00  0.00000000000E+00  0.99999998245E-14  0.12500000000E+03  0.12500000000E+03 0.  0.
        -13    1    3    3    0    0  0.29109291802E+02 -0.24862214430E+01 -0.31527449974E+02  0.42982827178E+02  0.10566000000E+00 0.  1.
         23    2    1    0    0    0 -0.19279647692E+02  0.72011186376E+01 -0.24775050829E+02  0.92791863321E+02  0.87022789143E+02 0.  0.
         13    1    3    3    0    0 -0.48388939494E+02  0.96873400806E+01  0.67523991455E+01  0.49809036143E+02  0.10566000000E+00 0. -1.
         22    1    1    0    0    0  0.19279647692E+02 -0.72011186376E+01  0.24775050829E+02  0.32208136679E+02  0.00000000000E+00 0. -1.
</event>
<event>
 5    1  0.1315753E-009  0.9118800E+02  0.7818608E-02  0.1130116E+00
         25   -1    0    0    0    0  0.00000000000E+00  0.00000000000E+00  0.99999998245E-14  0.12500000000E+03  0.12500000000E+03 0.  0.
        -13    1    3    3    0    0  0.25590037950E+02 -0.28776244995E+02  0.12155394392E+02  0.40381766865E+02  0.10566000000E+00 0. -1.
         23    2    1    0    0    0 -0.15406840941E+02 -0.10135715042E+02 -0.21551840599E+02  0.96634787144E+02  0.92378010295E+02 0.  0.
         13    1    3    3    0    0 -0.40996878891E+02  0.18640529952E+02 -0.33707234991E+02  0.56253020279E+02  0.10566000000E+00 0.  1.
         22    1    1    0    0    0  0.15406840941E+02  0.10135715042E+02  0.21551840599E+02  0.28365212856E+02  0.00000000000E+00 0.  1.
</event>
<event>
 5    1  0.1315753E-009  0.9118800E+02  0.7818608E-02  0.1130116E+00
         25   -1    0    0    0    0  0.00000000000E+00  0.00000000000E+00  0.99999998245E-14  0.12500000000E+03  0.12500000000E+03 0.  0.
        -13    1    3    3    0    0 -0.30150644388E+02  0.11577634555E+02 -0.26171612003E+02  0.41570030284E+02  0.10566000000E+00 0.  1.
         23    2    1    0    0    0  0.50740701181E+01  0.25687443226E+02  0.12705852533E+02  0.95896226780E+02  0.91373172731E+02 0.  0.
         13    1    3    3    0    0  0.35224714507E+02  0.14109808671E+02  0.38877464537E+02  0.54326196495E+02  0.10566000000E+00 0. -1.
         22    1    1    0    0    0 -0.50740701181E+01 -0.25687443226E+02 -0.12705852533E+02  0.29103773220E+02  0.00000000000E+00 0. -1.
</event>
<event>
 5    1  0.1315753E-009  0.9118800E+02  0.7818608E-02  0.1130116E+00
         25   -1    0    0    0    0  0.00000000000E+00  0.00000000000E+00  0.99999998245E-14  0.12500000000E+03  0.12500000000E+03 0.  0.
        -13    1    3    3    0    0  0.34579150782E+01  0.43709478014E+02  0.31063728722E+02  0.53734923942E+02  0.10566000000E+00 0.  1.
         23    2    1    0    0    0 -0.60621134286E+00  0.34313123873E+01  0.30581513082E+02  0.94220618276E+02  0.89051415312E+02 0.  0.
         13    1    3    3    0    0 -0.40641264211E+01 -0.40278165626E+02 -0.48221563937E+00  0.40485694335E+02  0.10566000000E+00 0. -1.
         22    1    1    0    0    0  0.60621134286E+00 -0.34313123873E+01 -0.30581513082E+02  0.30779381724E+02  0.00000000000E+00 0.  1.
</event>
<event>
 5    1  0.1315753E-009  0.9118800E+02  0.7818608E-02  0.1130116E+00
         25   -1    0    0    0    0  0.00000000000E+00  0.00000000000E+00  0.99999998245E-14  0.12500000000E+03  0.12500000000E+03 0.  0.
        -13    1    3    3    0    0 -0.15090795723E+01 -0.15695354596E+02  0.39396994946E+01  0.16252811240E+02  0.10566000000E+00 0.  1.
         23    2    1    0    0    0 -0.75203809620E+01  0.44293125455E+02  0.15174160018E+02  0.77579622264E+02  0.61399556725E+02 0.  0.
         13    1    3    3    0    0 -0.60113013897E+01  0.59988480051E+02  0.11234460523E+02  0.61326811025E+02  0.10566000000E+00 0. -1.
         22    1    1    0    0    0  0.75203809620E+01 -0.44293125455E+02 -0.15174160018E+02  0.47420377736E+02  0.00000000000E+00 0. -1.
</event>
<event>
 5    1  0.1315753E-009  0.9118800E+02  0.7818608E-02  0.1130116E+00
         25   -1    0    0    0    0  0.00000000000E+00  0.00000000000E+00  0.99999998245E-14  0.12500000000E+03  0.12500000000E+03 0.  0.
        -13    1    3    3    0    0  0.33880390631E+02  0.24294795109E+02  0.26197750970E+01  0.41773105275E+02  0.10566000000E+00 0.  1.
         23    2    1    0    0    0 -0.18813053802E+01 -0.76693614241E+01  0.27908275381E+02  0.95996030455E+02  0.91509603943E+02 0.  0.
         13    1    3    3    0    0 -0.35761696011E+02 -0.31964156534E+02  0.25288500284E+02  0.54222925181E+02  0.10566000000E+00 0. -1.
         22    1    1    0    0    0  0.18813053802E+01  0.76693614241E+01 -0.27908275381E+02  0.29003969545E+02  0.00000000000E+00 0. -1.
</event>
<event>
 5    1  0.1315753E-009  0.9118800E+02  0.7818608E-02  0.1130116E+00
         25   -1    0    0    0    0  0.00000000000E+00  0.00000000000E+00  0.99999998245E-14  0.12500000000E+03  0.12500000000E+03 0.  0.
        -13    1    3    3    0    0  0.42214673268E+02 -0.12487099243E+02  0.24737578253E+02  0.50497180401E+02  0.10566000000E+00 0.  1.
         23    2    1    0    0    0  0.46541918461E+00 -0.25834365163E+02  0.13949866114E+02  0.95636250189E+02  0.91016825627E+02 0.  0.
         13    1    3    3    0    0 -0.41749254083E+02 -0.13347265919E+02 -0.10787712139E+02  0.45139069787E+02  0.10566000000E+00 0. -1.
         22    1    1    0    0    0 -0.46541918461E+00  0.25834365163E+02 -0.13949866114E+02  0.29363749811E+02  0.00000000000E+00 0.  1.
</event>
<event>
 5    1  0.1315753E-009  0.9118800E+02  0.7818608E-02  0.1130116E+00
         25   -1    0    0    0    0  0.00000000000E+00  0.00000000000E+00  0.99999998245E-14  0.12500000000E+03  0.12500000000E+03 0.  0.
        -13    1    3    3    0    0 -0.31797867124E+02  0.96890334645E+01 -0.20920659383E+02  0.39276798191E+02  0.10566000000E+00 0.  1.
         23    2    1    0    0    0  0.58318931096E+01 -0.28115258182E+02 -0.83264098674E+00  0.96274192598E+02  0.91888781413E+02 0.  0.
         13    1    3    3    0    0  0.37629760233E+02 -0.37804291646E+02  0.20088018396E+02  0.56997394407E+02  0.10566000000E+00 0. -1.
         22    1    1    0    0    0 -0.58318931096E+01  0.28115258182E+02  0.83264098674E+00  0.28725807402E+02  0.00000000000E+00 0. -1.
</event>
<event>
 5    1  0.1315753E-009  0.9118800E+02  0.7818608E-02  0.1130116E+00
         25   -1    0    0    0    0  0.00000000000E+00  0.00000000000E+00  0.99999998245E-14  0.12500000000E+03  0.12500000000E+03 0.  0.
        -13    1    3    3    0    0 -0.32462001784E+02 -0.26213887408E+02  0.27396625452E+02  0.49915285265E+02  0.10566000000E+00 0.  1.
         23    2    1    0    0    0 -0.24514358493E+02  0.14303149116E+02  0.81430715017E+01  0.95473004548E+02  0.90792351754E+02 0.  0.
         13    1    3    3    0    0  0.79476432904E+01  0.40517036524E+02 -0.19253553950E+02  0.45557719283E+02  0.10566000000E+00 0. -1.
         22    1    1    0    0    0  0.24514358493E+02 -0.14303149116E+02 -0.81430715017E+01  0.29526995452E+02  0.00000000000E+00 0.  1.
</event>
<event>
 5    1  0.1315753E-009  0.9118800E+02  0.7818608E-02  0.1130116E+00
         25   -1    0    0    0    0  0.00000000000E+00  0.00000000000E+00  0.99999998245E-14  0.12500000000E+03  0.12500000000E+03 0.  0.
        -13    1    3    3    0    0 -0.41569594894E+02  0.14425563265E+00 -0.43432181493E+02  0.60120026469E+02  0.10566000000E+00 0.  1.
         23    2    1    0    0    0 -0.10048946772E+02  0.58183266382E+01 -0.25862902140E+02  0.96649974194E+02  0.92398558152E+02 0.  0.
         13    1    3    3    0    0  0.31520648122E+02  0.56740710056E+01  0.17569279353E+02  0.36529947726E+02  0.10566000000E+00 0. -1.
         22    1    1    0    0    0  0.10048946772E+02 -0.58183266382E+01  0.25862902140E+02  0.28350025806E+02  0.00000000000E+00 0.  1.
</event>
<event>
 5    1  0.1315753E-009  0.9118800E+02  0.7818608E-02  0.1130116E+00
         25   -1    0    0    0    0  0.00000000000E+00  0.00000000000E+00  0.99999998245E-14  0.12500000000E+03  0.12500000000E+03 0.  0.
        -13    1    3    3    0    0 -0.31060086284E+02  0.67116881989E+01 -0.53719637251E+02  0.62414632169E+02  0.10566000000E+00 0.  1.
         23    2    1    0    0    0 -0.14720679871E+02  0.54050269991E+01 -0.24751246143E+02  0.95699199356E+02  0.91103237259E+02 0.  0.
         13    1    3    3    0    0  0.16339406413E+02 -0.13066611998E+01  0.28968391108E+02  0.33284567187E+02  0.10566000000E+00 0. -1.
         22    1    1    0    0    0  0.14720679871E+02 -0.54050269991E+01  0.24751246143E+02  0.29300800644E+02  0.00000000000E+00 0.  1.
</event>
<event>
 5    1  0.1315753E-009  0.9118800E+02  0.7818608E-02  0.1130116E+00
         25   -1    0    0    0    0  0.00000000000E+00  0.00000000000E+00  0.99999998245E-14  0.12500000000E+03  0.12500000000E+03 0.  0.
        -13    1    3    3    0    0  0.25867485126E+02  0.20127126238E+02 -0.12794261435E+02  0.35184261922E+02  0.10566000000E+00 0.  1.
         23    2    1    0    0    0 -0.40439052996E+01 -0.26174611816E+02  0.12356776814E+02  0.95774096986E+02  0.91205944140E+02 0.  0.
         13    1    3    3    0    0 -0.29911390425E+02 -0.46301738054E+02  0.25151038249E+02  0.60589835063E+02  0.10566000000E+00 0. -1.
         22    1    1    0    0    0  0.40439052996E+01  0.26174611816E+02 -0.12356776814E+02  0.29225903014E+02  0.00000000000E+00 0. -1.
</event>
<event>
 5    1  0.1315753E-009  0.9118800E+02  0.7818608E-02  0.1130116E+00
         25   -1    0    0    0    0  0.00000000000E+00  0.00000000000E+00  0.99999998245E-14  0.12500000000E+03  0.12500000000E+03 0.  0.
        -13    1    3    3    0    0 -0.41529561617E+02  0.30251427303E+02  0.32549343494E+02  0.60822070566E+02  0.10566000000E+00 0.  1.
         23    2    1    0    0    0 -0.24048571552E+02  0.16066920879E+02  0.63053644426E+01  0.95398693256E+02  0.90689984640E+02 0.  0.
         13    1    3    3    0    0  0.17480990066E+02 -0.14184506423E+02 -0.26243979052E+02  0.34576622690E+02  0.10566000000E+00 0. -1.
         22    1    1    0    0    0  0.24048571552E+02 -0.16066920879E+02 -0.63053644426E+01  0.29601306744E+02  0.00000000000E+00 0.  1.
</event>
<event>
 5    1  0.1315753E-009  0.9118800E+02  0.7818608E-02  0.1130116E+00
         25   -1    0    0    0    0  0.00000000000E+00  0.00000000000E+00  0.99999998245E-14  0.12500000000E+03  0.12500000000E+03 0.  0.
        -13    1    3    3    0    0  0.25960624470E+02  0.42386973036E+02 -0.17718419916E+02  0.52768959383E+02  0.10566000000E+00 0.  1.
         23    2    1    0    0    0  0.29172180344E+02  0.24919806278E+01 -0.24037540762E+01  0.95623068453E+02  0.90998720394E+02 0.  0.
         13    1    3    3    0    0  0.32115558739E+01 -0.39894992408E+02  0.15314665840E+02  0.42854109070E+02  0.10566000000E+00 0. -1.
         22    1    1    0    0    0 -0.29172180344E+02 -0.24919806278E+01  0.24037540762E+01  0.29376931547E+02  0.00000000000E+00 0.  1.
</event>
<event>
 5    1  0.1315753E-009  0.9118800E+02  0.7818608E-02  0.1130116E+00
         25   -1    0    0    0    0  0.00000000000E+00  0.00000000000E+00  0.99999998245E-14  0.12500000000E+03  0.12500000000E+03 0.  0.
        -13    1    3    3    0    0 -0.31568219702E+02  0.49166191080E+01 -0.51595757554E+02  0.60686563589E+02  0.10566000000E+00 0.  1.
         23    2    1    0    0    0 -0.21215508816E+02 -0.36269369131E+01 -0.17733864059E+02  0.97111966362E+02  0.93021457689E+02 0.  0.
         13    1    3    3    0    0  0.10352710886E+02 -0.85435560212E+01  0.33861893494E+02  0.36425402774E+02  0.10566000000E+00 0. -1.
         22    1    1    0    0    0  0.21215508816E+02  0.36269369131E+01  0.17733864059E+02  0.27888033638E+02  0.00000000000E+00 0.  1.
</event>
<event>
 5    1  0.1315753E-009  0.9118800E+02  0.7818608E-02  0.1130116E+00
         25   -1    0    0    0    0  0.00000000000E+00  0.00000000000E+00  0.99999998245E-14  0.12500000000E+03  0.12500000000E+03 0.  0.
        -13    1    3    3    0    0  0.18037295396E+02 -0.45902898277E+02 -0.15761978730E+02  0.51777130405E+02  0.10566000000E+00 0. -1.
         23    2    1    0    0    0  0.84245887117E+00 -0.45622369755E+02  0.54062825948E+01  0.79050699129E+02  0.64324760258E+02 0.  0.
         13    1    3    3    0    0 -0.17194836525E+02  0.28052852177E+00  0.21168261325E+02  0.27273568724E+02  0.10566000000E+00 0.  1.
         22    1    1    0    0    0 -0.84245887117E+00  0.45622369755E+02 -0.54062825948E+01  0.45949300871E+02  0.00000000000E+00 0. -1.
</event>
<event>
 5    1  0.1315753E-009  0.9118800E+02  0.7818608E-02  0.1130116E+00
         25   -1    0    0    0    0  0.00000000000E+00  0.00000000000E+00  0.99999998245E-14  0.12500000000E+03  0.12500000000E+03 0.  0.
        -13    1    3    3    0    0  0.16727329468E+02 -0.26270962117E+02 -0.32470258241E+02  0.44992175275E+02  0.10566000000E+00 0.  1.
         23    2    1    0    0    0  0.27732889018E+02 -0.15152686295E+01  0.10095129215E+02  0.95447998272E+02  0.90757917384E+02 0.  0.
         13    1    3    3    0    0  0.11005559550E+02  0.24755693487E+02  0.42565387456E+02  0.50455822997E+02  0.10566000000E+00 0. -1.
         22    1    1    0    0    0 -0.27732889018E+02  0.15152686295E+01 -0.10095129215E+02  0.29552001728E+02  0.00000000000E+00 0. -1.
</event>
<event>
 5    1  0.1315753E-009  0.9118800E+02  0.7818608E-02  0.1130116E+00
         25   -1    0    0    0    0  0.00000000000E+00  0.00000000000E+00  0.99999998245E-14  0.12500000000E+03  0.12500000000E+03 0.  0.
        -13    1    3    3    0    0  0.44491115962E+02  0.33947358887E+02  0.20347167079E+02  0.59547468016E+02  0.10566000000E+00 0. -1.
         23    2    1    0    0    0  0.12222091574E+02  0.25982453660E+02  0.64651993160E+01  0.95567599098E+02  0.90922493227E+02 0.  0.
         13    1    3    3    0    0 -0.32269024387E+02 -0.79649052272E+01 -0.13881967763E+02  0.36020131083E+02  0.10566000000E+00 0.  1.
         22    1    1    0    0    0 -0.12222091574E+02 -0.25982453660E+02 -0.64651993160E+01  0.29432400902E+02  0.00000000000E+00 0. -1.
</event>
<event>
 5    1  0.1315753E-009  0.9118800E+02  0.7818608E-02  0.1130116E+00
         25   -1    0    0    0    0  0.00000000000E+00  0.00000000000E+00  0.99999998245E-14  0.12500000000E+03  0.12500000000E+03 0.  0.
        -13    1    3    3    0    0 -0.31597178278E+02  0.27296137184E+02  0.45145375496E+01  0.41998249888E+02  0.10566000000E+00 0.  1.
         23    2    1    0    0    0  0.21167869111E+02  0.19575873596E+02 -0.36178759920E+01  0.95941738929E+02  0.91435412901E+02 0.  0.
         13    1    3    3    0    0  0.52765047390E+02 -0.77202635885E+01 -0.81324135416E+01  0.53943489041E+02  0.10566000000E+00 0. -1.
         22    1    1    0    0    0 -0.21167869111E+02 -0.19575873596E+02  0.36178759920E+01  0.29058261071E+02  0.00000000000E+00 0. -1.
</event>
<event>
 5    1  0.1315753E-009  0.9118800E+02  0.7818608E-02  0.1130116E+00
         25   -1    0    0    0    0  0.00000000000E+00  0.00000000000E+00  0.99999998245E-14  0.12500000000E+03  0.12500000000E+03 0.  0.
        -13    1    3    3    0    0 -0.70036751035E+01 -0.48926943227E+02 -0.27290711594E+02  0.56459643480E+02  0.10566000000E+00 0.  1.
         23    2    1    0    0    0 -0.12945532059E+02 -0.22460807707E+02  0.49647421050E+01  0.98604482439E+02  0.95005897762E+02 0.  0.
         13    1    3    3    0    0 -0.59418569557E+01  0.26466135520E+02  0.32255453699E+02  0.42144838959E+02  0.10566000000E+00 0. -1.
         22    1    1    0    0    0  0.12945532059E+02  0.22460807707E+02 -0.49647421050E+01  0.26395517561E+02  0.00000000000E+00 0.  1.
</event>
<event>
 5    1  0.1315753E-009  0.9118800E+02  0.7818608E-02  0.1130116E+00
         25   -1    0    0    0    0  0.00000000000E+00  0.00000000000E+00  0.99999998245E-14  0.12500000000E+03  0.12500000000E+03 0.  0.
        -13    1    3    3    0    0  0.38576950831E+01  0.68814415497E+01  0.40973858936E+02  0.41726542264E+02  0.10566000000E+00 0. -1.
         23    2    1    0    0    0 -0.23955782370E+02 -0.16960502439E+02  0.14568698511E+01  0.95611896596E+02  0.90983372926E+02 0.  0.
         13    1    3    3    0    0 -0.27813477453E+02 -0.23841943988E+02 -0.39516989085E+02  0.53885354332E+02  0.10566000000E+00 0.  1.
         22    1    1    0    0    0  0.23955782370E+02  0.16960502439E+02 -0.14568698511E+01  0.29388103404E+02  0.00000000000E+00 0.  1.
</event>
<event>
 5    1  0.1315753E-009  0.9118800E+02  0.7818608E-02  0.1130116E+00
         25   -1    0    0    0    0  0.00000000000E+00  0.00000000000E+00  0.99999998245E-14  0.12500000000E+03  0.12500000000E+03 0.  0.
        -13    1    3    3    0    0  0.13268812590E+02  0.56788104634E+02 -0.22426957343E+02  0.62481435604E+02  0.10566000000E+00 0.  1.
         23    2    1    0    0    0  0.69070924538E+01  0.30458551001E+02 -0.10880878664E+02  0.91926978128E+02  0.85771466887E+02 0.  0.
         13    1    3    3    0    0 -0.63617201358E+01 -0.26329553633E+02  0.11546078679E+02  0.29445542523E+02  0.10566000000E+00 0. -1.
         22    1    1    0    0    0 -0.69070924538E+01 -0.30458551001E+02  0.10880878664E+02  0.33073021872E+02  0.00000000000E+00 0.  1.
</event>
<event>
 5    1  0.1315753E-009  0.9118800E+02  0.7818608E-02  0.1130116E+00
         25   -1    0    0    0    0  0.00000000000E+00  0.00000000000E+00  0.99999998245E-14  0.12500000000E+03  0.12500000000E+03 0.  0.
        -13    1    3    3    0    0 -0.22541632319E+02  0.56300591281E+02  0.77904710826E+01  0.61143964297E+02  0.10566000000E+00 0. -1.
         23    2    1    0    0    0 -0.13710820451E+02  0.23182685216E+02  0.11687102148E+02  0.95639961718E+02  0.91021922797E+02 0.  0.
         13    1    3    3    0    0  0.88308118678E+01 -0.33117906065E+02  0.38966310656E+01  0.34495997421E+02  0.10566000000E+00 0.  1.
         22    1    1    0    0    0  0.13710820451E+02 -0.23182685216E+02 -0.11687102148E+02  0.29360038282E+02  0.00000000000E+00 0. -1.
</event>
<event>
 5    1  0.1315753E-009  0.9118800E+02  0.7818608E-02  0.1130116E+00
         25   -1    0    0    0    0  0.00000000000E+00  0.00000000000E+00  0.99999998245E-14  0.12500000000E+03  0.12500000000E+03 0.  0.
        -13    1    3    3    0    0  0.45255408799E+02  0.62673200612E+01  0.17602721819E+02  0.48961191834E+02  0.10566000000E+00 0. -1.
         23    2    1    0    0    0  0.18623091764E+02  0.13053565144E+02 -0.19436689811E+02  0.95083449052E+02  0.90254430711E+02 0.  0.
         13    1    3    3    0    0 -0.26632317035E+02  0.67862450826E+01 -0.37039411630E+02  0.46122257218E+02  0.10566000000E+00 0.  1.
         22    1    1    0    0    0 -0.18623091764E+02 -0.13053565144E+02  0.19436689811E+02  0.29916550948E+02  0.00000000000E+00 0.  1.
</event>
<event>
 5    1  0.1315753E-009  0.9118800E+02  0.7818608E-02  0.1130116E+00
         25   -1    0    0    0    0  0.00000000000E+00  0.00000000000E+00  0.99999998245E-14  0.12500000000E+03  0.12500000000E+03 0.  0.
        -13    1    3    3    0    0  0.31907619523E+02  0.76585233031E+01  0.37324741586E+01  0.33025621723E+02  0.10566000000E+00 0. -1.
         23    2    1    0    0    0 -0.27719809345E+02  0.13465671207E+02  0.82262355335E+01  0.93103556903E+02  0.87469361640E+02 0.  0.
         13    1    3    3    0    0 -0.59627428868E+02  0.58071479037E+01  0.44937613749E+01  0.60077935180E+02  0.10566000000E+00 0.  1.
         22    1    1    0    0    0  0.27719809345E+02 -0.13465671207E+02 -0.82262355335E+01  0.31896443097E+02  0.00000000000E+00 0.  1.
</event>
<event>
 5    1  0.1315753E-009  0.9118800E+02  0.7818608E-02  0.1130116E+00
         25   -1    0    0    0    0  0.00000000000E+00  0.00000000000E+00  0.99999998245E-14  0.12500000000E+03  0.12500000000E+03 0.  0.
        -13    1    3    3    0    0  0.54036282910E+01 -0.43225228089E+02  0.18233825753E+02  0.47223967513E+02  0.10566000000E+00 0. -1.
         23    2    1    0    0    0  0.27476494104E+02 -0.16174468965E+01  0.12827988733E+02  0.94633387452E+02  0.89628939874E+02 0.  0.
         13    1    3    3    0    0  0.22072865813E+02  0.41607781193E+02 -0.54058370203E+01  0.47409419938E+02  0.10566000000E+00 0.  1.
         22    1    1    0    0    0 -0.27476494104E+02  0.16174468965E+01 -0.12827988733E+02  0.30366612548E+02  0.00000000000E+00 0. -1.
</event>
<event>
 5    1  0.1315753E-009  0.9118800E+02  0.7818608E-02  0.1130116E+00
         25   -1    0    0    0    0  0.00000000000E+00  0.00000000000E+00  0.99999998245E-14  0.12500000000E+03  0.12500000000E+03 0.  0.
        -13    1    3    3    0    0 -0.27862335420E+02 -0.25344577840E+01  0.27662016292E+02  0.39343760886E+02  0.10566000000E+00 0.  1.
         23    2    1    0    0    0  0.22430164644E+02 -0.17657584191E+02  0.93910966317E+01  0.94948456590E+02  0.90067275674E+02 0.  0.
         13    1    3    3    0    0  0.50292500064E+02 -0.15123126407E+02 -0.18270919660E+02  0.55604695703E+02  0.10566000000E+00 0. -1.
         22    1    1    0    0    0 -0.22430164644E+02  0.17657584191E+02 -0.93910966317E+01  0.30051543410E+02  0.00000000000E+00 0. -1.
</event>
<event>
 5    1  0.1315753E-009  0.9118800E+02  0.7818608E-02  0.1130116E+00
         25   -1    0    0    0    0  0.00000000000E+00  0.00000000000E+00  0.99999998245E-14  0.12500000000E+03  0.12500000000E+03 0.  0.
        -13    1    3    3    0    0  0.28575566227E+02  0.24367477624E+02 -0.37303249141E+02  0.52932792402E+02  0.10566000000E+00 0. -1.
         23    2    1    0    0    0 -0.12411275922E+01 -0.43995069876E+01 -0.29568424766E+02  0.95080310788E+02  0.90250084194E+02 0.  0.
         13    1    3    3    0    0 -0.29816693820E+02 -0.28766984611E+02  0.77348243755E+01  0.42147518386E+02  0.10566000000E+00 0.  1.
         22    1    1    0    0    0  0.12411275922E+01  0.43995069876E+01  0.29568424766E+02  0.29919689212E+02  0.00000000000E+00 0. -1.
</event>
<event>
 5    1  0.1315753E-009  0.9118800E+02  0.7818608E-02  0.1130116E+00
         25   -1    0    0    0    0  0.00000000000E+00  0.00000000000E+00  0.99999998245E-14  0.12500000000E+03  0.12500000000E+03 0.  0.
        -13    1    3    3    0    0 -0.11640776204E+02 -0.18133152232E+01 -0.44514395080E+02  0.46047131464E+02  0.10566000000E+00 0. -1.
         23    2    1    0    0    0 -0.35210673283E+01  0.27209511111E+02 -0.29248675112E+01  0.97408148667E+02  0.93418612528E+02 0.  0.
         13    1    3    3    0    0  0.81197088759E+01  0.29022826334E+02  0.41589527568E+02  0.51361017202E+02  0.10566000000E+00 0.  1.
         22    1    1    0    0    0  0.35210673283E+01 -0.27209511111E+02  0.29248675112E+01  0.27591851333E+02  0.00000000000E+00 0. -1.
</event>
<event>
 5    1  0.1315753E-009  0.9118800E+02  0.7818608E-02  0.1130116E+00
         25   -1    0    0    0    0  0.00000000000E+00  0.00000000000E+00  0.99999998245E-14  0.12500000000E+03  0.12500000000E+03 0.  0.
        -13    1    3    3    0    0  0.20256856569E+02 -0.39712995112E+02 -0.27951589037E+02  0.52619052752E+02  0.10566000000E+00 0. -1.
         23    2    1    0    0    0  0.35400022230E+02 -0.25501483007E+02 -0.96131489533E+01  0.80324505127E+02  0.66754222950E+02 0.  0.
         13    1    3    3    0    0  0.15143165661E+02  0.14211512105E+02  0.18338440083E+02  0.27705452374E+02  0.10566000000E+00 0.  1.
         22    1    1    0    0    0 -0.35400022230E+02  0.25501483007E+02  0.96131489533E+01  0.44675494873E+02  0.00000000000E+00 0. -1.
</event>
<event>
 5    1  0.1315753E-009  0.9118800E+02  0.7818608E-02  0.1130116E+00
         25   -1    0    0    0    0  0.00000000000E+00  0.00000000000E+00  0.99999998245E-14  0.12500000000E+03  0.12500000000E+03 0.  0.
        -13    1    3    3    0    0  0.24030615514E+02  0.11190736350E+02 -0.18897750226E+02  0.32555171474E+02  0.10566000000E+00 0. -1.
         23    2    1    0    0    0 -0.24590164825E+02 -0.16370787480E+02  0.77308080941E+01  0.94464049341E+02  0.89392462408E+02 0.  0.
         13    1    3    3    0    0 -0.48620780339E+02 -0.27561523830E+02  0.26628558320E+02  0.61908877868E+02  0.10566000000E+00 0.  1.
         22    1    1    0    0    0  0.24590164825E+02  0.16370787480E+02 -0.77308080941E+01  0.30535950659E+02  0.00000000000E+00 0.  1.
</event>
<event>
 5    1  0.1315753E-009  0.9118800E+02  0.7818608E-02  0.1130116E+00
         25   -1    0    0    0    0  0.00000000000E+00  0.00000000000E+00  0.99999998245E-14  0.12500000000E+03  0.12500000000E+03 0.  0.
        -13    1    3    3    0    0 -0.15122314380E+02 -0.40924392683E+01  0.32152104777E+02  0.35765925921E+02  0.10566000000E+00 0. -1.
         23    2    1    0    0    0 -0.29082177488E+01  0.17197964892E+02 -0.23000538480E+02  0.96133886696E+02  0.91697719023E+02 0.  0.
         13    1    3    3    0    0  0.12214096631E+02  0.21290404160E+02 -0.55152643257E+02  0.60367960775E+02  0.10566000000E+00 0.  1.
         22    1    1    0    0    0  0.29082177488E+01 -0.17197964892E+02  0.23000538480E+02  0.28866113304E+02  0.00000000000E+00 0.  1.
</event>
<event>
 5    1  0.1315753E-009  0.9118800E+02  0.7818608E-02  0.1130116E+00
         25   -1    0    0    0    0  0.00000000000E+00  0.00000000000E+00  0.99999998245E-14  0.12500000000E+03  0.12500000000E+03 0.  0.
        -13    1    3    3    0    0 -0.83761081199E+01  0.59358222793E+02  0.91123101401E+01  0.60634999468E+02  0.10566000000E+00 0.  1.
         23    2    1    0    0    0 -0.11926917834E+02  0.24245722646E+02  0.10640743360E+02  0.95959823436E+02  0.91460132620E+02 0.  0.
         13    1    3    3    0    0 -0.35508097142E+01 -0.35112500147E+02  0.15284332200E+01  0.35324823968E+02  0.10566000000E+00 0. -1.
         22    1    1    0    0    0  0.11926917834E+02 -0.24245722646E+02 -0.10640743360E+02  0.29040176564E+02  0.00000000000E+00 0.  1.
</event>
<event>
 5    1  0.1315753E-009  0.9118800E+02  0.7818608E-02  0.1130116E+00
         25   -1    0    0    0    0  0.00000000000E+00  0.00000000000E+00  0.99999998245E-14  0.12500000000E+03  0.12500000000E+03 0.  0.
        -13    1    3    3    0    0  0.25547836537E+02 -0.18157523483E+02 -0.53542217295E+02  0.62041661871E+02  0.10566000000E+00 0. -1.
         23    2    1    0    0    0  0.15925365891E+02 -0.10454605267E+02 -0.22049439247E+02  0.95860785508E+02  0.91324675620E+02 0.  0.
         13    1    3    3    0    0 -0.96224706460E+01  0.77029182156E+01  0.31492778048E+02  0.33819123637E+02  0.10566000000E+00 0.  1.
         22    1    1    0    0    0 -0.15925365891E+02  0.10454605267E+02  0.22049439247E+02  0.29139214492E+02  0.00000000000E+00 0. -1.
</event>
<event>
 5    1  0.1315753E-009  0.9118800E+02  0.7818608E-02  0.1130116E+00
         25   -1    0    0    0    0  0.00000000000E+00  0.00000000000E+00  0.99999998245E-14  0.12500000000E+03  0.12500000000E+03 0.  0.
        -13    1    3    3    0    0 -0.58926431272E+02 -0.12020621796E+01  0.89776841725E+01  0.59618614821E+02  0.10566000000E+00 0.  1.
         23    2    1    0    0    0 -0.24473460956E+02  0.12627108181E+02  0.56046120168E+01  0.96896515731E+02  0.92731488356E+02 0.  0.
         13    1    3    3    0    0  0.34452970316E+02  0.13829170361E+02 -0.33730721557E+01  0.37277900911E+02  0.10566000000E+00 0. -1.
         22    1    1    0    0    0  0.24473460956E+02 -0.12627108181E+02 -0.56046120168E+01  0.28103484269E+02  0.00000000000E+00 0.  1.
</event>
<event>
 5    1  0.1315753E-009  0.9118800E+02  0.7818608E-02  0.1130116E+00
         25   -1    0    0    0    0  0.00000000000E+00  0.00000000000E+00  0.99999998245E-14  0.12500000000E+03  0.12500000000E+03 0.  0.
        -13    1    3    3    0    0  0.30978381647E+02  0.56128208905E+01  0.11979241047E+02  0.33684970950E+02  0.10566000000E+00 0.  1.
         23    2    1    0    0    0 -0.24647863350E+02 -0.11024244060E+02 -0.10615156043E+02  0.95987370636E+02  0.91497774065E+02 0.  0.
         13    1    3    3    0    0 -0.55626244997E+02 -0.16637064950E+02 -0.22594397090E+02  0.62302399685E+02  0.10566000000E+00 0. -1.
         22    1    1    0    0    0  0.24647863350E+02  0.11024244060E+02  0.10615156043E+02  0.29012629364E+02  0.00000000000E+00 0. -1.
</event>
<event>
 5    1  0.1315753E-009  0.9118800E+02  0.7818608E-02  0.1130116E+00
         25   -1    0    0    0    0  0.00000000000E+00  0.00000000000E+00  0.99999998245E-14  0.12500000000E+03  0.12500000000E+03 0.  0.
        -13    1    3    3    0    0 -0.35889576428E+02  0.30708430508E+02 -0.32317564666E+02  0.57232032556E+02  0.10566000000E+00 0.  1.
         23    2    1    0    0    0 -0.20768082320E+02  0.15234228625E+02  0.34288291471E+01  0.99016315997E+02  0.95546213945E+02 0.  0.
         13    1    3    3    0    0  0.15121494109E+02 -0.15474201883E+02  0.35746393813E+02  0.41784283441E+02  0.10566000000E+00 0. -1.
         22    1    1    0    0    0  0.20768082320E+02 -0.15234228625E+02 -0.34288291471E+01  0.25983684003E+02  0.00000000000E+00 0.  1.
</event>
<event>
 5    1  0.1315753E-009  0.9118800E+02  0.7818608E-02  0.1130116E+00
         25   -1    0    0    0    0  0.00000000000E+00  0.00000000000E+00  0.99999998245E-14  0.12500000000E+03  0.12500000000E+03 0.  0.
        -13    1    3    3    0    0 -0.41303452423E+02 -0.12751147765E+02 -0.31870697703E+02  0.53705860830E+02  0.10566000000E+00 0.  1.
         23    2    1    0    0    0  0.17693963230E+01 -0.15210796146E+02 -0.22383024811E+02  0.97879917359E+02  0.94047750318E+02 0.  0.
         13    1    3    3    0    0  0.43072848746E+02 -0.24596483806E+01  0.94876728916E+01  0.44174056529E+02  0.10566000000E+00 0. -1.
         22    1    1    0    0    0 -0.17693963230E+01  0.15210796146E+02  0.22383024811E+02  0.27120082641E+02  0.00000000000E+00 0.  1.
</event>
<event>
 5    1  0.1315753E-009  0.9118800E+02  0.7818608E-02  0.1130116E+00
         25   -1    0    0    0    0  0.00000000000E+00  0.00000000000E+00  0.99999998245E-14  0.12500000000E+03  0.12500000000E+03 0.  0.
        -13    1    3    3    0    0 -0.39337133255E+01  0.31328306045E+02  0.19932780161E+02  0.37339841311E+02  0.10566000000E+00 0. -1.
         23    2    1    0    0    0 -0.18967937972E+02 -0.40097761127E+01 -0.22984631590E+02  0.94930841968E+02  0.90042825878E+02 0.  0.
         13    1    3    3    0    0 -0.15034224647E+02 -0.35338082157E+02 -0.42917411751E+02  0.57591000657E+02  0.10566000000E+00 0.  1.
         22    1    1    0    0    0  0.18967937972E+02  0.40097761127E+01  0.22984631590E+02  0.30069158032E+02  0.00000000000E+00 0.  1.
</event>
<event>
 5    1  0.1315753E-009  0.9118800E+02  0.7818608E-02  0.1130116E+00
         25   -1    0    0    0    0  0.00000000000E+00  0.00000000000E+00  0.99999998245E-14  0.12500000000E+03  0.12500000000E+03 0.  0.
        -13    1    3    3    0    0  0.33431299576E+02 -0.26096577481E+02 -0.29579065820E+02  0.51707015446E+02  0.10566000000E+00 0. -1.
         23    2    1    0    0    0  0.16768769312E+02  0.13599266456E+02 -0.19465985563E+02  0.95930148498E+02  0.91419566421E+02 0.  0.
         13    1    3    3    0    0 -0.16662530264E+02  0.39695843936E+02  0.10113080257E+02  0.44223133052E+02  0.10566000000E+00 0.  1.
         22    1    1    0    0    0 -0.16768769312E+02 -0.13599266456E+02  0.19465985563E+02  0.29069851502E+02  0.00000000000E+00 0. -1.
</event>
<event>
 5    1  0.1315753E-009  0.9118800E+02  0.7818608E-02  0.1130116E+00
         25   -1    0    0    0    0  0.00000000000E+00  0.00000000000E+00  0.99999998245E-14  0.12500000000E+03  0.12500000000E+03 0.  0.
        -13    1    3    3    0    0  0.14881791064E+02  0.34206091455E+02  0.25661644574E+02  0.45277539291E+02  0.10566000000E+00 0.  1.
         23    2    1    0    0    0 -0.22269501273E+02  0.20989161020E+02 -0.33253898299E+01  0.94217963278E+02  0.89047688456E+02 0.  0.
         13    1    3    3    0    0 -0.37151292337E+02 -0.13216930435E+02 -0.28987034404E+02  0.48940423987E+02  0.10566000000E+00 0. -1.
         22    1    1    0    0    0  0.22269501273E+02 -0.20989161020E+02  0.33253898299E+01  0.30782036722E+02  0.00000000000E+00 0.  1.
</event>
<event>
 5    1  0.1315753E-009  0.9118800E+02  0.7818608E-02  0.1130116E+00
         25   -1    0    0    0    0  0.00000000000E+00  0.00000000000E+00  0.99999998245E-14  0.12500000000E+03  0.12500000000E+03 0.  0.
        -13    1    3    3    0    0 -0.31607093933E+02  0.17578042666E+02 -0.39729354757E+02  0.53725494547E+02  0.10566000000E+00 0. -1.
         23    2    1    0    0    0 -0.22250290114E+02  0.18997048168E+02  0.11839341433E+01  0.95719205112E+02  0.91130682418E+02 0.  0.
         13    1    3    3    0    0  0.93568038199E+01  0.14190055012E+01  0.40913288900E+02  0.41993710565E+02  0.10566000000E+00 0.  1.
         22    1    1    0    0    0  0.22250290114E+02 -0.18997048168E+02 -0.11839341433E+01  0.29280794888E+02  0.00000000000E+00 0. -1.
</event>
<event>
 5    1  0.1315753E-009  0.9118800E+02  0.7818608E-02  0.1130116E+00
         25   -1    0    0    0    0  0.00000000000E+00  0.00000000000E+00  0.99999998245E-14  0.12500000000E+03  0.12500000000E+03 0.  0.
        -13    1    3    3    0    0 -0.73350150395E+00  0.55979044021E+02 -0.83321715490E+01  0.56600597530E+02  0.10566000000E+00 0.  1.
         23    2    1    0    0    0  0.10430297100E+02  0.23972531489E+02  0.12113097381E+02  0.96186800043E+02  0.91769820806E+02 0.  0.
         13    1    3    3    0    0  0.11163798604E+02 -0.32006512533E+02  0.20445268930E+02  0.39586202513E+02  0.10566000000E+00 0. -1.
         22    1    1    0    0    0 -0.10430297100E+02 -0.23972531489E+02 -0.12113097381E+02  0.28813199957E+02  0.00000000000E+00 0.  1.
</event>
<event>
 5    1  0.1315753E-009  0.9118800E+02  0.7818608E-02  0.1130116E+00
         25   -1    0    0    0    0  0.00000000000E+00  0.00000000000E+00  0.99999998245E-14  0.12500000000E+03  0.12500000000E+03 0.  0.
        -13    1    3    3    0    0  0.30542208313E+01  0.24838593390E+02  0.22572251156E+02  0.33701656825E+02  0.10566000000E+00 0.  1.
         23    2    1    0    0    0  0.86524873286E+01 -0.14127526208E+02 -0.24724889270E+02  0.95238066542E+02  0.90468318408E+02 0.  0.
         13    1    3    3    0    0  0.55982664973E+01 -0.38966119598E+02 -0.47297140426E+02  0.61536409717E+02  0.10566000000E+00 0. -1.
         22    1    1    0    0    0 -0.86524873286E+01  0.14127526208E+02  0.24724889270E+02  0.29761933458E+02  0.00000000000E+00 0. -1.
</event>
<event>
 5    1  0.1315753E-009  0.9118800E+02  0.7818608E-02  0.1130116E+00
         25   -1    0    0    0    0  0.00000000000E+00  0.00000000000E+00  0.99999998245E-14  0.12500000000E+03  0.12500000000E+03 0.  0.
        -13    1    3    3    0    0  0.14669522301E+02  0.24020726804E+02  0.54823381271E+02  0.61626329590E+02  0.10566000000E+00 0. -1.
         23    2    1    0    0    0  0.58701031907E+01  0.17370377305E+02  0.21417988577E+02  0.96805703522E+02  0.92608994599E+02 0.  0.
         13    1    3    3    0    0 -0.87994191103E+01 -0.66503494992E+01 -0.33405392694E+02  0.35179373932E+02  0.10566000000E+00 0.  1.
         22    1    1    0    0    0 -0.58701031907E+01 -0.17370377305E+02 -0.21417988577E+02  0.28194296478E+02  0.00000000000E+00 0. -1.
</event>
<event>
 5    1  0.1315753E-009  0.9118800E+02  0.7818608E-02  0.1130116E+00
         25   -1    0    0    0    0  0.00000000000E+00  0.00000000000E+00  0.99999998245E-14  0.12500000000E+03  0.12500000000E+03 0.  0.
        -13    1    3    3    0    0  0.32756193756E+02 -0.85580660095E+01 -0.74964070233E+01  0.34675870652E+02  0.10566000000E+00 0.  1.
         23    2    1    0    0    0 -0.25730620018E+02  0.11488309167E+02 -0.28584934110E+01  0.96676563792E+02  0.92434522491E+02 0.  0.
         13    1    3    3    0    0 -0.58486813774E+02  0.20046375176E+02  0.46379136122E+01  0.62000693140E+02  0.10566000000E+00 0. -1.
         22    1    1    0    0    0  0.25730620018E+02 -0.11488309167E+02  0.28584934110E+01  0.28323436208E+02  0.00000000000E+00 0. -1.
</event>
<event>
 5    1  0.1315753E-009  0.9118800E+02  0.7818608E-02  0.1130116E+00
         25   -1    0    0    0    0  0.00000000000E+00  0.00000000000E+00  0.99999998245E-14  0.12500000000E+03  0.12500000000E+03 0.  0.
        -13    1    3    3    0    0 -0.53844372405E+01 -0.52828100211E+02 -0.25680278318E+02  0.58985491392E+02  0.10566000000E+00 0. -1.
         23    2    1    0    0    0 -0.16327440264E+02 -0.20154349778E+02 -0.72239260132E+01  0.98074765970E+02  0.94306370370E+02 0.  0.
         13    1    3    3    0    0 -0.10943003024E+02  0.32673750433E+02  0.18456352305E+02  0.39089274577E+02  0.10566000000E+00 0.  1.
         22    1    1    0    0    0  0.16327440264E+02  0.20154349778E+02  0.72239260132E+01  0.26925234030E+02  0.00000000000E+00 0. -1.
</event>
<event>
 5    1  0.1315753E-009  0.9118800E+02  0.7818608E-02  0.1130116E+00
         25   -1    0    0    0    0  0.00000000000E+00  0.00000000000E+00  0.99999998245E-14  0.12500000000E+03  0.12500000000E+03 0.  0.
        -13    1    3    3    0    0  0.26246970718E+02 -0.36628733797E+02 -0.40781184435E+02  0.60775684113E+02  0.10566000000E+00 0. -1.
         23    2    1    0    0    0  0.80454442762E+01 -0.99562797388E+01 -0.25429543353E+02  0.96530395946E+02  0.92236646657E+02 0.  0.
         13    1    3    3    0    0 -0.18201526442E+02  0.26672454058E+02  0.15351641083E+02  0.35754711833E+02  0.10566000000E+00 0.  1.
         22    1    1    0    0    0 -0.80454442762E+01  0.99562797388E+01  0.25429543353E+02  0.28469604054E+02  0.00000000000E+00 0. -1.
</event>
<event>
 5    1  0.1315753E-009  0.9118800E+02  0.7818608E-02  0.1130116E+00
         25   -1    0    0    0    0  0.00000000000E+00  0.00000000000E+00  0.99999998245E-14  0.12500000000E+03  0.12500000000E+03 0.  0.
        -13    1    3    3    0    0 -0.28433944462E+02  0.31736756276E+02  0.74379859246E+01  0.43255585712E+02  0.10566000000E+00 0. -1.
         23    2    1    0    0    0  0.20849135429E+02  0.16977689115E+02 -0.79650620692E+01  0.96957699995E+02  0.92813926750E+02 0.  0.
         13    1    3    3    0    0  0.49283079891E+02 -0.14759067162E+02 -0.15403047994E+02  0.53702114284E+02  0.10566000000E+00 0.  1.
         22    1    1    0    0    0 -0.20849135429E+02 -0.16977689115E+02  0.79650620692E+01  0.28042300005E+02  0.00000000000E+00 0.  1.
</event>
<event>
 5    1  0.1315753E-009  0.9118800E+02  0.7818608E-02  0.1130116E+00
         25   -1    0    0    0    0  0.00000000000E+00  0.00000000000E+00  0.99999998245E-14  0.12500000000E+03  0.12500000000E+03 0.  0.
        -13    1    3    3    0    0 -0.42837753067E+02  0.12404559909E+02  0.39823432017E+02  0.59790158856E+02  0.10566000000E+00 0.  1.
         23    2    1    0    0    0 -0.19025482217E+02  0.17172789923E+02  0.12064282944E+02  0.96672970324E+02  0.92429662884E+02 0.  0.
         13    1    3    3    0    0  0.23812270850E+02  0.47682300140E+01 -0.27759149073E+02  0.36882811468E+02  0.10566000000E+00 0. -1.
         22    1    1    0    0    0  0.19025482217E+02 -0.17172789923E+02 -0.12064282944E+02  0.28327029676E+02  0.00000000000E+00 0.  1.
</event>
<event>
 5    1  0.1315753E-009  0.9118800E+02  0.7818608E-02  0.1130116E+00
         25   -1    0    0    0    0  0.00000000000E+00  0.00000000000E+00  0.99999998245E-14  0.12500000000E+03  0.12500000000E+03 0.  0.
        -13    1    3    3    0    0 -0.37764550638E+02 -0.21762205290E+02  0.11015702747E+02  0.44956776297E+02  0.10566000000E+00 0. -1.
         23    2    1    0    0    0 -0.79655571178E+01  0.19719145562E+02  0.18790888169E+02  0.96620565896E+02  0.92358765009E+02 0.  0.
         13    1    3    3    0    0  0.29798993521E+02  0.41481350852E+02  0.77751854220E+01  0.51663789599E+02  0.10566000000E+00 0.  1.
         22    1    1    0    0    0  0.79655571178E+01 -0.19719145562E+02 -0.18790888169E+02  0.28379434104E+02  0.00000000000E+00 0.  1.
</event>
<event>
 5    1  0.1315753E-009  0.9118800E+02  0.7818608E-02  0.1130116E+00
         25   -1    0    0    0    0  0.00000000000E+00  0.00000000000E+00  0.99999998245E-14  0.12500000000E+03  0.12500000000E+03 0.  0.
        -13    1    3    3    0    0 -0.65990850552E+00  0.23697106160E+02 -0.46108852939E+02  0.51846174429E+02  0.10566000000E+00 0.  1.
         23    2    1    0    0    0  0.18990523114E+02 -0.64727099042E+01 -0.22255948727E+02  0.95035634574E+02  0.90188184612E+02 0.  0.
         13    1    3    3    0    0  0.19650431620E+02 -0.30169816064E+02  0.23852904212E+02  0.43189460145E+02  0.10566000000E+00 0. -1.
         22    1    1    0    0    0 -0.18990523114E+02  0.64727099042E+01  0.22255948727E+02  0.29964365426E+02  0.00000000000E+00 0.  1.
</event>
<event>
 5    1  0.1315753E-009  0.9118800E+02  0.7818608E-02  0.1130116E+00
         25   -1    0    0    0    0  0.00000000000E+00  0.00000000000E+00  0.99999998245E-14  0.12500000000E+03  0.12500000000E+03 0.  0.
        -13    1    3    3    0    0 -0.43831205236E+02 -0.17842013474E+02  0.39134080062E+02  0.61408463452E+02  0.10566000000E+00 0. -1.
         23    2    1    0    0    0 -0.21627403752E+02 -0.87204639839E-01  0.18537872379E+02  0.96514829998E+02  0.92215549119E+02 0.  0.
         13    1    3    3    0    0  0.22203801483E+02  0.17754808834E+02 -0.20596207683E+02  0.35106366545E+02  0.10566000000E+00 0.  1.
         22    1    1    0    0    0  0.21627403752E+02  0.87204639839E-01 -0.18537872379E+02  0.28485170002E+02  0.00000000000E+00 0. -1.
</event>
<event>
 5    1  0.1315753E-009  0.9118800E+02  0.7818608E-02  0.1130116E+00
         25   -1    0    0    0    0  0.00000000000E+00  0.00000000000E+00  0.99999998245E-14  0.12500000000E+03  0.12500000000E+03 0.  0.
        -13    1    3    3    0    0  0.35671514587E+02  0.13671358622E+01  0.37691665504E+02  0.51913378101E+02  0.10566000000E+00 0.  1.
         23    2    1    0    0    0  0.33827659098E+01 -0.21460250731E+02  0.20832465911E+02  0.94900546474E+02  0.90000758988E+02 0.  0.
         13    1    3    3    0    0 -0.32288748677E+02 -0.22827386593E+02 -0.16859199593E+02  0.42987168373E+02  0.10566000000E+00 0. -1.
         22    1    1    0    0    0 -0.33827659098E+01  0.21460250731E+02 -0.20832465911E+02  0.30099453526E+02  0.00000000000E+00 0.  1.
</event>
<event>
 5    1  0.1315753E-009  0.9118800E+02  0.7818608E-02  0.1130116E+00
         25   -1    0    0    0    0  0.00000000000E+00  0.00000000000E+00  0.99999998245E-14  0.12500000000E+03  0.12500000000E+03 0.  0.
        -13    1    3    3    0    0 -0.12269439618E+02 -0.22888262069E+02  0.43767260401E+02  0.50892002674E+02  0.10566000000E+00 0. -1.
         23    2    1    0    0    0  0.56711295087E+01 -0.27062743524E+02  0.11433645104E+01  0.97325804811E+02  0.93308366199E+02 0.  0.
         13    1    3    3    0    0  0.17940569126E+02 -0.41744814549E+01 -0.42623895891E+02  0.46433802137E+02  0.10566000000E+00 0.  1.
         22    1    1    0    0    0 -0.56711295087E+01  0.27062743524E+02 -0.11433645104E+01  0.27674195189E+02  0.00000000000E+00 0. -1.
</event>
<event>
 5    1  0.1315753E-009  0.9118800E+02  0.7818608E-02  0.1130116E+00
         25   -1    0    0    0    0  0.00000000000E+00  0.00000000000E+00  0.99999998245E-14  0.12500000000E+03  0.12500000000E+03 0.  0.
        -13    1    3    3    0    0  0.27153934838E+02  0.11923680774E+02  0.47492615180E+02  0.55991695822E+02  0.10566000000E+00 0. -1.
         23    2    1    0    0    0  0.13099365284E+02  0.21943191317E+02  0.94748076819E+01  0.97744376789E+02  0.93867428841E+02 0.  0.
         13    1    3    3    0    0 -0.14054569554E+02  0.10019510544E+02 -0.38017807498E+02  0.41752680966E+02  0.10566000000E+00 0.  1.
         22    1    1    0    0    0 -0.13099365284E+02 -0.21943191317E+02 -0.94748076819E+01  0.27255623211E+02  0.00000000000E+00 0. -1.
</event>
<event>
 5    1  0.1315753E-009  0.9118800E+02  0.7818608E-02  0.1130116E+00
         25   -1    0    0    0    0  0.00000000000E+00  0.00000000000E+00  0.99999998245E-14  0.12500000000E+03  0.12500000000E+03 0.  0.
        -13    1    3    3    0    0 -0.32077968947E+02  0.12537603004E+02 -0.98395335958E+01  0.35819201084E+02  0.10566000000E+00 0.  1.
         23    2    1    0    0    0  0.26443106235E+02 -0.57406523642E+01 -0.62203937672E+01  0.97235161525E+02  0.93186857342E+02 0.  0.
         13    1    3    3    0    0  0.58521075182E+02 -0.18278255368E+02  0.36191398286E+01  0.61415960441E+02  0.10566000000E+00 0. -1.
         22    1    1    0    0    0 -0.26443106235E+02  0.57406523642E+01  0.62203937672E+01  0.27764838475E+02  0.00000000000E+00 0. -1.
</event>
<event>
 5    1  0.1315753E-009  0.9118800E+02  0.7818608E-02  0.1130116E+00
         25   -1    0    0    0    0  0.00000000000E+00  0.00000000000E+00  0.99999998245E-14  0.12500000000E+03  0.12500000000E+03 0.  0.
        -13    1    3    3    0    0  0.31803507636E+02  0.36305822343E+01  0.11885490310E+02  0.34145574666E+02  0.10566000000E+00 0.  1.
         23    2    1    0    0    0 -0.18244015869E+02 -0.45505673216E+01 -0.22696597375E+02  0.95526498166E+02  0.90865970206E+02 0.  0.
         13    1    3    3    0    0 -0.50047523505E+02 -0.81811495559E+01 -0.34582087685E+02  0.61380923500E+02  0.10566000000E+00 0. -1.
         22    1    1    0    0    0  0.18244015869E+02  0.45505673216E+01  0.22696597375E+02  0.29473501834E+02  0.00000000000E+00 0. -1.
</event>
<event>
 5    1  0.1315753E-009  0.9118800E+02  0.7818608E-02  0.1130116E+00
         25   -1    0    0    0    0  0.00000000000E+00  0.00000000000E+00  0.99999998245E-14  0.12500000000E+03  0.12500000000E+03 0.  0.
        -13    1    3    3    0    0  0.42674088009E+02  0.25267322782E+02 -0.26082405181E+02  0.56034082593E+02  0.10566000000E+00 0. -1.
         23    2    1    0    0    0  0.22411664645E+02 -0.74422136428E+01 -0.17889818108E+02  0.95373747318E+02  0.90655594584E+02 0.  0.
         13    1    3    3    0    0 -0.20262423364E+02 -0.32709536425E+02  0.81925870728E+01  0.39339664725E+02  0.10566000000E+00 0.  1.
         22    1    1    0    0    0 -0.22411664645E+02  0.74422136428E+01  0.17889818108E+02  0.29626252682E+02  0.00000000000E+00 0. -1.
</event>
<event>
 5    1  0.1315753E-009  0.9118800E+02  0.7818608E-02  0.1130116E+00
         25   -1    0    0    0    0  0.00000000000E+00  0.00000000000E+00  0.99999998245E-14  0.12500000000E+03  0.12500000000E+03 0.  0.
        -13    1    3    3    0    0 -0.29633686781E+02 -0.11576584142E+01  0.15174347410E+02  0.33313173800E+02  0.10566000000E+00 0.  1.
         23    2    1    0    0    0  0.27440987465E+02  0.11341569778E+02 -0.45093872105E+01  0.94967125160E+02  0.90093181152E+02 0.  0.
         13    1    3    3    0    0  0.57074674247E+02  0.12499228192E+02 -0.19683734620E+02  0.61653951361E+02  0.10566000000E+00 0. -1.
         22    1    1    0    0    0 -0.27440987465E+02 -0.11341569778E+02  0.45093872105E+01  0.30032874840E+02  0.00000000000E+00 0. -1.
</event>
<event>
 5    1  0.1315753E-009  0.9118800E+02  0.7818608E-02  0.1130116E+00
         25   -1    0    0    0    0  0.00000000000E+00  0.00000000000E+00  0.99999998245E-14  0.12500000000E+03  0.12500000000E+03 0.  0.
        -13    1    3    3    0    0  0.26247856444E+02 -0.20641880946E+02 -0.29964669315E+02  0.44865686087E+02  0.10566000000E+00 0. -1.
         23    2    1    0    0    0 -0.12303539662E+02  0.10584065607E+02 -0.25626860190E+02  0.94666264717E+02  0.89674780063E+02 0.  0.
         13    1    3    3    0    0 -0.38551396106E+02  0.31225946553E+02  0.43378091245E+01  0.49800578630E+02  0.10566000000E+00 0.  1.
         22    1    1    0    0    0  0.12303539662E+02 -0.10584065607E+02  0.25626860190E+02  0.30333735283E+02  0.00000000000E+00 0.  1.
</event>
<event>
 5    1  0.1315753E-009  0.9118800E+02  0.7818608E-02  0.1130116E+00
         25   -1    0    0    0    0  0.00000000000E+00  0.00000000000E+00  0.99999998245E-14  0.12500000000E+03  0.12500000000E+03 0.  0.
        -13    1    3    3    0    0 -0.43723471590E+02 -0.99732471713E+01 -0.20573468029E+02  0.49340514567E+02  0.10566000000E+00 0. -1.
         23    2    1    0    0    0 -0.18725635900E+02 -0.12914010246E+02  0.18405091300E+02  0.95739643095E+02  0.91158712001E+02 0.  0.
         13    1    3    3    0    0  0.24997835690E+02 -0.29407630742E+01  0.38978559330E+02  0.46399128527E+02  0.10566000000E+00 0.  1.
         22    1    1    0    0    0  0.18725635900E+02  0.12914010246E+02 -0.18405091300E+02  0.29260356905E+02  0.00000000000E+00 0. -1.
</event>
<event>
 5    1  0.1315753E-009  0.9118800E+02  0.7818608E-02  0.1130116E+00
         25   -1    0    0    0    0  0.00000000000E+00  0.00000000000E+00  0.99999998245E-14  0.12500000000E+03  0.12500000000E+03 0.  0.
        -13    1    3    3    0    0  0.63920945080E+01  0.12638525392E+02  0.36874786209E+02  0.39501293881E+02  0.10566000000E+00 0. -1.
         23    2    1    0    0    0 -0.27379534768E+02 -0.86385266980E+01 -0.32599021726E+01  0.96105536347E+02  0.91659064400E+02 0.  0.
         13    1    3    3    0    0 -0.33771629276E+02 -0.21277052090E+02 -0.40134688382E+02  0.56604242466E+02  0.10566000000E+00 0.  1.
         22    1    1    0    0    0  0.27379534768E+02  0.86385266980E+01  0.32599021726E+01  0.28894463653E+02  0.00000000000E+00 0.  1.
</event>
<event>
 5    1  0.1315753E-009  0.9118800E+02  0.7818608E-02  0.1130116E+00
         25   -1    0    0    0    0  0.00000000000E+00  0.00000000000E+00  0.99999998245E-14  0.12500000000E+03  0.12500000000E+03 0.  0.
        -13    1    3    3    0    0 -0.16531082740E+02 -0.41217981079E+01 -0.28794571657E+02  0.33457501956E+02  0.10566000000E+00 0.  1.
         23    2    1    0    0    0  0.17210283584E+01  0.22093976894E+01  0.29755725056E+02  0.95112769443E+02  0.90295029547E+02 0.  0.
         13    1    3    3    0    0  0.18252111099E+02  0.63311957973E+01  0.58550296712E+02  0.61655267487E+02  0.10566000000E+00 0. -1.
         22    1    1    0    0    0 -0.17210283584E+01 -0.22093976894E+01 -0.29755725056E+02  0.29887230557E+02  0.00000000000E+00 0. -1.
</event>
<event>
 5    1  0.1315753E-009  0.9118800E+02  0.7818608E-02  0.1130116E+00
         25   -1    0    0    0    0  0.00000000000E+00  0.00000000000E+00  0.99999998245E-14  0.12500000000E+03  0.12500000000E+03 0.  0.
        -13    1    3    3    0    0 -0.15406538537E+02 -0.19346074689E+02 -0.24226081092E+02  0.34620026064E+02  0.10566000000E+00 0. -1.
         23    2    1    0    0    0  0.14618371619E+02  0.40160681287E+01  0.24347585684E+02  0.96318463767E+02  0.91948985540E+02 0.  0.
         13    1    3    3    0    0  0.30024910156E+02  0.23362142817E+02  0.48573666777E+02  0.61698437703E+02  0.10566000000E+00 0.  1.
         22    1    1    0    0    0 -0.14618371619E+02 -0.40160681287E+01 -0.24347585684E+02  0.28681536233E+02  0.00000000000E+00 0.  1.
</event>
<event>
 5    1  0.1315753E-009  0.9118800E+02  0.7818608E-02  0.1130116E+00
         25   -1    0    0    0    0  0.00000000000E+00  0.00000000000E+00  0.99999998245E-14  0.12500000000E+03  0.12500000000E+03 0.  0.
        -13    1    3    3    0    0 -0.16894358729E+02  0.39969406142E+02  0.28190049969E+02  0.51746138653E+02  0.10566000000E+00 0. -1.
         23    2    1    0    0    0 -0.27886900841E+02  0.99935335169E+01 -0.14906160281E+01  0.95339051148E+02  0.90607741319E+02 0.  0.
         13    1    3    3    0    0 -0.10992542111E+02 -0.29975872625E+02 -0.29680665997E+02  0.43592912495E+02  0.10566000000E+00 0.  1.
         22    1    1    0    0    0  0.27886900841E+02 -0.99935335169E+01  0.14906160281E+01  0.29660948852E+02  0.00000000000E+00 0. -1.
</event>
<event>
 5    1  0.1315753E-009  0.9118800E+02  0.7818608E-02  0.1130116E+00
         25   -1    0    0    0    0  0.00000000000E+00  0.00000000000E+00  0.99999998245E-14  0.12500000000E+03  0.12500000000E+03 0.  0.
        -13    1    3    3    0    0 -0.55036854722E+02 -0.12566207596E+02  0.77464483787E+01  0.56982309338E+02  0.10566000000E+00 0.  1.
         23    2    1    0    0    0 -0.23573648724E+02  0.94562110385E+01  0.14161655006E+02  0.95919262150E+02  0.91404680064E+02 0.  0.
         13    1    3    3    0    0  0.31463205998E+02  0.22022418634E+02  0.64152066276E+01  0.38936952812E+02  0.10566000000E+00 0. -1.
         22    1    1    0    0    0  0.23573648724E+02 -0.94562110385E+01 -0.14161655006E+02  0.29080737850E+02  0.00000000000E+00 0.  1.
</event>
<event>
 5    1  0.1315753E-009  0.9118800E+02  0.7818608E-02  0.1130116E+00
         25   -1    0    0    0    0  0.00000000000E+00  0.00000000000E+00  0.99999998245E-14  0.12500000000E+03  0.12500000000E+03 0.  0.
        -13    1    3    3    0    0  0.48301521035E+02  0.83790010058E+01  0.33517138378E+02  0.59385640699E+02  0.10566000000E+00 0. -1.
         23    2    1    0    0    0  0.16000738369E+02 -0.55876777540E+01  0.23594974720E+02  0.95948862276E+02  0.91445150604E+02 0.  0.
         13    1    3    3    0    0 -0.32300782666E+02 -0.13966678760E+02 -0.99221636573E+01  0.36563221577E+02  0.10566000000E+00 0.  1.
         22    1    1    0    0    0 -0.16000738369E+02  0.55876777540E+01 -0.23594974720E+02  0.29051137724E+02  0.00000000000E+00 0. -1.
</event>
<event>
 5    1  0.1315753E-009  0.9118800E+02  0.7818608E-02  0.1130116E+00
         25   -1    0    0    0    0  0.00000000000E+00  0.00000000000E+00  0.99999998245E-14  0.12500000000E+03  0.12500000000E+03 0.  0.
        -13    1    3    3    0    0  0.23836631701E+02  0.39043733379E+02  0.19094576043E+02  0.49570274614E+02  0.10566000000E+00 0. -1.
         23    2    1    0    0    0  0.13874975831E+02  0.17928627443E+02 -0.19777667796E+02  0.94915007400E+02  0.90020841198E+02 0.  0.
         13    1    3    3    0    0 -0.99616558700E+01 -0.21115105936E+02 -0.38872243838E+02  0.45344732786E+02  0.10566000000E+00 0.  1.
         22    1    1    0    0    0 -0.13874975831E+02 -0.17928627443E+02  0.19777667796E+02  0.30084992600E+02  0.00000000000E+00 0. -1.
</event>
<event>
 5    1  0.1315753E-009  0.9118800E+02  0.7818608E-02  0.1130116E+00
         25   -1    0    0    0    0  0.00000000000E+00  0.00000000000E+00  0.99999998245E-14  0.12500000000E+03  0.12500000000E+03 0.  0.
        -13    1    3    3    0    0  0.52861514771E+01  0.17741173272E+02 -0.11096329710E+02  0.21583149065E+02  0.10566000000E+00 0.  1.
         23    2    1    0    0    0 -0.32020289415E+02 -0.24192623170E+02  0.13213763280E+02  0.82748544521E+02  0.71148690292E+02 0.  0.
         13    1    3    3    0    0 -0.37306440892E+02 -0.41933796442E+02  0.24310092989E+02  0.61165395456E+02  0.10566000000E+00 0. -1.
         22    1    1    0    0    0  0.32020289415E+02  0.24192623170E+02 -0.13213763280E+02  0.42251455479E+02  0.00000000000E+00 0. -1.
</event>
<event>
 5    1  0.1315753E-009  0.9118800E+02  0.7818608E-02  0.1130116E+00
         25   -1    0    0    0    0  0.00000000000E+00  0.00000000000E+00  0.99999998245E-14  0.12500000000E+03  0.12500000000E+03 0.  0.
        -13    1    3    3    0    0 -0.28364181146E+01 -0.27581969879E+02 -0.21602127736E+02  0.35149301798E+02  0.10566000000E+00 0.  1.
         23    2    1    0    0    0  0.13233007194E+02  0.27128574840E+02 -0.68469493151E+01  0.94049187940E+02  0.88810455381E+02 0.  0.
         13    1    3    3    0    0  0.16069425308E+02  0.54710544719E+02  0.14755178421E+02  0.58899886142E+02  0.10566000000E+00 0. -1.
         22    1    1    0    0    0 -0.13233007194E+02 -0.27128574840E+02  0.68469493151E+01  0.30950812060E+02  0.00000000000E+00 0. -1.
</event>
<event>
 5    1  0.1315753E-009  0.9118800E+02  0.7818608E-02  0.1130116E+00
         25   -1    0    0    0    0  0.00000000000E+00  0.00000000000E+00  0.99999998245E-14  0.12500000000E+03  0.12500000000E+03 0.  0.
        -13    1    3    3    0    0 -0.27235150030E+02  0.13674611529E+02  0.84906957693E+01  0.31636236760E+02  0.10566000000E+00 0.  1.
         23    2    1    0    0    0  0.31056661609E+02 -0.33548135115E+01 -0.35977267644E+01  0.93556166870E+02  0.88113799813E+02 0.  0.
         13    1    3    3    0    0  0.58291811640E+02 -0.17029425041E+02 -0.12088422534E+02  0.61919930110E+02  0.10566000000E+00 0. -1.
         22    1    1    0    0    0 -0.31056661609E+02  0.33548135115E+01  0.35977267644E+01  0.31443833130E+02  0.00000000000E+00 0. -1.
</event>
<event>
 5    1  0.1315753E-009  0.9118800E+02  0.7818608E-02  0.1130116E+00
         25   -1    0    0    0    0  0.00000000000E+00  0.00000000000E+00  0.99999998245E-14  0.12500000000E+03  0.12500000000E+03 0.  0.
        -13    1    3    3    0    0  0.33059854232E+02 -0.39359899188E+02  0.29749080316E+02  0.59390020791E+02  0.10566000000E+00 0.  1.
         23    2    1    0    0    0  0.56680141367E+01 -0.17406165223E+02  0.23767651025E+02  0.94999963212E+02  0.90138730870E+02 0.  0.
         13    1    3    3    0    0 -0.27391840095E+02  0.21953733965E+02 -0.59814292902E+01  0.35609942420E+02  0.10566000000E+00 0. -1.
         22    1    1    0    0    0 -0.56680141367E+01  0.17406165223E+02 -0.23767651025E+02  0.30000036788E+02  0.00000000000E+00 0.  1.
</event>
<event>
 5    1  0.1315753E-009  0.9118800E+02  0.7818608E-02  0.1130116E+00
         25   -1    0    0    0    0  0.00000000000E+00  0.00000000000E+00  0.99999998245E-14  0.12500000000E+03  0.12500000000E+03 0.  0.
        -13    1    3    3    0    0 -0.81340136390E+01 -0.11306660080E+02 -0.59176775004E+02  0.60793952035E+02  0.10566000000E+00 0. -1.
         23    2    1    0    0    0 -0.40278166381E+01  0.50802339945E+01 -0.28058035040E+02  0.96202683899E+02  0.91791453713E+02 0.  0.
         13    1    3    3    0    0  0.41061970008E+01  0.16386894075E+02  0.31118739964E+02  0.35408731864E+02  0.10566000000E+00 0.  1.
         22    1    1    0    0    0  0.40278166381E+01 -0.50802339945E+01  0.28058035040E+02  0.28797316101E+02  0.00000000000E+00 0. -1.
</event>
<event>
 5    1  0.1315753E-009  0.9118800E+02  0.7818608E-02  0.1130116E+00
         25   -1    0    0    0    0  0.00000000000E+00  0.00000000000E+00  0.99999998245E-14  0.12500000000E+03  0.12500000000E+03 0.  0.
        -13    1    3    3    0    0 -0.21137892173E+02  0.54124631406E+02 -0.30149447199E+01  0.58184080864E+02  0.10566000000E+00 0. -1.
         23    2    1    0    0    0 -0.40622294558E+01  0.23298442294E+02 -0.16764149947E+02  0.96011108249E+02  0.91530197544E+02 0.  0.
         13    1    3    3    0    0  0.17075662717E+02 -0.30826189112E+02 -0.13749205227E+02  0.37827027385E+02  0.10566000000E+00 0.  1.
         22    1    1    0    0    0  0.40622294558E+01 -0.23298442294E+02  0.16764149947E+02  0.28988891751E+02  0.00000000000E+00 0. -1.
</event>
<event>
 5    1  0.1315753E-009  0.9118800E+02  0.7818608E-02  0.1130116E+00
         25   -1    0    0    0    0  0.00000000000E+00  0.00000000000E+00  0.99999998245E-14  0.12500000000E+03  0.12500000000E+03 0.  0.
        -13    1    3    3    0    0  0.10053822359E+02 -0.26119144140E+01 -0.50808545317E+02  0.51859626707E+02  0.10566000000E+00 0.  1.
         23    2    1    0    0    0  0.65486007302E+01 -0.26044748295E+02 -0.16749936701E+02  0.93349194880E+02  0.87819694374E+02 0.  0.
         13    1    3    3    0    0 -0.35052216285E+01 -0.23432833881E+02  0.34058608615E+02  0.41489568173E+02  0.10566000000E+00 0. -1.
         22    1    1    0    0    0 -0.65486007302E+01  0.26044748295E+02  0.16749936701E+02  0.31650805120E+02  0.00000000000E+00 0.  1.
</event>
<event>
 5    1  0.1315753E-009  0.9118800E+02  0.7818608E-02  0.1130116E+00
         25   -1    0    0    0    0  0.00000000000E+00  0.00000000000E+00  0.99999998245E-14  0.12500000000E+03  0.12500000000E+03 0.  0.
        -13    1    3    3    0    0  0.10832851741E+02  0.19027005160E+02  0.29113856986E+02  0.36428085797E+02  0.10566000000E+00 0. -1.
         23    2    1    0    0    0 -0.20300705586E+02  0.70976074647E+00 -0.19398771006E+02  0.96912018155E+02  0.92752382927E+02 0.  0.
         13    1    3    3    0    0 -0.31133557327E+02 -0.18317244414E+02 -0.48512627992E+02  0.60483932358E+02  0.10566000000E+00 0.  1.
         22    1    1    0    0    0  0.20300705586E+02 -0.70976074647E+00  0.19398771006E+02  0.28087981845E+02  0.00000000000E+00 0.  1.
</event>
<event>
 5    1  0.1315753E-009  0.9118800E+02  0.7818608E-02  0.1130116E+00
         25   -1    0    0    0    0  0.00000000000E+00  0.00000000000E+00  0.99999998245E-14  0.12500000000E+03  0.12500000000E+03 0.  0.
        -13    1    3    3    0    0 -0.34567649282E+02 -0.11073801411E+02 -0.32811535628E+02  0.48930149078E+02  0.10566000000E+00 0.  1.
         23    2    1    0    0    0  0.56560170458E+01  0.12168083126E+02 -0.25809657528E+02  0.95910634288E+02  0.91392880314E+02 0.  0.
         13    1    3    3    0    0  0.40223666327E+02  0.23241884537E+02  0.70018780991E+01  0.46980485210E+02  0.10566000000E+00 0. -1.
         22    1    1    0    0    0 -0.56560170458E+01 -0.12168083126E+02  0.25809657528E+02  0.29089365712E+02  0.00000000000E+00 0.  1.
</event>
<event>
 5    1  0.1315753E-009  0.9118800E+02  0.7818608E-02  0.1130116E+00
         25   -1    0    0    0    0  0.00000000000E+00  0.00000000000E+00  0.99999998245E-14  0.12500000000E+03  0.12500000000E+03 0.  0.
        -13    1    3    3    0    0 -0.16134448232E+02 -0.27700322196E+02  0.53621594254E+02  0.62473312733E+02  0.10566000000E+00 0. -1.
         23    2    1    0    0    0 -0.88332374032E+01 -0.13336334138E+02  0.24955192807E+02  0.95358044273E+02  0.90633939936E+02 0.  0.
         13    1    3    3    0    0  0.73012108289E+01  0.14363988058E+02 -0.28666401446E+02  0.32884731540E+02  0.10566000000E+00 0.  1.
         22    1    1    0    0    0  0.88332374032E+01  0.13336334138E+02 -0.24955192807E+02  0.29641955727E+02  0.00000000000E+00 0. -1.
</event>
<event>
 5    1  0.1315753E-009  0.9118800E+02  0.7818608E-02  0.1130116E+00
         25   -1    0    0    0    0  0.00000000000E+00  0.00000000000E+00  0.99999998245E-14  0.12500000000E+03  0.12500000000E+03 0.  0.
        -13    1    3    3    0    0  0.53766239280E+02 -0.13068019106E+02 -0.39726278525E+01  0.55474088958E+02  0.10566000000E+00 0. -1.
         23    2    1    0    0    0  0.28083274356E+02  0.14602690499E+02 -0.13447753972E+01  0.93318502415E+02  0.87775996741E+02 0.  0.
         13    1    3    3    0    0 -0.25682964924E+02  0.27670709605E+02  0.26278524553E+01  0.37844413457E+02  0.10566000000E+00 0.  1.
         22    1    1    0    0    0 -0.28083274356E+02 -0.14602690499E+02  0.13447753972E+01  0.31681497585E+02  0.00000000000E+00 0. -1.
</event>
<event>
 5    1  0.1315753E-009  0.9118800E+02  0.7818608E-02  0.1130116E+00
         25   -1    0    0    0    0  0.00000000000E+00  0.00000000000E+00  0.99999998245E-14  0.12500000000E+03  0.12500000000E+03 0.  0.
        -13    1    3    3    0    0  0.22103898830E+02 -0.10049539659E+02  0.23284412851E+01  0.24392793889E+02  0.10566000000E+00 0. -1.
         23    2    1    0    0    0 -0.37165591870E+02  0.51795892592E+00  0.13172096226E+02  0.85565831827E+02  0.75937197452E+02 0.  0.
         13    1    3    3    0    0 -0.59269490700E+02  0.10567498585E+02  0.10843654941E+02  0.61173037939E+02  0.10566000000E+00 0.  1.
         22    1    1    0    0    0  0.37165591870E+02 -0.51795892592E+00 -0.13172096226E+02  0.39434168173E+02  0.00000000000E+00 0.  1.
</event>
<event>
 5    1  0.1315753E-009  0.9118800E+02  0.7818608E-02  0.1130116E+00
         25   -1    0    0    0    0  0.00000000000E+00  0.00000000000E+00  0.99999998245E-14  0.12500000000E+03  0.12500000000E+03 0.  0.
        -13    1    3    3    0    0  0.47058325127E+02 -0.29680742830E+02  0.14382175154E+02  0.57465559989E+02  0.10566000000E+00 0. -1.
         23    2    1    0    0    0  0.11560114825E+02 -0.28161330692E+02  0.72967654743E+01  0.93696013234E+02  0.88311965828E+02 0.  0.
         13    1    3    3    0    0 -0.35498210302E+02  0.15194121382E+01 -0.70854096799E+01  0.36230453244E+02  0.10566000000E+00 0.  1.
         22    1    1    0    0    0 -0.11560114825E+02  0.28161330692E+02 -0.72967654743E+01  0.31303986766E+02  0.00000000000E+00 0. -1.
</event>
<event>
 5    1  0.1315753E-009  0.9118800E+02  0.7818608E-02  0.1130116E+00
         25   -1    0    0    0    0  0.00000000000E+00  0.00000000000E+00  0.99999998245E-14  0.12500000000E+03  0.12500000000E+03 0.  0.
        -13    1    3    3    0    0 -0.28825197084E+02 -0.49078804405E+02 -0.54558547943E+01  0.57178654621E+02  0.10566000000E+00 0.  1.
         23    2    1    0    0    0 -0.20765472867E+02 -0.17337908353E+02  0.13233448571E+02  0.94884686777E+02  0.89978729121E+02 0.  0.
         13    1    3    3    0    0  0.80597242168E+01  0.31740896052E+02  0.18689303365E+02  0.37706032156E+02  0.10566000000E+00 0. -1.
         22    1    1    0    0    0  0.20765472867E+02  0.17337908353E+02 -0.13233448571E+02  0.30115313223E+02  0.00000000000E+00 0.  1.
</event>
<event>
 5    1  0.1315753E-009  0.9118800E+02  0.7818608E-02  0.1130116E+00
         25   -1    0    0    0    0  0.00000000000E+00  0.00000000000E+00  0.99999998245E-14  0.12500000000E+03  0.12500000000E+03 0.  0.
        -13    1    3    3    0    0  0.19608583296E+02  0.13180537628E+02 -0.54115749190E+02  0.59048696730E+02  0.10566000000E+00 0.  1.
         23    2    1    0    0    0 -0.40086176600E+01  0.12324457013E+02 -0.27219404015E+02  0.94852741233E+02  0.89934338871E+02 0.  0.
         13    1    3    3    0    0 -0.23617200956E+02 -0.85608061497E+00  0.26896345175E+02  0.35804044503E+02  0.10566000000E+00 0. -1.
         22    1    1    0    0    0  0.40086176600E+01 -0.12324457013E+02  0.27219404015E+02  0.30147258767E+02  0.00000000000E+00 0.  1.
</event>
<event>
 5    1  0.1315753E-009  0.9118800E+02  0.7818608E-02  0.1130116E+00
         25   -1    0    0    0    0  0.00000000000E+00  0.00000000000E+00  0.99999998245E-14  0.12500000000E+03  0.12500000000E+03 0.  0.
        -13    1    3    3    0    0 -0.74879364608E+01  0.33276557672E+02  0.11998081179E+02  0.36157483305E+02  0.10566000000E+00 0.  1.
         23    2    1    0    0    0 -0.50864991272E+01 -0.19562403584E+02 -0.18826592944E+02  0.97377532528E+02  0.93377637215E+02 0.  0.
         13    1    3    3    0    0  0.24014373336E+01 -0.52838961257E+02 -0.30824674123E+02  0.61220049222E+02  0.10566000000E+00 0. -1.
         22    1    1    0    0    0  0.50864991272E+01  0.19562403584E+02  0.18826592944E+02  0.27622467472E+02  0.00000000000E+00 0. -1.
</event>
<event>
 5    1  0.1315753E-009  0.9118800E+02  0.7818608E-02  0.1130116E+00
         25   -1    0    0    0    0  0.00000000000E+00  0.00000000000E+00  0.99999998245E-14  0.12500000000E+03  0.12500000000E+03 0.  0.
        -13    1    3    3    0    0  0.14420401519E+02  0.34023723748E+02 -0.49275397858E+02  0.61592513797E+02  0.10566000000E+00 0.  1.
         23    2    1    0    0    0  0.31586030652E+00  0.12186426043E+02 -0.25116051513E+02  0.97081819704E+02  0.92980938509E+02 0.  0.
         13    1    3    3    0    0 -0.14104541213E+02 -0.21837297706E+02  0.24159346346E+02  0.35489305907E+02  0.10566000000E+00 0. -1.
         22    1    1    0    0    0 -0.31586030652E+00 -0.12186426043E+02  0.25116051513E+02  0.27918180296E+02  0.00000000000E+00 0.  1.
</event>
<event>
 5    1  0.1315753E-009  0.9118800E+02  0.7818608E-02  0.1130116E+00
         25   -1    0    0    0    0  0.00000000000E+00  0.00000000000E+00  0.99999998245E-14  0.12500000000E+03  0.12500000000E+03 0.  0.
        -13    1    3    3    0    0 -0.59413309346E+02  0.40153623674E+01  0.12486580445E+02  0.60843983413E+02  0.10566000000E+00 0.  1.
         23    2    1    0    0    0 -0.28147372119E+02  0.47214063839E+01 -0.39716837880E+01  0.96184370429E+02  0.91766511360E+02 0.  0.
         13    1    3    3    0    0  0.31265937226E+02  0.70604401649E+00 -0.16458264233E+02  0.35340387015E+02  0.10566000000E+00 0. -1.
         22    1    1    0    0    0  0.28147372119E+02 -0.47214063839E+01  0.39716837880E+01  0.28815629571E+02  0.00000000000E+00 0.  1.
</event>
<event>
 5    1  0.1315753E-009  0.9118800E+02  0.7818608E-02  0.1130116E+00
         25   -1    0    0    0    0  0.00000000000E+00  0.00000000000E+00  0.99999998245E-14  0.12500000000E+03  0.12500000000E+03 0.  0.
        -13    1    3    3    0    0 -0.31360456940E+02  0.27829338825E+02 -0.18933822544E+02  0.46004903642E+02  0.10566000000E+00 0. -1.
         23    2    1    0    0    0  0.13115543279E+02  0.95501575800E+01 -0.25743469826E+02  0.94570586203E+02  0.89541311978E+02 0.  0.
         13    1    3    3    0    0  0.44476000219E+02 -0.18279181245E+02 -0.68096472821E+01  0.48565682561E+02  0.10566000000E+00 0.  1.
         22    1    1    0    0    0 -0.13115543279E+02 -0.95501575800E+01  0.25743469826E+02  0.30429413797E+02  0.00000000000E+00 0. -1.
</event>
<event>
 5    1  0.1315753E-009  0.9118800E+02  0.7818608E-02  0.1130116E+00
         25   -1    0    0    0    0  0.00000000000E+00  0.00000000000E+00  0.99999998245E-14  0.12500000000E+03  0.12500000000E+03 0.  0.
        -13    1    3    3    0    0 -0.12338853320E+02 -0.33053379207E+02  0.14727658008E+02  0.38232031762E+02  0.10566000000E+00 0. -1.
         23    2    1    0    0    0 -0.85302708441E+01  0.19865987075E+02 -0.14655036162E+02  0.98881174451E+02  0.95369248780E+02 0.  0.
         13    1    3    3    0    0  0.38085824763E+01  0.52919366282E+02 -0.29382694169E+02  0.60649142689E+02  0.10566000000E+00 0.  1.
         22    1    1    0    0    0  0.85302708441E+01 -0.19865987075E+02  0.14655036162E+02  0.26118825549E+02  0.00000000000E+00 0.  1.
</event>
<event>
 5    1  0.1315753E-009  0.9118800E+02  0.7818608E-02  0.1130116E+00
         25   -1    0    0    0    0  0.00000000000E+00  0.00000000000E+00  0.99999998245E-14  0.12500000000E+03  0.12500000000E+03 0.  0.
        -13    1    3    3    0    0  0.29996631084E+02 -0.20033900496E+02 -0.33545966358E+02  0.49259497241E+02  0.10566000000E+00 0.  1.
         23    2    1    0    0    0  0.19157875613E+02 -0.25151454949E+02  0.79059924902E+01  0.92409746835E+02  0.86472173032E+02 0.  0.
         13    1    3    3    0    0 -0.10838755471E+02 -0.51175544531E+01  0.41451958848E+02  0.43150249595E+02  0.10566000000E+00 0. -1.
         22    1    1    0    0    0 -0.19157875613E+02  0.25151454949E+02 -0.79059924902E+01  0.32590253165E+02  0.00000000000E+00 0. -1.
</event>
<event>
 5    1  0.1315753E-009  0.9118800E+02  0.7818608E-02  0.1130116E+00
         25   -1    0    0    0    0  0.00000000000E+00  0.00000000000E+00  0.99999998245E-14  0.12500000000E+03  0.12500000000E+03 0.  0.
        -13    1    3    3    0    0 -0.43983639517E+02  0.55563651405E+01  0.41998052566E+02  0.61067841964E+02  0.10566000000E+00 0.  1.
         23    2    1    0    0    0 -0.17765053446E+02 -0.66722781175E+01  0.20147068786E+02  0.97322919231E+02  0.93304500469E+02 0.  0.
         13    1    3    3    0    0  0.26218586071E+02 -0.12228643258E+02 -0.21850983780E+02  0.36255077267E+02  0.10566000000E+00 0. -1.
         22    1    1    0    0    0  0.17765053446E+02  0.66722781175E+01 -0.20147068786E+02  0.27677080769E+02  0.00000000000E+00 0.  1.
</event>
<event>
 5    1  0.1315753E-009  0.9118800E+02  0.7818608E-02  0.1130116E+00
         25   -1    0    0    0    0  0.00000000000E+00  0.00000000000E+00  0.99999998245E-14  0.12500000000E+03  0.12500000000E+03 0.  0.
        -13    1    3    3    0    0 -0.25549372498E+02 -0.24102879353E+02 -0.87989607461E+01  0.36209834332E+02  0.10566000000E+00 0. -1.
         23    2    1    0    0    0  0.14039136030E+02 -0.48732523280E+01  0.27817388158E+02  0.93461880008E+02  0.87979940907E+02 0.  0.
         13    1    3    3    0    0  0.39588508528E+02  0.19229627025E+02  0.36616348904E+02  0.57252045676E+02  0.10566000000E+00 0.  1.
         22    1    1    0    0    0 -0.14039136030E+02  0.48732523280E+01 -0.27817388158E+02  0.31538119992E+02  0.00000000000E+00 0.  1.
</event>
<event>
 5    1  0.1315753E-009  0.9118800E+02  0.7818608E-02  0.1130116E+00
         25   -1    0    0    0    0  0.00000000000E+00  0.00000000000E+00  0.99999998245E-14  0.12500000000E+03  0.12500000000E+03 0.  0.
        -13    1    3    3    0    0 -0.15009690523E+02 -0.29984279879E+02 -0.49016470546E+02  0.59388327121E+02  0.10566000000E+00 0.  1.
         23    2    1    0    0    0 -0.10209508341E+02 -0.18746877827E+02 -0.79719942804E+01  0.10221333325E+03  0.99641022236E+02 0.  0.
         13    1    3    3    0    0  0.48001821820E+01  0.11237402052E+02  0.41044476266E+02  0.42825006127E+02  0.10566000000E+00 0. -1.
         22    1    1    0    0    0  0.10209508341E+02  0.18746877827E+02  0.79719942804E+01  0.22786666751E+02  0.00000000000E+00 0.  1.
</event>
<event>
 5    1  0.1315753E-009  0.9118800E+02  0.7818608E-02  0.1130116E+00
         25   -1    0    0    0    0  0.00000000000E+00  0.00000000000E+00  0.99999998245E-14  0.12500000000E+03  0.12500000000E+03 0.  0.
        -13    1    3    3    0    0 -0.17167317519E+01 -0.45689816950E+02  0.25466234498E+02  0.52335903588E+02  0.10566000000E+00 0. -1.
         23    2    1    0    0    0 -0.23477122304E+02 -0.13186920153E+02  0.19150871476E+02  0.91957209363E+02  0.85815513404E+02 0.  0.
         13    1    3    3    0    0 -0.21760390552E+02  0.32502896797E+02 -0.63153630218E+01  0.39621305775E+02  0.10566000000E+00 0.  1.
         22    1    1    0    0    0  0.23477122304E+02  0.13186920153E+02 -0.19150871476E+02  0.33042790637E+02  0.00000000000E+00 0.  1.
</event>
<event>
 5    1  0.1315753E-009  0.9118800E+02  0.7818608E-02  0.1130116E+00
         25   -1    0    0    0    0  0.00000000000E+00  0.00000000000E+00  0.99999998245E-14  0.12500000000E+03  0.12500000000E+03 0.  0.
        -13    1    3    3    0    0  0.12726898945E+02 -0.35251561989E+02 -0.22646122277E+02  0.43789320589E+02  0.10566000000E+00 0.  1.
         23    2    1    0    0    0 -0.25499637449E+02 -0.42354630748E+00 -0.12925761281E+02  0.96408284308E+02  0.92071011057E+02 0.  0.
         13    1    3    3    0    0 -0.38226536394E+02  0.34828015682E+02  0.97203609957E+01  0.52618963719E+02  0.10566000000E+00 0. -1.
         22    1    1    0    0    0  0.25499637449E+02  0.42354630748E+00  0.12925761281E+02  0.28591715692E+02  0.00000000000E+00 0. -1.
</event>
<event>
 5    1  0.1315753E-009  0.9118800E+02  0.7818608E-02  0.1130116E+00
         25   -1    0    0    0    0  0.00000000000E+00  0.00000000000E+00  0.99999998245E-14  0.12500000000E+03  0.12500000000E+03 0.  0.
        -13    1    3    3    0    0  0.33065536808E+02  0.18401233528E+02 -0.19424019185E+02  0.42535147879E+02  0.10566000000E+00 0. -1.
         23    2    1    0    0    0  0.96033660834E+01 -0.23859769061E+02  0.79426452838E+01  0.98081626463E+02  0.94315463290E+02 0.  0.
         13    1    3    3    0    0 -0.23462170725E+02 -0.42261002589E+02  0.27366664468E+02  0.55546478584E+02  0.10566000000E+00 0.  1.
         22    1    1    0    0    0 -0.96033660834E+01  0.23859769061E+02 -0.79426452838E+01  0.26918373537E+02  0.00000000000E+00 0.  1.
</event>
<event>
 5    1  0.1315753E-009  0.9118800E+02  0.7818608E-02  0.1130116E+00
         25   -1    0    0    0    0  0.00000000000E+00  0.00000000000E+00  0.99999998245E-14  0.12500000000E+03  0.12500000000E+03 0.  0.
        -13    1    3    3    0    0  0.22965295918E+02 -0.39886523413E+02  0.14407195653E+02  0.48227772260E+02  0.10566000000E+00 0.  1.
         23    2    1    0    0    0 -0.87351622447E+01 -0.25636964070E+02 -0.15250242194E+02  0.93917418493E+02  0.88624796887E+02 0.  0.
         13    1    3    3    0    0 -0.31700458163E+02  0.14249559343E+02 -0.29657437847E+02  0.45689646233E+02  0.10566000000E+00 0. -1.
         22    1    1    0    0    0  0.87351622447E+01  0.25636964070E+02  0.15250242194E+02  0.31082581507E+02  0.00000000000E+00 0. -1.
</event>
<event>
 5    1  0.1315753E-009  0.9118800E+02  0.7818608E-02  0.1130116E+00
         25   -1    0    0    0    0  0.00000000000E+00  0.00000000000E+00  0.99999998245E-14  0.12500000000E+03  0.12500000000E+03 0.  0.
        -13    1    3    3    0    0  0.46968746782E+02 -0.62299430975E+01 -0.24135846422E+02  0.53173542404E+02  0.10566000000E+00 0.  1.
         23    2    1    0    0    0  0.49507992995E+01 -0.49606786548E+01 -0.28698912182E+02  0.95457720013E+02  0.90771306056E+02 0.  0.
         13    1    3    3    0    0 -0.42017947482E+02  0.12692644427E+01 -0.45630657596E+01  0.42284177608E+02  0.10566000000E+00 0. -1.
         22    1    1    0    0    0 -0.49507992995E+01  0.49606786548E+01  0.28698912182E+02  0.29542279987E+02  0.00000000000E+00 0.  1.
</event>
<event>
 4    1  0.1315753E-009  0.9118800E+02  0.7818608E-02  0.1130116E+00
         25   -1    0    0    0    0  0.00000000000E+00  0.00000000000E+00  0.99999998245E-14  0.12500000000E+03  0.12500000000E+03 0.  0.
        -13    1    1    0    0    0 -0.31351498100E+02  0.43415861024E+02 -0.55257048859E+01  0.53836771821E+02  0.10566000000E+00 0. -1.
         13    1    1    0    0    0  0.76884667568E+01  0.29897875629E+01  0.16026067916E+02  0.18024909642E+02  0.10566000000E+00 0.  1.
         22    1    1    0    0    0  0.23663031343E+02 -0.46405648587E+02 -0.10500363030E+02  0.53138318537E+02  0.00000000000E+00 0. -1.
</event>
<event>
 5    1  0.1315753E-009  0.9118800E+02  0.7818608E-02  0.1130116E+00
         25   -1    0    0    0    0  0.00000000000E+00  0.00000000000E+00  0.99999998245E-14  0.12500000000E+03  0.12500000000E+03 0.  0.
        -13    1    3    3    0    0 -0.23062913120E+02 -0.14976621030E+02  0.55903643979E+02  0.62301089182E+02  0.10566000000E+00 0. -1.
         23    2    1    0    0    0 -0.75485451065E+01 -0.75490932439E+01  0.27413208479E+02  0.95581411639E+02  0.90941480689E+02 0.  0.
         13    1    3    3    0    0  0.15514368014E+02  0.74275277859E+01 -0.28490435500E+02  0.33280322458E+02  0.10566000000E+00 0.  1.
         22    1    1    0    0    0  0.75485451065E+01  0.75490932439E+01 -0.27413208479E+02  0.29418588361E+02  0.00000000000E+00 0. -1.
</event>
<event>
 5    1  0.1315753E-009  0.9118800E+02  0.7818608E-02  0.1130116E+00
         25   -1    0    0    0    0  0.00000000000E+00  0.00000000000E+00  0.99999998245E-14  0.12500000000E+03  0.12500000000E+03 0.  0.
        -13    1    3    3    0    0  0.24519150629E+02  0.19077797263E+02 -0.16349451395E+02  0.35106506817E+02  0.10566000000E+00 0.  1.
         23    2    1    0    0    0 -0.13026397215E+01 -0.13850528380E+02  0.26544479766E+02  0.95030959097E+02  0.90181704210E+02 0.  0.
         13    1    3    3    0    0 -0.25821790351E+02 -0.32928325643E+02  0.42893931160E+02  0.59924452279E+02  0.10566000000E+00 0. -1.
         22    1    1    0    0    0  0.13026397215E+01  0.13850528380E+02 -0.26544479766E+02  0.29969040903E+02  0.00000000000E+00 0. -1.
</event>
<event>
 5    1  0.1315753E-009  0.9118800E+02  0.7818608E-02  0.1130116E+00
         25   -1    0    0    0    0  0.00000000000E+00  0.00000000000E+00  0.99999998245E-14  0.12500000000E+03  0.12500000000E+03 0.  0.
        -13    1    3    3    0    0  0.16576661150E+02 -0.21605842632E+02 -0.30530542999E+02  0.40911164131E+02  0.10566000000E+00 0.  1.
         23    2    1    0    0    0  0.18955327260E+02  0.89386425134E+01  0.17375842621E+02  0.97776413383E+02  0.93910081172E+02 0.  0.
         13    1    3    3    0    0  0.23786661099E+01  0.30544485146E+02  0.47906385619E+02  0.56865249251E+02  0.10566000000E+00 0. -1.
         22    1    1    0    0    0 -0.18955327260E+02 -0.89386425134E+01 -0.17375842621E+02  0.27223586617E+02  0.00000000000E+00 0. -1.
</event>
<event>
 5    1  0.1315753E-009  0.9118800E+02  0.7818608E-02  0.1130116E+00
         25   -1    0    0    0    0  0.00000000000E+00  0.00000000000E+00  0.99999998245E-14  0.12500000000E+03  0.12500000000E+03 0.  0.
        -13    1    3    3    0    0 -0.26243747792E+02 -0.18684004081E+02 -0.18555425098E+02  0.37177160613E+02  0.10566000000E+00 0. -1.
         23    2    1    0    0    0 -0.23637170123E+01  0.28582842179E+02  0.62356533379E+01  0.95649541781E+02  0.91035078103E+02 0.  0.
         13    1    3    3    0    0  0.23880030780E+02  0.47266846259E+02  0.24791078436E+02  0.58472381168E+02  0.10566000000E+00 0.  1.
         22    1    1    0    0    0  0.23637170123E+01 -0.28582842179E+02 -0.62356533379E+01  0.29350458219E+02  0.00000000000E+00 0.  1.
</event>
<event>
 5    1  0.1315753E-009  0.9118800E+02  0.7818608E-02  0.1130116E+00
         25   -1    0    0    0    0  0.00000000000E+00  0.00000000000E+00  0.99999998245E-14  0.12500000000E+03  0.12500000000E+03 0.  0.
        -13    1    3    3    0    0 -0.74916106035E+00  0.38905245076E+02  0.23247424651E+02  0.45328062540E+02  0.10566000000E+00 0.  1.
         23    2    1    0    0    0 -0.28886208795E+02  0.26819793867E+01  0.18792236204E+01  0.95928750398E+02  0.91417654748E+02 0.  0.
         13    1    3    3    0    0 -0.28137047735E+02 -0.36223265689E+02 -0.21368201030E+02  0.50600687858E+02  0.10566000000E+00 0. -1.
         22    1    1    0    0    0  0.28886208795E+02 -0.26819793867E+01 -0.18792236204E+01  0.29071249602E+02  0.00000000000E+00 0. -1.
</event>
<event>
 5    1  0.1315753E-009  0.9118800E+02  0.7818608E-02  0.1130116E+00
         25   -1    0    0    0    0  0.00000000000E+00  0.00000000000E+00  0.99999998245E-14  0.12500000000E+03  0.12500000000E+03 0.  0.
        -13    1    3    3    0    0 -0.14348187462E+02 -0.92492999167E+01 -0.28739126868E+02  0.33427064029E+02  0.10566000000E+00 0. -1.
         23    2    1    0    0    0  0.28251566279E+02 -0.46368451661E+01  0.13279746768E+02  0.93440484722E+02  0.87949537694E+02 0.  0.
         13    1    3    3    0    0  0.42599753741E+02  0.46124547505E+01  0.42018873637E+02  0.60013420694E+02  0.10566000000E+00 0.  1.
         22    1    1    0    0    0 -0.28251566279E+02  0.46368451661E+01 -0.13279746768E+02  0.31559515278E+02  0.00000000000E+00 0.  1.
</event>
<event>
 5    1  0.1315753E-009  0.9118800E+02  0.7818608E-02  0.1130116E+00
         25   -1    0    0    0    0  0.00000000000E+00  0.00000000000E+00  0.99999998245E-14  0.12500000000E+03  0.12500000000E+03 0.  0.
        -13    1    3    3    0    0  0.36758179929E+02  0.30480827555E+02 -0.28845318965E+02  0.55788065304E+02  0.10566000000E+00 0.  1.
         23    2    1    0    0    0 -0.93986263535E+00  0.20940482429E+02 -0.20743352350E+02  0.95509767501E+02  0.90842951709E+02 0.  0.
         13    1    3    3    0    0 -0.37698042565E+02 -0.95403451256E+01  0.81019666147E+01  0.39721702196E+02  0.10566000000E+00 0. -1.
         22    1    1    0    0    0  0.93986263535E+00 -0.20940482429E+02  0.20743352350E+02  0.29490232499E+02  0.00000000000E+00 0.  1.
</event>
<event>
 5    1  0.1315753E-009  0.9118800E+02  0.7818608E-02  0.1130116E+00
         25   -1    0    0    0    0  0.00000000000E+00  0.00000000000E+00  0.99999998245E-14  0.12500000000E+03  0.12500000000E+03 0.  0.
        -13    1    3    3    0    0  0.28802419104E+02  0.16352228523E+02  0.51084985632E+01  0.33512425241E+02  0.10566000000E+00 0. -1.
         23    2    1    0    0    0 -0.18923896887E+02 -0.18563368310E+02 -0.13159674282E+02  0.95404568873E+02  0.90698082770E+02 0.  0.
         13    1    3    3    0    0 -0.47726315991E+02 -0.34915596833E+02 -0.18268172845E+02  0.61892143632E+02  0.10566000000E+00 0.  1.
         22    1    1    0    0    0  0.18923896887E+02  0.18563368310E+02  0.13159674282E+02  0.29595431127E+02  0.00000000000E+00 0.  1.
</event>
<event>
 5    1  0.1315753E-009  0.9118800E+02  0.7818608E-02  0.1130116E+00
         25   -1    0    0    0    0  0.00000000000E+00  0.00000000000E+00  0.99999998245E-14  0.12500000000E+03  0.12500000000E+03 0.  0.
        -13    1    3    3    0    0 -0.29050794599E+02 -0.50547894258E+02 -0.14016999152E+02  0.59962702657E+02  0.10566000000E+00 0. -1.
         23    2    1    0    0    0 -0.23485058123E+02 -0.21410961058E+02  0.98544680261E+00  0.93204586591E+02  0.87613621359E+02 0.  0.
         13    1    3    3    0    0  0.55657364761E+01  0.29136933200E+02  0.15002445954E+02  0.33241883933E+02  0.10566000000E+00 0.  1.
         22    1    1    0    0    0  0.23485058123E+02  0.21410961058E+02 -0.98544680261E+00  0.31795413409E+02  0.00000000000E+00 0. -1.
</event>
<event>
 5    1  0.1315753E-009  0.9118800E+02  0.7818608E-02  0.1130116E+00
         25   -1    0    0    0    0  0.00000000000E+00  0.00000000000E+00  0.99999998245E-14  0.12500000000E+03  0.12500000000E+03 0.  0.
        -13    1    3    3    0    0  0.14220427590E+02 -0.15318813511E+02  0.30087063315E+02  0.36635080881E+02  0.10566000000E+00 0. -1.
         23    2    1    0    0    0 -0.98846056073E+01 -0.15153509616E+02 -0.23469341897E+02  0.95366500531E+02  0.90645601839E+02 0.  0.
         13    1    3    3    0    0 -0.24105033197E+02  0.16530389551E+00 -0.53556405212E+02  0.58731419650E+02  0.10566000000E+00 0.  1.
         22    1    1    0    0    0  0.98846056073E+01  0.15153509616E+02  0.23469341897E+02  0.29633499469E+02  0.00000000000E+00 0.  1.
</event>
<event>
 5    1  0.1315753E-009  0.9118800E+02  0.7818608E-02  0.1130116E+00
         25   -1    0    0    0    0  0.00000000000E+00  0.00000000000E+00  0.99999998245E-14  0.12500000000E+03  0.12500000000E+03 0.  0.
        -13    1    3    3    0    0 -0.49111576349E+02 -0.20988619230E+01 -0.89651979265E+01  0.49967370261E+02  0.10566000000E+00 0. -1.
         23    2    1    0    0    0 -0.11452256916E+02 -0.26387463070E+02  0.22017082620E+01  0.96150391424E+02  0.91720215089E+02 0.  0.
         13    1    3    3    0    0  0.37659319433E+02 -0.24288601147E+02  0.11166906188E+02  0.46183021163E+02  0.10566000000E+00 0.  1.
         22    1    1    0    0    0  0.11452256916E+02  0.26387463070E+02 -0.22017082620E+01  0.28849608576E+02  0.00000000000E+00 0. -1.
</event>
<event>
 5    1  0.1315753E-009  0.9118800E+02  0.7818608E-02  0.1130116E+00
         25   -1    0    0    0    0  0.00000000000E+00  0.00000000000E+00  0.99999998245E-14  0.12500000000E+03  0.12500000000E+03 0.  0.
        -13    1    3    3    0    0 -0.29134732404E+02  0.39979765174E+02  0.36795145272E+02  0.61653127538E+02  0.10566000000E+00 0.  1.
         23    2    1    0    0    0 -0.10114567748E+02  0.24951238265E+02  0.15413073620E+02  0.93976918108E+02  0.88708677856E+02 0.  0.
         13    1    3    3    0    0  0.19020164656E+02 -0.15028526910E+02 -0.21382071652E+02  0.32323790570E+02  0.10566000000E+00 0. -1.
         22    1    1    0    0    0  0.10114567748E+02 -0.24951238265E+02 -0.15413073620E+02  0.31023081892E+02  0.00000000000E+00 0.  1.
</event>
<event>
 5    1  0.1315753E-009  0.9118800E+02  0.7818608E-02  0.1130116E+00
         25   -1    0    0    0    0  0.00000000000E+00  0.00000000000E+00  0.99999998245E-14  0.12500000000E+03  0.12500000000E+03 0.  0.
        -13    1    3    3    0    0  0.39806305939E+02 -0.25789365987E+01  0.41531008303E+02  0.57584969577E+02  0.10566000000E+00 0.  1.
         23    2    1    0    0    0  0.10743543943E+02 -0.17384494032E+02  0.17431727074E+02  0.98139071535E+02  0.94391566804E+02 0.  0.
         13    1    3    3    0    0 -0.29062761997E+02 -0.14805557434E+02 -0.24099281229E+02  0.40554101958E+02  0.10566000000E+00 0. -1.
         22    1    1    0    0    0 -0.10743543943E+02  0.17384494032E+02 -0.17431727074E+02  0.26860928465E+02  0.00000000000E+00 0.  1.
</event>
<event>
 5    1  0.1315753E-009  0.9118800E+02  0.7818608E-02  0.1130116E+00
         25   -1    0    0    0    0  0.00000000000E+00  0.00000000000E+00  0.99999998245E-14  0.12500000000E+03  0.12500000000E+03 0.  0.
        -13    1    3    3    0    0  0.14863508838E+02  0.20944648741E+02  0.25358949619E+02  0.36092792850E+02  0.10566000000E+00 0.  1.
         23    2    1    0    0    0 -0.67728272495E+01  0.43090838113E+01 -0.27916498969E+02  0.95952275357E+02  0.91449815961E+02 0.  0.
         13    1    3    3    0    0 -0.21636336088E+02 -0.16635564930E+02 -0.53275448587E+02  0.59859482508E+02  0.10566000000E+00 0. -1.
         22    1    1    0    0    0  0.67728272495E+01 -0.43090838113E+01  0.27916498969E+02  0.29047724643E+02  0.00000000000E+00 0. -1.
</event>
<event>
 5    1  0.1315753E-009  0.9118800E+02  0.7818608E-02  0.1130116E+00
         25   -1    0    0    0    0  0.00000000000E+00  0.00000000000E+00  0.99999998245E-14  0.12500000000E+03  0.12500000000E+03 0.  0.
        -13    1    3    3    0    0  0.48686647011E+02  0.10417757621E+02  0.31546193239E+00  0.49789857915E+02  0.10566000000E+00 0.  1.
         23    2    1    0    0    0  0.13375276757E+02 -0.52090034253E+01 -0.25147635414E+02  0.96044252523E+02  0.91575450481E+02 0.  0.
         13    1    3    3    0    0 -0.35311370254E+02 -0.15626761046E+02 -0.25463097347E+02  0.46254394608E+02  0.10566000000E+00 0. -1.
         22    1    1    0    0    0 -0.13375276757E+02  0.52090034253E+01  0.25147635414E+02  0.28955747477E+02  0.00000000000E+00 0.  1.
</event>
<event>
 5    1  0.1315753E-009  0.9118800E+02  0.7818608E-02  0.1130116E+00
         25   -1    0    0    0    0  0.00000000000E+00  0.00000000000E+00  0.99999998245E-14  0.12500000000E+03  0.12500000000E+03 0.  0.
        -13    1    3    3    0    0  0.19588247446E+02 -0.25923598298E+01  0.52853659775E+02  0.56426414764E+02  0.10566000000E+00 0.  1.
         23    2    1    0    0    0 -0.32133178118E+01 -0.16579866486E+02  0.22090920168E+02  0.97193055941E+02  0.93130360169E+02 0.  0.
         13    1    3    3    0    0 -0.22801565258E+02 -0.13987506656E+02 -0.30762739607E+02  0.40766641177E+02  0.10566000000E+00 0. -1.
         22    1    1    0    0    0  0.32133178118E+01  0.16579866486E+02 -0.22090920168E+02  0.27806944059E+02  0.00000000000E+00 0. -1.
</event>
<event>
 5    1  0.1315753E-009  0.9118800E+02  0.7818608E-02  0.1130116E+00
         25   -1    0    0    0    0  0.00000000000E+00  0.00000000000E+00  0.99999998245E-14  0.12500000000E+03  0.12500000000E+03 0.  0.
        -13    1    3    3    0    0  0.51780326029E+02  0.13136774342E+01  0.22384144761E+02  0.56426846560E+02  0.10566000000E+00 0. -1.
         23    2    1    0    0    0  0.26020368245E+02  0.10475250365E+02 -0.65084600058E+01  0.96205026732E+02  0.91794644087E+02 0.  0.
         13    1    3    3    0    0 -0.25759957783E+02  0.91615729312E+01 -0.28892604767E+02  0.39778180172E+02  0.10566000000E+00 0.  1.
         22    1    1    0    0    0 -0.26020368245E+02 -0.10475250365E+02  0.65084600058E+01  0.28794973268E+02  0.00000000000E+00 0. -1.
</event>
<event>
 5    1  0.1315753E-009  0.9118800E+02  0.7818608E-02  0.1130116E+00
         25   -1    0    0    0    0  0.00000000000E+00  0.00000000000E+00  0.99999998245E-14  0.12500000000E+03  0.12500000000E+03 0.  0.
        -13    1    3    3    0    0 -0.15132150027E+02  0.33754234827E+02  0.37723196805E+02  0.52833522260E+02  0.10566000000E+00 0. -1.
         23    2    1    0    0    0  0.13369392614E+02  0.24463690704E+02  0.59941834404E+01  0.96484336640E+02  0.92174205503E+02 0.  0.
         13    1    3    3    0    0  0.28501542641E+02 -0.92905441224E+01 -0.31729013364E+02  0.43650814381E+02  0.10566000000E+00 0.  1.
         22    1    1    0    0    0 -0.13369392614E+02 -0.24463690704E+02 -0.59941834404E+01  0.28515663360E+02  0.00000000000E+00 0. -1.
</event>
<event>
 5    1  0.1315753E-009  0.9118800E+02  0.7818608E-02  0.1130116E+00
         25   -1    0    0    0    0  0.00000000000E+00  0.00000000000E+00  0.99999998245E-14  0.12500000000E+03  0.12500000000E+03 0.  0.
        -13    1    3    3    0    0  0.29388110854E+02 -0.34085170034E+02 -0.12818404320E+02  0.46795112236E+02  0.10566000000E+00 0.  1.
         23    2    1    0    0    0  0.15377013100E+02 -0.11795054357E+01  0.22932435224E+02  0.97364147376E+02  0.93359717459E+02 0.  0.
         13    1    3    3    0    0 -0.14011097754E+02  0.32905664598E+02  0.35750839544E+02  0.50569035140E+02  0.10566000000E+00 0. -1.
         22    1    1    0    0    0 -0.15377013100E+02  0.11795054357E+01 -0.22932435224E+02  0.27635852624E+02  0.00000000000E+00 0. -1.
</event>
<event>
 5    1  0.1315753E-009  0.9118800E+02  0.7818608E-02  0.1130116E+00
         25   -1    0    0    0    0  0.00000000000E+00  0.00000000000E+00  0.99999998245E-14  0.12500000000E+03  0.12500000000E+03 0.  0.
        -13    1    3    3    0    0 -0.21254440268E+02  0.40100907085E+02  0.61129054925E+01  0.45795335546E+02  0.10566000000E+00 0. -1.
         23    2    1    0    0    0  0.20654071699E+01  0.10878105026E+02 -0.27050291647E+02  0.95771292298E+02  0.91202100165E+02 0.  0.
         13    1    3    3    0    0  0.23319847438E+02 -0.29222802059E+02 -0.33163197140E+02  0.49975956752E+02  0.10566000000E+00 0.  1.
         22    1    1    0    0    0 -0.20654071699E+01 -0.10878105026E+02  0.27050291647E+02  0.29228707702E+02  0.00000000000E+00 0. -1.
</event>
<event>
 5    1  0.1315753E-009  0.9118800E+02  0.7818608E-02  0.1130116E+00
         25   -1    0    0    0    0  0.00000000000E+00  0.00000000000E+00  0.99999998245E-14  0.12500000000E+03  0.12500000000E+03 0.  0.
        -13    1    3    3    0    0  0.51937752101E+02  0.32951780513E+02  0.63399737834E+01  0.61834912176E+02  0.10566000000E+00 0.  1.
         23    2    1    0    0    0  0.28748744342E+02  0.10862253544E+02  0.14404873621E+01  0.94233884595E+02  0.89070035077E+02 0.  0.
         13    1    3    3    0    0 -0.23189007759E+02 -0.22089526968E+02 -0.48994864213E+01  0.32398972418E+02  0.10566000000E+00 0. -1.
         22    1    1    0    0    0 -0.28748744342E+02 -0.10862253544E+02 -0.14404873621E+01  0.30766115405E+02  0.00000000000E+00 0.  1.
</event>
<event>
 5    1  0.1315753E-009  0.9118800E+02  0.7818608E-02  0.1130116E+00
         25   -1    0    0    0    0  0.00000000000E+00  0.00000000000E+00  0.99999998245E-14  0.12500000000E+03  0.12500000000E+03 0.  0.
        -13    1    3    3    0    0 -0.14030257814E+02  0.24349822396E+02  0.31338786653E+02  0.42093855822E+02  0.10566000000E+00 0. -1.
         23    2    1    0    0    0  0.28203868157E+02  0.16730326697E+01  0.68310743920E+01  0.95932478697E+02  0.91422752498E+02 0.  0.
         13    1    3    3    0    0  0.42234125971E+02 -0.22676789726E+02 -0.24507712261E+02  0.53838622875E+02  0.10566000000E+00 0.  1.
         22    1    1    0    0    0 -0.28203868157E+02 -0.16730326697E+01 -0.68310743920E+01  0.29067521303E+02  0.00000000000E+00 0. -1.
</event>
<event>
 5    1  0.1315753E-009  0.9118800E+02  0.7818608E-02  0.1130116E+00
         25   -1    0    0    0    0  0.00000000000E+00  0.00000000000E+00  0.99999998245E-14  0.12500000000E+03  0.12500000000E+03 0.  0.
        -13    1    3    3    0    0 -0.41174959054E+02 -0.26607529898E+02 -0.42761711523E+01  0.49210107744E+02  0.10566000000E+00 0.  1.
         23    2    1    0    0    0 -0.17830841282E+01 -0.30414960881E+02  0.12335075134E+02  0.92130510911E+02  0.86067576519E+02 0.  0.
         13    1    3    3    0    0  0.39391874926E+02 -0.38074309824E+01  0.16611246286E+02  0.42920403168E+02  0.10566000000E+00 0. -1.
         22    1    1    0    0    0  0.17830841282E+01  0.30414960881E+02 -0.12335075134E+02  0.32869489089E+02  0.00000000000E+00 0. -1.
</event>
<event>
 5    1  0.1315753E-009  0.9118800E+02  0.7818608E-02  0.1130116E+00
         25   -1    0    0    0    0  0.00000000000E+00  0.00000000000E+00  0.99999998245E-14  0.12500000000E+03  0.12500000000E+03 0.  0.
        -13    1    3    3    0    0 -0.18344575819E+02 -0.46906289098E+01  0.34692337419E+02  0.39523346280E+02  0.10566000000E+00 0. -1.
         23    2    1    0    0    0 -0.18836861303E+02 -0.86244806833E+01 -0.21084195215E+02  0.95440698610E+02  0.90747863074E+02 0.  0.
         13    1    3    3    0    0 -0.49228548362E+00 -0.39338517735E+01 -0.55776532635E+02  0.55917352330E+02  0.10566000000E+00 0.  1.
         22    1    1    0    0    0  0.18836861303E+02  0.86244806833E+01  0.21084195215E+02  0.29559301390E+02  0.00000000000E+00 0.  1.
</event>
<event>
 5    1  0.1315753E-009  0.9118800E+02  0.7818608E-02  0.1130116E+00
         25   -1    0    0    0    0  0.00000000000E+00  0.00000000000E+00  0.99999998245E-14  0.12500000000E+03  0.12500000000E+03 0.  0.
        -13    1    3    3    0    0  0.30896394491E+02 -0.19009352353E+01  0.50996882061E+02  0.59656465629E+02  0.10566000000E+00 0. -1.
         23    2    1    0    0    0  0.39969818757E+01 -0.66098134260E+01  0.29768722271E+02  0.94245450364E+02  0.89086264884E+02 0.  0.
         13    1    3    3    0    0 -0.26899412616E+02 -0.47088781907E+01 -0.21228159790E+02  0.34588984735E+02  0.10566000000E+00 0.  1.
         22    1    1    0    0    0 -0.39969818757E+01  0.66098134260E+01 -0.29768722271E+02  0.30754549636E+02  0.00000000000E+00 0. -1.
</event>
<event>
 5    1  0.1315753E-009  0.9118800E+02  0.7818608E-02  0.1130116E+00
         25   -1    0    0    0    0  0.00000000000E+00  0.00000000000E+00  0.99999998245E-14  0.12500000000E+03  0.12500000000E+03 0.  0.
        -13    1    3    3    0    0 -0.30950305698E+02 -0.17688828128E+02  0.89102753578E+01  0.36745343029E+02  0.10566000000E+00 0.  1.
         23    2    1    0    0    0  0.26405308138E+02 -0.15425071784E+00  0.10087442329E+02  0.96733047849E+02  0.92510874832E+02 0.  0.
         13    1    3    3    0    0  0.57355613836E+02  0.17534577410E+02  0.11771669715E+01  0.59987704820E+02  0.10566000000E+00 0. -1.
         22    1    1    0    0    0 -0.26405308138E+02  0.15425071784E+00 -0.10087442329E+02  0.28266952151E+02  0.00000000000E+00 0. -1.
</event>
<event>
 5    1  0.1315753E-009  0.9118800E+02  0.7818608E-02  0.1130116E+00
         25   -1    0    0    0    0  0.00000000000E+00  0.00000000000E+00  0.99999998245E-14  0.12500000000E+03  0.12500000000E+03 0.  0.
        -13    1    3    3    0    0 -0.11815200596E+02 -0.41893891623E+02  0.37041876322E+02  0.57156004811E+02  0.10566000000E+00 0.  1.
         23    2    1    0    0    0  0.46106138027E+01 -0.27717659575E+02  0.40965501952E+01  0.96604434582E+02  0.92336930019E+02 0.  0.
         13    1    3    3    0    0  0.16425814399E+02  0.14176232049E+02 -0.32945326127E+02  0.39448429771E+02  0.10566000000E+00 0. -1.
         22    1    1    0    0    0 -0.46106138027E+01  0.27717659575E+02 -0.40965501952E+01  0.28395565418E+02  0.00000000000E+00 0.  1.
</event>
<event>
 5    1  0.1315753E-009  0.9118800E+02  0.7818608E-02  0.1130116E+00
         25   -1    0    0    0    0  0.00000000000E+00  0.00000000000E+00  0.99999998245E-14  0.12500000000E+03  0.12500000000E+03 0.  0.
        -13    1    3    3    0    0  0.10591680307E+02  0.32877519114E+02  0.31028780733E+02  0.46431792477E+02  0.10566000000E+00 0.  1.
         23    2    1    0    0    0  0.16974869311E+02  0.20058900976E+02 -0.15072944247E+02  0.94706447142E+02  0.89730773904E+02 0.  0.
         13    1    3    3    0    0  0.63831890040E+01 -0.12818618138E+02 -0.46101724980E+02  0.48274654665E+02  0.10566000000E+00 0. -1.
         22    1    1    0    0    0 -0.16974869311E+02 -0.20058900976E+02  0.15072944247E+02  0.30293552858E+02  0.00000000000E+00 0. -1.
</event>
<event>
 5    1  0.1315753E-009  0.9118800E+02  0.7818608E-02  0.1130116E+00
         25   -1    0    0    0    0  0.00000000000E+00  0.00000000000E+00  0.99999998245E-14  0.12500000000E+03  0.12500000000E+03 0.  0.
        -13    1    3    3    0    0 -0.43947374988E+02 -0.23680393937E+02 -0.29638345783E+02  0.58056657932E+02  0.10566000000E+00 0. -1.
         23    2    1    0    0    0 -0.73945569149E+01 -0.19056671308E+02 -0.20570412801E+02  0.96000378000E+02  0.91515542396E+02 0.  0.
         13    1    3    3    0    0  0.36552818074E+02  0.46237226286E+01  0.90679329823E+01  0.37943720069E+02  0.10566000000E+00 0.  1.
         22    1    1    0    0    0  0.73945569149E+01  0.19056671308E+02  0.20570412801E+02  0.28999622000E+02  0.00000000000E+00 0. -1.
</event>
<event>
 5    1  0.1315753E-009  0.9118800E+02  0.7818608E-02  0.1130116E+00
         25   -1    0    0    0    0  0.00000000000E+00  0.00000000000E+00  0.99999998245E-14  0.12500000000E+03  0.12500000000E+03 0.  0.
        -13    1    3    3    0    0 -0.22491748614E+02  0.24292024524E+02  0.33266724342E+02  0.46932582751E+02  0.10566000000E+00 0.  1.
         23    2    1    0    0    0  0.14528623238E+02  0.29418031397E+02  0.11219629617E+02  0.90324626127E+02  0.83403576253E+02 0.  0.
         13    1    3    3    0    0  0.37020371852E+02  0.51260068734E+01 -0.22047094725E+02  0.43392043377E+02  0.10566000000E+00 0. -1.
         22    1    1    0    0    0 -0.14528623238E+02 -0.29418031397E+02 -0.11219629617E+02  0.34675373873E+02  0.00000000000E+00 0.  1.
</event>
<event>
 5    1  0.1315753E-009  0.9118800E+02  0.7818608E-02  0.1130116E+00
         25   -1    0    0    0    0  0.00000000000E+00  0.00000000000E+00  0.99999998245E-14  0.12500000000E+03  0.12500000000E+03 0.  0.
        -13    1    3    3    0    0 -0.50583370521E+02  0.23421253980E+02  0.97128141185E+01  0.56582527634E+02  0.10566000000E+00 0. -1.
         23    2    1    0    0    0 -0.11235173273E+02  0.22720105129E+02  0.13785701457E+02  0.96147307575E+02  0.91716012199E+02 0.  0.
         13    1    3    3    0    0  0.39348197249E+02 -0.70114885135E+00  0.40728873390E+01  0.39564779941E+02  0.10566000000E+00 0.  1.
         22    1    1    0    0    0  0.11235173273E+02 -0.22720105129E+02 -0.13785701457E+02  0.28852692425E+02  0.00000000000E+00 0. -1.
</event>
<event>
 5    1  0.1315753E-009  0.9118800E+02  0.7818608E-02  0.1130116E+00
         25   -1    0    0    0    0  0.00000000000E+00  0.00000000000E+00  0.99999998245E-14  0.12500000000E+03  0.12500000000E+03 0.  0.
        -13    1    3    3    0    0  0.21907834749E+02 -0.55505889953E+01 -0.25918825376E+02  0.34388354634E+02  0.10566000000E+00 0. -1.
         23    2    1    0    0    0 -0.18431256812E+02  0.28248369709E+02 -0.14743236386E+02  0.88189069042E+02  0.80139049535E+02 0.  0.
         13    1    3    3    0    0 -0.40339091561E+02  0.33798958704E+02  0.11175588990E+02  0.53800714407E+02  0.10566000000E+00 0.  1.
         22    1    1    0    0    0  0.18431256812E+02 -0.28248369709E+02  0.14743236386E+02  0.36810930958E+02  0.00000000000E+00 0.  1.
</event>
<event>
 5    1  0.1315753E-009  0.9118800E+02  0.7818608E-02  0.1130116E+00
         25   -1    0    0    0    0  0.00000000000E+00  0.00000000000E+00  0.99999998245E-14  0.12500000000E+03  0.12500000000E+03 0.  0.
        -13    1    3    3    0    0  0.20047351306E+01  0.25673812071E+02 -0.36371528821E+02  0.44565265196E+02  0.10566000000E+00 0.  1.
         23    2    1    0    0    0 -0.13422697557E+01 -0.22811151792E+02 -0.15059713316E+02  0.97633135011E+02  0.93719174947E+02 0.  0.
         13    1    3    3    0    0 -0.33470048863E+01 -0.48484963863E+02  0.21311815505E+02  0.53067869815E+02  0.10566000000E+00 0. -1.
         22    1    1    0    0    0  0.13422697557E+01  0.22811151792E+02  0.15059713316E+02  0.27366864989E+02  0.00000000000E+00 0.  1.
</event>
<event>
 5    1  0.1315753E-009  0.9118800E+02  0.7818608E-02  0.1130116E+00
         25   -1    0    0    0    0  0.00000000000E+00  0.00000000000E+00  0.99999998245E-14  0.12500000000E+03  0.12500000000E+03 0.  0.
        -13    1    3    3    0    0  0.56241047849E+02  0.27797785573E+01 -0.15718441098E+02  0.58462493845E+02  0.10566000000E+00 0. -1.
         23    2    1    0    0    0  0.30162924745E+02 -0.14397463675E+02 -0.85035881866E+01  0.90512321019E+02  0.83684408672E+02 0.  0.
         13    1    3    3    0    0 -0.26078123104E+02 -0.17177242232E+02  0.72148529118E+01  0.32049827174E+02  0.10566000000E+00 0.  1.
         22    1    1    0    0    0 -0.30162924745E+02  0.14397463675E+02  0.85035881866E+01  0.34487678981E+02  0.00000000000E+00 0. -1.
</event>
<event>
 5    1  0.1315753E-009  0.9118800E+02  0.7818608E-02  0.1130116E+00
         25   -1    0    0    0    0  0.00000000000E+00  0.00000000000E+00  0.99999998245E-14  0.12500000000E+03  0.12500000000E+03 0.  0.
        -13    1    3    3    0    0 -0.42826438248E+02 -0.16642619178E+02 -0.37604104873E+02  0.59373061682E+02  0.10566000000E+00 0.  1.
         23    2    1    0    0    0 -0.97936626463E+01 -0.16131391101E+02 -0.22311494346E+02  0.95777741585E+02  0.91210939017E+02 0.  0.
         13    1    3    3    0    0  0.33032775602E+02  0.51122807632E+00  0.15292610527E+02  0.36404679904E+02  0.10566000000E+00 0. -1.
         22    1    1    0    0    0  0.97936626463E+01  0.16131391101E+02  0.22311494346E+02  0.29222258415E+02  0.00000000000E+00 0.  1.
</event>
<event>
 5    1  0.1315753E-009  0.9118800E+02  0.7818608E-02  0.1130116E+00
         25   -1    0    0    0    0  0.00000000000E+00  0.00000000000E+00  0.99999998245E-14  0.12500000000E+03  0.12500000000E+03 0.  0.
        -13    1    3    3    0    0  0.50781557153E+01 -0.98841218076E+01 -0.51888190983E+02  0.53064857080E+02  0.10566000000E+00 0.  1.
         23    2    1    0    0    0  0.24118930919E+02  0.26335678737E+01 -0.14842546143E+02  0.96557783412E+02  0.92273754953E+02 0.  0.
         13    1    3    3    0    0  0.19040775203E+02  0.12517689681E+02  0.37045644840E+02  0.43492926332E+02  0.10566000000E+00 0. -1.
         22    1    1    0    0    0 -0.24118930919E+02 -0.26335678737E+01  0.14842546143E+02  0.28442216588E+02  0.00000000000E+00 0.  1.
</event>
<event>
 5    1  0.1315753E-009  0.9118800E+02  0.7818608E-02  0.1130116E+00
         25   -1    0    0    0    0  0.00000000000E+00  0.00000000000E+00  0.99999998245E-14  0.12500000000E+03  0.12500000000E+03 0.  0.
        -13    1    3    3    0    0  0.27463709961E+02  0.88196938564E+01 -0.17637262354E+02  0.33810154569E+02  0.10566000000E+00 0.  1.
         23    2    1    0    0    0 -0.48817418298E+01 -0.23006325739E+02  0.21046926679E+02  0.93439018553E+02  0.87947453847E+02 0.  0.
         13    1    3    3    0    0 -0.32345451791E+02 -0.31826019595E+02  0.38684189033E+02  0.59628863984E+02  0.10566000000E+00 0. -1.
         22    1    1    0    0    0  0.48817418298E+01  0.23006325739E+02 -0.21046926679E+02  0.31560981447E+02  0.00000000000E+00 0. -1.
</event>
<event>
 5    1  0.1315753E-009  0.9118800E+02  0.7818608E-02  0.1130116E+00
         25   -1    0    0    0    0  0.00000000000E+00  0.00000000000E+00  0.99999998245E-14  0.12500000000E+03  0.12500000000E+03 0.  0.
        -13    1    3    3    0    0 -0.12291080809E+02  0.41408979470E+02  0.41415873616E+02  0.59841958521E+02  0.10566000000E+00 0. -1.
         23    2    1    0    0    0 -0.10331849320E+02  0.25240256962E+02  0.87252920271E+01  0.96365258813E+02  0.92012579049E+02 0.  0.
         13    1    3    3    0    0  0.19592314891E+01 -0.16168722508E+02 -0.32690581589E+02  0.36523300292E+02  0.10566000000E+00 0.  1.
         22    1    1    0    0    0  0.10331849320E+02 -0.25240256962E+02 -0.87252920271E+01  0.28634741187E+02  0.00000000000E+00 0. -1.
</event>
<event>
 5    1  0.1315753E-009  0.9118800E+02  0.7818608E-02  0.1130116E+00
         25   -1    0    0    0    0  0.00000000000E+00  0.00000000000E+00  0.99999998245E-14  0.12500000000E+03  0.12500000000E+03 0.  0.
        -13    1    3    3    0    0 -0.36006684780E+02  0.22805879302E+02  0.20469959871E+02  0.47282342378E+02  0.10566000000E+00 0.  1.
         23    2    1    0    0    0  0.75133856191E+01  0.29915690005E+02  0.73174467919E+01  0.93299140398E+02  0.87748419357E+02 0.  0.
         13    1    3    3    0    0  0.43520070399E+02  0.71098107033E+01 -0.13152513079E+02  0.46016798021E+02  0.10566000000E+00 0. -1.
         22    1    1    0    0    0 -0.75133856191E+01 -0.29915690005E+02 -0.73174467919E+01  0.31700859602E+02  0.00000000000E+00 0. -1.
</event>
<event>
 5    1  0.1315753E-009  0.9118800E+02  0.7818608E-02  0.1130116E+00
         25   -1    0    0    0    0  0.00000000000E+00  0.00000000000E+00  0.99999998245E-14  0.12500000000E+03  0.12500000000E+03 0.  0.
        -13    1    3    3    0    0 -0.29063117887E+02  0.26941044367E+02  0.18508440478E+00  0.39629914373E+02  0.10566000000E+00 0.  1.
         23    2    1    0    0    0 -0.27180815756E+01 -0.12677651421E+02  0.27574816257E+02  0.94529008802E+02  0.89483250949E+02 0.  0.
         13    1    3    3    0    0  0.26345036312E+02 -0.39618695788E+02  0.27389731852E+02  0.54899094429E+02  0.10566000000E+00 0. -1.
         22    1    1    0    0    0  0.27180815756E+01  0.12677651421E+02 -0.27574816257E+02  0.30470991198E+02  0.00000000000E+00 0. -1.
</event>
<event>
 5    1  0.1315753E-009  0.9118800E+02  0.7818608E-02  0.1130116E+00
         25   -1    0    0    0    0  0.00000000000E+00  0.00000000000E+00  0.99999998245E-14  0.12500000000E+03  0.12500000000E+03 0.  0.
        -13    1    3    3    0    0 -0.57140412838E+01 -0.12723158342E+02  0.41021042174E+02  0.43327428853E+02  0.10566000000E+00 0. -1.
         23    2    1    0    0    0 -0.69987612978E+01  0.26963047150E+02  0.54966505566E+01  0.96606308118E+02  0.92339466262E+02 0.  0.
         13    1    3    3    0    0 -0.12847200140E+01  0.39686205492E+02 -0.35524391617E+02  0.53278879265E+02  0.10566000000E+00 0.  1.
         22    1    1    0    0    0  0.69987612978E+01 -0.26963047150E+02 -0.54966505566E+01  0.28393691882E+02  0.00000000000E+00 0. -1.
</event>
<event>
 5    1  0.1315753E-009  0.9118800E+02  0.7818608E-02  0.1130116E+00
         25   -1    0    0    0    0  0.00000000000E+00  0.00000000000E+00  0.99999998245E-14  0.12500000000E+03  0.12500000000E+03 0.  0.
        -13    1    3    3    0    0 -0.12300480397E+02 -0.16972908030E+02  0.26949214668E+02  0.34141657257E+02  0.10566000000E+00 0. -1.
         23    2    1    0    0    0 -0.58102943590E+01  0.94800470529E+01 -0.27672122391E+02  0.95177572696E+02  0.90384695464E+02 0.  0.
         13    1    3    3    0    0  0.64901860384E+01  0.26452955083E+02 -0.54621337059E+02  0.61035915439E+02  0.10566000000E+00 0.  1.
         22    1    1    0    0    0  0.58102943590E+01 -0.94800470529E+01  0.27672122391E+02  0.29822427304E+02  0.00000000000E+00 0.  1.
</event>
<event>
 5    1  0.1315753E-009  0.9118800E+02  0.7818608E-02  0.1130116E+00
         25   -1    0    0    0    0  0.00000000000E+00  0.00000000000E+00  0.99999998245E-14  0.12500000000E+03  0.12500000000E+03 0.  0.
        -13    1    3    3    0    0 -0.47637637713E+02 -0.11281587891E+02  0.33151302339E+02  0.59123927161E+02  0.10566000000E+00 0.  1.
         23    2    1    0    0    0 -0.13176400840E+02 -0.11239487334E+02  0.25085689534E+02  0.94516636767E+02  0.89465966667E+02 0.  0.
         13    1    3    3    0    0  0.34461236873E+02  0.42100557169E-01 -0.80656128047E+01  0.35392709606E+02  0.10566000000E+00 0. -1.
         22    1    1    0    0    0  0.13176400840E+02  0.11239487334E+02 -0.25085689534E+02  0.30483363233E+02  0.00000000000E+00 0.  1.
</event>
<event>
 5    1  0.1315753E-009  0.9118800E+02  0.7818608E-02  0.1130116E+00
         25   -1    0    0    0    0  0.00000000000E+00  0.00000000000E+00  0.99999998245E-14  0.12500000000E+03  0.12500000000E+03 0.  0.
        -13    1    3    3    0    0 -0.40166479011E+02  0.19018937342E+02  0.29847583072E+02  0.53534618641E+02  0.10566000000E+00 0.  1.
         23    2    1    0    0    0  0.16990302486E+01  0.17687002060E+02  0.22934038187E+02  0.95988160121E+02  0.91498852617E+02 0.  0.
         13    1    3    3    0    0  0.41865509260E+02 -0.13319352822E+01 -0.69135448859E+01  0.42453541479E+02  0.10566000000E+00 0. -1.
         22    1    1    0    0    0 -0.16990302486E+01 -0.17687002060E+02 -0.22934038187E+02  0.29011839879E+02  0.00000000000E+00 0.  1.
</event>
<event>
 5    1  0.1315753E-009  0.9118800E+02  0.7818608E-02  0.1130116E+00
         25   -1    0    0    0    0  0.00000000000E+00  0.00000000000E+00  0.99999998245E-14  0.12500000000E+03  0.12500000000E+03 0.  0.
        -13    1    3    3    0    0  0.55670681099E+01  0.34296418582E+02 -0.68381006452E+01  0.35411966330E+02  0.10566000000E+00 0.  1.
         23    2    1    0    0    0  0.40412222865E+01 -0.21464350594E+02 -0.22793897560E+02  0.93430844326E+02  0.87935835025E+02 0.  0.
         13    1    3    3    0    0 -0.15258458234E+01 -0.55760769177E+02 -0.15955796914E+02  0.58018877996E+02  0.10566000000E+00 0. -1.
         22    1    1    0    0    0 -0.40412222865E+01  0.21464350594E+02  0.22793897560E+02  0.31569155674E+02  0.00000000000E+00 0. -1.
</event>
<event>
 5    1  0.1315753E-009  0.9118800E+02  0.7818608E-02  0.1130116E+00
         25   -1    0    0    0    0  0.00000000000E+00  0.00000000000E+00  0.99999998245E-14  0.12500000000E+03  0.12500000000E+03 0.  0.
        -13    1    3    3    0    0  0.33478399998E+02 -0.13335731012E+02 -0.24145954791E+02  0.43378373469E+02  0.10566000000E+00 0.  1.
         23    2    1    0    0    0  0.18201555240E+02  0.89561404139E+01  0.20877876502E+02  0.95889953771E+02  0.91364590749E+02 0.  0.
         13    1    3    3    0    0 -0.15276844758E+02  0.22291871426E+02  0.45023831293E+02  0.52511580301E+02  0.10566000000E+00 0. -1.
         22    1    1    0    0    0 -0.18201555240E+02 -0.89561404139E+01 -0.20877876502E+02  0.29110046229E+02  0.00000000000E+00 0. -1.
</event>
<event>
 5    1  0.1315753E-009  0.9118800E+02  0.7818608E-02  0.1130116E+00
         25   -1    0    0    0    0  0.00000000000E+00  0.00000000000E+00  0.99999998245E-14  0.12500000000E+03  0.12500000000E+03 0.  0.
        -13    1    3    3    0    0  0.12946132402E+00 -0.13302232360E+02 -0.31379804295E+02  0.34083271961E+02  0.10566000000E+00 0.  1.
         23    2    1    0    0    0 -0.48645346749E+00  0.17947748589E+02  0.22403780830E+02  0.96289588789E+02  0.91909723084E+02 0.  0.
         13    1    3    3    0    0 -0.61591479150E+00  0.31249980949E+02  0.53783585125E+02  0.62206316828E+02  0.10566000000E+00 0. -1.
         22    1    1    0    0    0  0.48645346749E+00 -0.17947748589E+02 -0.22403780830E+02  0.28710411211E+02  0.00000000000E+00 0. -1.
</event>
<event>
 5    1  0.1315753E-009  0.9118800E+02  0.7818608E-02  0.1130116E+00
         25   -1    0    0    0    0  0.00000000000E+00  0.00000000000E+00  0.99999998245E-14  0.12500000000E+03  0.12500000000E+03 0.  0.
        -13    1    3    3    0    0 -0.46866621274E+02  0.22627691910E+02 -0.26368937668E+02  0.58342305993E+02  0.10566000000E+00 0.  1.
         23    2    1    0    0    0 -0.14926475417E+02  0.40237577834E+01 -0.25335860180E+02  0.95320106029E+02  0.90581601372E+02 0.  0.
         13    1    3    3    0    0  0.31940145857E+02 -0.18603934127E+02  0.10330774877E+01  0.36977800036E+02  0.10566000000E+00 0. -1.
         22    1    1    0    0    0  0.14926475417E+02 -0.40237577834E+01  0.25335860180E+02  0.29679893971E+02  0.00000000000E+00 0.  1.
</event>
<event>
 5    1  0.1315753E-009  0.9118800E+02  0.7818608E-02  0.1130116E+00
         25   -1    0    0    0    0  0.00000000000E+00  0.00000000000E+00  0.99999998245E-14  0.12500000000E+03  0.12500000000E+03 0.  0.
        -13    1    3    3    0    0  0.33680096478E+02 -0.15672098460E+01  0.14888547046E+02  0.36857632082E+02  0.10566000000E+00 0.  1.
         23    2    1    0    0    0 -0.10044481483E+02  0.16112474110E+02 -0.21418346199E+02  0.96377474184E+02  0.92029172255E+02 0.  0.
         13    1    3    3    0    0 -0.43724577962E+02  0.17679683956E+02 -0.36306893245E+02  0.59519842102E+02  0.10566000000E+00 0. -1.
         22    1    1    0    0    0  0.10044481483E+02 -0.16112474110E+02  0.21418346199E+02  0.28622525816E+02  0.00000000000E+00 0. -1.
</event>
<event>
 5    1  0.1315753E-009  0.9118800E+02  0.7818608E-02  0.1130116E+00
         25   -1    0    0    0    0  0.00000000000E+00  0.00000000000E+00  0.99999998245E-14  0.12500000000E+03  0.12500000000E+03 0.  0.
        -13    1    3    3    0    0 -0.25224046303E+02  0.20949957384E+02  0.31605544531E+00  0.32791222627E+02  0.10566000000E+00 0.  1.
         23    2    1    0    0    0  0.58850669309E+01 -0.25685883072E+02 -0.19465501603E+02  0.92238675933E+02  0.86224526576E+02 0.  0.
         13    1    3    3    0    0  0.31109113234E+02 -0.46635840456E+02 -0.19781557049E+02  0.59447453306E+02  0.10566000000E+00 0. -1.
         22    1    1    0    0    0 -0.58850669309E+01  0.25685883072E+02  0.19465501603E+02  0.32761324067E+02  0.00000000000E+00 0. -1.
</event>
<event>
 5    1  0.1315753E-009  0.9118800E+02  0.7818608E-02  0.1130116E+00
         25   -1    0    0    0    0  0.00000000000E+00  0.00000000000E+00  0.99999998245E-14  0.12500000000E+03  0.12500000000E+03 0.  0.
        -13    1    3    3    0    0  0.23839400867E+02 -0.42213189334E+02 -0.81844761014E+01  0.49165711634E+02  0.10566000000E+00 0. -1.
         23    2    1    0    0    0  0.34789846094E+01 -0.15743036392E+01 -0.26540409208E+02  0.98186289201E+02  0.94454075085E+02 0.  0.
         13    1    3    3    0    0 -0.20360416258E+02  0.40638885694E+02 -0.18355933107E+02  0.49020577566E+02  0.10566000000E+00 0.  1.
         22    1    1    0    0    0 -0.34789846094E+01  0.15743036392E+01  0.26540409208E+02  0.26813710799E+02  0.00000000000E+00 0. -1.
</event>
<event>
 5    1  0.1315753E-009  0.9118800E+02  0.7818608E-02  0.1130116E+00
         25   -1    0    0    0    0  0.00000000000E+00  0.00000000000E+00  0.99999998245E-14  0.12500000000E+03  0.12500000000E+03 0.  0.
        -13    1    3    3    0    0 -0.22829012029E+02  0.48625900369E+02  0.28998694380E+01  0.53796490441E+02  0.10566000000E+00 0.  1.
         23    2    1    0    0    0  0.65646086338E+01  0.23644417717E+02  0.17304129548E+02  0.94973587042E+02  0.90102146259E+02 0.  0.
         13    1    3    3    0    0  0.29393620663E+02 -0.24981482652E+02  0.14404260110E+02  0.41177096601E+02  0.10566000000E+00 0. -1.
         22    1    1    0    0    0 -0.65646086338E+01 -0.23644417717E+02 -0.17304129548E+02  0.30026412958E+02  0.00000000000E+00 0.  1.
</event>
<event>
 5    1  0.1315753E-009  0.9118800E+02  0.7818608E-02  0.1130116E+00
         25   -1    0    0    0    0  0.00000000000E+00  0.00000000000E+00  0.99999998245E-14  0.12500000000E+03  0.12500000000E+03 0.  0.
        -13    1    3    3    0    0  0.12363663089E+01  0.77352469958E+01 -0.53003590060E+02  0.53579421152E+02  0.10566000000E+00 0.  1.
         23    2    1    0    0    0 -0.17575019649E+02  0.16990979196E+02 -0.17061010704E+02  0.95189720297E+02  0.90401493762E+02 0.  0.
         13    1    3    3    0    0 -0.18811385958E+02  0.92557322001E+01  0.35942579355E+02  0.41610299145E+02  0.10566000000E+00 0. -1.
         22    1    1    0    0    0  0.17575019649E+02 -0.16990979196E+02  0.17061010704E+02  0.29810279703E+02  0.00000000000E+00 0.  1.
</event>
<event>
 5    1  0.1315753E-009  0.9118800E+02  0.7818608E-02  0.1130116E+00
         25   -1    0    0    0    0  0.00000000000E+00  0.00000000000E+00  0.99999998245E-14  0.12500000000E+03  0.12500000000E+03 0.  0.
        -13    1    3    3    0    0 -0.23693310219E+02 -0.55805924922E+02  0.17712339147E+01  0.60653298667E+02  0.10566000000E+00 0. -1.
         23    2    1    0    0    0 -0.20315058158E+02 -0.22559764965E+02  0.50230159929E+01  0.94228661503E+02  0.89062704741E+02 0.  0.
         13    1    3    3    0    0  0.33782520610E+01  0.33246159957E+02  0.32517820782E+01  0.33575362836E+02  0.10566000000E+00 0.  1.
         22    1    1    0    0    0  0.20315058158E+02  0.22559764965E+02 -0.50230159929E+01  0.30771338497E+02  0.00000000000E+00 0. -1.
</event>
<event>
 5    1  0.1315753E-009  0.9118800E+02  0.7818608E-02  0.1130116E+00
         25   -1    0    0    0    0  0.00000000000E+00  0.00000000000E+00  0.99999998245E-14  0.12500000000E+03  0.12500000000E+03 0.  0.
        -13    1    3    3    0    0  0.15771053864E+02  0.14069718351E+02 -0.41105577730E+02  0.46220804829E+02  0.10566000000E+00 0.  1.
         23    2    1    0    0    0 -0.21764275455E+02 -0.83725535864E+01 -0.16853091513E+02  0.96228311951E+02  0.91826346915E+02 0.  0.
         13    1    3    3    0    0 -0.37535329319E+02 -0.22442271937E+02  0.24252486217E+02  0.50007507122E+02  0.10566000000E+00 0. -1.
         22    1    1    0    0    0  0.21764275455E+02  0.83725535864E+01  0.16853091513E+02  0.28771688049E+02  0.00000000000E+00 0. -1.
</event>
<event>
 5    1  0.1315753E-009  0.9118800E+02  0.7818608E-02  0.1130116E+00
         25   -1    0    0    0    0  0.00000000000E+00  0.00000000000E+00  0.99999998245E-14  0.12500000000E+03  0.12500000000E+03 0.  0.
        -13    1    3    3    0    0  0.40360576709E+02  0.21002923857E+01 -0.17155097677E+02  0.43905534055E+02  0.10566000000E+00 0.  1.
         23    2    1    0    0    0 -0.85578913656E+01  0.85920325497E+01 -0.28049533936E+02  0.94441255229E+02  0.89360583073E+02 0.  0.
         13    1    3    3    0    0 -0.48918468074E+02  0.64917401639E+01 -0.10894436259E+02  0.50535721173E+02  0.10566000000E+00 0. -1.
         22    1    1    0    0    0  0.85578913656E+01 -0.85920325497E+01  0.28049533936E+02  0.30558744771E+02  0.00000000000E+00 0.  1.
</event>
<event>
 5    1  0.1315753E-009  0.9118800E+02  0.7818608E-02  0.1130116E+00
         25   -1    0    0    0    0  0.00000000000E+00  0.00000000000E+00  0.99999998245E-14  0.12500000000E+03  0.12500000000E+03 0.  0.
        -13    1    3    3    0    0  0.34422624370E+02  0.44729647119E+02 -0.19690865247E+02  0.59777920156E+02  0.10566000000E+00 0. -1.
         23    2    1    0    0    0  0.87400787085E+01  0.28191679548E+02 -0.12528665945E+01  0.95458005378E+02  0.90771699028E+02 0.  0.
         13    1    3    3    0    0 -0.25682545662E+02 -0.16537967571E+02  0.18437998653E+02  0.35680085222E+02  0.10566000000E+00 0.  1.
         22    1    1    0    0    0 -0.87400787085E+01 -0.28191679548E+02  0.12528665945E+01  0.29541994622E+02  0.00000000000E+00 0. -1.
</event>
<event>
 5    1  0.1315753E-009  0.9118800E+02  0.7818608E-02  0.1130116E+00
         25   -1    0    0    0    0  0.00000000000E+00  0.00000000000E+00  0.99999998245E-14  0.12500000000E+03  0.12500000000E+03 0.  0.
        -13    1    3    3    0    0  0.50639659060E+02  0.24744250043E+02  0.11872117583E+02  0.57598709359E+02  0.10566000000E+00 0. -1.
         23    2    1    0    0    0  0.12343411740E+02  0.24445562906E+02  0.96634268534E+01  0.95959903965E+02  0.91460242681E+02 0.  0.
         13    1    3    3    0    0 -0.38296247320E+02 -0.29868713736E+00 -0.22086907296E+01  0.38361194606E+02  0.10566000000E+00 0.  1.
         22    1    1    0    0    0 -0.12343411740E+02 -0.24445562906E+02 -0.96634268534E+01  0.29040096035E+02  0.00000000000E+00 0. -1.
</event>
<event>
 5    1  0.1315753E-009  0.9118800E+02  0.7818608E-02  0.1130116E+00
         25   -1    0    0    0    0  0.00000000000E+00  0.00000000000E+00  0.99999998245E-14  0.12500000000E+03  0.12500000000E+03 0.  0.
        -13    1    3    3    0    0 -0.13881732691E+01 -0.72208321079E+01  0.34491103656E+02  0.35266341415E+02  0.10566000000E+00 0.  1.
         23    2    1    0    0    0 -0.16337774959E+02  0.42175895981E+01 -0.23405637377E+02  0.96146320622E+02  0.91714667068E+02 0.  0.
         13    1    3    3    0    0 -0.14949601690E+02  0.11438421706E+02 -0.57896741034E+02  0.60879979206E+02  0.10566000000E+00 0. -1.
         22    1    1    0    0    0  0.16337774959E+02 -0.42175895981E+01  0.23405637377E+02  0.28853679378E+02  0.00000000000E+00 0. -1.
</event>
<event>
 5    1  0.1315753E-009  0.9118800E+02  0.7818608E-02  0.1130116E+00
         25   -1    0    0    0    0  0.00000000000E+00  0.00000000000E+00  0.99999998245E-14  0.12500000000E+03  0.12500000000E+03 0.  0.
        -13    1    3    3    0    0  0.14989342969E+01  0.10196677968E+02  0.14661542534E+02  0.17921803456E+02  0.10566000000E+00 0. -1.
         23    2    1    0    0    0 -0.45070381980E+02 -0.86981784866E+01 -0.15520496828E+02  0.76545036760E+02  0.59255878948E+02 0.  0.
         13    1    3    3    0    0 -0.46569316277E+02 -0.18894856454E+02 -0.30182039361E+02  0.58623233304E+02  0.10566000000E+00 0.  1.
         22    1    1    0    0    0  0.45070381980E+02  0.86981784866E+01  0.15520496828E+02  0.48454963240E+02  0.00000000000E+00 0.  1.
</event>
<event>
 5    1  0.1315753E-009  0.9118800E+02  0.7818608E-02  0.1130116E+00
         25   -1    0    0    0    0  0.00000000000E+00  0.00000000000E+00  0.99999998245E-14  0.12500000000E+03  0.12500000000E+03 0.  0.
        -13    1    3    3    0    0  0.49736941777E+02  0.91168607377E+01  0.76866488303E+01  0.51146615346E+02  0.10566000000E+00 0.  1.
         23    2    1    0    0    0  0.11325120050E+02  0.25594243154E+02 -0.81601171639E+01  0.95846764521E+02  0.91305482476E+02 0.  0.
         13    1    3    3    0    0 -0.38411821728E+02  0.16477382417E+02 -0.15846765994E+02  0.44700149175E+02  0.10566000000E+00 0. -1.
         22    1    1    0    0    0 -0.11325120050E+02 -0.25594243154E+02  0.81601171639E+01  0.29153235479E+02  0.00000000000E+00 0.  1.
</event>
<event>
 5    1  0.1315753E-009  0.9118800E+02  0.7818608E-02  0.1130116E+00
         25   -1    0    0    0    0  0.00000000000E+00  0.00000000000E+00  0.99999998245E-14  0.12500000000E+03  0.12500000000E+03 0.  0.
        -13    1    3    3    0    0 -0.13284956124E+02  0.26092628455E+02  0.44938250942E+02  0.53635556124E+02  0.10566000000E+00 0. -1.
         23    2    1    0    0    0 -0.28261353947E+01  0.29104776388E+02  0.46219193520E+01  0.95395318134E+02  0.90685332516E+02 0.  0.
         13    1    3    3    0    0  0.10458820729E+02  0.30121479331E+01 -0.40316331590E+02  0.41759762010E+02  0.10566000000E+00 0.  1.
         22    1    1    0    0    0  0.28261353947E+01 -0.29104776388E+02 -0.46219193520E+01  0.29604681866E+02  0.00000000000E+00 0. -1.
</event>
<event>
 5    1  0.1315753E-009  0.9118800E+02  0.7818608E-02  0.1130116E+00
         25   -1    0    0    0    0  0.00000000000E+00  0.00000000000E+00  0.99999998245E-14  0.12500000000E+03  0.12500000000E+03 0.  0.
        -13    1    3    3    0    0 -0.26428200490E+02  0.35208780945E+02  0.13345451568E+02  0.46002394267E+02  0.10566000000E+00 0. -1.
         23    2    1    0    0    0 -0.31315064432E+02 -0.95240933049E+01  0.78908193834E+01  0.91330924512E+02  0.84898357629E+02 0.  0.
         13    1    3    3    0    0 -0.48868639422E+01 -0.44732874250E+02 -0.54546321842E+01  0.45328530245E+02  0.10566000000E+00 0.  1.
         22    1    1    0    0    0  0.31315064432E+02  0.95240933049E+01 -0.78908193834E+01  0.33669075488E+02  0.00000000000E+00 0. -1.
</event>
<event>
 5    1  0.1315753E-009  0.9118800E+02  0.7818608E-02  0.1130116E+00
         25   -1    0    0    0    0  0.00000000000E+00  0.00000000000E+00  0.99999998245E-14  0.12500000000E+03  0.12500000000E+03 0.  0.
        -13    1    3    3    0    0  0.35219930031E+02  0.23485240234E+02  0.15109583626E+02  0.44947866041E+02  0.10566000000E+00 0.  1.
         23    2    1    0    0    0 -0.14529371784E+02  0.25261073914E+00  0.20228732260E+02  0.10009281097E+03  0.96944328056E+02 0.  0.
         13    1    3    3    0    0 -0.49749301815E+02 -0.23232629495E+02  0.51191486337E+01  0.55144944928E+02  0.10566000000E+00 0. -1.
         22    1    1    0    0    0  0.14529371784E+02 -0.25261073914E+00 -0.20228732260E+02  0.24907189031E+02  0.00000000000E+00 0. -1.
</event>
<event>
 5    1  0.1315753E-009  0.9118800E+02  0.7818608E-02  0.1130116E+00
         25   -1    0    0    0    0  0.00000000000E+00  0.00000000000E+00  0.99999998245E-14  0.12500000000E+03  0.12500000000E+03 0.  0.
        -13    1    3    3    0    0 -0.42671164775E+02 -0.57361619767E+01  0.38008317864E+02  0.57431483076E+02  0.10566000000E+00 0.  1.
         23    2    1    0    0    0 -0.89192102657E+01 -0.15790080302E+02  0.22991401994E+02  0.95717180577E+02  0.91127905409E+02 0.  0.
         13    1    3    3    0    0  0.33751954509E+02 -0.10053918325E+02 -0.15016915870E+02  0.38285697501E+02  0.10566000000E+00 0. -1.
         22    1    1    0    0    0  0.89192102657E+01  0.15790080302E+02 -0.22991401994E+02  0.29282819423E+02  0.00000000000E+00 0.  1.
</event>
<event>
 5    1  0.1315753E-009  0.9118800E+02  0.7818608E-02  0.1130116E+00
         25   -1    0    0    0    0  0.00000000000E+00  0.00000000000E+00  0.99999998245E-14  0.12500000000E+03  0.12500000000E+03 0.  0.
        -13    1    3    3    0    0 -0.19850871466E+02 -0.19774835813E+02  0.19787075418E+02  0.34302197408E+02  0.10566000000E+00 0.  1.
         23    2    1    0    0    0  0.10575715440E+02  0.23768709776E+02 -0.12152973776E+02  0.96286029653E+02  0.91904882423E+02 0.  0.
         13    1    3    3    0    0  0.30426586906E+02  0.43543545588E+02 -0.31940049195E+02  0.61983832245E+02  0.10566000000E+00 0. -1.
         22    1    1    0    0    0 -0.10575715440E+02 -0.23768709776E+02  0.12152973776E+02  0.28713970347E+02  0.00000000000E+00 0. -1.
</event>
<event>
 5    1  0.1315753E-009  0.9118800E+02  0.7818608E-02  0.1130116E+00
         25   -1    0    0    0    0  0.00000000000E+00  0.00000000000E+00  0.99999998245E-14  0.12500000000E+03  0.12500000000E+03 0.  0.
        -13    1    3    3    0    0 -0.34243725027E+02  0.44043695623E+01 -0.14991377297E+02  0.37640187729E+02  0.10566000000E+00 0.  1.
         23    2    1    0    0    0  0.14596203038E+02  0.19691067496E+02  0.14316146747E+02  0.96614451918E+02  0.92350489871E+02 0.  0.
         13    1    3    3    0    0  0.48839928065E+02  0.15286697933E+02  0.29307524044E+02  0.58974264189E+02  0.10566000000E+00 0. -1.
         22    1    1    0    0    0 -0.14596203038E+02 -0.19691067496E+02 -0.14316146747E+02  0.28385548082E+02  0.00000000000E+00 0. -1.
</event>
<event>
 5    1  0.1315753E-009  0.9118800E+02  0.7818608E-02  0.1130116E+00
         25   -1    0    0    0    0  0.00000000000E+00  0.00000000000E+00  0.99999998245E-14  0.12500000000E+03  0.12500000000E+03 0.  0.
        -13    1    3    3    0    0 -0.34466061523E+02  0.28340781020E+02  0.30612254426E+02  0.54113127343E+02  0.10566000000E+00 0. -1.
         23    2    1    0    0    0 -0.14994986522E+02 -0.80696300133E+01  0.23449846897E+02  0.96019595089E+02  0.91541787028E+02 0.  0.
         13    1    3    3    0    0  0.19471075002E+02 -0.36410411033E+02 -0.71624075290E+01  0.41906467746E+02  0.10566000000E+00 0.  1.
         22    1    1    0    0    0  0.14994986522E+02  0.80696300133E+01 -0.23449846897E+02  0.28980404911E+02  0.00000000000E+00 0. -1.
</event>
<event>
 5    1  0.1315753E-009  0.9118800E+02  0.7818608E-02  0.1130116E+00
         25   -1    0    0    0    0  0.00000000000E+00  0.00000000000E+00  0.99999998245E-14  0.12500000000E+03  0.12500000000E+03 0.  0.
        -13    1    3    3    0    0 -0.15547411869E+02 -0.29763226123E+02 -0.35587175614E+02  0.48928824605E+02  0.10566000000E+00 0. -1.
         23    2    1    0    0    0 -0.30396561087E+02  0.26255631355E+01 -0.96486245304E+01  0.93000930279E+02  0.87322577663E+02 0.  0.
         13    1    3    3    0    0 -0.14849149218E+02  0.32388789258E+02  0.25938551084E+02  0.44072105673E+02  0.10566000000E+00 0.  1.
         22    1    1    0    0    0  0.30396561087E+02 -0.26255631355E+01  0.96486245304E+01  0.31999069721E+02  0.00000000000E+00 0.  1.
</event>
<event>
 5    1  0.1315753E-009  0.9118800E+02  0.7818608E-02  0.1130116E+00
         25   -1    0    0    0    0  0.00000000000E+00  0.00000000000E+00  0.99999998245E-14  0.12500000000E+03  0.12500000000E+03 0.  0.
        -13    1    3    3    0    0  0.17335315289E+02 -0.10518158225E+02 -0.33258666733E+02  0.38952469568E+02  0.10566000000E+00 0.  1.
         23    2    1    0    0    0 -0.85237893467E+01  0.28215978903E+02 -0.11856742117E+01  0.95500808933E+02  0.90830623873E+02 0.  0.
         13    1    3    3    0    0 -0.25859104636E+02  0.38734137128E+02  0.32072992521E+02  0.56548339364E+02  0.10566000000E+00 0. -1.
         22    1    1    0    0    0  0.85237893467E+01 -0.28215978903E+02  0.11856742117E+01  0.29499191067E+02  0.00000000000E+00 0. -1.
</event>
<event>
 5    1  0.1315753E-009  0.9118800E+02  0.7818608E-02  0.1130116E+00
         25   -1    0    0    0    0  0.00000000000E+00  0.00000000000E+00  0.99999998245E-14  0.12500000000E+03  0.12500000000E+03 0.  0.
        -13    1    3    3    0    0  0.56457574793E+02  0.18090784637E+02  0.15154577006E+02  0.61191556677E+02  0.10566000000E+00 0.  1.
         23    2    1    0    0    0  0.28318816974E+02 -0.21248186288E+00  0.86969579085E+01  0.95375050714E+02  0.90657391747E+02 0.  0.
         13    1    3    3    0    0 -0.28138757819E+02 -0.18303266500E+02 -0.64576190978E+01  0.34183494037E+02  0.10566000000E+00 0. -1.
         22    1    1    0    0    0 -0.28318816974E+02  0.21248186288E+00 -0.86969579085E+01  0.29624949286E+02  0.00000000000E+00 0.  1.
</event>
<event>
 5    1  0.1315753E-009  0.9118800E+02  0.7818608E-02  0.1130116E+00
         25   -1    0    0    0    0  0.00000000000E+00  0.00000000000E+00  0.99999998245E-14  0.12500000000E+03  0.12500000000E+03 0.  0.
        -13    1    3    3    0    0 -0.12638631163E+02  0.39235587342E+02 -0.42550594929E+02  0.59242979370E+02  0.10566000000E+00 0.  1.
         23    2    1    0    0    0 -0.51412906851E+01  0.62095401668E+01 -0.27571197384E+02  0.96274363642E+02  0.91889014091E+02 0.  0.
         13    1    3    3    0    0  0.74973404779E+01 -0.33026047175E+02  0.14979397545E+02  0.37031384272E+02  0.10566000000E+00 0. -1.
         22    1    1    0    0    0  0.51412906851E+01 -0.62095401668E+01  0.27571197384E+02  0.28725636358E+02  0.00000000000E+00 0.  1.
</event>
<event>
 5    1  0.1315753E-009  0.9118800E+02  0.7818608E-02  0.1130116E+00
         25   -1    0    0    0    0  0.00000000000E+00  0.00000000000E+00  0.99999998245E-14  0.12500000000E+03  0.12500000000E+03 0.  0.
        -13    1    3    3    0    0  0.43361221904E+02 -0.40487518002E+01  0.21780216935E+02  0.48692678813E+02  0.10566000000E+00 0.  1.
         23    2    1    0    0    0  0.21084025173E+01 -0.23874113267E+02  0.18763878202E+02  0.94561508404E+02  0.89528638440E+02 0.  0.
         13    1    3    3    0    0 -0.41252819387E+02 -0.19825361467E+02 -0.30163387330E+01  0.45868829591E+02  0.10566000000E+00 0. -1.
         22    1    1    0    0    0 -0.21084025173E+01  0.23874113267E+02 -0.18763878202E+02  0.30438491596E+02  0.00000000000E+00 0. -1.
</event>
<event>
 5    1  0.1315753E-009  0.9118800E+02  0.7818608E-02  0.1130116E+00
         25   -1    0    0    0    0  0.00000000000E+00  0.00000000000E+00  0.99999998245E-14  0.12500000000E+03  0.12500000000E+03 0.  0.
        -13    1    3    3    0    0  0.28949535755E+02  0.18507281291E+02 -0.35240615653E+02  0.49218972326E+02  0.10566000000E+00 0.  1.
         23    2    1    0    0    0  0.24874320354E+02 -0.16072528907E+02 -0.57873099655E+01  0.94824663130E+02  0.89895304564E+02 0.  0.
         13    1    3    3    0    0 -0.40752154003E+01 -0.34579810197E+02  0.29453305687E+02  0.45605690805E+02  0.10566000000E+00 0. -1.
         22    1    1    0    0    0 -0.24874320354E+02  0.16072528907E+02  0.57873099655E+01  0.30175336870E+02  0.00000000000E+00 0.  1.
</event>
<event>
 5    1  0.1315753E-009  0.9118800E+02  0.7818608E-02  0.1130116E+00
         25   -1    0    0    0    0  0.00000000000E+00  0.00000000000E+00  0.99999998245E-14  0.12500000000E+03  0.12500000000E+03 0.  0.
        -13    1    3    3    0    0  0.16340020871E+02  0.45886012645E+02 -0.21559854956E+02  0.53266884162E+02  0.10566000000E+00 0. -1.
         23    2    1    0    0    0 -0.14967103405E+02  0.26431254189E+02 -0.31673590575E+01  0.94460557540E+02  0.89387579591E+02 0.  0.
         13    1    3    3    0    0 -0.31307124276E+02 -0.19454758456E+02  0.18392495899E+02  0.41193673378E+02  0.10566000000E+00 0.  1.
         22    1    1    0    0    0  0.14967103405E+02 -0.26431254189E+02  0.31673590575E+01  0.30539442460E+02  0.00000000000E+00 0. -1.
</event>
<event>
 5    1  0.1315753E-009  0.9118800E+02  0.7818608E-02  0.1130116E+00
         25   -1    0    0    0    0  0.00000000000E+00  0.00000000000E+00  0.99999998245E-14  0.12500000000E+03  0.12500000000E+03 0.  0.
        -13    1    3    3    0    0 -0.56073448165E+01  0.29787254792E+02 -0.30192433322E+02  0.42782204921E+02  0.10566000000E+00 0. -1.
         23    2    1    0    0    0  0.22480199939E+02  0.66388041686E+01  0.12133607570E+02  0.98605728979E+02  0.95007537831E+02 0.  0.
         13    1    3    3    0    0  0.28087544755E+02 -0.23148450623E+02  0.42326040892E+02  0.55823524058E+02  0.10566000000E+00 0.  1.
         22    1    1    0    0    0 -0.22480199939E+02 -0.66388041686E+01 -0.12133607570E+02  0.26394271021E+02  0.00000000000E+00 0.  1.
</event>
<event>
 5    1  0.1315753E-009  0.9118800E+02  0.7818608E-02  0.1130116E+00
         25   -1    0    0    0    0  0.00000000000E+00  0.00000000000E+00  0.99999998245E-14  0.12500000000E+03  0.12500000000E+03 0.  0.
        -13    1    3    3    0    0 -0.21447243522E+02 -0.33991218960E+02  0.42962300384E+02  0.58831604086E+02  0.10566000000E+00 0. -1.
         23    2    1    0    0    0  0.35125529484E+01 -0.10926997745E+02  0.25490798816E+02  0.97044354198E+02  0.92930557674E+02 0.  0.
         13    1    3    3    0    0  0.24959796470E+02  0.23064221215E+02 -0.17471501568E+02  0.38212750112E+02  0.10566000000E+00 0.  1.
         22    1    1    0    0    0 -0.35125529484E+01  0.10926997745E+02 -0.25490798816E+02  0.27955645802E+02  0.00000000000E+00 0. -1.
</event>
<event>
 5    1  0.1315753E-009  0.9118800E+02  0.7818608E-02  0.1130116E+00
         25   -1    0    0    0    0  0.00000000000E+00  0.00000000000E+00  0.99999998245E-14  0.12500000000E+03  0.12500000000E+03 0.  0.
        -13    1    3    3    0    0 -0.26681753776E+02  0.17137283785E+02  0.11856576631E+02  0.33855458253E+02  0.10566000000E+00 0. -1.
         23    2    1    0    0    0  0.12590210043E+02 -0.23756562872E+02 -0.12236717051E+02  0.95459774669E+02  0.90774135453E+02 0.  0.
         13    1    3    3    0    0  0.39271963819E+02 -0.40893846657E+02 -0.24093293682E+02  0.61604316416E+02  0.10566000000E+00 0.  1.
         22    1    1    0    0    0 -0.12590210043E+02  0.23756562872E+02  0.12236717051E+02  0.29540225331E+02  0.00000000000E+00 0.  1.
</event>
<event>
 5    1  0.1315753E-009  0.9118800E+02  0.7818608E-02  0.1130116E+00
         25   -1    0    0    0    0  0.00000000000E+00  0.00000000000E+00  0.99999998245E-14  0.12500000000E+03  0.12500000000E+03 0.  0.
        -13    1    3    3    0    0  0.40019866710E+02  0.21682622986E+02  0.42783238301E+02  0.62467131474E+02  0.10566000000E+00 0.  1.
         23    2    1    0    0    0  0.25213528985E+02  0.15121925624E+02  0.26932412310E+02  0.85128336988E+02  0.75213590840E+02 0.  0.
         13    1    3    3    0    0 -0.14806337725E+02 -0.65606973622E+01 -0.15850825991E+02  0.22661205514E+02  0.10566000000E+00 0. -1.
         22    1    1    0    0    0 -0.25213528985E+02 -0.15121925624E+02 -0.26932412310E+02  0.39871663012E+02  0.00000000000E+00 0.  1.
</event>
<event>
 5    1  0.1315753E-009  0.9118800E+02  0.7818608E-02  0.1130116E+00
         25   -1    0    0    0    0  0.00000000000E+00  0.00000000000E+00  0.99999998245E-14  0.12500000000E+03  0.12500000000E+03 0.  0.
        -13    1    3    3    0    0 -0.12679994169E+02 -0.23813023917E+02 -0.22533657114E+02  0.35151375893E+02  0.10566000000E+00 0. -1.
         23    2    1    0    0    0 -0.11471612686E+02  0.24325480074E+02  0.13127744633E+02  0.95072344602E+02  0.90239050031E+02 0.  0.
         13    1    3    3    0    0  0.12083814828E+01  0.48138503992E+02  0.35661401747E+02  0.59920968709E+02  0.10566000000E+00 0.  1.
         22    1    1    0    0    0  0.11471612686E+02 -0.24325480074E+02 -0.13127744633E+02  0.29927655398E+02  0.00000000000E+00 0.  1.
</event>
<event>
 5    1  0.1315753E-009  0.9118800E+02  0.7818608E-02  0.1130116E+00
         25   -1    0    0    0    0  0.00000000000E+00  0.00000000000E+00  0.99999998245E-14  0.12500000000E+03  0.12500000000E+03 0.  0.
        -13    1    3    3    0    0 -0.83893778059E+01 -0.35572232077E+02  0.74383572474E+01  0.37297529107E+02  0.10566000000E+00 0. -1.
         23    2    1    0    0    0 -0.23346820656E+02  0.15831922827E+02 -0.12124646271E+02  0.94296077411E+02  0.89157273134E+02 0.  0.
         13    1    3    3    0    0 -0.14957442850E+02  0.51404154904E+02 -0.19563003518E+02  0.56998548304E+02  0.10566000000E+00 0.  1.
         22    1    1    0    0    0  0.23346820656E+02 -0.15831922827E+02  0.12124646271E+02  0.30703922589E+02  0.00000000000E+00 0.  1.
</event>
<event>
 5    1  0.1315753E-009  0.9118800E+02  0.7818608E-02  0.1130116E+00
         25   -1    0    0    0    0  0.00000000000E+00  0.00000000000E+00  0.99999998245E-14  0.12500000000E+03  0.12500000000E+03 0.  0.
        -13    1    3    3    0    0 -0.17253148540E+02  0.28021854830E+02 -0.23727931507E+02  0.40569956622E+02  0.10566000000E+00 0.  1.
         23    2    1    0    0    0  0.27499198720E+02  0.77689655944E+01  0.26068134354E+01  0.96305780496E+02  0.91931741657E+02 0.  0.
         13    1    3    3    0    0  0.44752347260E+02 -0.20252889236E+02  0.26334744942E+02  0.55735823874E+02  0.10566000000E+00 0. -1.
         22    1    1    0    0    0 -0.27499198720E+02 -0.77689655944E+01 -0.26068134354E+01  0.28694219504E+02  0.00000000000E+00 0. -1.
</event>
<event>
 5    1  0.1315753E-009  0.9118800E+02  0.7818608E-02  0.1130116E+00
         25   -1    0    0    0    0  0.00000000000E+00  0.00000000000E+00  0.99999998245E-14  0.12500000000E+03  0.12500000000E+03 0.  0.
        -13    1    3    3    0    0  0.22586336974E+02 -0.20009092851E+02 -0.49226304441E+02  0.57738606041E+02  0.10566000000E+00 0. -1.
         23    2    1    0    0    0 -0.46191874658E+01 -0.17800883256E+02 -0.22509879224E+02  0.95932784787E+02  0.91423171006E+02 0.  0.
         13    1    3    3    0    0 -0.27205524440E+02  0.22082095949E+01  0.26716425217E+02  0.38194178746E+02  0.10566000000E+00 0.  1.
         22    1    1    0    0    0  0.46191874658E+01  0.17800883256E+02  0.22509879224E+02  0.29067215213E+02  0.00000000000E+00 0. -1.
</event>
<event>
 5    1  0.1315753E-009  0.9118800E+02  0.7818608E-02  0.1130116E+00
         25   -1    0    0    0    0  0.00000000000E+00  0.00000000000E+00  0.99999998245E-14  0.12500000000E+03  0.12500000000E+03 0.  0.
        -13    1    3    3    0    0 -0.17260636279E+02 -0.57067016552E+02  0.93477242138E-01  0.59620414666E+02  0.10566000000E+00 0.  1.
         23    2    1    0    0    0 -0.18054470798E+02 -0.21464630273E+02 -0.73575860290E+01  0.96002959794E+02  0.91519068769E+02 0.  0.
         13    1    3    3    0    0 -0.79383451985E+00  0.35602386280E+02 -0.74510632711E+01  0.36382545128E+02  0.10566000000E+00 0. -1.
         22    1    1    0    0    0  0.18054470798E+02  0.21464630273E+02  0.73575860290E+01  0.28997040206E+02  0.00000000000E+00 0.  1.
</event>
<event>
 5    1  0.1315753E-009  0.9118800E+02  0.7818608E-02  0.1130116E+00
         25   -1    0    0    0    0  0.00000000000E+00  0.00000000000E+00  0.99999998245E-14  0.12500000000E+03  0.12500000000E+03 0.  0.
        -13    1    3    3    0    0  0.32567717433E+02  0.19784232772E+02 -0.22275335540E+02  0.44139254895E+02  0.10566000000E+00 0. -1.
         23    2    1    0    0    0  0.10101594845E+02  0.27806935246E+02  0.17578030858E+02  0.90586993229E+02  0.83795872853E+02 0.  0.
         13    1    3    3    0    0 -0.22466122588E+02  0.80227024739E+01  0.39853366397E+02  0.46447738334E+02  0.10566000000E+00 0.  1.
         22    1    1    0    0    0 -0.10101594845E+02 -0.27806935246E+02 -0.17578030858E+02  0.34413006771E+02  0.00000000000E+00 0. -1.
</event>
<event>
 5    1  0.1315753E-009  0.9118800E+02  0.7818608E-02  0.1130116E+00
         25   -1    0    0    0    0  0.00000000000E+00  0.00000000000E+00  0.99999998245E-14  0.12500000000E+03  0.12500000000E+03 0.  0.
        -13    1    3    3    0    0  0.31364443860E+01 -0.34262480240E+02 -0.49237781190E+02  0.60067670973E+02  0.10566000000E+00 0. -1.
         23    2    1    0    0    0  0.11803491242E+02 -0.98097068755E+01 -0.25529041427E+02  0.95212675335E+02  0.90433228593E+02 0.  0.
         13    1    3    3    0    0  0.86670468564E+01  0.24452773365E+02  0.23708739763E+02  0.35145004362E+02  0.10566000000E+00 0.  1.
         22    1    1    0    0    0 -0.11803491242E+02  0.98097068755E+01  0.25529041427E+02  0.29787324665E+02  0.00000000000E+00 0. -1.
</event>
<event>
 5    1  0.1315753E-009  0.9118800E+02  0.7818608E-02  0.1130116E+00
         25   -1    0    0    0    0  0.00000000000E+00  0.00000000000E+00  0.99999998245E-14  0.12500000000E+03  0.12500000000E+03 0.  0.
        -13    1    3    3    0    0 -0.25496813393E+02 -0.32348367019E+02  0.42521943706E+02  0.59199925698E+02  0.10566000000E+00 0.  1.
         23    2    1    0    0    0 -0.22255502508E+02 -0.51894035886E+01  0.18687382647E+02  0.95479573654E+02  0.90801395438E+02 0.  0.
         13    1    3    3    0    0  0.32413108856E+01  0.27158963431E+02 -0.23834561060E+02  0.36279647956E+02  0.10566000000E+00 0. -1.
         22    1    1    0    0    0  0.22255502508E+02  0.51894035886E+01 -0.18687382647E+02  0.29520426346E+02  0.00000000000E+00 0.  1.
</event>
<event>
 5    1  0.1315753E-009  0.9118800E+02  0.7818608E-02  0.1130116E+00
         25   -1    0    0    0    0  0.00000000000E+00  0.00000000000E+00  0.99999998245E-14  0.12500000000E+03  0.12500000000E+03 0.  0.
        -13    1    3    3    0    0  0.48734297319E+02 -0.26663530037E+02  0.22947416478E+02  0.60104664180E+02  0.10566000000E+00 0. -1.
         23    2    1    0    0    0  0.17178663414E+02 -0.21537008590E+02  0.17015361346E+02  0.92619886698E+02  0.86775409388E+02 0.  0.
         13    1    3    3    0    0 -0.31555633904E+02  0.51265214466E+01 -0.59320551327E+01  0.32515222518E+02  0.10566000000E+00 0.  1.
         22    1    1    0    0    0 -0.17178663414E+02  0.21537008590E+02 -0.17015361346E+02  0.32380113302E+02  0.00000000000E+00 0. -1.
</event>
<event>
 5    1  0.1315753E-009  0.9118800E+02  0.7818608E-02  0.1130116E+00
         25   -1    0    0    0    0  0.00000000000E+00  0.00000000000E+00  0.99999998245E-14  0.12500000000E+03  0.12500000000E+03 0.  0.
        -13    1    3    3    0    0 -0.21628412065E+02 -0.33605713760E+02  0.27607081495E+02  0.48572567551E+02  0.10566000000E+00 0.  1.
         23    2    1    0    0    0  0.86106123150E+01 -0.25095562910E+02 -0.91594723540E+01  0.96931764287E+02  0.92778990465E+02 0.  0.
         13    1    3    3    0    0  0.30239024380E+02  0.85101508493E+01 -0.36766553849E+02  0.48359196736E+02  0.10566000000E+00 0. -1.
         22    1    1    0    0    0 -0.86106123150E+01  0.25095562910E+02  0.91594723540E+01  0.28068235713E+02  0.00000000000E+00 0. -1.
</event>
<event>
 5    1  0.1315753E-009  0.9118800E+02  0.7818608E-02  0.1130116E+00
         25   -1    0    0    0    0  0.00000000000E+00  0.00000000000E+00  0.99999998245E-14  0.12500000000E+03  0.12500000000E+03 0.  0.
        -13    1    3    3    0    0  0.33390936902E+02 -0.17182366595E+02 -0.16553869003E+02  0.41039372948E+02  0.10566000000E+00 0.  1.
         23    2    1    0    0    0  0.32436288706E+02  0.23279005461E+02  0.77824366011E+00  0.85067174111E+02  0.75111873414E+02 0.  0.
         13    1    3    3    0    0 -0.95464819528E+00  0.40461372056E+02  0.17332112663E+02  0.44027801163E+02  0.10566000000E+00 0. -1.
         22    1    1    0    0    0 -0.32436288706E+02 -0.23279005461E+02 -0.77824366011E+00  0.39932825889E+02  0.00000000000E+00 0. -1.
</event>
<event>
 5    1  0.1315753E-009  0.9118800E+02  0.7818608E-02  0.1130116E+00
         25   -1    0    0    0    0  0.00000000000E+00  0.00000000000E+00  0.99999998245E-14  0.12500000000E+03  0.12500000000E+03 0.  0.
        -13    1    3    3    0    0 -0.30597021962E+02 -0.19925321313E+02 -0.97770485322E+01  0.37799444763E+02  0.10566000000E+00 0.  1.
         23    2    1    0    0    0  0.13410138013E+02 -0.72184043387E+01  0.25284459948E+02  0.95483206854E+02  0.90806396876E+02 0.  0.
         13    1    3    3    0    0  0.44007159975E+02  0.12706916974E+02  0.35061508480E+02  0.57683762091E+02  0.10566000000E+00 0. -1.
         22    1    1    0    0    0 -0.13410138013E+02  0.72184043387E+01 -0.25284459948E+02  0.29516793146E+02  0.00000000000E+00 0. -1.
</event>
<event>
 5    1  0.1315753E-009  0.9118800E+02  0.7818608E-02  0.1130116E+00
         25   -1    0    0    0    0  0.00000000000E+00  0.00000000000E+00  0.99999998245E-14  0.12500000000E+03  0.12500000000E+03 0.  0.
        -13    1    3    3    0    0 -0.29325831052E+02 -0.31506117323E+02  0.42963014858E+00  0.43044576218E+02  0.10566000000E+00 0. -1.
         23    2    1    0    0    0 -0.13343357964E+02  0.19161917140E+02  0.13861846016E+02  0.97845349474E+02  0.94001794496E+02 0.  0.
         13    1    3    3    0    0  0.15982473088E+02  0.50668034463E+02  0.13432215867E+02  0.54800773256E+02  0.10566000000E+00 0.  1.
         22    1    1    0    0    0  0.13343357964E+02 -0.19161917140E+02 -0.13861846016E+02  0.27154650526E+02  0.00000000000E+00 0.  1.
</event>
<event>
 5    1  0.1315753E-009  0.9118800E+02  0.7818608E-02  0.1130116E+00
         25   -1    0    0    0    0  0.00000000000E+00  0.00000000000E+00  0.99999998245E-14  0.12500000000E+03  0.12500000000E+03 0.  0.
        -13    1    3    3    0    0  0.53282335341E+02 -0.18080491798E+02  0.21246353362E+01  0.56306630892E+02  0.10566000000E+00 0.  1.
         23    2    1    0    0    0  0.13898019444E+02 -0.24723404749E+02 -0.25674912188E+01  0.96522048915E+02  0.92225333986E+02 0.  0.
         13    1    3    3    0    0 -0.39384315897E+02 -0.66429129510E+01 -0.46921265549E+01  0.40215418024E+02  0.10566000000E+00 0. -1.
         22    1    1    0    0    0 -0.13898019444E+02  0.24723404749E+02  0.25674912188E+01  0.28477951085E+02  0.00000000000E+00 0.  1.
</event>
<event>
 5    1  0.1315753E-009  0.9118800E+02  0.7818608E-02  0.1130116E+00
         25   -1    0    0    0    0  0.00000000000E+00  0.00000000000E+00  0.99999998245E-14  0.12500000000E+03  0.12500000000E+03 0.  0.
        -13    1    3    3    0    0 -0.10047612607E+02  0.11269165080E+02 -0.46097266059E+02  0.48506883046E+02  0.10566000000E+00 0.  1.
         23    2    1    0    0    0  0.92880563459E+01  0.20986268841E+02  0.27044693017E+01  0.10189143828E+03  0.99236382290E+02 0.  0.
         13    1    3    3    0    0  0.19335668953E+02  0.97171037606E+01  0.48801735360E+02  0.53384555234E+02  0.10566000000E+00 0. -1.
         22    1    1    0    0    0 -0.92880563459E+01 -0.20986268841E+02 -0.27044693017E+01  0.23108561720E+02  0.00000000000E+00 0. -1.
</event>
<event>
 5    1  0.1315753E-009  0.9118800E+02  0.7818608E-02  0.1130116E+00
         25   -1    0    0    0    0  0.00000000000E+00  0.00000000000E+00  0.99999998245E-14  0.12500000000E+03  0.12500000000E+03 0.  0.
        -13    1    3    3    0    0  0.27121702063E+02  0.24382634694E+02 -0.13477836155E+02  0.38881394379E+02  0.10566000000E+00 0. -1.
         23    2    1    0    0    0 -0.23761378396E+02  0.14794309881E+01 -0.18418187676E+02  0.94899809692E+02  0.89999735682E+02 0.  0.
         13    1    3    3    0    0 -0.50883080459E+02 -0.22903203706E+02 -0.49403515208E+01  0.56018415313E+02  0.10566000000E+00 0.  1.
         22    1    1    0    0    0  0.23761378396E+02 -0.14794309881E+01  0.18418187676E+02  0.30100190308E+02  0.00000000000E+00 0.  1.
</event>
<event>
 5    1  0.1315753E-009  0.9118800E+02  0.7818608E-02  0.1130116E+00
         25   -1    0    0    0    0  0.00000000000E+00  0.00000000000E+00  0.99999998245E-14  0.12500000000E+03  0.12500000000E+03 0.  0.
        -13    1    3    3    0    0 -0.91014536631E+01 -0.41772545360E+02  0.74755530456E-01  0.42752763151E+02  0.10566000000E+00 0.  1.
         23    2    1    0    0    0 -0.21368851208E+02  0.54921146695E+01  0.19740275392E+02  0.95394770765E+02  0.90684578023E+02 0.  0.
         13    1    3    3    0    0 -0.12267397545E+02  0.47264660029E+02  0.19665519862E+02  0.52642007614E+02  0.10566000000E+00 0. -1.
         22    1    1    0    0    0  0.21368851208E+02 -0.54921146695E+01 -0.19740275392E+02  0.29605229235E+02  0.00000000000E+00 0. -1.
</event>
<event>
 5    1  0.1315753E-009  0.9118800E+02  0.7818608E-02  0.1130116E+00
         25   -1    0    0    0    0  0.00000000000E+00  0.00000000000E+00  0.99999998245E-14  0.12500000000E+03  0.12500000000E+03 0.  0.
        -13    1    3    3    0    0 -0.17454098554E+02  0.85563114407E+01 -0.26663118335E+02  0.32996803863E+02  0.10566000000E+00 0.  1.
         23    2    1    0    0    0  0.18631832379E+02 -0.12921753580E+02  0.19277454596E+02  0.95238663520E+02  0.90469143248E+02 0.  0.
         13    1    3    3    0    0  0.36085930933E+02 -0.21478065021E+02  0.45940572931E+02  0.62241859657E+02  0.10566000000E+00 0. -1.
         22    1    1    0    0    0 -0.18631832379E+02  0.12921753580E+02 -0.19277454596E+02  0.29761336480E+02  0.00000000000E+00 0. -1.
</event>
<event>
 5    1  0.1315753E-009  0.9118800E+02  0.7818608E-02  0.1130116E+00
         25   -1    0    0    0    0  0.00000000000E+00  0.00000000000E+00  0.99999998245E-14  0.12500000000E+03  0.12500000000E+03 0.  0.
        -13    1    3    3    0    0 -0.39244709542E+02  0.64366161612E+01 -0.43307822655E+02  0.58797584319E+02  0.10566000000E+00 0. -1.
         23    2    1    0    0    0 -0.58558996793E+01  0.10576725239E+02 -0.25303481372E+02  0.96956732584E+02  0.92812623850E+02 0.  0.
         13    1    3    3    0    0  0.33388809862E+02  0.41401090775E+01  0.18004341283E+02  0.38159148264E+02  0.10566000000E+00 0.  1.
         22    1    1    0    0    0  0.58558996793E+01 -0.10576725239E+02  0.25303481372E+02  0.28043267416E+02  0.00000000000E+00 0. -1.
</event>
<event>
 5    1  0.1315753E-009  0.9118800E+02  0.7818608E-02  0.1130116E+00
         25   -1    0    0    0    0  0.00000000000E+00  0.00000000000E+00  0.99999998245E-14  0.12500000000E+03  0.12500000000E+03 0.  0.
        -13    1    3    3    0    0 -0.77735782923E+01 -0.25641144732E+02 -0.26566171915E+02  0.37731544852E+02  0.10566000000E+00 0.  1.
         23    2    1    0    0    0  0.18320154966E+02  0.22065507777E+02 -0.74730248264E+01  0.95362847446E+02  0.90640564107E+02 0.  0.
         13    1    3    3    0    0  0.26093733258E+02  0.47706652509E+02  0.19093147089E+02  0.57631302595E+02  0.10566000000E+00 0. -1.
         22    1    1    0    0    0 -0.18320154966E+02 -0.22065507777E+02  0.74730248264E+01  0.29637152554E+02  0.00000000000E+00 0. -1.
</event>
<event>
 5    1  0.1315753E-009  0.9118800E+02  0.7818608E-02  0.1130116E+00
         25   -1    0    0    0    0  0.00000000000E+00  0.00000000000E+00  0.99999998245E-14  0.12500000000E+03  0.12500000000E+03 0.  0.
        -13    1    3    3    0    0  0.35376027329E+02  0.28936694645E+02 -0.88847774925E+01  0.46559059716E+02  0.10566000000E+00 0.  1.
         23    2    1    0    0    0 -0.77257397508E-01  0.34115606635E+00 -0.28747840607E+02  0.96250031379E+02  0.91855908056E+02 0.  0.
         13    1    3    3    0    0 -0.35453284726E+02 -0.28595538579E+02 -0.19863063114E+02  0.49690971663E+02  0.10566000000E+00 0. -1.
         22    1    1    0    0    0  0.77257397508E-01 -0.34115606635E+00  0.28747840607E+02  0.28749968621E+02  0.00000000000E+00 0. -1.
</event>
<event>
 5    1  0.1315753E-009  0.9118800E+02  0.7818608E-02  0.1130116E+00
         25   -1    0    0    0    0  0.00000000000E+00  0.00000000000E+00  0.99999998245E-14  0.12500000000E+03  0.12500000000E+03 0.  0.
        -13    1    3    3    0    0 -0.28901222918E+02 -0.32687830808E+02 -0.19050459520E+02  0.47609937420E+02  0.10566000000E+00 0. -1.
         23    2    1    0    0    0 -0.26203627178E+02  0.12914876710E+02 -0.95056881728E+01  0.94278961193E+02  0.89133272678E+02 0.  0.
         13    1    3    3    0    0  0.26975957402E+01  0.45602707519E+02  0.95447713477E+01  0.46669023773E+02  0.10566000000E+00 0.  1.
         22    1    1    0    0    0  0.26203627178E+02 -0.12914876710E+02  0.95056881728E+01  0.30721038807E+02  0.00000000000E+00 0.  1.
</event>
<event>
 5    1  0.1315753E-009  0.9118800E+02  0.7818608E-02  0.1130116E+00
         25   -1    0    0    0    0  0.00000000000E+00  0.00000000000E+00  0.99999998245E-14  0.12500000000E+03  0.12500000000E+03 0.  0.
        -13    1    3    3    0    0 -0.21472977083E+01 -0.40400466122E+02  0.38643843417E+02  0.55947889580E+02  0.10566000000E+00 0. -1.
         23    2    1    0    0    0  0.85933294268E+01 -0.46985492062E+01  0.28903918070E+02  0.94481838930E+02  0.89417334631E+02 0.  0.
         13    1    3    3    0    0  0.10740627135E+02  0.35701916916E+02 -0.97399253468E+01  0.38533949350E+02  0.10566000000E+00 0.  1.
         22    1    1    0    0    0 -0.85933294268E+01  0.46985492062E+01 -0.28903918070E+02  0.30518161070E+02  0.00000000000E+00 0. -1.
</event>
<event>
 5    1  0.1315753E-009  0.9118800E+02  0.7818608E-02  0.1130116E+00
         25   -1    0    0    0    0  0.00000000000E+00  0.00000000000E+00  0.99999998245E-14  0.12500000000E+03  0.12500000000E+03 0.  0.
        -13    1    3    3    0    0 -0.20730667615E+01 -0.89740332993E+01 -0.35884182477E+02  0.37047491083E+02  0.10566000000E+00 0. -1.
         23    2    1    0    0    0  0.23127506974E+02  0.14343245895E+02  0.11410673780E+02  0.95490446331E+02  0.90816361866E+02 0.  0.
         13    1    3    3    0    0  0.25200573736E+02  0.23317279195E+02  0.47294856257E+02  0.58442955248E+02  0.10566000000E+00 0.  1.
         22    1    1    0    0    0 -0.23127506974E+02 -0.14343245895E+02 -0.11410673780E+02  0.29509553669E+02  0.00000000000E+00 0.  1.
</event>
<event>
 5    1  0.1315753E-009  0.9118800E+02  0.7818608E-02  0.1130116E+00
         25   -1    0    0    0    0  0.00000000000E+00  0.00000000000E+00  0.99999998245E-14  0.12500000000E+03  0.12500000000E+03 0.  0.
        -13    1    3    3    0    0  0.15499885933E+02  0.56160373128E+02 -0.20562918964E+02  0.61782511879E+02  0.10566000000E+00 0.  1.
         23    2    1    0    0    0  0.13856539164E+02  0.25157765205E+02 -0.92472139269E+01  0.94826703973E+02  0.89898142324E+02 0.  0.
         13    1    3    3    0    0 -0.16433467690E+01 -0.31002607923E+02  0.11315705037E+02  0.33044192094E+02  0.10566000000E+00 0. -1.
         22    1    1    0    0    0 -0.13856539164E+02 -0.25157765205E+02  0.92472139269E+01  0.30173296027E+02  0.00000000000E+00 0.  1.
</event>
<event>
 5    1  0.1315753E-009  0.9118800E+02  0.7818608E-02  0.1130116E+00
         25   -1    0    0    0    0  0.00000000000E+00  0.00000000000E+00  0.99999998245E-14  0.12500000000E+03  0.12500000000E+03 0.  0.
        -13    1    3    3    0    0 -0.98527964822E+01 -0.47798735651E+02  0.25031954776E+02  0.54848943949E+02  0.10566000000E+00 0.  1.
         23    2    1    0    0    0  0.16748579762E+02 -0.24626603753E+02  0.72867306345E+01  0.94339259960E+02  0.89217795254E+02 0.  0.
         13    1    3    3    0    0  0.26601376244E+02  0.23172131898E+02 -0.17745224142E+02  0.39490316011E+02  0.10566000000E+00 0. -1.
         22    1    1    0    0    0 -0.16748579762E+02  0.24626603753E+02 -0.72867306345E+01  0.30660740040E+02  0.00000000000E+00 0.  1.
</event>
<event>
 5    1  0.1315753E-009  0.9118800E+02  0.7818608E-02  0.1130116E+00
         25   -1    0    0    0    0  0.00000000000E+00  0.00000000000E+00  0.99999998245E-14  0.12500000000E+03  0.12500000000E+03 0.  0.
        -13    1    3    3    0    0  0.31971106334E+02 -0.13468724568E+02  0.49446775439E+02  0.60403252785E+02  0.10566000000E+00 0. -1.
         23    2    1    0    0    0  0.47669507789E+01 -0.49103463289E+01  0.28239785239E+02  0.95942801389E+02  0.91436865362E+02 0.  0.
         13    1    3    3    0    0 -0.27204155555E+02  0.85583782395E+01 -0.21206990200E+02  0.35539548603E+02  0.10566000000E+00 0.  1.
         22    1    1    0    0    0 -0.47669507789E+01  0.49103463289E+01 -0.28239785239E+02  0.29057198611E+02  0.00000000000E+00 0. -1.
</event>
<event>
 5    1  0.1315753E-009  0.9118800E+02  0.7818608E-02  0.1130116E+00
         25   -1    0    0    0    0  0.00000000000E+00  0.00000000000E+00  0.99999998245E-14  0.12500000000E+03  0.12500000000E+03 0.  0.
        -13    1    3    3    0    0 -0.43020399921E+02 -0.15427380545E+02 -0.13894113619E+02  0.47768362304E+02  0.10566000000E+00 0. -1.
         23    2    1    0    0    0  0.48891334753E+00 -0.15779306734E+02 -0.27443221099E+02  0.93339994606E+02  0.87806597995E+02 0.  0.
         13    1    3    3    0    0  0.43509313269E+02 -0.35192618949E+00 -0.13549107479E+02  0.45571632302E+02  0.10566000000E+00 0.  1.
         22    1    1    0    0    0 -0.48891334753E+00  0.15779306734E+02  0.27443221099E+02  0.31660005394E+02  0.00000000000E+00 0.  1.
</event>
<event>
 5    1  0.1315753E-009  0.9118800E+02  0.7818608E-02  0.1130116E+00
         25   -1    0    0    0    0  0.00000000000E+00  0.00000000000E+00  0.99999998245E-14  0.12500000000E+03  0.12500000000E+03 0.  0.
        -13    1    3    3    0    0  0.22034564616E+02  0.44474500961E+01 -0.27170207640E+02  0.35263766070E+02  0.10566000000E+00 0. -1.
         23    2    1    0    0    0 -0.22704346899E+02 -0.21341962324E+02  0.47112210285E+00  0.93836099731E+02  0.88510027300E+02 0.  0.
         13    1    3    3    0    0 -0.44738911515E+02 -0.25789412420E+02  0.27641329743E+02  0.58572333661E+02  0.10566000000E+00 0.  1.
         22    1    1    0    0    0  0.22704346899E+02  0.21341962324E+02 -0.47112210285E+00  0.31163900269E+02  0.00000000000E+00 0.  1.
</event>
<event>
 5    1  0.1315753E-009  0.9118800E+02  0.7818608E-02  0.1130116E+00
         25   -1    0    0    0    0  0.00000000000E+00  0.00000000000E+00  0.99999998245E-14  0.12500000000E+03  0.12500000000E+03 0.  0.
        -13    1    3    3    0    0 -0.36926658999E+02  0.99586877711E+01  0.18010936099E+02  0.42274798523E+02  0.10566000000E+00 0.  1.
         23    2    1    0    0    0 -0.38724296748E+01 -0.21176749509E+02 -0.15297445626E+02  0.98590488948E+02  0.94987484633E+02 0.  0.
         13    1    3    3    0    0  0.33054229324E+02 -0.31135437280E+02 -0.33308381724E+02  0.56315690425E+02  0.10566000000E+00 0. -1.
         22    1    1    0    0    0  0.38724296748E+01  0.21176749509E+02  0.15297445626E+02  0.26409511052E+02  0.00000000000E+00 0. -1.
</event>
<event>
 5    1  0.1315753E-009  0.9118800E+02  0.7818608E-02  0.1130116E+00
         25   -1    0    0    0    0  0.00000000000E+00  0.00000000000E+00  0.99999998245E-14  0.12500000000E+03  0.12500000000E+03 0.  0.
        -13    1    3    3    0    0  0.54952040126E+02  0.18307408641E+02 -0.23260850954E+02  0.62417675992E+02  0.10566000000E+00 0.  1.
         23    2    1    0    0    0  0.22412692664E+02  0.96077109917E+01 -0.87566869153E+01  0.99090224457E+02  0.95642857100E+02 0.  0.
         13    1    3    3    0    0 -0.32539347462E+02 -0.86996976489E+01  0.14504164039E+02  0.36672548465E+02  0.10566000000E+00 0. -1.
         22    1    1    0    0    0 -0.22412692664E+02 -0.96077109917E+01  0.87566869153E+01  0.25909775543E+02  0.00000000000E+00 0.  1.
</event>
<event>
 5    1  0.1315753E-009  0.9118800E+02  0.7818608E-02  0.1130116E+00
         25   -1    0    0    0    0  0.00000000000E+00  0.00000000000E+00  0.99999998245E-14  0.12500000000E+03  0.12500000000E+03 0.  0.
        -13    1    3    3    0    0  0.76352670870E+01  0.38897434064E+02  0.30890711178E+02  0.50254899079E+02  0.10566000000E+00 0.  1.
         23    2    1    0    0    0 -0.13926922239E+02  0.33073582689E+01  0.29867096250E+02  0.91879897039E+02  0.85702825272E+02 0.  0.
         13    1    3    3    0    0 -0.21562189326E+02 -0.35590075795E+02 -0.10236149285E+01  0.41624997960E+02  0.10566000000E+00 0. -1.
         22    1    1    0    0    0  0.13926922239E+02 -0.33073582689E+01 -0.29867096250E+02  0.33120102961E+02  0.00000000000E+00 0.  1.
</event>
<event>
 5    1  0.1315753E-009  0.9118800E+02  0.7818608E-02  0.1130116E+00
         25   -1    0    0    0    0  0.00000000000E+00  0.00000000000E+00  0.99999998245E-14  0.12500000000E+03  0.12500000000E+03 0.  0.
        -13    1    3    3    0    0  0.20178134705E+01  0.47285865854E+02 -0.39674304157E+02  0.61758288958E+02  0.10566000000E+00 0.  1.
         23    2    1    0    0    0  0.29858635906E+01  0.20030966327E+02 -0.25318091259E+02  0.92578390873E+02  0.86715614040E+02 0.  0.
         13    1    3    3    0    0  0.96805012013E+00 -0.27254899527E+02  0.14356212898E+02  0.30820101915E+02  0.10566000000E+00 0. -1.
         22    1    1    0    0    0 -0.29858635906E+01 -0.20030966327E+02  0.25318091259E+02  0.32421609127E+02  0.00000000000E+00 0.  1.
</event>
<event>
 5    1  0.1315753E-009  0.9118800E+02  0.7818608E-02  0.1130116E+00
         25   -1    0    0    0    0  0.00000000000E+00  0.00000000000E+00  0.99999998245E-14  0.12500000000E+03  0.12500000000E+03 0.  0.
        -13    1    3    3    0    0  0.32919141499E+02 -0.70340375120E+01 -0.26293086247E+02  0.42713991960E+02  0.10566000000E+00 0. -1.
         23    2    1    0    0    0 -0.15502342865E+02 -0.22306324177E+02 -0.10342441962E+02  0.95933510044E+02  0.91424162622E+02 0.  0.
         13    1    3    3    0    0 -0.48421484364E+02 -0.15272286665E+02  0.15950644285E+02  0.53219518084E+02  0.10566000000E+00 0.  1.
         22    1    1    0    0    0  0.15502342865E+02  0.22306324177E+02  0.10342441962E+02  0.29066489956E+02  0.00000000000E+00 0. -1.
</event>
<event>
 5    1  0.1315753E-009  0.9118800E+02  0.7818608E-02  0.1130116E+00
         25   -1    0    0    0    0  0.00000000000E+00  0.00000000000E+00  0.99999998245E-14  0.12500000000E+03  0.12500000000E+03 0.  0.
        -13    1    3    3    0    0 -0.28846127658E+02  0.10999725043E+02 -0.14460129974E+02  0.34091048015E+02  0.10566000000E+00 0. -1.
         23    2    1    0    0    0  0.19874784304E+02 -0.13375951604E+02  0.15696277388E+02  0.96359185481E+02  0.92004327998E+02 0.  0.
         13    1    3    3    0    0  0.48720911962E+02 -0.24375676647E+02  0.30156407362E+02  0.62268137466E+02  0.10566000000E+00 0.  1.
         22    1    1    0    0    0 -0.19874784304E+02  0.13375951604E+02 -0.15696277388E+02  0.28640814519E+02  0.00000000000E+00 0.  1.
</event>
<event>
 5    1  0.1315753E-009  0.9118800E+02  0.7818608E-02  0.1130116E+00
         25   -1    0    0    0    0  0.00000000000E+00  0.00000000000E+00  0.99999998245E-14  0.12500000000E+03  0.12500000000E+03 0.  0.
        -13    1    3    3    0    0 -0.30049005927E+02  0.14277970261E+02  0.18213124164E+02  0.37927987658E+02  0.10566000000E+00 0.  1.
         23    2    1    0    0    0  0.46793229937E+00 -0.11808829330E+02 -0.25265308615E+02  0.97107290734E+02  0.93015174480E+02 0.  0.
         13    1    3    3    0    0  0.30516938226E+02 -0.26086799591E+02 -0.43478432779E+02  0.59179303076E+02  0.10566000000E+00 0. -1.
         22    1    1    0    0    0 -0.46793229937E+00  0.11808829330E+02  0.25265308615E+02  0.27892709266E+02  0.00000000000E+00 0. -1.
</event>
<event>
 5    1  0.1315753E-009  0.9118800E+02  0.7818608E-02  0.1130116E+00
         25   -1    0    0    0    0  0.00000000000E+00  0.00000000000E+00  0.99999998245E-14  0.12500000000E+03  0.12500000000E+03 0.  0.
        -13    1    3    3    0    0 -0.58106409692E+01 -0.39224314066E+01  0.35086716682E+02  0.35780411795E+02  0.10566000000E+00 0. -1.
         23    2    1    0    0    0  0.23579689473E+02  0.31308955595E+01 -0.16834834469E+02  0.95858690588E+02  0.91321808168E+02 0.  0.
         13    1    3    3    0    0  0.29390330442E+02  0.70533269661E+01 -0.51921551151E+02  0.60078278793E+02  0.10566000000E+00 0.  1.
         22    1    1    0    0    0 -0.23579689473E+02 -0.31308955595E+01  0.16834834469E+02  0.29141309412E+02  0.00000000000E+00 0.  1.
</event>
<event>
 5    1  0.1315753E-009  0.9118800E+02  0.7818608E-02  0.1130116E+00
         25   -1    0    0    0    0  0.00000000000E+00  0.00000000000E+00  0.99999998245E-14  0.12500000000E+03  0.12500000000E+03 0.  0.
        -13    1    3    3    0    0 -0.28638230398E+02 -0.29684113737E+02 -0.96049879973E+01  0.42350464073E+02  0.10566000000E+00 0.  1.
         23    2    1    0    0    0 -0.67518711777E+01 -0.58571077029E+01  0.30118973057E+02  0.93582711558E+02  0.88151448595E+02 0.  0.
         13    1    3    3    0    0  0.21886359220E+02  0.23827006035E+02  0.39723961054E+02  0.51232247485E+02  0.10566000000E+00 0. -1.
         22    1    1    0    0    0  0.67518711777E+01  0.58571077029E+01 -0.30118973057E+02  0.31417288442E+02  0.00000000000E+00 0. -1.
</event>
<event>
 5    1  0.1315753E-009  0.9118800E+02  0.7818608E-02  0.1130116E+00
         25   -1    0    0    0    0  0.00000000000E+00  0.00000000000E+00  0.99999998245E-14  0.12500000000E+03  0.12500000000E+03 0.  0.
        -13    1    3    3    0    0  0.16307401773E+02  0.18429339400E+02 -0.32364288694E+02  0.40657474712E+02  0.10566000000E+00 0. -1.
         23    2    1    0    0    0 -0.28502565645E+02 -0.20033397480E+01 -0.10238405013E+02  0.94648153999E+02  0.89649531508E+02 0.  0.
         13    1    3    3    0    0 -0.44809967417E+02 -0.20432679148E+02  0.22125883681E+02  0.53990679286E+02  0.10566000000E+00 0.  1.
         22    1    1    0    0    0  0.28502565645E+02  0.20033397480E+01  0.10238405013E+02  0.30351846001E+02  0.00000000000E+00 0.  1.
</event>
<event>
 5    1  0.1315753E-009  0.9118800E+02  0.7818608E-02  0.1130116E+00
         25   -1    0    0    0    0  0.00000000000E+00  0.00000000000E+00  0.99999998245E-14  0.12500000000E+03  0.12500000000E+03 0.  0.
        -13    1    3    3    0    0 -0.27117542967E+02  0.22481226727E+02  0.36405997191E+01  0.35412311730E+02  0.10566000000E+00 0.  1.
         23    2    1    0    0    0  0.74033711903E+01 -0.26452910796E+02  0.10291904431E+02  0.95665895422E+02  0.91057530472E+02 0.  0.
         13    1    3    3    0    0  0.34520914157E+02 -0.48934137523E+02  0.66513047124E+01  0.60253583692E+02  0.10566000000E+00 0. -1.
         22    1    1    0    0    0 -0.74033711903E+01  0.26452910796E+02 -0.10291904431E+02  0.29334104578E+02  0.00000000000E+00 0. -1.
</event>
<event>
 5    1  0.1315753E-009  0.9118800E+02  0.7818608E-02  0.1130116E+00
         25   -1    0    0    0    0  0.00000000000E+00  0.00000000000E+00  0.99999998245E-14  0.12500000000E+03  0.12500000000E+03 0.  0.
        -13    1    3    3    0    0 -0.34130735889E+02  0.35462483951E+02 -0.24027063164E+02  0.54770483188E+02  0.10566000000E+00 0. -1.
         23    2    1    0    0    0 -0.82386592023E+01  0.26950207005E+02  0.68924416775E+01  0.95988021175E+02  0.91498662798E+02 0.  0.
         13    1    3    3    0    0  0.25892076687E+02 -0.85122769464E+01  0.30919504842E+02  0.41217537987E+02  0.10566000000E+00 0.  1.
         22    1    1    0    0    0  0.82386592023E+01 -0.26950207005E+02 -0.68924416775E+01  0.29011978825E+02  0.00000000000E+00 0.  1.
</event>
<event>
 5    1  0.1315753E-009  0.9118800E+02  0.7818608E-02  0.1130116E+00
         25   -1    0    0    0    0  0.00000000000E+00  0.00000000000E+00  0.99999998245E-14  0.12500000000E+03  0.12500000000E+03 0.  0.
        -13    1    3    3    0    0 -0.14822736373E+02 -0.23318807767E+02  0.22515813963E+02  0.35643419473E+02  0.10566000000E+00 0. -1.
         23    2    1    0    0    0 -0.13524853769E+01  0.30726804773E+02  0.71458898443E+01  0.93424226218E+02  0.87926426941E+02 0.  0.
         13    1    3    3    0    0  0.13470250996E+02  0.54045612540E+02 -0.15369924118E+02  0.57780806746E+02  0.10566000000E+00 0.  1.
         22    1    1    0    0    0  0.13524853769E+01 -0.30726804773E+02 -0.71458898443E+01  0.31575773782E+02  0.00000000000E+00 0.  1.
</event>
<event>
 5    1  0.1315753E-009  0.9118800E+02  0.7818608E-02  0.1130116E+00
         25   -1    0    0    0    0  0.00000000000E+00  0.00000000000E+00  0.99999998245E-14  0.12500000000E+03  0.12500000000E+03 0.  0.
        -13    1    3    3    0    0  0.31321990157E+02 -0.46704439237E+02 -0.23403085053E+02  0.60910485681E+02  0.10566000000E+00 0. -1.
         23    2    1    0    0    0  0.21101382666E+02 -0.19112053822E+02 -0.37753593571E+01  0.96280802762E+02  0.91897773044E+02 0.  0.
         13    1    3    3    0    0 -0.10220607490E+02  0.27592385415E+02  0.19627725696E+02  0.35370317081E+02  0.10566000000E+00 0.  1.
         22    1    1    0    0    0 -0.21101382666E+02  0.19112053822E+02  0.37753593571E+01  0.28719197238E+02  0.00000000000E+00 0. -1.
</event>
<event>
 5    1  0.1315753E-009  0.9118800E+02  0.7818608E-02  0.1130116E+00
         25   -1    0    0    0    0  0.00000000000E+00  0.00000000000E+00  0.99999998245E-14  0.12500000000E+03  0.12500000000E+03 0.  0.
        -13    1    3    3    0    0 -0.23747590619E+02  0.48196289723E+02 -0.40378132067E+01  0.53880845416E+02  0.10566000000E+00 0. -1.
         23    2    1    0    0    0  0.81349457743E+01  0.34194757882E+02  0.40173217915E+01  0.89622073496E+02  0.82343903078E+02 0.  0.
         13    1    3    3    0    0  0.31882536393E+02 -0.14001531841E+02  0.80551349981E+01  0.35741228080E+02  0.10566000000E+00 0.  1.
         22    1    1    0    0    0 -0.81349457743E+01 -0.34194757882E+02 -0.40173217915E+01  0.35377926504E+02  0.00000000000E+00 0. -1.
</event>
<event>
 5    1  0.1315753E-009  0.9118800E+02  0.7818608E-02  0.1130116E+00
         25   -1    0    0    0    0  0.00000000000E+00  0.00000000000E+00  0.99999998245E-14  0.12500000000E+03  0.12500000000E+03 0.  0.
        -13    1    3    3    0    0  0.17297407176E+02  0.50002331231E+02 -0.10105400028E+02  0.53866164680E+02  0.10566000000E+00 0. -1.
         23    2    1    0    0    0 -0.15342058485E+02  0.24682970471E+02 -0.53711554561E+01  0.95445353990E+02  0.90754275368E+02 0.  0.
         13    1    3    3    0    0 -0.32639465662E+02 -0.25319360760E+02  0.47342445722E+01  0.41579189310E+02  0.10566000000E+00 0.  1.
         22    1    1    0    0    0  0.15342058485E+02 -0.24682970471E+02  0.53711554561E+01  0.29554646010E+02  0.00000000000E+00 0. -1.
</event>
<event>
 5    1  0.1315753E-009  0.9118800E+02  0.7818608E-02  0.1130116E+00
         25   -1    0    0    0    0  0.00000000000E+00  0.00000000000E+00  0.99999998245E-14  0.12500000000E+03  0.12500000000E+03 0.  0.
        -13    1    3    3    0    0  0.15776740010E+01 -0.46036564286E+02  0.27241620442E+02  0.53516085011E+02  0.10566000000E+00 0.  1.
         23    2    1    0    0    0 -0.22381723610E+02 -0.19874271509E+02  0.73871956712E+01  0.94169838150E+02  0.88980107539E+02 0.  0.
         13    1    3    3    0    0 -0.23959397611E+02  0.26162292778E+02 -0.19854424771E+02  0.40653753139E+02  0.10566000000E+00 0. -1.
         22    1    1    0    0    0  0.22381723610E+02  0.19874271509E+02 -0.73871956712E+01  0.30830161850E+02  0.00000000000E+00 0.  1.
</event>
<event>
 5    1  0.1315753E-009  0.9118800E+02  0.7818608E-02  0.1130116E+00
         25   -1    0    0    0    0  0.00000000000E+00  0.00000000000E+00  0.99999998245E-14  0.12500000000E+03  0.12500000000E+03 0.  0.
        -13    1    3    3    0    0 -0.52669572481E+02 -0.54140897311E+01  0.62916162188E+01  0.53319713349E+02  0.10566000000E+00 0. -1.
         23    2    1    0    0    0 -0.19906871090E+02  0.12522164592E+02 -0.15755434851E+02  0.96692371170E+02  0.92455896472E+02 0.  0.
         13    1    3    3    0    0  0.32762701391E+02  0.17936254323E+02 -0.22047051069E+02  0.43372657821E+02  0.10566000000E+00 0.  1.
         22    1    1    0    0    0  0.19906871090E+02 -0.12522164592E+02  0.15755434851E+02  0.28307628830E+02  0.00000000000E+00 0.  1.
</event>
<event>
 5    1  0.1315753E-009  0.9118800E+02  0.7818608E-02  0.1130116E+00
         25   -1    0    0    0    0  0.00000000000E+00  0.00000000000E+00  0.99999998245E-14  0.12500000000E+03  0.12500000000E+03 0.  0.
        -13    1    3    3    0    0 -0.23020248424E+02  0.34144455874E+02 -0.13433458023E+02  0.43315639934E+02  0.10566000000E+00 0.  1.
         23    2    1    0    0    0 -0.19753038104E+02 -0.18773516806E+02 -0.79248796570E+01  0.96619880811E+02  0.92357837798E+02 0.  0.
         13    1    3    3    0    0  0.32672103195E+01 -0.52917972680E+02  0.55085783664E+01  0.53304240877E+02  0.10566000000E+00 0. -1.
         22    1    1    0    0    0  0.19753038104E+02  0.18773516806E+02  0.79248796570E+01  0.28380119189E+02  0.00000000000E+00 0.  1.
</event>
<event>
 5    1  0.1315753E-009  0.9118800E+02  0.7818608E-02  0.1130116E+00
         25   -1    0    0    0    0  0.00000000000E+00  0.00000000000E+00  0.99999998245E-14  0.12500000000E+03  0.12500000000E+03 0.  0.
        -13    1    3    3    0    0  0.85682270957E+00  0.33476914494E+02 -0.52199491228E+02  0.62018029618E+02  0.10566000000E+00 0.  1.
         23    2    1    0    0    0  0.26225491356E+01  0.12428142685E+02 -0.28695770337E+02  0.93618736007E+02  0.88202516981E+02 0.  0.
         13    1    3    3    0    0  0.17657264260E+01 -0.21048771810E+02  0.23503720891E+02  0.31600706389E+02  0.10566000000E+00 0. -1.
         22    1    1    0    0    0 -0.26225491356E+01 -0.12428142685E+02  0.28695770337E+02  0.31381263993E+02  0.00000000000E+00 0.  1.
</event>
<event>
 5    1  0.1315753E-009  0.9118800E+02  0.7818608E-02  0.1130116E+00
         25   -1    0    0    0    0  0.00000000000E+00  0.00000000000E+00  0.99999998245E-14  0.12500000000E+03  0.12500000000E+03 0.  0.
        -13    1    3    3    0    0 -0.37750862675E+02  0.47670585572E+00  0.46297464916E+01  0.38036832121E+02  0.10566000000E+00 0. -1.
         23    2    1    0    0    0  0.14007892904E+02 -0.20221605228E+02 -0.13856702229E+02  0.96766286495E+02  0.92555775745E+02 0.  0.
         13    1    3    3    0    0  0.51758755579E+02 -0.20698311084E+02 -0.18486448720E+02  0.58729454375E+02  0.10566000000E+00 0.  1.
         22    1    1    0    0    0 -0.14007892904E+02  0.20221605228E+02  0.13856702229E+02  0.28233713505E+02  0.00000000000E+00 0.  1.
</event>
<event>
 5    1  0.1315753E-009  0.9118800E+02  0.7818608E-02  0.1130116E+00
         25   -1    0    0    0    0  0.00000000000E+00  0.00000000000E+00  0.99999998245E-14  0.12500000000E+03  0.12500000000E+03 0.  0.
        -13    1    3    3    0    0  0.31753670638E+02  0.62118558057E+01  0.22710730847E+02  0.39530636362E+02  0.10566000000E+00 0.  1.
         23    2    1    0    0    0 -0.23839828721E+02  0.56229132397E+01  0.16485937029E+02  0.95474744599E+02  0.90794747369E+02 0.  0.
         13    1    3    3    0    0 -0.55593499359E+02 -0.58894256600E+00 -0.62247938181E+01  0.55944108237E+02  0.10566000000E+00 0. -1.
         22    1    1    0    0    0  0.23839828721E+02 -0.56229132397E+01 -0.16485937029E+02  0.29525255401E+02  0.00000000000E+00 0. -1.
</event>
<event>
 5    1  0.1315753E-009  0.9118800E+02  0.7818608E-02  0.1130116E+00
         25   -1    0    0    0    0  0.00000000000E+00  0.00000000000E+00  0.99999998245E-14  0.12500000000E+03  0.12500000000E+03 0.  0.
        -13    1    3    3    0    0  0.46217256861E+02  0.18765938777E+00 -0.37536618979E+02  0.59540565804E+02  0.10566000000E+00 0. -1.
         23    2    1    0    0    0  0.34501497186E+02  0.12429339315E+02 -0.26282419604E+02  0.79882294339E+02  0.65920964683E+02 0.  0.
         13    1    3    3    0    0 -0.11715759675E+02  0.12241679927E+02  0.11254199375E+02  0.20341728535E+02  0.10566000000E+00 0.  1.
         22    1    1    0    0    0 -0.34501497186E+02 -0.12429339315E+02  0.26282419604E+02  0.45117705661E+02  0.00000000000E+00 0. -1.
</event>
<event>
 5    1  0.1315753E-009  0.9118800E+02  0.7818608E-02  0.1130116E+00
         25   -1    0    0    0    0  0.00000000000E+00  0.00000000000E+00  0.99999998245E-14  0.12500000000E+03  0.12500000000E+03 0.  0.
        -13    1    3    3    0    0  0.52545629539E+02  0.28897085218E+02 -0.24792819523E+00  0.59967969368E+02  0.10566000000E+00 0.  1.
         23    2    1    0    0    0  0.18186716857E+02  0.22752628234E+02  0.55431527055E+01  0.95349278196E+02  0.90621849182E+02 0.  0.
         13    1    3    3    0    0 -0.34358912682E+02 -0.61444569847E+01  0.57910809007E+01  0.35381308828E+02  0.10566000000E+00 0. -1.
         22    1    1    0    0    0 -0.18186716857E+02 -0.22752628234E+02 -0.55431527055E+01  0.29650721804E+02  0.00000000000E+00 0.  1.
</event>
<event>
 5    1  0.1315753E-009  0.9118800E+02  0.7818608E-02  0.1130116E+00
         25   -1    0    0    0    0  0.00000000000E+00  0.00000000000E+00  0.99999998245E-14  0.12500000000E+03  0.12500000000E+03 0.  0.
        -13    1    3    3    0    0  0.59193309807E+02  0.42700002454E+00 -0.15251951526E+02  0.61128254059E+02  0.10566000000E+00 0.  1.
         23    2    1    0    0    0  0.28770951239E+02 -0.18079760679E+01  0.18739906906E+01  0.96111451165E+02  0.91667130376E+02 0.  0.
         13    1    3    3    0    0 -0.30422358568E+02 -0.22349760925E+01  0.17125942217E+02  0.34983197107E+02  0.10566000000E+00 0. -1.
         22    1    1    0    0    0 -0.28770951239E+02  0.18079760679E+01 -0.18739906906E+01  0.28888548835E+02  0.00000000000E+00 0.  1.
</event>
<event>
 5    1  0.1315753E-009  0.9118800E+02  0.7818608E-02  0.1130116E+00
         25   -1    0    0    0    0  0.00000000000E+00  0.00000000000E+00  0.99999998245E-14  0.12500000000E+03  0.12500000000E+03 0.  0.
        -13    1    3    3    0    0 -0.67875897742E+01 -0.36098323034E+02 -0.18675996438E+01  0.36778518095E+02  0.10566000000E+00 0.  1.
         23    2    1    0    0    0  0.38711127276E+01  0.24486805398E+02 -0.88223374678E+01  0.98686072305E+02  0.95113185607E+02 0.  0.
         13    1    3    3    0    0  0.10658702502E+02  0.60585128431E+02 -0.69547378240E+01  0.61907554210E+02  0.10566000000E+00 0. -1.
         22    1    1    0    0    0 -0.38711127276E+01 -0.24486805398E+02  0.88223374678E+01  0.26313927695E+02  0.00000000000E+00 0. -1.
</event>
<event>
 5    1  0.1315753E-009  0.9118800E+02  0.7818608E-02  0.1130116E+00
         25   -1    0    0    0    0  0.00000000000E+00  0.00000000000E+00  0.99999998245E-14  0.12500000000E+03  0.12500000000E+03 0.  0.
        -13    1    3    3    0    0 -0.35330554957E+02  0.33186507740E+02 -0.33247673865E+02  0.58779344935E+02  0.10566000000E+00 0. -1.
         23    2    1    0    0    0 -0.75363029477E+01  0.26738389903E+02 -0.22434630681E+02  0.89292157577E+02  0.81841550537E+02 0.  0.
         13    1    3    3    0    0  0.27794252009E+02 -0.64481178374E+01  0.10813043184E+02  0.30512812642E+02  0.10566000000E+00 0.  1.
         22    1    1    0    0    0  0.75363029477E+01 -0.26738389903E+02  0.22434630681E+02  0.35707842423E+02  0.00000000000E+00 0. -1.
</event>
<event>
 5    1  0.1315753E-009  0.9118800E+02  0.7818608E-02  0.1130116E+00
         25   -1    0    0    0    0  0.00000000000E+00  0.00000000000E+00  0.99999998245E-14  0.12500000000E+03  0.12500000000E+03 0.  0.
        -13    1    3    3    0    0  0.42880039303E+02  0.16134509674E+02 -0.18153584558E+01  0.45851138082E+02  0.10566000000E+00 0.  1.
         23    2    1    0    0    0  0.83563522552E+01  0.20064597429E+02  0.26537322326E+02  0.90697723556E+02  0.83960889044E+02 0.  0.
         13    1    3    3    0    0 -0.34523687048E+02  0.39300877551E+01  0.28352680782E+02  0.44846585474E+02  0.10566000000E+00 0. -1.
         22    1    1    0    0    0 -0.83563522552E+01 -0.20064597429E+02 -0.26537322326E+02  0.34302276444E+02  0.00000000000E+00 0.  1.
</event>
<event>
 5    1  0.1315753E-009  0.9118800E+02  0.7818608E-02  0.1130116E+00
         25   -1    0    0    0    0  0.00000000000E+00  0.00000000000E+00  0.99999998245E-14  0.12500000000E+03  0.12500000000E+03 0.  0.
        -13    1    3    3    0    0  0.15293956942E+01  0.12678009762E+02  0.45120387230E+02  0.46892765865E+02  0.10566000000E+00 0. -1.
         23    2    1    0    0    0  0.23847704359E+02 -0.14783472252E+02  0.16151687944E+02  0.92624992997E+02  0.86782764701E+02 0.  0.
         13    1    3    3    0    0  0.22318308665E+02 -0.27461482014E+02 -0.28968699286E+02  0.45732227132E+02  0.10566000000E+00 0.  1.
         22    1    1    0    0    0 -0.23847704359E+02  0.14783472252E+02 -0.16151687944E+02  0.32375007003E+02  0.00000000000E+00 0. -1.
</event>
<event>
 5    1  0.1315753E-009  0.9118800E+02  0.7818608E-02  0.1130116E+00
         25   -1    0    0    0    0  0.00000000000E+00  0.00000000000E+00  0.99999998245E-14  0.12500000000E+03  0.12500000000E+03 0.  0.
        -13    1    3    3    0    0  0.34214341174E+02  0.39506511081E+02  0.13872097115E+02  0.54072468061E+02  0.10566000000E+00 0.  1.
         23    2    1    0    0    0  0.22015260870E+02  0.11619682392E+02 -0.14925541209E+02  0.95974829708E+02  0.91480639630E+02 0.  0.
         13    1    3    3    0    0 -0.12199080304E+02 -0.27886828689E+02 -0.28797638323E+02  0.41902361648E+02  0.10566000000E+00 0. -1.
         22    1    1    0    0    0 -0.22015260870E+02 -0.11619682392E+02  0.14925541209E+02  0.29025170292E+02  0.00000000000E+00 0.  1.
</event>
<event>
 5    1  0.1315753E-009  0.9118800E+02  0.7818608E-02  0.1130116E+00
         25   -1    0    0    0    0  0.00000000000E+00  0.00000000000E+00  0.99999998245E-14  0.12500000000E+03  0.12500000000E+03 0.  0.
        -13    1    3    3    0    0 -0.13826321982E+02  0.24260282369E+02  0.23092068427E+02  0.36235110990E+02  0.10566000000E+00 0. -1.
         23    2    1    0    0    0 -0.14454393524E+02 -0.16612416446E+02 -0.19728438361E+02  0.95434595344E+02  0.90739455784E+02 0.  0.
         13    1    3    3    0    0 -0.62807154248E+00 -0.40872698814E+02 -0.42820506788E+02  0.59199484354E+02  0.10566000000E+00 0.  1.
         22    1    1    0    0    0  0.14454393524E+02  0.16612416446E+02  0.19728438361E+02  0.29565404656E+02  0.00000000000E+00 0.  1.
</event>
<event>
 5    1  0.1315753E-009  0.9118800E+02  0.7818608E-02  0.1130116E+00
         25   -1    0    0    0    0  0.00000000000E+00  0.00000000000E+00  0.99999998245E-14  0.12500000000E+03  0.12500000000E+03 0.  0.
        -13    1    3    3    0    0 -0.14778085302E+02 -0.36395274611E+02  0.27708006002E+02  0.48070287911E+02  0.10566000000E+00 0.  1.
         23    2    1    0    0    0 -0.23817357166E+02  0.85901001271E+01  0.14521424774E+02  0.95812192613E+02  0.91258140203E+02 0.  0.
         13    1    3    3    0    0 -0.90392718637E+01  0.44985374738E+02 -0.13186581228E+02  0.47741904703E+02  0.10566000000E+00 0. -1.
         22    1    1    0    0    0  0.23817357166E+02 -0.85901001271E+01 -0.14521424774E+02  0.29187807387E+02  0.00000000000E+00 0.  1.
</event>
<event>
 5    1  0.1315753E-009  0.9118800E+02  0.7818608E-02  0.1130116E+00
         25   -1    0    0    0    0  0.00000000000E+00  0.00000000000E+00  0.99999998245E-14  0.12500000000E+03  0.12500000000E+03 0.  0.
        -13    1    3    3    0    0  0.25613102598E+02 -0.40650228788E+01  0.28130746020E+02  0.38261017647E+02  0.10566000000E+00 0.  1.
         23    2    1    0    0    0  0.89930471040E+01  0.70466655866E+00 -0.27259123278E+02  0.96287089088E+02  0.91906323352E+02 0.  0.
         13    1    3    3    0    0 -0.16620055494E+02  0.47696894375E+01 -0.55389869298E+02  0.58026071441E+02  0.10566000000E+00 0. -1.
         22    1    1    0    0    0 -0.89930471040E+01 -0.70466655866E+00  0.27259123278E+02  0.28712910912E+02  0.00000000000E+00 0. -1.
</event>
<event>
 5    1  0.1315753E-009  0.9118800E+02  0.7818608E-02  0.1130116E+00
         25   -1    0    0    0    0  0.00000000000E+00  0.00000000000E+00  0.99999998245E-14  0.12500000000E+03  0.12500000000E+03 0.  0.
        -13    1    3    3    0    0 -0.37008381678E+02 -0.30100009077E+02  0.11482520101E+02  0.49066182781E+02  0.10566000000E+00 0.  1.
         23    2    1    0    0    0 -0.87562846916E+01 -0.19411644857E+02 -0.22151040208E+02  0.94272926271E+02  0.89124808935E+02 0.  0.
         13    1    3    3    0    0  0.28252096986E+02  0.10688364220E+02 -0.33633560309E+02  0.45206743489E+02  0.10566000000E+00 0. -1.
         22    1    1    0    0    0  0.87562846916E+01  0.19411644857E+02  0.22151040208E+02  0.30727073729E+02  0.00000000000E+00 0.  1.
</event>
<event>
 5    1  0.1315753E-009  0.9118800E+02  0.7818608E-02  0.1130116E+00
         25   -1    0    0    0    0  0.00000000000E+00  0.00000000000E+00  0.99999998245E-14  0.12500000000E+03  0.12500000000E+03 0.  0.
        -13    1    3    3    0    0 -0.48759302030E+01 -0.51296550532E+02 -0.28560332414E+02  0.58913619338E+02  0.10566000000E+00 0.  1.
         23    2    1    0    0    0 -0.16924976483E+02 -0.21599419766E+02 -0.11204181551E+02  0.95360103789E+02  0.90636780322E+02 0.  0.
         13    1    3    3    0    0 -0.12049046280E+02  0.29697130767E+02  0.17356150862E+02  0.36446484451E+02  0.10566000000E+00 0. -1.
         22    1    1    0    0    0  0.16924976483E+02  0.21599419766E+02  0.11204181551E+02  0.29639896211E+02  0.00000000000E+00 0.  1.
</event>
<event>
 5    1  0.1315753E-009  0.9118800E+02  0.7818608E-02  0.1130116E+00
         25   -1    0    0    0    0  0.00000000000E+00  0.00000000000E+00  0.99999998245E-14  0.12500000000E+03  0.12500000000E+03 0.  0.
        -13    1    3    3    0    0 -0.43058330961E+02  0.24376538439E+02  0.33741202811E+02  0.59889192869E+02  0.10566000000E+00 0. -1.
         23    2    1    0    0    0 -0.17748864794E+02  0.22486568995E+02  0.99579049434E+01  0.94671336041E+02  0.89681848834E+02 0.  0.
         13    1    3    3    0    0  0.25309466166E+02 -0.18899694437E+01 -0.23783297867E+02  0.34782143172E+02  0.10566000000E+00 0.  1.
         22    1    1    0    0    0  0.17748864794E+02 -0.22486568995E+02 -0.99579049434E+01  0.30328663959E+02  0.00000000000E+00 0. -1.
</event>
<event>
 5    1  0.1315753E-009  0.9118800E+02  0.7818608E-02  0.1130116E+00
         25   -1    0    0    0    0  0.00000000000E+00  0.00000000000E+00  0.99999998245E-14  0.12500000000E+03  0.12500000000E+03 0.  0.
        -13    1    3    3    0    0 -0.25267622271E+02 -0.37941576885E+02 -0.12736162582E+02  0.47331141895E+02  0.10566000000E+00 0.  1.
         23    2    1    0    0    0 -0.11138911737E+02 -0.22135720433E+01  0.22712360781E+02  0.99606564074E+02  0.96315320788E+02 0.  0.
         13    1    3    3    0    0  0.14128710534E+02  0.35728004841E+02  0.35448523364E+02  0.52275422179E+02  0.10566000000E+00 0. -1.
         22    1    1    0    0    0  0.11138911737E+02  0.22135720433E+01 -0.22712360781E+02  0.25393435926E+02  0.00000000000E+00 0. -1.
</event>
<event>
 5    1  0.1315753E-009  0.9118800E+02  0.7818608E-02  0.1130116E+00
         25   -1    0    0    0    0  0.00000000000E+00  0.00000000000E+00  0.99999998245E-14  0.12500000000E+03  0.12500000000E+03 0.  0.
        -13    1    3    3    0    0 -0.34459092950E+01  0.87185266373E+01 -0.59138564767E+02  0.59877107515E+02  0.10566000000E+00 0.  1.
         23    2    1    0    0    0  0.11152262612E+02  0.36656974895E+01 -0.28057721401E+02  0.94585430635E+02  0.89562032462E+02 0.  0.
         13    1    3    3    0    0  0.14598171907E+02 -0.50528291478E+01  0.31080843366E+02  0.34708323120E+02  0.10566000000E+00 0. -1.
         22    1    1    0    0    0 -0.11152262612E+02 -0.36656974895E+01  0.28057721401E+02  0.30414569365E+02  0.00000000000E+00 0.  1.
</event>
<event>
 5    1  0.1315753E-009  0.9118800E+02  0.7818608E-02  0.1130116E+00
         25   -1    0    0    0    0  0.00000000000E+00  0.00000000000E+00  0.99999998245E-14  0.12500000000E+03  0.12500000000E+03 0.  0.
        -13    1    3    3    0    0 -0.28437528237E+02 -0.45989309099E+01  0.16603913352E+02  0.33249726020E+02  0.10566000000E+00 0.  1.
         23    2    1    0    0    0  0.20921944780E+02  0.21314740863E+02 -0.78390239786E+01  0.94121265435E+02  0.88911845997E+02 0.  0.
         13    1    3    3    0    0  0.49359473017E+02  0.25913671773E+02 -0.24442937331E+02  0.60871539414E+02  0.10566000000E+00 0. -1.
         22    1    1    0    0    0 -0.20921944780E+02 -0.21314740863E+02  0.78390239786E+01  0.30878734565E+02  0.00000000000E+00 0. -1.
</event>
<event>
 5    1  0.1315753E-009  0.9118800E+02  0.7818608E-02  0.1130116E+00
         25   -1    0    0    0    0  0.00000000000E+00  0.00000000000E+00  0.99999998245E-14  0.12500000000E+03  0.12500000000E+03 0.  0.
        -13    1    3    3    0    0 -0.64164776916E+01 -0.37170053695E+01 -0.36777022526E+02  0.37517300873E+02  0.10566000000E+00 0. -1.
         23    2    1    0    0    0  0.19681055532E+02  0.14119778197E+02  0.13771939667E+02  0.97136432293E+02  0.93054328611E+02 0.  0.
         13    1    3    3    0    0  0.26097533223E+02  0.17836783566E+02  0.50548962193E+02  0.59619131420E+02  0.10566000000E+00 0.  1.
         22    1    1    0    0    0 -0.19681055532E+02 -0.14119778197E+02 -0.13771939667E+02  0.27863567707E+02  0.00000000000E+00 0. -1.
</event>
<event>
 5    1  0.1315753E-009  0.9118800E+02  0.7818608E-02  0.1130116E+00
         25   -1    0    0    0    0  0.00000000000E+00  0.00000000000E+00  0.99999998245E-14  0.12500000000E+03  0.12500000000E+03 0.  0.
        -13    1    3    3    0    0 -0.23857463453E+02 -0.25378209032E+02  0.13947480083E+02  0.37520333431E+02  0.10566000000E+00 0.  1.
         23    2    1    0    0    0  0.84060252075E+01 -0.30692660669E+01 -0.28388243478E+02  0.95234684249E+02  0.90463644975E+02 0.  0.
         13    1    3    3    0    0  0.32263488661E+02  0.22308942965E+02 -0.42335723562E+02  0.57714350818E+02  0.10566000000E+00 0. -1.
         22    1    1    0    0    0 -0.84060252075E+01  0.30692660669E+01  0.28388243478E+02  0.29765315751E+02  0.00000000000E+00 0. -1.
</event>
<event>
 5    1  0.1315753E-009  0.9118800E+02  0.7818608E-02  0.1130116E+00
         25   -1    0    0    0    0  0.00000000000E+00  0.00000000000E+00  0.99999998245E-14  0.12500000000E+03  0.12500000000E+03 0.  0.
        -13    1    3    3    0    0  0.48895336489E+02 -0.43590980491E+01  0.27725073882E+02  0.56377713256E+02  0.10566000000E+00 0. -1.
         23    2    1    0    0    0  0.27577979822E+02  0.13577204895E+01 -0.60584501783E+01  0.96731763504E+02  0.92509139419E+02 0.  0.
         13    1    3    3    0    0 -0.21317356667E+02  0.57168185385E+01 -0.33783524061E+02  0.40354050248E+02  0.10566000000E+00 0.  1.
         22    1    1    0    0    0 -0.27577979822E+02 -0.13577204895E+01  0.60584501783E+01  0.28268236496E+02  0.00000000000E+00 0. -1.
</event>
<event>
 5    1  0.1315753E-009  0.9118800E+02  0.7818608E-02  0.1130116E+00
         25   -1    0    0    0    0  0.00000000000E+00  0.00000000000E+00  0.99999998245E-14  0.12500000000E+03  0.12500000000E+03 0.  0.
        -13    1    3    3    0    0  0.12294918691E+02 -0.43546950888E+02 -0.10244905878E+01  0.45261050609E+02  0.10566000000E+00 0. -1.
         23    2    1    0    0    0 -0.42556997160E+01 -0.67505096510E+01  0.28594420501E+02  0.95312944834E+02  0.90571718591E+02 0.  0.
         13    1    3    3    0    0 -0.16550618407E+02  0.36796441237E+02  0.29618911089E+02  0.50051894225E+02  0.10566000000E+00 0.  1.
         22    1    1    0    0    0  0.42556997160E+01  0.67505096510E+01 -0.28594420501E+02  0.29687055166E+02  0.00000000000E+00 0. -1.
</event>
<event>
 5    1  0.1315753E-009  0.9118800E+02  0.7818608E-02  0.1130116E+00
         25   -1    0    0    0    0  0.00000000000E+00  0.00000000000E+00  0.99999998245E-14  0.12500000000E+03  0.12500000000E+03 0.  0.
        -13    1    3    3    0    0  0.46059516044E+01  0.56781665357E+01  0.35010934645E+02  0.35766367919E+02  0.10566000000E+00 0. -1.
         23    2    1    0    0    0 -0.16926230292E+02 -0.62358975950E+00 -0.22117254842E+02  0.97142162722E+02  0.93062025985E+02 0.  0.
         13    1    3    3    0    0 -0.21532181896E+02 -0.63017562952E+01 -0.57128189487E+02  0.61375794803E+02  0.10566000000E+00 0.  1.
         22    1    1    0    0    0  0.16926230292E+02  0.62358975950E+00  0.22117254842E+02  0.27857837278E+02  0.00000000000E+00 0.  1.
</event>
<event>
 5    1  0.1315753E-009  0.9118800E+02  0.7818608E-02  0.1130116E+00
         25   -1    0    0    0    0  0.00000000000E+00  0.00000000000E+00  0.99999998245E-14  0.12500000000E+03  0.12500000000E+03 0.  0.
        -13    1    3    3    0    0  0.10939324224E+02  0.22130344643E+02 -0.27559029320E+02  0.36999084172E+02  0.10566000000E+00 0.  1.
         23    2    1    0    0    0  0.47569421811E+01 -0.63117002348E+01  0.25928731621E+02  0.97893447615E+02  0.94065731824E+02 0.  0.
         13    1    3    3    0    0 -0.61823820425E+01 -0.28442044878E+02  0.53487760941E+02  0.60894363442E+02  0.10566000000E+00 0. -1.
         22    1    1    0    0    0 -0.47569421811E+01  0.63117002348E+01 -0.25928731621E+02  0.27106552385E+02  0.00000000000E+00 0. -1.
</event>
<event>
 5    1  0.1315753E-009  0.9118800E+02  0.7818608E-02  0.1130116E+00
         25   -1    0    0    0    0  0.00000000000E+00  0.00000000000E+00  0.99999998245E-14  0.12500000000E+03  0.12500000000E+03 0.  0.
        -13    1    3    3    0    0  0.49802153804E+02 -0.19015327984E+02  0.21507442852E+02  0.57484071567E+02  0.10566000000E+00 0. -1.
         23    2    1    0    0    0  0.30351468357E+02 -0.26681847346E+02  0.23099586910E+02  0.78451922439E+02  0.63150460092E+02 0.  0.
         13    1    3    3    0    0 -0.19450685447E+02 -0.76665193624E+01  0.15921440571E+01  0.20967850873E+02  0.10566000000E+00 0.  1.
         22    1    1    0    0    0 -0.30351468357E+02  0.26681847346E+02 -0.23099586910E+02  0.46548077561E+02  0.00000000000E+00 0. -1.
</event>
<event>
 5    1  0.1315753E-009  0.9118800E+02  0.7818608E-02  0.1130116E+00
         25   -1    0    0    0    0  0.00000000000E+00  0.00000000000E+00  0.99999998245E-14  0.12500000000E+03  0.12500000000E+03 0.  0.
        -13    1    3    3    0    0  0.17158379649E+02  0.26358468792E+02 -0.18097820645E+02  0.36286652441E+02  0.10566000000E+00 0. -1.
         23    2    1    0    0    0 -0.28440913877E+02 -0.69382441249E+01  0.46304402213E+00  0.95721352090E+02  0.91133627287E+02 0.  0.
         13    1    3    3    0    0 -0.45599293526E+02 -0.33296712917E+02  0.18560864667E+02  0.59434699649E+02  0.10566000000E+00 0.  1.
         22    1    1    0    0    0  0.28440913877E+02  0.69382441249E+01 -0.46304402213E+00  0.29278647910E+02  0.00000000000E+00 0.  1.
</event>
<event>
 5    1  0.1315753E-009  0.9118800E+02  0.7818608E-02  0.1130116E+00
         25   -1    0    0    0    0  0.00000000000E+00  0.00000000000E+00  0.99999998245E-14  0.12500000000E+03  0.12500000000E+03 0.  0.
        -13    1    3    3    0    0  0.13996374672E+02  0.58842142013E+02 -0.89680653660E+01  0.61145184120E+02  0.10566000000E+00 0.  1.
         23    2    1    0    0    0  0.63330094353E+00  0.28464175089E+02 -0.11194238945E+02  0.94407168828E+02  0.89312889367E+02 0.  0.
         13    1    3    3    0    0 -0.13363073728E+02 -0.30377966924E+02 -0.22261735789E+01  0.33261984708E+02  0.10566000000E+00 0. -1.
         22    1    1    0    0    0 -0.63330094353E+00 -0.28464175089E+02  0.11194238945E+02  0.30592831172E+02  0.00000000000E+00 0.  1.
</event>
<event>
 5    1  0.1315753E-009  0.9118800E+02  0.7818608E-02  0.1130116E+00
         25   -1    0    0    0    0  0.00000000000E+00  0.00000000000E+00  0.99999998245E-14  0.12500000000E+03  0.12500000000E+03 0.  0.
        -13    1    3    3    0    0 -0.28864460163E+02 -0.28259650773E+02  0.24290179395E+02  0.47135855794E+02  0.10566000000E+00 0.  1.
         23    2    1    0    0    0 -0.16938717334E+02 -0.10698714734E+02 -0.20273630941E+02  0.96497320242E+02  0.92191811244E+02 0.  0.
         13    1    3    3    0    0  0.11925742830E+02  0.17560936039E+02 -0.44563810337E+02  0.49361464447E+02  0.10566000000E+00 0. -1.
         22    1    1    0    0    0  0.16938717334E+02  0.10698714734E+02  0.20273630941E+02  0.28502679758E+02  0.00000000000E+00 0.  1.
</event>
<event>
 5    1  0.1315753E-009  0.9118800E+02  0.7818608E-02  0.1130116E+00
         25   -1    0    0    0    0  0.00000000000E+00  0.00000000000E+00  0.99999998245E-14  0.12500000000E+03  0.12500000000E+03 0.  0.
        -13    1    3    3    0    0 -0.68840959995E+00  0.35998626215E+02 -0.20041728903E+01  0.36061099126E+02  0.10566000000E+00 0.  1.
         23    2    1    0    0    0  0.50983233120E+01 -0.15525462567E+02  0.25469915029E+02  0.94738647418E+02  0.89775619488E+02 0.  0.
         13    1    3    3    0    0  0.57867329119E+01 -0.51524088782E+02  0.27474087919E+02  0.58677548292E+02  0.10566000000E+00 0. -1.
         22    1    1    0    0    0 -0.50983233120E+01  0.15525462567E+02 -0.25469915029E+02  0.30261352582E+02  0.00000000000E+00 0. -1.
</event>
<event>
 4    1  0.1315753E-009  0.9118800E+02  0.7818608E-02  0.1130116E+00
         25   -1    0    0    0    0  0.00000000000E+00  0.00000000000E+00  0.99999998245E-14  0.12500000000E+03  0.12500000000E+03 0.  0.
        -13    1    1    0    0    0 -0.57942888135E+01 -0.61357373722E+01  0.14489907585E+02  0.16768710201E+02  0.10566000000E+00 0.  1.
         13    1    1    0    0    0  0.54220508090E+02 -0.91067742845E+01  0.15115756562E+01  0.55000844179E+02  0.10566000000E+00 0. -1.
         22    1    1    0    0    0 -0.48426219276E+02  0.15242511657E+02 -0.16001483241E+02  0.53230445620E+02  0.00000000000E+00 0. -1.
</event>
<event>
 5    1  0.1315753E-009  0.9118800E+02  0.7818608E-02  0.1130116E+00
         25   -1    0    0    0    0  0.00000000000E+00  0.00000000000E+00  0.99999998245E-14  0.12500000000E+03  0.12500000000E+03 0.  0.
        -13    1    3    3    0    0  0.25454551098E+02 -0.16298256392E+02  0.16572467358E+02  0.34470642167E+02  0.10566000000E+00 0. -1.
         23    2    1    0    0    0 -0.21994054106E+02 -0.34151312362E+01 -0.19466236061E+02  0.95430828829E+02  0.90734266995E+02 0.  0.
         13    1    3    3    0    0 -0.47448605204E+02  0.12883125155E+02 -0.36038703420E+02  0.60960186662E+02  0.10566000000E+00 0.  1.
         22    1    1    0    0    0  0.21994054106E+02  0.34151312362E+01  0.19466236061E+02  0.29569171171E+02  0.00000000000E+00 0.  1.
</event>
<event>
 5    1  0.1315753E-009  0.9118800E+02  0.7818608E-02  0.1130116E+00
         25   -1    0    0    0    0  0.00000000000E+00  0.00000000000E+00  0.99999998245E-14  0.12500000000E+03  0.12500000000E+03 0.  0.
        -13    1    3    3    0    0  0.10030870464E+02  0.17862193802E+01 -0.35807137480E+02  0.37228634147E+02  0.10566000000E+00 0.  1.
         23    2    1    0    0    0 -0.22447719103E+02  0.17544754371E+02  0.93247955539E+01  0.95022169675E+02  0.90169520453E+02 0.  0.
         13    1    3    3    0    0 -0.32478589567E+02  0.15758534991E+02  0.45131933034E+02  0.57793535527E+02  0.10566000000E+00 0. -1.
         22    1    1    0    0    0  0.22447719103E+02 -0.17544754371E+02 -0.93247955539E+01  0.29977830325E+02  0.00000000000E+00 0. -1.
</event>
<event>
 5    1  0.1315753E-009  0.9118800E+02  0.7818608E-02  0.1130116E+00
         25   -1    0    0    0    0  0.00000000000E+00  0.00000000000E+00  0.99999998245E-14  0.12500000000E+03  0.12500000000E+03 0.  0.
        -13    1    3    3    0    0 -0.22171814136E+02 -0.24117962957E+02 -0.20648264381E+02  0.38725023761E+02  0.10566000000E+00 0.  1.
         23    2    1    0    0    0  0.17849092461E+01 -0.31415706581E+01  0.27945246732E+02  0.96822133116E+02  0.92631167967E+02 0.  0.
         13    1    3    3    0    0  0.23956723382E+02  0.20976392299E+02  0.48593511113E+02  0.58097109355E+02  0.10566000000E+00 0. -1.
         22    1    1    0    0    0 -0.17849092461E+01  0.31415706581E+01 -0.27945246732E+02  0.28177866884E+02  0.00000000000E+00 0. -1.
</event>
<event>
 5    1  0.1315753E-009  0.9118800E+02  0.7818608E-02  0.1130116E+00
         25   -1    0    0    0    0  0.00000000000E+00  0.00000000000E+00  0.99999998245E-14  0.12500000000E+03  0.12500000000E+03 0.  0.
        -13    1    3    3    0    0  0.40640577249E+01  0.35894598406E+02  0.44123707083E+02  0.57025007239E+02  0.10566000000E+00 0. -1.
         23    2    1    0    0    0 -0.15156559901E+02  0.87005465569E+01  0.21542200497E+02  0.97260367329E+02  0.93220662046E+02 0.  0.
         13    1    3    3    0    0 -0.19220617626E+02 -0.27194051849E+02 -0.22581506585E+02  0.40235360090E+02  0.10566000000E+00 0.  1.
         22    1    1    0    0    0  0.15156559901E+02 -0.87005465569E+01 -0.21542200497E+02  0.27739632671E+02  0.00000000000E+00 0. -1.
</event>
<event>
 5    1  0.1315753E-009  0.9118800E+02  0.7818608E-02  0.1130116E+00
         25   -1    0    0    0    0  0.00000000000E+00  0.00000000000E+00  0.99999998245E-14  0.12500000000E+03  0.12500000000E+03 0.  0.
        -13    1    3    3    0    0  0.42681229539E+00 -0.12837492268E+02 -0.27414934303E+02  0.30274959345E+02  0.10566000000E+00 0.  1.
         23    2    1    0    0    0 -0.11002383358E+02 -0.25047823046E+02  0.26613520947E+02  0.86832928118E+02  0.77995076956E+02 0.  0.
         13    1    3    3    0    0 -0.11429195654E+02 -0.12210330778E+02  0.54028455250E+02  0.56557968773E+02  0.10566000000E+00 0. -1.
         22    1    1    0    0    0  0.11002383358E+02  0.25047823046E+02 -0.26613520947E+02  0.38167071882E+02  0.00000000000E+00 0. -1.
</event>
<event>
 5    1  0.1315753E-009  0.9118800E+02  0.7818608E-02  0.1130116E+00
         25   -1    0    0    0    0  0.00000000000E+00  0.00000000000E+00  0.99999998245E-14  0.12500000000E+03  0.12500000000E+03 0.  0.
        -13    1    3    3    0    0 -0.35826480382E+01  0.11522818700E+02 -0.35472776446E+02  0.37469184013E+02  0.10566000000E+00 0. -1.
         23    2    1    0    0    0  0.16610347344E+02 -0.24375219388E+02  0.48477969226E+01  0.95107591363E+02  0.90287860983E+02 0.  0.
         13    1    3    3    0    0  0.20192995382E+02 -0.35898038087E+02  0.40320573369E+02  0.57638407350E+02  0.10566000000E+00 0.  1.
         22    1    1    0    0    0 -0.16610347344E+02  0.24375219388E+02 -0.48477969226E+01  0.29892408637E+02  0.00000000000E+00 0.  1.
</event>
<event>
 5    1  0.1315753E-009  0.9118800E+02  0.7818608E-02  0.1130116E+00
         25   -1    0    0    0    0  0.00000000000E+00  0.00000000000E+00  0.99999998245E-14  0.12500000000E+03  0.12500000000E+03 0.  0.
        -13    1    3    3    0    0 -0.21683761121E+02  0.32438612777E+02 -0.15244801733E+01  0.39048486515E+02  0.10566000000E+00 0. -1.
         23    2    1    0    0    0  0.15408239044E+02 -0.26921881121E+01 -0.25187620685E+02  0.95350751392E+02  0.90623881223E+02 0.  0.
         13    1    3    3    0    0  0.37092000165E+02 -0.35130800889E+02 -0.23663140511E+02  0.56302264877E+02  0.10566000000E+00 0.  1.
         22    1    1    0    0    0 -0.15408239044E+02  0.26921881121E+01  0.25187620685E+02  0.29649248608E+02  0.00000000000E+00 0.  1.
</event>
<event>
 5    1  0.1315753E-009  0.9118800E+02  0.7818608E-02  0.1130116E+00
         25   -1    0    0    0    0  0.00000000000E+00  0.00000000000E+00  0.99999998245E-14  0.12500000000E+03  0.12500000000E+03 0.  0.
        -13    1    3    3    0    0 -0.68936421427E+01  0.23366922749E+02 -0.47783216400E+02  0.53635644065E+02  0.10566000000E+00 0.  1.
         23    2    1    0    0    0  0.17742265086E+02  0.17433523901E+02 -0.12266070556E+02  0.97266045849E+02  0.93228276087E+02 0.  0.
         13    1    3    3    0    0  0.24635907229E+02 -0.59333988481E+01  0.35517145844E+02  0.43630401783E+02  0.10566000000E+00 0. -1.
         22    1    1    0    0    0 -0.17742265086E+02 -0.17433523901E+02  0.12266070556E+02  0.27733954151E+02  0.00000000000E+00 0. -1.
</event>
<event>
 5    1  0.1315753E-009  0.9118800E+02  0.7818608E-02  0.1130116E+00
         25   -1    0    0    0    0  0.00000000000E+00  0.00000000000E+00  0.99999998245E-14  0.12500000000E+03  0.12500000000E+03 0.  0.
        -13    1    3    3    0    0 -0.23467127664E+02  0.14208032377E+02  0.26351085170E+02  0.38038994709E+02  0.10566000000E+00 0.  1.
         23    2    1    0    0    0 -0.15746045171E+02 -0.26114402309E+02 -0.10034355439E+02  0.92897223866E+02  0.87173998224E+02 0.  0.
         13    1    3    3    0    0  0.77210824931E+01 -0.40322434686E+02 -0.36385440609E+02  0.54858229156E+02  0.10566000000E+00 0. -1.
         22    1    1    0    0    0  0.15746045171E+02  0.26114402309E+02  0.10034355439E+02  0.32102776134E+02  0.00000000000E+00 0. -1.
</event>
<event>
 5    1  0.1315753E-009  0.9118800E+02  0.7818608E-02  0.1130116E+00
         25   -1    0    0    0    0  0.00000000000E+00  0.00000000000E+00  0.99999998245E-14  0.12500000000E+03  0.12500000000E+03 0.  0.
        -13    1    3    3    0    0  0.29794374590E+02  0.19578574421E+02  0.46075949331E+02  0.58258300734E+02  0.10566000000E+00 0.  1.
         23    2    1    0    0    0  0.58941015633E+01  0.22749898442E+02  0.17194855440E+02  0.95880223799E+02  0.91351277768E+02 0.  0.
         13    1    3    3    0    0 -0.23900273027E+02  0.31713240214E+01 -0.28881093891E+02  0.37621923066E+02  0.10566000000E+00 0. -1.
         22    1    1    0    0    0 -0.58941015633E+01 -0.22749898442E+02 -0.17194855440E+02  0.29119776201E+02  0.00000000000E+00 0.  1.
</event>
<event>
 5    1  0.1315753E-009  0.9118800E+02  0.7818608E-02  0.1130116E+00
         25   -1    0    0    0    0  0.00000000000E+00  0.00000000000E+00  0.99999998245E-14  0.12500000000E+03  0.12500000000E+03 0.  0.
        -13    1    3    3    0    0  0.47813645990E+02 -0.11002579289E+02  0.11447239043E+02  0.50381067274E+02  0.10566000000E+00 0.  1.
         23    2    1    0    0    0  0.19304323872E+02  0.21113445770E+02 -0.41951971652E+01  0.96085744144E+02  0.91632068818E+02 0.  0.
         13    1    3    3    0    0 -0.28509322118E+02  0.32116025059E+02 -0.15642436209E+02  0.45704676870E+02  0.10566000000E+00 0. -1.
         22    1    1    0    0    0 -0.19304323872E+02 -0.21113445770E+02  0.41951971652E+01  0.28914255856E+02  0.00000000000E+00 0.  1.
</event>
<event>
 5    1  0.1315753E-009  0.9118800E+02  0.7818608E-02  0.1130116E+00
         25   -1    0    0    0    0  0.00000000000E+00  0.00000000000E+00  0.99999998245E-14  0.12500000000E+03  0.12500000000E+03 0.  0.
        -13    1    3    3    0    0  0.29083784690E+00 -0.22968129997E+02  0.28571575363E+02  0.36660137274E+02  0.10566000000E+00 0.  1.
         23    2    1    0    0    0 -0.34048280348E+01  0.28841237061E+02 -0.36313145831E-01  0.95958458584E+02  0.91458267237E+02 0.  0.
         13    1    3    3    0    0 -0.36956658817E+01  0.51809367058E+02 -0.28607888509E+02  0.59298321310E+02  0.10566000000E+00 0. -1.
         22    1    1    0    0    0  0.34048280348E+01 -0.28841237061E+02  0.36313145831E-01  0.29041541416E+02  0.00000000000E+00 0. -1.
</event>
<event>
 5    1  0.1315753E-009  0.9118800E+02  0.7818608E-02  0.1130116E+00
         25   -1    0    0    0    0  0.00000000000E+00  0.00000000000E+00  0.99999998245E-14  0.12500000000E+03  0.12500000000E+03 0.  0.
        -13    1    3    3    0    0  0.26958212943E+02  0.68013819023E+01 -0.20919973548E+02  0.34794546959E+02  0.10566000000E+00 0. -1.
         23    2    1    0    0    0 -0.40401614723E+01 -0.26311573228E+02  0.16572948122E+02  0.93642634041E+02  0.88236378610E+02 0.  0.
         13    1    3    3    0    0 -0.30998374415E+02 -0.33112955130E+02  0.37492921669E+02  0.58848087082E+02  0.10566000000E+00 0.  1.
         22    1    1    0    0    0  0.40401614723E+01  0.26311573228E+02 -0.16572948122E+02  0.31357365959E+02  0.00000000000E+00 0.  1.
</event>
<event>
 5    1  0.1315753E-009  0.9118800E+02  0.7818608E-02  0.1130116E+00
         25   -1    0    0    0    0  0.00000000000E+00  0.00000000000E+00  0.99999998245E-14  0.12500000000E+03  0.12500000000E+03 0.  0.
        -13    1    3    3    0    0 -0.31584488573E+02  0.24601603642E+02 -0.33689982803E+02  0.52324419973E+02  0.10566000000E+00 0. -1.
         23    2    1    0    0    0 -0.11951242835E+00  0.28837170963E+02 -0.38293348299E+01  0.95909442810E+02  0.91391250689E+02 0.  0.
         13    1    3    3    0    0  0.31464976144E+02  0.42355673207E+01  0.29860647973E+02  0.43585022837E+02  0.10566000000E+00 0.  1.
         22    1    1    0    0    0  0.11951242835E+00 -0.28837170963E+02  0.38293348299E+01  0.29090557190E+02  0.00000000000E+00 0. -1.
</event>
<event>
 5    1  0.1315753E-009  0.9118800E+02  0.7818608E-02  0.1130116E+00
         25   -1    0    0    0    0  0.00000000000E+00  0.00000000000E+00  0.99999998245E-14  0.12500000000E+03  0.12500000000E+03 0.  0.
        -13    1    3    3    0    0  0.44882762019E+02 -0.12510929648E+02 -0.46201376146E+01  0.46822457462E+02  0.10566000000E+00 0.  1.
         23    2    1    0    0    0  0.91715889771E+01  0.24756026736E+02 -0.62055456623E+00  0.98592349743E+02  0.94989933339E+02 0.  0.
         13    1    3    3    0    0 -0.35711173042E+02  0.37266956385E+02  0.39995830484E+01  0.51769892281E+02  0.10566000000E+00 0. -1.
         22    1    1    0    0    0 -0.91715889771E+01 -0.24756026736E+02  0.62055456623E+00  0.26407650257E+02  0.00000000000E+00 0. -1.
</event>
<event>
 5    1  0.1315753E-009  0.9118800E+02  0.7818608E-02  0.1130116E+00
         25   -1    0    0    0    0  0.00000000000E+00  0.00000000000E+00  0.99999998245E-14  0.12500000000E+03  0.12500000000E+03 0.  0.
        -13    1    3    3    0    0  0.30072169712E+02  0.12855278758E+02  0.43684146113E+02  0.54570224196E+02  0.10566000000E+00 0.  1.
         23    2    1    0    0    0  0.22802867777E+02 -0.13249598042E+02  0.12712229820E+02  0.95723329866E+02  0.91136339988E+02 0.  0.
         13    1    3    3    0    0 -0.72693019345E+01 -0.26104876800E+02 -0.30971916293E+02  0.41153105670E+02  0.10566000000E+00 0. -1.
         22    1    1    0    0    0 -0.22802867777E+02  0.13249598042E+02 -0.12712229820E+02  0.29276670134E+02  0.00000000000E+00 0.  1.
</event>
<event>
 5    1  0.1315753E-009  0.9118800E+02  0.7818608E-02  0.1130116E+00
         25   -1    0    0    0    0  0.00000000000E+00  0.00000000000E+00  0.99999998245E-14  0.12500000000E+03  0.12500000000E+03 0.  0.
        -13    1    3    3    0    0 -0.47576962149E+02 -0.35621166583E+02 -0.33873820603E+01  0.59530835349E+02  0.10566000000E+00 0.  1.
         23    2    1    0    0    0 -0.13504986559E+02 -0.21432561583E+02 -0.11273331884E+02  0.97272263531E+02  0.93236612351E+02 0.  0.
         13    1    3    3    0    0  0.34071975591E+02  0.14188605001E+02 -0.78859498239E+01  0.37741428182E+02  0.10566000000E+00 0. -1.
         22    1    1    0    0    0  0.13504986559E+02  0.21432561583E+02  0.11273331884E+02  0.27727736469E+02  0.00000000000E+00 0.  1.
</event>
<event>
 5    1  0.1315753E-009  0.9118800E+02  0.7818608E-02  0.1130116E+00
         25   -1    0    0    0    0  0.00000000000E+00  0.00000000000E+00  0.99999998245E-14  0.12500000000E+03  0.12500000000E+03 0.  0.
        -13    1    3    3    0    0 -0.34746990393E+01  0.22972835907E+02  0.34231530431E+02  0.41371893390E+02  0.10566000000E+00 0. -1.
         23    2    1    0    0    0  0.33822216102E+01  0.19423167103E+02 -0.20448843813E+02  0.96594823419E+02  0.92323918107E+02 0.  0.
         13    1    3    3    0    0  0.68569206495E+01 -0.35496688042E+01 -0.54680374244E+02  0.55222930028E+02  0.10566000000E+00 0.  1.
         22    1    1    0    0    0 -0.33822216102E+01 -0.19423167103E+02  0.20448843813E+02  0.28405176581E+02  0.00000000000E+00 0.  1.
</event>
<event>
 5    1  0.1315753E-009  0.9118800E+02  0.7818608E-02  0.1130116E+00
         25   -1    0    0    0    0  0.00000000000E+00  0.00000000000E+00  0.99999998245E-14  0.12500000000E+03  0.12500000000E+03 0.  0.
        -13    1    3    3    0    0  0.41650142616E+02 -0.35851426870E+02 -0.15119562084E+02  0.56997118438E+02  0.10566000000E+00 0. -1.
         23    2    1    0    0    0  0.59931884936E+01 -0.28359039635E+02 -0.12363962162E+01  0.95988241816E+02  0.91498964224E+02 0.  0.
         13    1    3    3    0    0 -0.35656954122E+02  0.74923872356E+01  0.13883165868E+02  0.38991123378E+02  0.10566000000E+00 0.  1.
         22    1    1    0    0    0 -0.59931884936E+01  0.28359039635E+02  0.12363962162E+01  0.29011758184E+02  0.00000000000E+00 0. -1.
</event>
<event>
 5    1  0.1315753E-009  0.9118800E+02  0.7818608E-02  0.1130116E+00
         25   -1    0    0    0    0  0.00000000000E+00  0.00000000000E+00  0.99999998245E-14  0.12500000000E+03  0.12500000000E+03 0.  0.
        -13    1    3    3    0    0  0.38074868660E+02 -0.22931760094E+02  0.46540883968E+00  0.44449848300E+02  0.10566000000E+00 0. -1.
         23    2    1    0    0    0  0.13635951401E+02  0.15822869661E+02 -0.21294218508E+02  0.95171387616E+02  0.90376141232E+02 0.  0.
         13    1    3    3    0    0 -0.24438917259E+02  0.38754629754E+02 -0.21759627348E+02  0.50721539315E+02  0.10566000000E+00 0.  1.
         22    1    1    0    0    0 -0.13635951401E+02 -0.15822869661E+02  0.21294218508E+02  0.29828612384E+02  0.00000000000E+00 0.  1.
</event>
<event>
 5    1  0.1315753E-009  0.9118800E+02  0.7818608E-02  0.1130116E+00
         25   -1    0    0    0    0  0.00000000000E+00  0.00000000000E+00  0.99999998245E-14  0.12500000000E+03  0.12500000000E+03 0.  0.
        -13    1    3    3    0    0  0.27285917558E-01  0.39803148979E+02  0.27340573661E+02  0.48288813873E+02  0.10566000000E+00 0.  1.
         23    2    1    0    0    0 -0.16311071009E+02  0.20377145998E+02 -0.12914352404E+02  0.95878536875E+02  0.91348969446E+02 0.  0.
         13    1    3    3    0    0 -0.16338356927E+02 -0.19426002980E+02 -0.40254926065E+02  0.47589723002E+02  0.10566000000E+00 0. -1.
         22    1    1    0    0    0  0.16311071009E+02 -0.20377145998E+02  0.12914352404E+02  0.29121463125E+02  0.00000000000E+00 0.  1.
</event>
<event>
 5    1  0.1315753E-009  0.9118800E+02  0.7818608E-02  0.1130116E+00
         25   -1    0    0    0    0  0.00000000000E+00  0.00000000000E+00  0.99999998245E-14  0.12500000000E+03  0.12500000000E+03 0.  0.
        -13    1    3    3    0    0  0.47281919648E+02 -0.33225181954E+00 -0.31059343178E+02  0.56571938976E+02  0.10566000000E+00 0.  1.
         23    2    1    0    0    0  0.29695720567E+02  0.16831727064E+02 -0.87501330523E+01  0.89762127130E+02  0.82556234062E+02 0.  0.
         13    1    3    3    0    0 -0.17586199081E+02  0.17163978884E+02  0.22309210125E+02  0.33190188154E+02  0.10566000000E+00 0. -1.
         22    1    1    0    0    0 -0.29695720567E+02 -0.16831727064E+02  0.87501330523E+01  0.35237872870E+02  0.00000000000E+00 0.  1.
</event>
<event>
 5    1  0.1315753E-009  0.9118800E+02  0.7818608E-02  0.1130116E+00
         25   -1    0    0    0    0  0.00000000000E+00  0.00000000000E+00  0.99999998245E-14  0.12500000000E+03  0.12500000000E+03 0.  0.
        -13    1    3    3    0    0  0.25431699379E+02 -0.32865590067E+02  0.86419810998E-02  0.41556342265E+02  0.10566000000E+00 0. -1.
         23    2    1    0    0    0  0.31094304876E+01  0.15877771333E+02  0.20441988757E+02  0.98929958097E+02  0.95433167841E+02 0.  0.
         13    1    3    3    0    0 -0.22322268891E+02  0.48743361401E+02  0.20433346776E+02  0.57373615832E+02  0.10566000000E+00 0.  1.
         22    1    1    0    0    0 -0.31094304876E+01 -0.15877771333E+02 -0.20441988757E+02  0.26070041903E+02  0.00000000000E+00 0.  1.
</event>
<event>
 5    1  0.1315753E-009  0.9118800E+02  0.7818608E-02  0.1130116E+00
         25   -1    0    0    0    0  0.00000000000E+00  0.00000000000E+00  0.99999998245E-14  0.12500000000E+03  0.12500000000E+03 0.  0.
        -13    1    3    3    0    0 -0.17185793509E+02 -0.18421406691E+02  0.27738337498E+02  0.37471672690E+02  0.10566000000E+00 0.  1.
         23    2    1    0    0    0 -0.49448846381E+01  0.27878619245E+02 -0.60052115385E+01  0.96056402077E+02  0.91592033055E+02 0.  0.
         13    1    3    3    0    0  0.12240908870E+02  0.46300025937E+02 -0.33743549037E+02  0.58584729387E+02  0.10566000000E+00 0. -1.
         22    1    1    0    0    0  0.49448846381E+01 -0.27878619245E+02  0.60052115385E+01  0.28943597923E+02  0.00000000000E+00 0. -1.
</event>
<event>
 5    1  0.1315753E-009  0.9118800E+02  0.7818608E-02  0.1130116E+00
         25   -1    0    0    0    0  0.00000000000E+00  0.00000000000E+00  0.99999998245E-14  0.12500000000E+03  0.12500000000E+03 0.  0.
        -13    1    3    3    0    0  0.40945203437E+02  0.83875901871E+01  0.39243432418E+02  0.57331662331E+02  0.10566000000E+00 0.  1.
         23    2    1    0    0    0  0.13329685142E+02  0.20907615935E+02  0.17009842596E+02  0.94931018387E+02  0.90043070787E+02 0.  0.
         13    1    3    3    0    0 -0.27615518295E+02  0.12520025748E+02 -0.22233589822E+02  0.37599356056E+02  0.10566000000E+00 0. -1.
         22    1    1    0    0    0 -0.13329685142E+02 -0.20907615935E+02 -0.17009842596E+02  0.30068981613E+02  0.00000000000E+00 0.  1.
</event>
<event>
 5    1  0.1315753E-009  0.9118800E+02  0.7818608E-02  0.1130116E+00
         25   -1    0    0    0    0  0.00000000000E+00  0.00000000000E+00  0.99999998245E-14  0.12500000000E+03  0.12500000000E+03 0.  0.
        -13    1    3    3    0    0  0.12248202943E+02  0.94270894854E+01  0.26454202368E+02  0.30638610910E+02  0.10566000000E+00 0.  1.
         23    2    1    0    0    0 -0.24418100486E+02  0.44498534107E+01 -0.22155609518E+02  0.91729654948E+02  0.85483412058E+02 0.  0.
         13    1    3    3    0    0 -0.36666303430E+02 -0.49772360747E+01 -0.48609811886E+02  0.61091044039E+02  0.10566000000E+00 0. -1.
         22    1    1    0    0    0  0.24418100486E+02 -0.44498534107E+01  0.22155609518E+02  0.33270345052E+02  0.00000000000E+00 0. -1.
</event>
<event>
 5    1  0.1315753E-009  0.9118800E+02  0.7818608E-02  0.1130116E+00
         25   -1    0    0    0    0  0.00000000000E+00  0.00000000000E+00  0.99999998245E-14  0.12500000000E+03  0.12500000000E+03 0.  0.
        -13    1    3    3    0    0 -0.12789541637E+00 -0.62440759743E+01  0.45175904651E+02  0.45605683495E+02  0.10566000000E+00 0. -1.
         23    2    1    0    0    0  0.10447632282E+02 -0.28159171102E+02  0.23356224713E+01  0.94874478100E+02  0.89964545933E+02 0.  0.
         13    1    3    3    0    0  0.10575527698E+02 -0.21915095127E+02 -0.42840282180E+02  0.49268794605E+02  0.10566000000E+00 0.  1.
         22    1    1    0    0    0 -0.10447632282E+02  0.28159171102E+02 -0.23356224713E+01  0.30125521900E+02  0.00000000000E+00 0.  1.
</event>
<event>
 5    1  0.1315753E-009  0.9118800E+02  0.7818608E-02  0.1130116E+00
         25   -1    0    0    0    0  0.00000000000E+00  0.00000000000E+00  0.99999998245E-14  0.12500000000E+03  0.12500000000E+03 0.  0.
        -13    1    3    3    0    0  0.27795644523E+02  0.33507150315E+01 -0.53598228526E+01  0.28505508428E+02  0.10566000000E+00 0.  1.
         23    2    1    0    0    0 -0.16564320736E+02 -0.16014362127E+02  0.29071749501E+02  0.87905483763E+02  0.79695488836E+02 0.  0.
         13    1    3    3    0    0 -0.44359965259E+02 -0.19365077158E+02  0.34431572354E+02  0.59399975336E+02  0.10566000000E+00 0. -1.
         22    1    1    0    0    0  0.16564320736E+02  0.16014362127E+02 -0.29071749501E+02  0.37094516237E+02  0.00000000000E+00 0. -1.
</event>
<event>
 5    1  0.1315753E-009  0.9118800E+02  0.7818608E-02  0.1130116E+00
         25   -1    0    0    0    0  0.00000000000E+00  0.00000000000E+00  0.99999998245E-14  0.12500000000E+03  0.12500000000E+03 0.  0.
        -13    1    3    3    0    0  0.63397565053E+01  0.74504361383E+01  0.50635698820E+02  0.51572150141E+02  0.10566000000E+00 0. -1.
         23    2    1    0    0    0 -0.12427790034E+02  0.22250960378E+02  0.12416109077E+02  0.96650132849E+02  0.92398772785E+02 0.  0.
         13    1    3    3    0    0 -0.18767546539E+02  0.14800524240E+02 -0.38219589742E+02  0.45077982707E+02  0.10566000000E+00 0.  1.
         22    1    1    0    0    0  0.12427790034E+02 -0.22250960378E+02 -0.12416109077E+02  0.28349867151E+02  0.00000000000E+00 0. -1.
</event>
<event>
 5    1  0.1315753E-009  0.9118800E+02  0.7818608E-02  0.1130116E+00
         25   -1    0    0    0    0  0.00000000000E+00  0.00000000000E+00  0.99999998245E-14  0.12500000000E+03  0.12500000000E+03 0.  0.
        -13    1    3    3    0    0  0.22839456149E+02  0.38112214597E+02 -0.27550442487E+01  0.44517222415E+02  0.10566000000E+00 0. -1.
         23    2    1    0    0    0  0.27082176970E+02  0.34904524264E+01  0.24132401916E+02  0.88558260335E+02  0.80712855753E+02 0.  0.
         13    1    3    3    0    0  0.42427208203E+01 -0.34621762171E+02  0.26887446165E+02  0.44041037920E+02  0.10566000000E+00 0.  1.
         22    1    1    0    0    0 -0.27082176970E+02 -0.34904524264E+01 -0.24132401916E+02  0.36441739665E+02  0.00000000000E+00 0.  1.
</event>
<event>
 5    1  0.1315753E-009  0.9118800E+02  0.7818608E-02  0.1130116E+00
         25   -1    0    0    0    0  0.00000000000E+00  0.00000000000E+00  0.99999998245E-14  0.12500000000E+03  0.12500000000E+03 0.  0.
        -13    1    3    3    0    0  0.25439773116E+02  0.22773984928E+02 -0.14289844419E+02  0.37014149500E+02  0.10566000000E+00 0. -1.
         23    2    1    0    0    0 -0.72632674224E+00 -0.28679447894E+02 -0.87635588910E+01  0.95002696013E+02  0.90142520507E+02 0.  0.
         13    1    3    3    0    0 -0.26166099858E+02 -0.51453432822E+02  0.55262855276E+01  0.57988546513E+02  0.10566000000E+00 0.  1.
         22    1    1    0    0    0  0.72632674224E+00  0.28679447894E+02  0.87635588910E+01  0.29997303987E+02  0.00000000000E+00 0.  1.
</event>
<event>
 5    1  0.1315753E-009  0.9118800E+02  0.7818608E-02  0.1130116E+00
         25   -1    0    0    0    0  0.00000000000E+00  0.00000000000E+00  0.99999998245E-14  0.12500000000E+03  0.12500000000E+03 0.  0.
        -13    1    3    3    0    0  0.22981079359E+02  0.46067500093E+02  0.17079622774E+02  0.54240844863E+02  0.10566000000E+00 0.  1.
         23    2    1    0    0    0 -0.99885517868E+01  0.23519462678E+02  0.17224965251E+02  0.94183839964E+02  0.88999775231E+02 0.  0.
         13    1    3    3    0    0 -0.32969631145E+02 -0.22548037416E+02  0.14534247768E+00  0.39942995101E+02  0.10566000000E+00 0. -1.
         22    1    1    0    0    0  0.99885517868E+01 -0.23519462678E+02 -0.17224965251E+02  0.30816160036E+02  0.00000000000E+00 0.  1.
</event>
<event>
 5    1  0.1315753E-009  0.9118800E+02  0.7818608E-02  0.1130116E+00
         25   -1    0    0    0    0  0.00000000000E+00  0.00000000000E+00  0.99999998245E-14  0.12500000000E+03  0.12500000000E+03 0.  0.
        -13    1    3    3    0    0 -0.32480118889E+02 -0.24128201087E+01 -0.46390379976E+02  0.56682081316E+02  0.10566000000E+00 0.  1.
         23    2    1    0    0    0  0.10277453017E+01 -0.30668418746E+01 -0.31464102053E+02  0.93370085402E+02  0.87849424304E+02 0.  0.
         13    1    3    3    0    0  0.33507864191E+02 -0.65402176586E+00  0.14926277923E+02  0.36688004086E+02  0.10566000000E+00 0. -1.
         22    1    1    0    0    0 -0.10277453017E+01  0.30668418746E+01  0.31464102053E+02  0.31629914598E+02  0.00000000000E+00 0.  1.
</event>
<event>
 5    1  0.1315753E-009  0.9118800E+02  0.7818608E-02  0.1130116E+00
         25   -1    0    0    0    0  0.00000000000E+00  0.00000000000E+00  0.99999998245E-14  0.12500000000E+03  0.12500000000E+03 0.  0.
        -13    1    3    3    0    0 -0.37703774838E+02  0.64427161498E+01 -0.35405916857E+02  0.52121716596E+02  0.10566000000E+00 0.  1.
         23    2    1    0    0    0 -0.29376866347E+02  0.77981530611E+00  0.62312258311E+01  0.94959418054E+02  0.90082487275E+02 0.  0.
         13    1    3    3    0    0  0.83269084908E+01 -0.56629008437E+01  0.41637142688E+02  0.42837701458E+02  0.10566000000E+00 0. -1.
         22    1    1    0    0    0  0.29376866347E+02 -0.77981530611E+00 -0.62312258311E+01  0.30040581946E+02  0.00000000000E+00 0.  1.
</event>
<event>
 5    1  0.1315753E-009  0.9118800E+02  0.7818608E-02  0.1130116E+00
         25   -1    0    0    0    0  0.00000000000E+00  0.00000000000E+00  0.99999998245E-14  0.12500000000E+03  0.12500000000E+03 0.  0.
        -13    1    3    3    0    0  0.60938341592E+02  0.86767559861E+01 -0.78864635059E+01  0.62056224837E+02  0.10566000000E+00 0. -1.
         23    2    1    0    0    0  0.34954225767E+02  0.14113433050E+01 -0.83234887839E+01  0.89040713933E+02  0.81456604909E+02 0.  0.
         13    1    3    3    0    0 -0.25984115825E+02 -0.72654126811E+01 -0.43702527800E+00  0.26984489096E+02  0.10566000000E+00 0.  1.
         22    1    1    0    0    0 -0.34954225767E+02 -0.14113433050E+01  0.83234887839E+01  0.35959286067E+02  0.00000000000E+00 0. -1.
</event>
<event>
 5    1  0.1315753E-009  0.9118800E+02  0.7818608E-02  0.1130116E+00
         25   -1    0    0    0    0  0.00000000000E+00  0.00000000000E+00  0.99999998245E-14  0.12500000000E+03  0.12500000000E+03 0.  0.
        -13    1    3    3    0    0 -0.80626158113E+01 -0.38516687331E+02  0.41649410970E+02  0.57299437823E+02  0.10566000000E+00 0. -1.
         23    2    1    0    0    0  0.13713234160E+02 -0.21749949597E+02  0.17376064908E+02  0.93967102451E+02  0.88694845469E+02 0.  0.
         13    1    3    3    0    0  0.21775849971E+02  0.16766737733E+02 -0.24273346062E+02  0.36667664628E+02  0.10566000000E+00 0.  1.
         22    1    1    0    0    0 -0.13713234160E+02  0.21749949597E+02 -0.17376064908E+02  0.31032897549E+02  0.00000000000E+00 0. -1.
</event>
<event>
 5    1  0.1315753E-009  0.9118800E+02  0.7818608E-02  0.1130116E+00
         25   -1    0    0    0    0  0.00000000000E+00  0.00000000000E+00  0.99999998245E-14  0.12500000000E+03  0.12500000000E+03 0.  0.
        -13    1    3    3    0    0  0.44082146561E+02  0.24420336265E+02  0.22411515194E+02  0.55153201593E+02  0.10566000000E+00 0.  1.
         23    2    1    0    0    0  0.40268047802E+01  0.23669591740E+02  0.17003755124E+02  0.95579047973E+02  0.90938231746E+02 0.  0.
         13    1    3    3    0    0 -0.40055341780E+02 -0.75074452430E+00 -0.54077600700E+01  0.40425846379E+02  0.10566000000E+00 0. -1.
         22    1    1    0    0    0 -0.40268047802E+01 -0.23669591740E+02 -0.17003755124E+02  0.29420952027E+02  0.00000000000E+00 0.  1.
</event>
<event>
 5    1  0.1315753E-009  0.9118800E+02  0.7818608E-02  0.1130116E+00
         25   -1    0    0    0    0  0.00000000000E+00  0.00000000000E+00  0.99999998245E-14  0.12500000000E+03  0.12500000000E+03 0.  0.
        -13    1    3    3    0    0  0.34395144829E+01  0.11097507231E+02  0.56263822361E+02  0.57450968637E+02  0.10566000000E+00 0.  1.
         23    2    1    0    0    0  0.95662573394E+01  0.19685808151E+02  0.19541887581E+02  0.95658396563E+02  0.91047235767E+02 0.  0.
         13    1    3    3    0    0  0.61267428564E+01  0.85883009196E+01 -0.36721934780E+02  0.38207427926E+02  0.10566000000E+00 0. -1.
         22    1    1    0    0    0 -0.95662573394E+01 -0.19685808151E+02 -0.19541887581E+02  0.29341603437E+02  0.00000000000E+00 0.  1.
</event>
<event>
 5    1  0.1315753E-009  0.9118800E+02  0.7818608E-02  0.1130116E+00
         25   -1    0    0    0    0  0.00000000000E+00  0.00000000000E+00  0.99999998245E-14  0.12500000000E+03  0.12500000000E+03 0.  0.
        -13    1    3    3    0    0 -0.25980772082E+02  0.50481501299E+02 -0.23271607256E+02  0.61359280958E+02  0.10566000000E+00 0. -1.
         23    2    1    0    0    0 -0.77700451433E+01  0.13429606053E+02 -0.14907584581E+02  0.10348340179E+03  0.10122178841E+03 0.  0.
         13    1    3    3    0    0  0.18210726939E+02 -0.37051895246E+02  0.83640226744E+01  0.42124120837E+02  0.10566000000E+00 0.  1.
         22    1    1    0    0    0  0.77700451433E+01 -0.13429606053E+02  0.14907584581E+02  0.21516598205E+02  0.00000000000E+00 0. -1.
</event>
<event>
 5    1  0.1315753E-009  0.9118800E+02  0.7818608E-02  0.1130116E+00
         25   -1    0    0    0    0  0.00000000000E+00  0.00000000000E+00  0.99999998245E-14  0.12500000000E+03  0.12500000000E+03 0.  0.
        -13    1    3    3    0    0  0.26471599799E+02 -0.29434323595E+02 -0.70869482189E+01  0.40216426998E+02  0.10566000000E+00 0.  1.
         23    2    1    0    0    0 -0.22851600011E+02 -0.11631154618E+02  0.12853001777E+02  0.96317618029E+02  0.91947835795E+02 0.  0.
         13    1    3    3    0    0 -0.49323199811E+02  0.17803168977E+02  0.19939949996E+02  0.56101191031E+02  0.10566000000E+00 0. -1.
         22    1    1    0    0    0  0.22851600011E+02  0.11631154618E+02 -0.12853001777E+02  0.28682381971E+02  0.00000000000E+00 0. -1.
</event>
<event>
 5    1  0.1315753E-009  0.9118800E+02  0.7818608E-02  0.1130116E+00
         25   -1    0    0    0    0  0.00000000000E+00  0.00000000000E+00  0.99999998245E-14  0.12500000000E+03  0.12500000000E+03 0.  0.
        -13    1    3    3    0    0 -0.25253848318E+02 -0.40087731852E+02  0.25500618367E+02  0.53805908607E+02  0.10566000000E+00 0.  1.
         23    2    1    0    0    0 -0.59708911249E+01  0.68137371207E-01  0.25968039846E+02  0.98354263437E+02  0.94676110288E+02 0.  0.
         13    1    3    3    0    0  0.19282957193E+02  0.40155869223E+02  0.46742147908E+00  0.44548354830E+02  0.10566000000E+00 0. -1.
         22    1    1    0    0    0  0.59708911249E+01 -0.68137371207E-01 -0.25968039846E+02  0.26645736563E+02  0.00000000000E+00 0.  1.
</event>
<event>
 5    1  0.1315753E-009  0.9118800E+02  0.7818608E-02  0.1130116E+00
         25   -1    0    0    0    0  0.00000000000E+00  0.00000000000E+00  0.99999998245E-14  0.12500000000E+03  0.12500000000E+03 0.  0.
        -13    1    3    3    0    0 -0.60990437806E+00 -0.14300280006E+02 -0.39340637304E+02  0.41863670397E+02  0.10566000000E+00 0. -1.
         23    2    1    0    0    0 -0.27224948012E+02  0.10654902009E+02  0.33232665455E+00  0.95762435599E+02  0.91189960521E+02 0.  0.
         13    1    3    3    0    0 -0.26615043634E+02  0.24955182015E+02  0.39672963959E+02  0.53898765202E+02  0.10566000000E+00 0.  1.
         22    1    1    0    0    0  0.27224948012E+02 -0.10654902009E+02 -0.33232665455E+00  0.29237564401E+02  0.00000000000E+00 0.  1.
</event>
<event>
 5    1  0.1315753E-009  0.9118800E+02  0.7818608E-02  0.1130116E+00
         25   -1    0    0    0    0  0.00000000000E+00  0.00000000000E+00  0.99999998245E-14  0.12500000000E+03  0.12500000000E+03 0.  0.
        -13    1    3    3    0    0  0.11956881100E+01 -0.52332845229E+02  0.27960927191E+02  0.59346280197E+02  0.10566000000E+00 0.  1.
         23    2    1    0    0    0  0.83885424916E+00 -0.35690477270E+02  0.32353238151E+01  0.89153366066E+02  0.81629293250E+02 0.  0.
         13    1    3    3    0    0 -0.35683386080E+00  0.16642367959E+02 -0.24725603376E+02  0.29807085869E+02  0.10566000000E+00 0. -1.
         22    1    1    0    0    0 -0.83885424916E+00  0.35690477270E+02 -0.32353238151E+01  0.35846633934E+02  0.00000000000E+00 0.  1.
</event>
<event>
 5    1  0.1315753E-009  0.9118800E+02  0.7818608E-02  0.1130116E+00
         25   -1    0    0    0    0  0.00000000000E+00  0.00000000000E+00  0.99999998245E-14  0.12500000000E+03  0.12500000000E+03 0.  0.
        -13    1    3    3    0    0 -0.35287768180E+02  0.15610814809E+02  0.28999385439E+02  0.48269033987E+02  0.10566000000E+00 0. -1.
         23    2    1    0    0    0  0.15961004981E+01  0.28305366917E+02  0.38379893711E+00  0.96647070085E+02  0.92394629288E+02 0.  0.
         13    1    3    3    0    0  0.36883868678E+02  0.12694552109E+02 -0.28615586502E+02  0.48378036099E+02  0.10566000000E+00 0.  1.
         22    1    1    0    0    0 -0.15961004981E+01 -0.28305366917E+02 -0.38379893711E+00  0.28352929915E+02  0.00000000000E+00 0. -1.
</event>
<event>
 5    1  0.1315753E-009  0.9118800E+02  0.7818608E-02  0.1130116E+00
         25   -1    0    0    0    0  0.00000000000E+00  0.00000000000E+00  0.99999998245E-14  0.12500000000E+03  0.12500000000E+03 0.  0.
        -13    1    3    3    0    0 -0.13295070331E+02  0.33984408001E+02 -0.10266778292E+02  0.37909323165E+02  0.10566000000E+00 0.  1.
         23    2    1    0    0    0 -0.14281811350E+02 -0.24212566676E+02 -0.58873823131E+01  0.96279279414E+02  0.91895700952E+02 0.  0.
         13    1    3    3    0    0 -0.98674101873E+00 -0.58196974677E+02  0.43793959791E+01  0.58369956249E+02  0.10566000000E+00 0. -1.
         22    1    1    0    0    0  0.14281811350E+02  0.24212566676E+02  0.58873823131E+01  0.28720720586E+02  0.00000000000E+00 0. -1.
</event>
<event>
 5    1  0.1315753E-009  0.9118800E+02  0.7818608E-02  0.1130116E+00
         25   -1    0    0    0    0  0.00000000000E+00  0.00000000000E+00  0.99999998245E-14  0.12500000000E+03  0.12500000000E+03 0.  0.
        -13    1    3    3    0    0 -0.20178590616E+02 -0.21885917214E+02 -0.45820969820E+02  0.54641937473E+02  0.10566000000E+00 0.  1.
         23    2    1    0    0    0  0.47498207684E+01 -0.27407944105E+02 -0.22487171675E+02  0.89230891997E+02  0.81747923517E+02 0.  0.
         13    1    3    3    0    0  0.24928411384E+02 -0.55220268912E+01  0.23333798145E+02  0.34588954524E+02  0.10566000000E+00 0. -1.
         22    1    1    0    0    0 -0.47498207684E+01  0.27407944105E+02  0.22487171675E+02  0.35769108003E+02  0.00000000000E+00 0.  1.
</event>
<event>
 5    1  0.1315753E-009  0.9118800E+02  0.7818608E-02  0.1130116E+00
         25   -1    0    0    0    0  0.00000000000E+00  0.00000000000E+00  0.99999998245E-14  0.12500000000E+03  0.12500000000E+03 0.  0.
        -13    1    3    3    0    0 -0.24215700580E+02 -0.28866249651E+02 -0.22766262957E+02  0.44022430834E+02  0.10566000000E+00 0.  1.
         23    2    1    0    0    0 -0.12197675887E+02 -0.98224521092E+01  0.24238055480E+02  0.96142640524E+02  0.91709651242E+02 0.  0.
         13    1    3    3    0    0  0.12018024693E+02  0.19043797542E+02  0.47004318437E+02  0.52120209689E+02  0.10566000000E+00 0. -1.
         22    1    1    0    0    0  0.12197675887E+02  0.98224521092E+01 -0.24238055480E+02  0.28857359476E+02  0.00000000000E+00 0. -1.
</event>
<event>
 5    1  0.1315753E-009  0.9118800E+02  0.7818608E-02  0.1130116E+00
         25   -1    0    0    0    0  0.00000000000E+00  0.00000000000E+00  0.99999998245E-14  0.12500000000E+03  0.12500000000E+03 0.  0.
        -13    1    3    3    0    0 -0.26867275401E+00  0.42408572187E+02 -0.21841367244E+02  0.47703413580E+02  0.10566000000E+00 0.  1.
         23    2    1    0    0    0  0.23912271515E+02  0.13360091805E+02  0.86605951829E+01  0.96272057314E+02  0.91885876654E+02 0.  0.
         13    1    3    3    0    0  0.24180944269E+02 -0.29048480383E+02  0.30501962427E+02  0.48568643735E+02  0.10566000000E+00 0. -1.
         22    1    1    0    0    0 -0.23912271515E+02 -0.13360091805E+02 -0.86605951829E+01  0.28727942686E+02  0.00000000000E+00 0.  1.
</event>
<event>
 5    1  0.1315753E-009  0.9118800E+02  0.7818608E-02  0.1130116E+00
         25   -1    0    0    0    0  0.00000000000E+00  0.00000000000E+00  0.99999998245E-14  0.12500000000E+03  0.12500000000E+03 0.  0.
        -13    1    3    3    0    0 -0.15946878277E+02 -0.15004535124E+01 -0.16616669921E+02  0.23079843388E+02  0.10566000000E+00 0. -1.
         23    2    1    0    0    0  0.30802290268E+02  0.43585309711E+01  0.24334089566E+02  0.85504104099E+02  0.75835519546E+02 0.  0.
         13    1    3    3    0    0  0.46749168545E+02  0.58589844835E+01  0.40950759487E+02  0.62424260712E+02  0.10566000000E+00 0.  1.
         22    1    1    0    0    0 -0.30802290268E+02 -0.43585309711E+01 -0.24334089566E+02  0.39495895901E+02  0.00000000000E+00 0.  1.
</event>
<event>
 5    1  0.1315753E-009  0.9118800E+02  0.7818608E-02  0.1130116E+00
         25   -1    0    0    0    0  0.00000000000E+00  0.00000000000E+00  0.99999998245E-14  0.12500000000E+03  0.12500000000E+03 0.  0.
        -13    1    3    3    0    0  0.32518637327E+02  0.19049995239E+02  0.13914596153E+02  0.40174509858E+02  0.10566000000E+00 0.  1.
         23    2    1    0    0    0  0.87606383731E+01 -0.28592108590E+02  0.43168144699E+00  0.95092746579E+02  0.90267306622E+02 0.  0.
         13    1    3    3    0    0 -0.23757998954E+02 -0.47642103828E+02 -0.13482914706E+02  0.54918236721E+02  0.10566000000E+00 0. -1.
         22    1    1    0    0    0 -0.87606383731E+01  0.28592108590E+02 -0.43168144699E+00  0.29907253421E+02  0.00000000000E+00 0. -1.
</event>
<event>
 5    1  0.1315753E-009  0.9118800E+02  0.7818608E-02  0.1130116E+00
         25   -1    0    0    0    0  0.00000000000E+00  0.00000000000E+00  0.99999998245E-14  0.12500000000E+03  0.12500000000E+03 0.  0.
        -13    1    3    3    0    0 -0.15388050473E+02 -0.52034007892E+02  0.19858527497E+02  0.57781505285E+02  0.10566000000E+00 0.  1.
         23    2    1    0    0    0 -0.18866987853E+02 -0.16942437668E+02 -0.24738483208E+01  0.99521983000E+02  0.96205487109E+02 0.  0.
         13    1    3    3    0    0 -0.34789373797E+01  0.35091570225E+02 -0.22332375818E+02  0.41740477714E+02  0.10566000000E+00 0. -1.
         22    1    1    0    0    0  0.18866987853E+02  0.16942437668E+02  0.24738483208E+01  0.25478017000E+02  0.00000000000E+00 0.  1.
</event>
<event>
 5    1  0.1315753E-009  0.9118800E+02  0.7818608E-02  0.1130116E+00
         25   -1    0    0    0    0  0.00000000000E+00  0.00000000000E+00  0.99999998245E-14  0.12500000000E+03  0.12500000000E+03 0.  0.
        -13    1    3    3    0    0 -0.45377356319E+02 -0.13013343046E+02 -0.46992578553E+01  0.47439917287E+02  0.10566000000E+00 0. -1.
         23    2    1    0    0    0 -0.15879271867E+02  0.15786957553E+02  0.19554964880E+02  0.95271630464E+02  0.90514681771E+02 0.  0.
         13    1    3    3    0    0  0.29498084452E+02  0.28800300599E+02  0.24254222735E+02  0.47831713177E+02  0.10566000000E+00 0.  1.
         22    1    1    0    0    0  0.15879271867E+02 -0.15786957553E+02 -0.19554964880E+02  0.29728369536E+02  0.00000000000E+00 0.  1.
</event>
<event>
 5    1  0.1315753E-009  0.9118800E+02  0.7818608E-02  0.1130116E+00
         25   -1    0    0    0    0  0.00000000000E+00  0.00000000000E+00  0.99999998245E-14  0.12500000000E+03  0.12500000000E+03 0.  0.
        -13    1    3    3    0    0 -0.10043424480E+02 -0.91374185684E+01  0.40870159004E+02  0.43066737216E+02  0.10566000000E+00 0.  1.
         23    2    1    0    0    0 -0.30280840723E+02  0.93654902932E+01 -0.11962816912E+01  0.93281349127E+02  0.87723071547E+02 0.  0.
         13    1    3    3    0    0 -0.20237416243E+02  0.18502908862E+02 -0.42066440695E+02  0.50214611911E+02  0.10566000000E+00 0. -1.
         22    1    1    0    0    0  0.30280840723E+02 -0.93654902932E+01  0.11962816912E+01  0.31718650873E+02  0.00000000000E+00 0. -1.
</event>
<event>
 5    1  0.1315753E-009  0.9118800E+02  0.7818608E-02  0.1130116E+00
         25   -1    0    0    0    0  0.00000000000E+00  0.00000000000E+00  0.99999998245E-14  0.12500000000E+03  0.12500000000E+03 0.  0.
        -13    1    3    3    0    0  0.28530777947E+02  0.17614196812E+02 -0.46362935255E+01  0.33849248165E+02  0.10566000000E+00 0. -1.
         23    2    1    0    0    0 -0.12413946810E+02 -0.24653168805E+02  0.11848843379E+02  0.94962025752E+02  0.90086105688E+02 0.  0.
         13    1    3    3    0    0 -0.40944724758E+02 -0.42267365617E+02  0.16485136904E+02  0.61112777587E+02  0.10566000000E+00 0.  1.
         22    1    1    0    0    0  0.12413946810E+02  0.24653168805E+02 -0.11848843379E+02  0.30037974248E+02  0.00000000000E+00 0.  1.
</event>
<event>
 5    1  0.1315753E-009  0.9118800E+02  0.7818608E-02  0.1130116E+00
         25   -1    0    0    0    0  0.00000000000E+00  0.00000000000E+00  0.99999998245E-14  0.12500000000E+03  0.12500000000E+03 0.  0.
        -13    1    3    3    0    0  0.57176125801E+01  0.54422540230E+02 -0.84234287699E+01  0.55366680368E+02  0.10566000000E+00 0. -1.
         23    2    1    0    0    0  0.16087671866E+02  0.17046895839E+02 -0.18149457862E+02  0.95355225342E+02  0.90630052056E+02 0.  0.
         13    1    3    3    0    0  0.10370059286E+02 -0.37375644391E+02 -0.97260290919E+01  0.39988544975E+02  0.10566000000E+00 0.  1.
         22    1    1    0    0    0 -0.16087671866E+02 -0.17046895839E+02  0.18149457862E+02  0.29644774658E+02  0.00000000000E+00 0. -1.
</event>
<event>
 5    1  0.1315753E-009  0.9118800E+02  0.7818608E-02  0.1130116E+00
         25   -1    0    0    0    0  0.00000000000E+00  0.00000000000E+00  0.99999998245E-14  0.12500000000E+03  0.12500000000E+03 0.  0.
        -13    1    3    3    0    0 -0.13791375598E+02  0.11351563594E+02  0.38854235392E+02  0.42763568710E+02  0.10566000000E+00 0.  1.
         23    2    1    0    0    0  0.42753558169E+01 -0.28053638824E+02  0.96765797258E+01  0.95017980158E+02  0.90163712432E+02 0.  0.
         13    1    3    3    0    0  0.18066731415E+02 -0.39405202417E+02 -0.29177655666E+02  0.52254411448E+02  0.10566000000E+00 0. -1.
         22    1    1    0    0    0 -0.42753558169E+01  0.28053638824E+02 -0.96765797258E+01  0.29982019842E+02  0.00000000000E+00 0. -1.
</event>
<event>
 5    1  0.1315753E-009  0.9118800E+02  0.7818608E-02  0.1130116E+00
         25   -1    0    0    0    0  0.00000000000E+00  0.00000000000E+00  0.99999998245E-14  0.12500000000E+03  0.12500000000E+03 0.  0.
        -13    1    3    3    0    0  0.49796290034E+02 -0.81028171509E+00 -0.11576556240E+02  0.51130762522E+02  0.10566000000E+00 0. -1.
         23    2    1    0    0    0  0.23087325860E+02  0.12972656504E+02  0.17746620857E+02  0.93121214202E+02  0.87494591549E+02 0.  0.
         13    1    3    3    0    0 -0.26708964174E+02  0.13782938219E+02  0.29323177097E+02  0.41990451680E+02  0.10566000000E+00 0.  1.
         22    1    1    0    0    0 -0.23087325860E+02 -0.12972656504E+02 -0.17746620857E+02  0.31878785798E+02  0.00000000000E+00 0. -1.
</event>
<event>
 5    1  0.1315753E-009  0.9118800E+02  0.7818608E-02  0.1130116E+00
         25   -1    0    0    0    0  0.00000000000E+00  0.00000000000E+00  0.99999998245E-14  0.12500000000E+03  0.12500000000E+03 0.  0.
        -13    1    3    3    0    0 -0.21013863178E+02  0.37985700164E+02 -0.15408273465E+02  0.46064323699E+02  0.10566000000E+00 0. -1.
         23    2    1    0    0    0 -0.22044533731E+02  0.59249345472E+01  0.20574448128E+02  0.94269327496E+02  0.89119761411E+02 0.  0.
         13    1    3    3    0    0 -0.10306705525E+01 -0.32060765617E+02  0.35982721593E+02  0.48205003797E+02  0.10566000000E+00 0.  1.
         22    1    1    0    0    0  0.22044533731E+02 -0.59249345472E+01 -0.20574448128E+02  0.30730672504E+02  0.00000000000E+00 0.  1.
</event>
<event>
 5    1  0.1315753E-009  0.9118800E+02  0.7818608E-02  0.1130116E+00
         25   -1    0    0    0    0  0.00000000000E+00  0.00000000000E+00  0.99999998245E-14  0.12500000000E+03  0.12500000000E+03 0.  0.
        -13    1    3    3    0    0  0.33190251495E+01  0.93568982126E+01  0.43489995201E+02  0.44608948863E+02  0.10566000000E+00 0.  1.
         23    2    1    0    0    0 -0.16480520186E+02  0.22453356454E+02 -0.31769748869E+01  0.96966913636E+02  0.92826334674E+02 0.  0.
         13    1    3    3    0    0 -0.19799545335E+02  0.13096458242E+02 -0.46666970087E+02  0.52357964773E+02  0.10566000000E+00 0. -1.
         22    1    1    0    0    0  0.16480520186E+02 -0.22453356454E+02  0.31769748869E+01  0.28033086364E+02  0.00000000000E+00 0.  1.
</event>
<event>
 5    1  0.1315753E-009  0.9118800E+02  0.7818608E-02  0.1130116E+00
         25   -1    0    0    0    0  0.00000000000E+00  0.00000000000E+00  0.99999998245E-14  0.12500000000E+03  0.12500000000E+03 0.  0.
        -13    1    3    3    0    0 -0.27082132299E+02 -0.29045595096E+02  0.46976020431E+02  0.61512975411E+02  0.10566000000E+00 0.  1.
         23    2    1    0    0    0 -0.94704551241E+01 -0.21286768693E+02  0.22951165355E+02  0.92295687857E+02  0.86307137388E+02 0.  0.
         13    1    3    3    0    0  0.17611677174E+02  0.77588264034E+01 -0.24024855076E+02  0.30782712446E+02  0.10566000000E+00 0. -1.
         22    1    1    0    0    0  0.94704551241E+01  0.21286768693E+02 -0.22951165355E+02  0.32704312143E+02  0.00000000000E+00 0.  1.
</event>
<event>
 5    1  0.1315753E-009  0.9118800E+02  0.7818608E-02  0.1130116E+00
         25   -1    0    0    0    0  0.00000000000E+00  0.00000000000E+00  0.99999998245E-14  0.12500000000E+03  0.12500000000E+03 0.  0.
        -13    1    3    3    0    0  0.29901267127E+02 -0.45014719118E+00  0.15727797082E+02  0.33788506528E+02  0.10566000000E+00 0. -1.
         23    2    1    0    0    0 -0.25088259772E+02 -0.75101537020E+01 -0.12476879838E+02  0.95991454406E+02  0.91503352952E+02 0.  0.
         13    1    3    3    0    0 -0.54989526899E+02 -0.70600065108E+01 -0.28204676919E+02  0.62202947878E+02  0.10566000000E+00 0.  1.
         22    1    1    0    0    0  0.25088259772E+02  0.75101537020E+01  0.12476879838E+02  0.29008545594E+02  0.00000000000E+00 0.  1.
</event>
<event>
 5    1  0.1315753E-009  0.9118800E+02  0.7818608E-02  0.1130116E+00
         25   -1    0    0    0    0  0.00000000000E+00  0.00000000000E+00  0.99999998245E-14  0.12500000000E+03  0.12500000000E+03 0.  0.
        -13    1    3    3    0    0 -0.25297441676E+02 -0.38143951758E+02  0.36014248348E+02  0.58240525918E+02  0.10566000000E+00 0.  1.
         23    2    1    0    0    0  0.39169519408E+01 -0.22301209743E+02  0.18212154069E+02  0.95941971430E+02  0.91435730749E+02 0.  0.
         13    1    3    3    0    0  0.29214393617E+02  0.15842742015E+02 -0.17802094279E+02  0.37701445512E+02  0.10566000000E+00 0. -1.
         22    1    1    0    0    0 -0.39169519408E+01  0.22301209743E+02 -0.18212154069E+02  0.29058028570E+02  0.00000000000E+00 0.  1.
</event>
<event>
 5    1  0.1315753E-009  0.9118800E+02  0.7818608E-02  0.1130116E+00
         25   -1    0    0    0    0  0.00000000000E+00  0.00000000000E+00  0.99999998245E-14  0.12500000000E+03  0.12500000000E+03 0.  0.
        -13    1    3    3    0    0  0.18396106696E+02 -0.21922951261E+01  0.36759588451E+02  0.41164322011E+02  0.10566000000E+00 0.  1.
         23    2    1    0    0    0 -0.38707441301E+01 -0.29917416806E+02 -0.32102795488E+01  0.94662887691E+02  0.89670072615E+02 0.  0.
         13    1    3    3    0    0 -0.22266850826E+02 -0.27725121680E+02 -0.39969868000E+02  0.53498565680E+02  0.10566000000E+00 0. -1.
         22    1    1    0    0    0  0.38707441301E+01  0.29917416806E+02  0.32102795488E+01  0.30337112309E+02  0.00000000000E+00 0. -1.
</event>
<event>
 5    1  0.1315753E-009  0.9118800E+02  0.7818608E-02  0.1130116E+00
         25   -1    0    0    0    0  0.00000000000E+00  0.00000000000E+00  0.99999998245E-14  0.12500000000E+03  0.12500000000E+03 0.  0.
        -13    1    3    3    0    0 -0.10202559714E+02 -0.11349607166E+01 -0.34369594164E+02  0.35870050565E+02  0.10566000000E+00 0. -1.
         23    2    1    0    0    0  0.26343151314E+02 -0.61974753413E+01  0.12226209550E+02  0.95304031894E+02  0.90559416813E+02 0.  0.
         13    1    3    3    0    0  0.36545711028E+02 -0.50625146247E+01  0.46595803714E+02  0.59433981329E+02  0.10566000000E+00 0.  1.
         22    1    1    0    0    0 -0.26343151314E+02  0.61974753413E+01 -0.12226209550E+02  0.29695968106E+02  0.00000000000E+00 0.  1.
</event>
<event>
 5    1  0.1315753E-009  0.9118800E+02  0.7818608E-02  0.1130116E+00
         25   -1    0    0    0    0  0.00000000000E+00  0.00000000000E+00  0.99999998245E-14  0.12500000000E+03  0.12500000000E+03 0.  0.
        -13    1    3    3    0    0 -0.38880068053E+02 -0.24596229925E+02 -0.19797651843E+02  0.50085850305E+02  0.10566000000E+00 0. -1.
         23    2    1    0    0    0  0.93380127782E+01 -0.20358151455E+02 -0.13371293969E+02  0.98914672406E+02  0.95413144280E+02 0.  0.
         13    1    3    3    0    0  0.48218080831E+02  0.42380784697E+01  0.64263578740E+01  0.48828822100E+02  0.10566000000E+00 0.  1.
         22    1    1    0    0    0 -0.93380127782E+01  0.20358151455E+02  0.13371293969E+02  0.26085327594E+02  0.00000000000E+00 0. -1.
</event>
<event>
 5    1  0.1315753E-009  0.9118800E+02  0.7818608E-02  0.1130116E+00
         25   -1    0    0    0    0  0.00000000000E+00  0.00000000000E+00  0.99999998245E-14  0.12500000000E+03  0.12500000000E+03 0.  0.
        -13    1    3    3    0    0  0.55271503067E+00 -0.50069385199E+02  0.36069283885E+02  0.61711046273E+02  0.10566000000E+00 0.  1.
         23    2    1    0    0    0 -0.25021742902E+01 -0.19034812608E+02  0.21636841480E+02  0.96073578230E+02  0.91615471169E+02 0.  0.
         13    1    3    3    0    0 -0.30548893209E+01  0.31034572591E+02 -0.14432442405E+02  0.34362531957E+02  0.10566000000E+00 0. -1.
         22    1    1    0    0    0  0.25021742902E+01  0.19034812608E+02 -0.21636841480E+02  0.28926421770E+02  0.00000000000E+00 0.  1.
</event>
<event>
 5    1  0.1315753E-009  0.9118800E+02  0.7818608E-02  0.1130116E+00
         25   -1    0    0    0    0  0.00000000000E+00  0.00000000000E+00  0.99999998245E-14  0.12500000000E+03  0.12500000000E+03 0.  0.
        -13    1    3    3    0    0 -0.13312409662E+02  0.17610422881E+02 -0.37240781193E+02  0.43292426509E+02  0.10566000000E+00 0.  1.
         23    2    1    0    0    0  0.19651010091E+02 -0.15646905922E+02 -0.18825457171E+02  0.93609146233E+02  0.88188925372E+02 0.  0.
         13    1    3    3    0    0  0.32963419753E+02 -0.33257328803E+02  0.18415324022E+02  0.50316719724E+02  0.10566000000E+00 0. -1.
         22    1    1    0    0    0 -0.19651010091E+02  0.15646905922E+02  0.18825457171E+02  0.31390853767E+02  0.00000000000E+00 0.  1.
</event>
<event>
 5    1  0.1315753E-009  0.9118800E+02  0.7818608E-02  0.1130116E+00
         25   -1    0    0    0    0  0.00000000000E+00  0.00000000000E+00  0.99999998245E-14  0.12500000000E+03  0.12500000000E+03 0.  0.
        -13    1    3    3    0    0  0.14501439118E+02  0.63354577400E+01  0.11682498157E+02  0.19670325073E+02  0.10566000000E+00 0. -1.
         23    2    1    0    0    0  0.37177575751E+01 -0.35738282766E+02 -0.28728380853E+02  0.78996017097E+02  0.64218410712E+02 0.  0.
         13    1    3    3    0    0 -0.10783681542E+02 -0.42073740506E+02 -0.40410879010E+02  0.59325692024E+02  0.10566000000E+00 0.  1.
         22    1    1    0    0    0 -0.37177575751E+01  0.35738282766E+02  0.28728380853E+02  0.46003982903E+02  0.00000000000E+00 0.  1.
</event>
<event>
 5    1  0.1315753E-009  0.9118800E+02  0.7818608E-02  0.1130116E+00
         25   -1    0    0    0    0  0.00000000000E+00  0.00000000000E+00  0.99999998245E-14  0.12500000000E+03  0.12500000000E+03 0.  0.
        -13    1    3    3    0    0  0.39513624540E+02  0.40183697036E+01 -0.11983962216E+02  0.41486146288E+02  0.10566000000E+00 0.  1.
         23    2    1    0    0    0  0.35246860928E+01  0.11557707848E+02  0.27209629488E+02  0.95228067587E+02  0.90454501805E+02 0.  0.
         13    1    3    3    0    0 -0.35988938447E+02  0.75393381442E+01  0.39193591704E+02  0.53741921299E+02  0.10566000000E+00 0. -1.
         22    1    1    0    0    0 -0.35246860928E+01 -0.11557707848E+02 -0.27209629488E+02  0.29771932413E+02  0.00000000000E+00 0. -1.
</event>
<event>
 5    1  0.1315753E-009  0.9118800E+02  0.7818608E-02  0.1130116E+00
         25   -1    0    0    0    0  0.00000000000E+00  0.00000000000E+00  0.99999998245E-14  0.12500000000E+03  0.12500000000E+03 0.  0.
        -13    1    3    3    0    0 -0.10215123375E+02 -0.30617758156E+02  0.49804055126E+02  0.59348554583E+02  0.10566000000E+00 0.  1.
         23    2    1    0    0    0 -0.17072555735E+02 -0.76343840679E+01  0.23921750852E+02  0.94635445940E+02  0.89631810676E+02 0.  0.
         13    1    3    3    0    0 -0.68574323604E+01  0.22983374088E+02 -0.25882304274E+02  0.35286891357E+02  0.10566000000E+00 0. -1.
         22    1    1    0    0    0  0.17072555735E+02  0.76343840679E+01 -0.23921750852E+02  0.30364554060E+02  0.00000000000E+00 0.  1.
</event>
<event>
 5    1  0.1315753E-009  0.9118800E+02  0.7818608E-02  0.1130116E+00
         25   -1    0    0    0    0  0.00000000000E+00  0.00000000000E+00  0.99999998245E-14  0.12500000000E+03  0.12500000000E+03 0.  0.
        -13    1    3    3    0    0 -0.41447501851E+02 -0.27963940892E+02  0.26796261654E+02  0.56726785583E+02  0.10566000000E+00 0. -1.
         23    2    1    0    0    0 -0.57657875383E+01 -0.15423450343E+02  0.25593364499E+02  0.94567329516E+02  0.89536765516E+02 0.  0.
         13    1    3    3    0    0  0.35681714313E+02  0.12540490549E+02 -0.12028971552E+01  0.37840543933E+02  0.10566000000E+00 0.  1.
         22    1    1    0    0    0  0.57657875383E+01  0.15423450343E+02 -0.25593364499E+02  0.30432670484E+02  0.00000000000E+00 0. -1.
</event>
<event>
 5    1  0.1315753E-009  0.9118800E+02  0.7818608E-02  0.1130116E+00
         25   -1    0    0    0    0  0.00000000000E+00  0.00000000000E+00  0.99999998245E-14  0.12500000000E+03  0.12500000000E+03 0.  0.
        -13    1    3    3    0    0  0.13385815222E+02 -0.28708880873E+02 -0.18802057265E+02  0.36836237750E+02  0.10566000000E+00 0.  1.
         23    2    1    0    0    0  0.21707625621E+02  0.23881252579E+02 -0.20155663408E+01  0.92664296165E+02  0.86839357674E+02 0.  0.
         13    1    3    3    0    0  0.83218103994E+01  0.52590133452E+02  0.16786490924E+02  0.55828058415E+02  0.10566000000E+00 0. -1.
         22    1    1    0    0    0 -0.21707625621E+02 -0.23881252579E+02  0.20155663408E+01  0.32335703835E+02  0.00000000000E+00 0. -1.
</event>
<event>
 5    1  0.1315753E-009  0.9118800E+02  0.7818608E-02  0.1130116E+00
         25   -1    0    0    0    0  0.00000000000E+00  0.00000000000E+00  0.99999998245E-14  0.12500000000E+03  0.12500000000E+03 0.  0.
        -13    1    3    3    0    0 -0.26528932364E+02  0.29603196401E+02 -0.40418621660E+02  0.56690472132E+02  0.10566000000E+00 0.  1.
         23    2    1    0    0    0 -0.25211039130E+02  0.27141179126E+00 -0.14147265062E+02  0.96089530147E+02  0.91637233354E+02 0.  0.
         13    1    3    3    0    0  0.13178932348E+01 -0.29331784610E+02  0.26271356598E+02  0.39399058016E+02  0.10566000000E+00 0. -1.
         22    1    1    0    0    0  0.25211039130E+02 -0.27141179126E+00  0.14147265062E+02  0.28910469853E+02  0.00000000000E+00 0.  1.
</event>
<event>
 5    1  0.1315753E-009  0.9118800E+02  0.7818608E-02  0.1130116E+00
         25   -1    0    0    0    0  0.00000000000E+00  0.00000000000E+00  0.99999998245E-14  0.12500000000E+03  0.12500000000E+03 0.  0.
        -13    1    3    3    0    0 -0.26533985252E+02 -0.10316808574E+02 -0.54729318365E+02  0.61691153055E+02  0.10566000000E+00 0. -1.
         23    2    1    0    0    0 -0.12587174983E+02 -0.11802393767E+02 -0.24306197300E+02  0.95191868561E+02  0.90404464161E+02 0.  0.
         13    1    3    3    0    0  0.13946810269E+02 -0.14855851929E+01  0.30423121065E+02  0.33500715506E+02  0.10566000000E+00 0.  1.
         22    1    1    0    0    0  0.12587174983E+02  0.11802393767E+02  0.24306197300E+02  0.29808131439E+02  0.00000000000E+00 0. -1.
</event>
<event>
 5    1  0.1315753E-009  0.9118800E+02  0.7818608E-02  0.1130116E+00
         25   -1    0    0    0    0  0.00000000000E+00  0.00000000000E+00  0.99999998245E-14  0.12500000000E+03  0.12500000000E+03 0.  0.
        -13    1    3    3    0    0 -0.23655042454E+02 -0.26317354997E+02  0.13817283139E+02  0.37988059768E+02  0.10566000000E+00 0. -1.
         23    2    1    0    0    0 -0.16045128511E+02  0.26767210467E+02  0.11744289326E+02  0.91655464663E+02  0.85374856753E+02 0.  0.
         13    1    3    3    0    0  0.76099139433E+01  0.53084565464E+02 -0.20729938131E+01  0.53667404894E+02  0.10566000000E+00 0.  1.
         22    1    1    0    0    0  0.16045128511E+02 -0.26767210467E+02 -0.11744289326E+02  0.33344535337E+02  0.00000000000E+00 0.  1.
</event>
<event>
 5    1  0.1315753E-009  0.9118800E+02  0.7818608E-02  0.1130116E+00
         25   -1    0    0    0    0  0.00000000000E+00  0.00000000000E+00  0.99999998245E-14  0.12500000000E+03  0.12500000000E+03 0.  0.
        -13    1    3    3    0    0  0.20297248668E+02 -0.16741075393E+02 -0.22070501282E+02  0.34341812702E+02  0.10566000000E+00 0.  1.
         23    2    1    0    0    0 -0.16093267366E+02 -0.33053090704E+01  0.24842879876E+02  0.95215994173E+02  0.90437815891E+02 0.  0.
         13    1    3    3    0    0 -0.36390516035E+02  0.13435766323E+02  0.46913381158E+02  0.60874181470E+02  0.10566000000E+00 0. -1.
         22    1    1    0    0    0  0.16093267366E+02  0.33053090704E+01 -0.24842879876E+02  0.29784005827E+02  0.00000000000E+00 0. -1.
</event>
<event>
 5    1  0.1315753E-009  0.9118800E+02  0.7818608E-02  0.1130116E+00
         25   -1    0    0    0    0  0.00000000000E+00  0.00000000000E+00  0.99999998245E-14  0.12500000000E+03  0.12500000000E+03 0.  0.
        -13    1    3    3    0    0  0.15158263248E+02 -0.33925738842E+02 -0.24855169800E+02  0.44704802097E+02  0.10566000000E+00 0. -1.
         23    2    1    0    0    0  0.21715336652E+02  0.31988069930E+01  0.14097411775E+02  0.98913121482E+02  0.95411112405E+02 0.  0.
         13    1    3    3    0    0  0.65570734038E+01  0.37124545835E+02  0.38952581575E+02  0.54208319385E+02  0.10566000000E+00 0.  1.
         22    1    1    0    0    0 -0.21715336652E+02 -0.31988069930E+01 -0.14097411775E+02  0.26086878518E+02  0.00000000000E+00 0. -1.
</event>
<event>
 5    1  0.1315753E-009  0.9118800E+02  0.7818608E-02  0.1130116E+00
         25   -1    0    0    0    0  0.00000000000E+00  0.00000000000E+00  0.99999998245E-14  0.12500000000E+03  0.12500000000E+03 0.  0.
        -13    1    3    3    0    0 -0.42431396541E+01  0.86249472353E+01 -0.33382996637E+02  0.34739452751E+02  0.10566000000E+00 0.  1.
         23    2    1    0    0    0  0.17187410994E+02  0.93331814046E+01  0.22850511453E+02  0.94922412905E+02  0.90031123653E+02 0.  0.
         13    1    3    3    0    0  0.21430550648E+02  0.70823416935E+00  0.56233508090E+02  0.60182960154E+02  0.10566000000E+00 0. -1.
         22    1    1    0    0    0 -0.17187410994E+02 -0.93331814046E+01 -0.22850511453E+02  0.30077587095E+02  0.00000000000E+00 0. -1.
</event>
<event>
 5    1  0.1315753E-009  0.9118800E+02  0.7818608E-02  0.1130116E+00
         25   -1    0    0    0    0  0.00000000000E+00  0.00000000000E+00  0.99999998245E-14  0.12500000000E+03  0.12500000000E+03 0.  0.
        -13    1    3    3    0    0  0.27457561915E+02 -0.55669259894E+02  0.29804591127E+01  0.62144014225E+02  0.10566000000E+00 0. -1.
         23    2    1    0    0    0  0.12589519152E+02 -0.24485534502E+02 -0.33441686596E+01  0.97265168897E+02  0.93227100267E+02 0.  0.
         13    1    3    3    0    0 -0.14868042763E+02  0.31183725392E+02 -0.63246277723E+01  0.35121154671E+02  0.10566000000E+00 0.  1.
         22    1    1    0    0    0 -0.12589519152E+02  0.24485534502E+02  0.33441686596E+01  0.27734831103E+02  0.00000000000E+00 0. -1.
</event>
<event>
 5    1  0.1315753E-009  0.9118800E+02  0.7818608E-02  0.1130116E+00
         25   -1    0    0    0    0  0.00000000000E+00  0.00000000000E+00  0.99999998245E-14  0.12500000000E+03  0.12500000000E+03 0.  0.
        -13    1    3    3    0    0 -0.16497075502E+02  0.10423190387E+02 -0.31024526584E+02  0.36651450336E+02  0.10566000000E+00 0. -1.
         23    2    1    0    0    0  0.12270891160E+02 -0.27093823661E+02  0.32992323026E+01  0.95074509457E+02  0.90242048759E+02 0.  0.
         13    1    3    3    0    0  0.28767966662E+02 -0.37517014048E+02  0.34323758886E+02  0.58423059121E+02  0.10566000000E+00 0.  1.
         22    1    1    0    0    0 -0.12270891160E+02  0.27093823661E+02 -0.32992323026E+01  0.29925490543E+02  0.00000000000E+00 0.  1.
</event>
<event>
 5    1  0.1315753E-009  0.9118800E+02  0.7818608E-02  0.1130116E+00
         25   -1    0    0    0    0  0.00000000000E+00  0.00000000000E+00  0.99999998245E-14  0.12500000000E+03  0.12500000000E+03 0.  0.
        -13    1    3    3    0    0  0.10493386704E+02 -0.14407573541E+02  0.27473971192E+02  0.32749344985E+02  0.10566000000E+00 0. -1.
         23    2    1    0    0    0 -0.11377650691E+02 -0.13819539206E+02 -0.27652694261E+02  0.92059112049E+02  0.85963818042E+02 0.  0.
         13    1    3    3    0    0 -0.21871037395E+02  0.58803433464E+00 -0.55126665453E+02  0.59309767064E+02  0.10566000000E+00 0.  1.
         22    1    1    0    0    0  0.11377650691E+02  0.13819539206E+02  0.27652694261E+02  0.32940887951E+02  0.00000000000E+00 0.  1.
</event>
<event>
 5    1  0.1315753E-009  0.9118800E+02  0.7818608E-02  0.1130116E+00
         25   -1    0    0    0    0  0.00000000000E+00  0.00000000000E+00  0.99999998245E-14  0.12500000000E+03  0.12500000000E+03 0.  0.
        -13    1    3    3    0    0  0.72918067537E+01  0.26899898789E+02  0.36578859467E+02  0.45986945154E+02  0.10566000000E+00 0.  1.
         23    2    1    0    0    0  0.23022263046E+02  0.15218961442E+02 -0.93022285624E+01  0.95876592931E+02  0.91346309354E+02 0.  0.
         13    1    3    3    0    0  0.15730456292E+02 -0.11680937347E+02 -0.45881088030E+02  0.49889647777E+02  0.10566000000E+00 0. -1.
         22    1    1    0    0    0 -0.23022263046E+02 -0.15218961442E+02  0.93022285624E+01  0.29123407069E+02  0.00000000000E+00 0.  1.
</event>
<event>
 5    1  0.1315753E-009  0.9118800E+02  0.7818608E-02  0.1130116E+00
         25   -1    0    0    0    0  0.00000000000E+00  0.00000000000E+00  0.99999998245E-14  0.12500000000E+03  0.12500000000E+03 0.  0.
        -13    1    3    3    0    0  0.22070700778E+02 -0.36830193214E+02  0.38239416295E+02  0.57496461522E+02  0.10566000000E+00 0. -1.
         23    2    1    0    0    0  0.94153233570E+01 -0.26619009751E+02  0.26306433466E+01  0.96642632731E+02  0.92388625829E+02 0.  0.
         13    1    3    3    0    0 -0.12655377421E+02  0.10211183463E+02 -0.35608772948E+02  0.39146171208E+02  0.10566000000E+00 0.  1.
         22    1    1    0    0    0 -0.94153233570E+01  0.26619009751E+02 -0.26306433466E+01  0.28357367269E+02  0.00000000000E+00 0. -1.
</event>
<event>
 5    1  0.1315753E-009  0.9118800E+02  0.7818608E-02  0.1130116E+00
         25   -1    0    0    0    0  0.00000000000E+00  0.00000000000E+00  0.99999998245E-14  0.12500000000E+03  0.12500000000E+03 0.  0.
        -13    1    3    3    0    0  0.33465722255E+02  0.63028882722E+01 -0.49576673263E+02  0.60145977941E+02  0.10566000000E+00 0.  1.
         23    2    1    0    0    0  0.18435945897E+02  0.13708880594E+02 -0.18300117702E+02  0.95628043713E+02  0.91005554381E+02 0.  0.
         13    1    3    3    0    0 -0.15029776358E+02  0.74059923214E+01  0.31276555561E+02  0.35482065772E+02  0.10566000000E+00 0. -1.
         22    1    1    0    0    0 -0.18435945897E+02 -0.13708880594E+02  0.18300117702E+02  0.29371956287E+02  0.00000000000E+00 0.  1.
</event>
<event>
 5    1  0.1315753E-009  0.9118800E+02  0.7818608E-02  0.1130116E+00
         25   -1    0    0    0    0  0.00000000000E+00  0.00000000000E+00  0.99999998245E-14  0.12500000000E+03  0.12500000000E+03 0.  0.
        -13    1    3    3    0    0 -0.33079373436E+02  0.43744564647E+02 -0.30154473310E+01  0.54926641711E+02  0.10566000000E+00 0. -1.
         23    2    1    0    0    0 -0.22285020282E+02  0.97460212839E+01  0.16520476291E+02  0.95597054625E+02  0.90962979592E+02 0.  0.
         13    1    3    3    0    0  0.10794353154E+02 -0.33998543363E+02  0.19535923622E+02  0.40670412914E+02  0.10566000000E+00 0.  1.
         22    1    1    0    0    0  0.22285020282E+02 -0.97460212839E+01 -0.16520476291E+02  0.29402945375E+02  0.00000000000E+00 0. -1.
</event>
<event>
 5    1  0.1315753E-009  0.9118800E+02  0.7818608E-02  0.1130116E+00
         25   -1    0    0    0    0  0.00000000000E+00  0.00000000000E+00  0.99999998245E-14  0.12500000000E+03  0.12500000000E+03 0.  0.
        -13    1    3    3    0    0  0.31653804200E+02  0.26431393954E+02  0.39801515528E+02  0.57312770907E+02  0.10566000000E+00 0.  1.
         23    2    1    0    0    0  0.56963616642E+01  0.26808688622E+02  0.12862768988E+02  0.94724512426E+02  0.89755936329E+02 0.  0.
         13    1    3    3    0    0 -0.25957442536E+02  0.37729466812E+00 -0.26938746540E+02  0.37411741518E+02  0.10566000000E+00 0. -1.
         22    1    1    0    0    0 -0.56963616642E+01 -0.26808688622E+02 -0.12862768988E+02  0.30275487574E+02  0.00000000000E+00 0.  1.
</event>
<event>
 5    1  0.1315753E-009  0.9118800E+02  0.7818608E-02  0.1130116E+00
         25   -1    0    0    0    0  0.00000000000E+00  0.00000000000E+00  0.99999998245E-14  0.12500000000E+03  0.12500000000E+03 0.  0.
        -13    1    3    3    0    0  0.14220159695E+02 -0.45552135943E+02 -0.17829840763E+02  0.50942363671E+02  0.10566000000E+00 0.  1.
         23    2    1    0    0    0  0.17745962348E+02 -0.17657513494E+02  0.16273223771E+02  0.95141587879E+02  0.90334915564E+02 0.  0.
         13    1    3    3    0    0  0.35258026529E+01  0.27894622449E+02  0.34103064534E+02  0.44199224208E+02  0.10566000000E+00 0. -1.
         22    1    1    0    0    0 -0.17745962348E+02  0.17657513494E+02 -0.16273223771E+02  0.29858412121E+02  0.00000000000E+00 0.  1.
</event>
<event>
 5    1  0.1315753E-009  0.9118800E+02  0.7818608E-02  0.1130116E+00
         25   -1    0    0    0    0  0.00000000000E+00  0.00000000000E+00  0.99999998245E-14  0.12500000000E+03  0.12500000000E+03 0.  0.
        -13    1    3    3    0    0  0.55625797936E+01 -0.12790400012E+01 -0.56770161878E+02  0.57056469230E+02  0.10566000000E+00 0.  1.
         23    2    1    0    0    0  0.37921862406E+01 -0.18535545466E+02 -0.21506702065E+02  0.96355884445E+02  0.91999842996E+02 0.  0.
         13    1    3    3    0    0 -0.17703935530E+01 -0.17256505465E+02  0.35263459813E+02  0.39299415215E+02  0.10566000000E+00 0. -1.
         22    1    1    0    0    0 -0.37921862406E+01  0.18535545466E+02  0.21506702065E+02  0.28644115555E+02  0.00000000000E+00 0.  1.
</event>
<event>
 5    1  0.1315753E-009  0.9118800E+02  0.7818608E-02  0.1130116E+00
         25   -1    0    0    0    0  0.00000000000E+00  0.00000000000E+00  0.99999998245E-14  0.12500000000E+03  0.12500000000E+03 0.  0.
        -13    1    3    3    0    0 -0.37405643210E+02  0.50076587111E+01  0.13337730271E+01  0.37763062697E+02  0.10566000000E+00 0. -1.
         23    2    1    0    0    0  0.16706089581E+02  0.12903388534E+02  0.20368747596E+02  0.95666116122E+02  0.91057833438E+02 0.  0.
         13    1    3    3    0    0  0.54111732791E+02  0.78957298225E+01  0.19034974569E+02  0.57903053425E+02  0.10566000000E+00 0.  1.
         22    1    1    0    0    0 -0.16706089581E+02 -0.12903388534E+02 -0.20368747596E+02  0.29333883878E+02  0.00000000000E+00 0.  1.
</event>
<event>
 5    1  0.1315753E-009  0.9118800E+02  0.7818608E-02  0.1130116E+00
         25   -1    0    0    0    0  0.00000000000E+00  0.00000000000E+00  0.99999998245E-14  0.12500000000E+03  0.12500000000E+03 0.  0.
        -13    1    3    3    0    0 -0.28188414578E+02  0.37550457840E+02 -0.62278781043E+01  0.47364767815E+02  0.10566000000E+00 0. -1.
         23    2    1    0    0    0 -0.11874461693E+02 -0.16574404211E+02 -0.54288893471E+01  0.10390055558E+03  0.10173563237E+03 0.  0.
         13    1    3    3    0    0  0.16313952885E+02 -0.54124862051E+02  0.79898875721E+00  0.56535787762E+02  0.10566000000E+00 0.  1.
         22    1    1    0    0    0  0.11874461693E+02  0.16574404211E+02  0.54288893471E+01  0.21099444424E+02  0.00000000000E+00 0. -1.
</event>
<event>
 5    1  0.1315753E-009  0.9118800E+02  0.7818608E-02  0.1130116E+00
         25   -1    0    0    0    0  0.00000000000E+00  0.00000000000E+00  0.99999998245E-14  0.12500000000E+03  0.12500000000E+03 0.  0.
        -13    1    3    3    0    0  0.15309159821E+02 -0.49647924934E+02  0.21818139122E+01  0.52000560580E+02  0.10566000000E+00 0.  1.
         23    2    1    0    0    0 -0.18806211680E+02 -0.22492960121E+02  0.21247284472E+01  0.95604059401E+02  0.90972604944E+02 0.  0.
         13    1    3    3    0    0 -0.34115371501E+02  0.27154964813E+02 -0.57085465006E-01  0.43603498821E+02  0.10566000000E+00 0. -1.
         22    1    1    0    0    0  0.18806211680E+02  0.22492960121E+02 -0.21247284472E+01  0.29395940599E+02  0.00000000000E+00 0. -1.
</event>
<event>
 5    1  0.1315753E-009  0.9118800E+02  0.7818608E-02  0.1130116E+00
         25   -1    0    0    0    0  0.00000000000E+00  0.00000000000E+00  0.99999998245E-14  0.12500000000E+03  0.12500000000E+03 0.  0.
        -13    1    3    3    0    0 -0.34652680267E+02 -0.19598734372E+02  0.31824725817E+02  0.50968058390E+02  0.10566000000E+00 0. -1.
         23    2    1    0    0    0 -0.20617462486E+02  0.17577497481E+02  0.12225138363E+02  0.95276235348E+02  0.90521040853E+02 0.  0.
         13    1    3    3    0    0  0.14035217781E+02  0.37176231853E+02 -0.19599587454E+02  0.44308176958E+02  0.10566000000E+00 0.  1.
         22    1    1    0    0    0  0.20617462486E+02 -0.17577497481E+02 -0.12225138363E+02  0.29723764652E+02  0.00000000000E+00 0.  1.
</event>
<event>
 5    1  0.1315753E-009  0.9118800E+02  0.7818608E-02  0.1130116E+00
         25   -1    0    0    0    0  0.00000000000E+00  0.00000000000E+00  0.99999998245E-14  0.12500000000E+03  0.12500000000E+03 0.  0.
        -13    1    3    3    0    0 -0.28701698988E+00  0.58154244321E+02  0.14089281936E+02  0.59837425920E+02  0.10566000000E+00 0.  1.
         23    2    1    0    0    0  0.12535763499E+02  0.27328759114E+02  0.43139186713E+01  0.94625399829E+02  0.89617799333E+02 0.  0.
         13    1    3    3    0    0  0.12822780489E+02 -0.30825485206E+02 -0.97753632644E+01  0.34787973909E+02  0.10566000000E+00 0. -1.
         22    1    1    0    0    0 -0.12535763499E+02 -0.27328759114E+02 -0.43139186713E+01  0.30374600171E+02  0.00000000000E+00 0.  1.
</event>
<event>
 5    1  0.1315753E-009  0.9118800E+02  0.7818608E-02  0.1130116E+00
         25   -1    0    0    0    0  0.00000000000E+00  0.00000000000E+00  0.99999998245E-14  0.12500000000E+03  0.12500000000E+03 0.  0.
        -13    1    3    3    0    0 -0.31063931431E+02  0.25884281445E+02 -0.31587385974E+02  0.51310213199E+02  0.10566000000E+00 0. -1.
         23    2    1    0    0    0 -0.15511615432E+02 -0.15729356219E+02 -0.11976018528E+02  0.99871373294E+02  0.96658384651E+02 0.  0.
         13    1    3    3    0    0  0.15552315999E+02 -0.41613637664E+02  0.19611367446E+02  0.48561160094E+02  0.10566000000E+00 0.  1.
         22    1    1    0    0    0  0.15511615432E+02  0.15729356219E+02  0.11976018528E+02  0.25128626706E+02  0.00000000000E+00 0. -1.
</event>
<event>
 5    1  0.1315753E-009  0.9118800E+02  0.7818608E-02  0.1130116E+00
         25   -1    0    0    0    0  0.00000000000E+00  0.00000000000E+00  0.99999998245E-14  0.12500000000E+03  0.12500000000E+03 0.  0.
        -13    1    3    3    0    0  0.32904069882E+02 -0.17502420362E+02 -0.14643350594E+02  0.40043119433E+02  0.10566000000E+00 0. -1.
         23    2    1    0    0    0  0.25839742999E+00 -0.16793092631E+02  0.27146869171E+02  0.93077794012E+02  0.87432536867E+02 0.  0.
         13    1    3    3    0    0 -0.32645672452E+02  0.70932773045E+00  0.41790219765E+02  0.53034674579E+02  0.10566000000E+00 0.  1.
         22    1    1    0    0    0 -0.25839742999E+00  0.16793092631E+02 -0.27146869171E+02  0.31922205988E+02  0.00000000000E+00 0.  1.
</event>
<event>
 5    1  0.1315753E-009  0.9118800E+02  0.7818608E-02  0.1130116E+00
         25   -1    0    0    0    0  0.00000000000E+00  0.00000000000E+00  0.99999998245E-14  0.12500000000E+03  0.12500000000E+03 0.  0.
        -13    1    3    3    0    0  0.15947900666E+02  0.76360178407E+00  0.27372029788E+02  0.31688449033E+02  0.10566000000E+00 0.  1.
         23    2    1    0    0    0 -0.13499291928E+02  0.32632311486E+00 -0.27724371106E+02  0.94162066824E+02  0.88969189645E+02 0.  0.
         13    1    3    3    0    0 -0.29447192594E+02 -0.43727866921E+00 -0.55096400895E+02  0.62473617791E+02  0.10566000000E+00 0. -1.
         22    1    1    0    0    0  0.13499291928E+02 -0.32632311486E+00  0.27724371106E+02  0.30837933176E+02  0.00000000000E+00 0. -1.
</event>
<event>
 5    1  0.1315753E-009  0.9118800E+02  0.7818608E-02  0.1130116E+00
         25   -1    0    0    0    0  0.00000000000E+00  0.00000000000E+00  0.99999998245E-14  0.12500000000E+03  0.12500000000E+03 0.  0.
        -13    1    3    3    0    0 -0.95891921073E+01 -0.13836699119E+02 -0.38337592624E+02  0.41871100058E+02  0.10566000000E+00 0.  1.
         23    2    1    0    0    0  0.13288892162E+02  0.21904463767E+02  0.46830000637E+00  0.99375412341E+02  0.96014858669E+02 0.  0.
         13    1    3    3    0    0  0.22878084269E+02  0.35741162886E+02  0.38805892630E+02  0.57504312283E+02  0.10566000000E+00 0. -1.
         22    1    1    0    0    0 -0.13288892162E+02 -0.21904463767E+02 -0.46830000637E+00  0.25624587659E+02  0.00000000000E+00 0. -1.
</event>
<event>
 5    1  0.1315753E-009  0.9118800E+02  0.7818608E-02  0.1130116E+00
         25   -1    0    0    0    0  0.00000000000E+00  0.00000000000E+00  0.99999998245E-14  0.12500000000E+03  0.12500000000E+03 0.  0.
        -13    1    3    3    0    0  0.20048384358E+02  0.28282499871E+02 -0.26455115849E+02  0.43608735741E+02  0.10566000000E+00 0.  1.
         23    2    1    0    0    0  0.20377845211E+02 -0.54263157433E+00  0.18802597407E+02  0.97267551610E+02  0.93230294982E+02 0.  0.
         13    1    3    3    0    0  0.32946085363E+00 -0.28825131445E+02  0.45257713256E+02  0.53658815869E+02  0.10566000000E+00 0. -1.
         22    1    1    0    0    0 -0.20377845211E+02  0.54263157433E+00 -0.18802597407E+02  0.27732448390E+02  0.00000000000E+00 0. -1.
</event>
<event>
 5    1  0.1315753E-009  0.9118800E+02  0.7818608E-02  0.1130116E+00
         25   -1    0    0    0    0  0.00000000000E+00  0.00000000000E+00  0.99999998245E-14  0.12500000000E+03  0.12500000000E+03 0.  0.
        -13    1    3    3    0    0  0.92873538529E+01  0.42255767399E+02 -0.31566483094E+02  0.53556127931E+02  0.10566000000E+00 0. -1.
         23    2    1    0    0    0 -0.18016043543E+02  0.22718876616E+02 -0.69605863200E+01  0.95180963437E+02  0.90389384660E+02 0.  0.
         13    1    3    3    0    0 -0.27303397395E+02 -0.19536890783E+02  0.24605896774E+02  0.41624835506E+02  0.10566000000E+00 0.  1.
         22    1    1    0    0    0  0.18016043543E+02 -0.22718876616E+02  0.69605863200E+01  0.29819036563E+02  0.00000000000E+00 0. -1.
</event>
<event>
 5    1  0.1315753E-009  0.9118800E+02  0.7818608E-02  0.1130116E+00
         25   -1    0    0    0    0  0.00000000000E+00  0.00000000000E+00  0.99999998245E-14  0.12500000000E+03  0.12500000000E+03 0.  0.
        -13    1    3    3    0    0 -0.23304567011E+01  0.15739384241E+02 -0.59525131389E+02  0.61615028001E+02  0.10566000000E+00 0. -1.
         23    2    1    0    0    0  0.24227589519E+01  0.13280528029E+02 -0.24677458088E+02  0.96871382484E+02  0.92697603103E+02 0.  0.
         13    1    3    3    0    0  0.47532156530E+01 -0.24588562116E+01  0.34847673301E+02  0.35256354483E+02  0.10566000000E+00 0.  1.
         22    1    1    0    0    0 -0.24227589519E+01 -0.13280528029E+02  0.24677458088E+02  0.28128617516E+02  0.00000000000E+00 0. -1.
</event>
<event>
 5    1  0.1315753E-009  0.9118800E+02  0.7818608E-02  0.1130116E+00
         25   -1    0    0    0    0  0.00000000000E+00  0.00000000000E+00  0.99999998245E-14  0.12500000000E+03  0.12500000000E+03 0.  0.
        -13    1    3    3    0    0 -0.15333976752E+02  0.19736683242E+02  0.28706240591E+02  0.38062145516E+02  0.10566000000E+00 0. -1.
         23    2    1    0    0    0 -0.12254643755E+01 -0.28798916147E+02  0.29787250151E-01  0.96175007000E+02  0.91753756053E+02 0.  0.
         13    1    3    3    0    0  0.14108512377E+02 -0.48535599389E+02 -0.28676453340E+02  0.58112861483E+02  0.10566000000E+00 0.  1.
         22    1    1    0    0    0  0.12254643755E+01  0.28798916147E+02 -0.29787250151E-01  0.28824993000E+02  0.00000000000E+00 0.  1.
</event>
<event>
 5    1  0.1315753E-009  0.9118800E+02  0.7818608E-02  0.1130116E+00
         25   -1    0    0    0    0  0.00000000000E+00  0.00000000000E+00  0.99999998245E-14  0.12500000000E+03  0.12500000000E+03 0.  0.
        -13    1    3    3    0    0 -0.10437634091E+02  0.59370298096E+02  0.11654145354E+02  0.61397123462E+02  0.10566000000E+00 0. -1.
         23    2    1    0    0    0 -0.10844354004E+02  0.24598557854E+02  0.10342851463E+02  0.96196117647E+02  0.91782511470E+02 0.  0.
         13    1    3    3    0    0 -0.40671991289E+00 -0.34771740242E+02 -0.13112938916E+01  0.34798994185E+02  0.10566000000E+00 0.  1.
         22    1    1    0    0    0  0.10844354004E+02 -0.24598557854E+02 -0.10342851463E+02  0.28803882353E+02  0.00000000000E+00 0. -1.
</event>
<event>
 5    1  0.1315753E-009  0.9118800E+02  0.7818608E-02  0.1130116E+00
         25   -1    0    0    0    0  0.00000000000E+00  0.00000000000E+00  0.99999998245E-14  0.12500000000E+03  0.12500000000E+03 0.  0.
        -13    1    3    3    0    0  0.16409730438E+02 -0.36157082366E+02  0.23158661222E+01  0.39774215997E+02  0.10566000000E+00 0.  1.
         23    2    1    0    0    0 -0.25393149473E+02  0.26912102301E+01  0.10432218005E+02  0.97415841047E+02  0.93428904852E+02 0.  0.
         13    1    3    3    0    0 -0.41802879910E+02  0.38848292596E+02  0.81163518828E+01  0.57641625050E+02  0.10566000000E+00 0. -1.
         22    1    1    0    0    0  0.25393149473E+02 -0.26912102301E+01 -0.10432218005E+02  0.27584158953E+02  0.00000000000E+00 0. -1.
</event>
<event>
 5    1  0.1315753E-009  0.9118800E+02  0.7818608E-02  0.1130116E+00
         25   -1    0    0    0    0  0.00000000000E+00  0.00000000000E+00  0.99999998245E-14  0.12500000000E+03  0.12500000000E+03 0.  0.
        -13    1    3    3    0    0  0.55319670626E+02 -0.11176205431E+02 -0.67996442954E+01  0.56845579007E+02  0.10566000000E+00 0. -1.
         23    2    1    0    0    0  0.24415665168E+02 -0.36136659460E+01  0.15641287543E+02  0.95779576266E+02  0.91213453320E+02 0.  0.
         13    1    3    3    0    0 -0.30904005458E+02  0.75625394848E+01  0.22440931838E+02  0.38933997260E+02  0.10566000000E+00 0.  1.
         22    1    1    0    0    0 -0.24415665168E+02  0.36136659460E+01 -0.15641287543E+02  0.29220423734E+02  0.00000000000E+00 0. -1.
</event>
<event>
 5    1  0.1315753E-009  0.9118800E+02  0.7818608E-02  0.1130116E+00
         25   -1    0    0    0    0  0.00000000000E+00  0.00000000000E+00  0.99999998245E-14  0.12500000000E+03  0.12500000000E+03 0.  0.
        -13    1    3    3    0    0  0.19827786556E+02  0.33813116458E+02  0.61454779623E+01  0.39676769371E+02  0.10566000000E+00 0.  1.
         23    2    1    0    0    0  0.89088656537E+01 -0.18708411861E+02  0.21160862886E+02  0.95383202744E+02  0.90668631213E+02 0.  0.
         13    1    3    3    0    0 -0.10918920902E+02 -0.52521528319E+02  0.15015384924E+02  0.55706433373E+02  0.10566000000E+00 0. -1.
         22    1    1    0    0    0 -0.89088656537E+01  0.18708411861E+02 -0.21160862886E+02  0.29616797256E+02  0.00000000000E+00 0. -1.
</event>
<event>
 5    1  0.1315753E-009  0.9118800E+02  0.7818608E-02  0.1130116E+00
         25   -1    0    0    0    0  0.00000000000E+00  0.00000000000E+00  0.99999998245E-14  0.12500000000E+03  0.12500000000E+03 0.  0.
        -13    1    3    3    0    0 -0.24856564023E+02  0.36965221080E+02  0.12243419971E+02  0.46197281750E+02  0.10566000000E+00 0. -1.
         23    2    1    0    0    0 -0.28894544936E+02 -0.99754069731E+01  0.23279582553E+01  0.94343469522E+02  0.89223692932E+02 0.  0.
         13    1    3    3    0    0 -0.40379809125E+01 -0.46940628053E+02 -0.99154617154E+01  0.48146187771E+02  0.10566000000E+00 0.  1.
         22    1    1    0    0    0  0.28894544936E+02  0.99754069731E+01 -0.23279582553E+01  0.30656530478E+02  0.00000000000E+00 0. -1.
</event>
<event>
 5    1  0.1315753E-009  0.9118800E+02  0.7818608E-02  0.1130116E+00
         25   -1    0    0    0    0  0.00000000000E+00  0.00000000000E+00  0.99999998245E-14  0.12500000000E+03  0.12500000000E+03 0.  0.
        -13    1    3    3    0    0 -0.62296070883E+01 -0.31770496301E+02 -0.24952677201E+02  0.40875661502E+02  0.10566000000E+00 0. -1.
         23    2    1    0    0    0 -0.22094353897E+02  0.23524422099E+01  0.16844951733E+02  0.97117265964E+02  0.93028578893E+02 0.  0.
         13    1    3    3    0    0 -0.15864746808E+02  0.34122938511E+02  0.41797628934E+02  0.56241604462E+02  0.10566000000E+00 0.  1.
         22    1    1    0    0    0  0.22094353897E+02 -0.23524422099E+01 -0.16844951733E+02  0.27882734036E+02  0.00000000000E+00 0.  1.
</event>
<event>
 5    1  0.1315753E-009  0.9118800E+02  0.7818608E-02  0.1130116E+00
         25   -1    0    0    0    0  0.00000000000E+00  0.00000000000E+00  0.99999998245E-14  0.12500000000E+03  0.12500000000E+03 0.  0.
        -13    1    3    3    0    0 -0.40859006454E+01  0.26061955311E+02 -0.28957792581E+02  0.39172503289E+02  0.10566000000E+00 0.  1.
         23    2    1    0    0    0  0.11709405387E+02  0.90987959268E+01  0.23891118373E+02  0.96880899749E+02  0.92710435967E+02 0.  0.
         13    1    3    3    0    0  0.15795306032E+02 -0.16963159384E+02  0.52848910954E+02  0.57708396460E+02  0.10566000000E+00 0. -1.
         22    1    1    0    0    0 -0.11709405387E+02 -0.90987959268E+01 -0.23891118373E+02  0.28119100251E+02  0.00000000000E+00 0. -1.
</event>
<event>
 5    1  0.1315753E-009  0.9118800E+02  0.7818608E-02  0.1130116E+00
         25   -1    0    0    0    0  0.00000000000E+00  0.00000000000E+00  0.99999998245E-14  0.12500000000E+03  0.12500000000E+03 0.  0.
        -13    1    3    3    0    0 -0.29950910956E+02 -0.29888557291E+02  0.54391588948E+01  0.42661206471E+02  0.10566000000E+00 0.  1.
         23    2    1    0    0    0  0.36737229596E+01  0.77840227973E+01 -0.22878849485E+02  0.10055559358E+03  0.97539214657E+02 0.  0.
         13    1    3    3    0    0  0.33624633916E+02  0.37672580088E+02 -0.28318008380E+02  0.57894387112E+02  0.10566000000E+00 0. -1.
         22    1    1    0    0    0 -0.36737229596E+01 -0.77840227973E+01  0.22878849485E+02  0.24444406416E+02  0.00000000000E+00 0. -1.
</event>
<event>
 5    1  0.1315753E-009  0.9118800E+02  0.7818608E-02  0.1130116E+00
         25   -1    0    0    0    0  0.00000000000E+00  0.00000000000E+00  0.99999998245E-14  0.12500000000E+03  0.12500000000E+03 0.  0.
        -13    1    3    3    0    0 -0.42775867133E+02 -0.17187592314E+02  0.37501289734E+02  0.59426812419E+02  0.10566000000E+00 0. -1.
         23    2    1    0    0    0 -0.96895311078E+01 -0.75032665567E+01  0.26810996702E+02  0.95520930030E+02  0.90858310064E+02 0.  0.
         13    1    3    3    0    0  0.33086336026E+02  0.96843257573E+01 -0.10690293032E+02  0.36094117611E+02  0.10566000000E+00 0.  1.
         22    1    1    0    0    0  0.96895311078E+01  0.75032665567E+01 -0.26810996702E+02  0.29479069970E+02  0.00000000000E+00 0. -1.
</event>
<event>
 5    1  0.1315753E-009  0.9118800E+02  0.7818608E-02  0.1130116E+00
         25   -1    0    0    0    0  0.00000000000E+00  0.00000000000E+00  0.99999998245E-14  0.12500000000E+03  0.12500000000E+03 0.  0.
        -13    1    3    3    0    0  0.25276431802E+02 -0.52038889543E+01  0.39386231578E+02  0.47087842028E+02  0.10566000000E+00 0.  1.
         23    2    1    0    0    0  0.11446223716E+02  0.21644825514E+02 -0.42425637115E+01  0.10015017393E+03  0.97018263654E+02 0.  0.
         13    1    3    3    0    0 -0.13830208086E+02  0.26848714468E+02 -0.43628795290E+02  0.53062331901E+02  0.10566000000E+00 0. -1.
         22    1    1    0    0    0 -0.11446223716E+02 -0.21644825514E+02  0.42425637115E+01  0.24849826070E+02  0.00000000000E+00 0. -1.
</event>
<event>
 5    1  0.1315753E-009  0.9118800E+02  0.7818608E-02  0.1130116E+00
         25   -1    0    0    0    0  0.00000000000E+00  0.00000000000E+00  0.99999998245E-14  0.12500000000E+03  0.12500000000E+03 0.  0.
        -13    1    3    3    0    0 -0.51752589331E+02 -0.24622322809E+01  0.25826174182E+02  0.57891238777E+02  0.10566000000E+00 0.  1.
         23    2    1    0    0    0 -0.17830500656E+02 -0.16908947626E+02  0.62135166977E+01  0.99653460725E+02  0.96376165005E+02 0.  0.
         13    1    3    3    0    0  0.33922088675E+02 -0.14446715346E+02 -0.19612657485E+02  0.41762221947E+02  0.10566000000E+00 0. -1.
         22    1    1    0    0    0  0.17830500656E+02  0.16908947626E+02 -0.62135166977E+01  0.25346539275E+02  0.00000000000E+00 0.  1.
</event>
<event>
 5    1  0.1315753E-009  0.9118800E+02  0.7818608E-02  0.1130116E+00
         25   -1    0    0    0    0  0.00000000000E+00  0.00000000000E+00  0.99999998245E-14  0.12500000000E+03  0.12500000000E+03 0.  0.
        -13    1    3    3    0    0  0.69702038975E+01 -0.41783697439E+02  0.13295238350E+01  0.42382070640E+02  0.10566000000E+00 0.  1.
         23    2    1    0    0    0 -0.28151790298E+02 -0.65193479156E+01  0.12700453150E+02  0.93435356735E+02  0.87942249140E+02 0.  0.
         13    1    3    3    0    0 -0.35121994196E+02  0.35264349523E+02  0.11370929315E+02  0.51053286095E+02  0.10566000000E+00 0. -1.
         22    1    1    0    0    0  0.28151790298E+02  0.65193479156E+01 -0.12700453150E+02  0.31564643265E+02  0.00000000000E+00 0. -1.
</event>
<event>
 5    1  0.1315753E-009  0.9118800E+02  0.7818608E-02  0.1130116E+00
         25   -1    0    0    0    0  0.00000000000E+00  0.00000000000E+00  0.99999998245E-14  0.12500000000E+03  0.12500000000E+03 0.  0.
        -13    1    3    3    0    0  0.17759265257E+02  0.30801241751E+02 -0.37257441068E+02  0.51499864803E+02  0.10566000000E+00 0. -1.
         23    2    1    0    0    0  0.65737287323E+01  0.29827803191E+02  0.39430126270E+01  0.94202936808E+02  0.89026592668E+02 0.  0.
         13    1    3    3    0    0 -0.11185536524E+02 -0.97343855942E+00  0.41200453695E+02  0.42703072005E+02  0.10566000000E+00 0.  1.
         22    1    1    0    0    0 -0.65737287323E+01 -0.29827803191E+02 -0.39430126270E+01  0.30797063192E+02  0.00000000000E+00 0. -1.
</event>
<event>
 5    1  0.1315753E-009  0.9118800E+02  0.7818608E-02  0.1130116E+00
         25   -1    0    0    0    0  0.00000000000E+00  0.00000000000E+00  0.99999998245E-14  0.12500000000E+03  0.12500000000E+03 0.  0.
        -13    1    3    3    0    0 -0.16480363071E+02 -0.11842027953E+02 -0.27823137949E+02  0.34437975584E+02  0.10566000000E+00 0. -1.
         23    2    1    0    0    0  0.24307220552E+02  0.22443056579E+01  0.15898975339E+02  0.95868311142E+02  0.91334975697E+02 0.  0.
         13    1    3    3    0    0  0.40787583623E+02  0.14086333610E+02  0.43722113288E+02  0.61430335558E+02  0.10566000000E+00 0.  1.
         22    1    1    0    0    0 -0.24307220552E+02 -0.22443056579E+01 -0.15898975339E+02  0.29131688858E+02  0.00000000000E+00 0.  1.
</event>
<event>
 5    1  0.1315753E-009  0.9118800E+02  0.7818608E-02  0.1130116E+00
         25   -1    0    0    0    0  0.00000000000E+00  0.00000000000E+00  0.99999998245E-14  0.12500000000E+03  0.12500000000E+03 0.  0.
        -13    1    3    3    0    0  0.23668698385E+02  0.65984322523E+01  0.19375387620E+02  0.31291586743E+02  0.10566000000E+00 0.  1.
         23    2    1    0    0    0 -0.16803900655E+02 -0.31234996884E+02  0.15232210207E+01  0.89499066070E+02  0.82156962685E+02 0.  0.
         13    1    3    3    0    0 -0.40472599041E+02 -0.37833429136E+02 -0.17852166599E+02  0.58207479327E+02  0.10566000000E+00 0. -1.
         22    1    1    0    0    0  0.16803900655E+02  0.31234996884E+02 -0.15232210207E+01  0.35500933930E+02  0.00000000000E+00 0. -1.
</event>
<event>
 5    1  0.1315753E-009  0.9118800E+02  0.7818608E-02  0.1130116E+00
         25   -1    0    0    0    0  0.00000000000E+00  0.00000000000E+00  0.99999998245E-14  0.12500000000E+03  0.12500000000E+03 0.  0.
        -13    1    3    3    0    0  0.20563789221E+02 -0.41167322792E+02  0.13769521789E+02  0.48033621426E+02  0.10566000000E+00 0.  1.
         23    2    1    0    0    0  0.15000789152E+02  0.43817350421E+01  0.25222115065E+02  0.95328829388E+02  0.90593638557E+02 0.  0.
         13    1    3    3    0    0 -0.55630000692E+01  0.45549057834E+02  0.11452593276E+02  0.47295207961E+02  0.10566000000E+00 0. -1.
         22    1    1    0    0    0 -0.15000789152E+02 -0.43817350421E+01 -0.25222115065E+02  0.29671170612E+02  0.00000000000E+00 0.  1.
</event>
<event>
 5    1  0.1315753E-009  0.9118800E+02  0.7818608E-02  0.1130116E+00
         25   -1    0    0    0    0  0.00000000000E+00  0.00000000000E+00  0.99999998245E-14  0.12500000000E+03  0.12500000000E+03 0.  0.
        -13    1    3    3    0    0 -0.31100704206E+02 -0.16067870096E+02  0.75818796649E+01  0.35817960786E+02  0.10566000000E+00 0. -1.
         23    2    1    0    0    0  0.93071135755E+01  0.22128212424E+02 -0.15931497081E+02  0.96188669808E+02  0.91772367584E+02 0.  0.
         13    1    3    3    0    0  0.40407817782E+02  0.38196082520E+02 -0.23513376746E+02  0.60370709022E+02  0.10566000000E+00 0.  1.
         22    1    1    0    0    0 -0.93071135755E+01 -0.22128212424E+02  0.15931497081E+02  0.28811330192E+02  0.00000000000E+00 0.  1.
</event>
<event>
 5    1  0.1315753E-009  0.9118800E+02  0.7818608E-02  0.1130116E+00
         25   -1    0    0    0    0  0.00000000000E+00  0.00000000000E+00  0.99999998245E-14  0.12500000000E+03  0.12500000000E+03 0.  0.
        -13    1    3    3    0    0  0.10526458043E+02 -0.23057498252E+02 -0.27926655145E+02  0.37714238375E+02  0.10566000000E+00 0.  1.
         23    2    1    0    0    0 -0.22516164482E+02 -0.60616349416E+01  0.17093411888E+02  0.96087964251E+02  0.91635097331E+02 0.  0.
         13    1    3    3    0    0 -0.33042622524E+02  0.16995863310E+02  0.45020067034E+02  0.58373725877E+02  0.10566000000E+00 0. -1.
         22    1    1    0    0    0  0.22516164482E+02  0.60616349416E+01 -0.17093411888E+02  0.28912035749E+02  0.00000000000E+00 0. -1.
</event>
<event>
 5    1  0.1315753E-009  0.9118800E+02  0.7818608E-02  0.1130116E+00
         25   -1    0    0    0    0  0.00000000000E+00  0.00000000000E+00  0.99999998245E-14  0.12500000000E+03  0.12500000000E+03 0.  0.
        -13    1    3    3    0    0 -0.26372050677E+01  0.44386788794E+02 -0.31200468011E+02  0.54319630321E+02  0.10566000000E+00 0.  1.
         23    2    1    0    0    0 -0.22478983079E+02  0.12755536292E+02 -0.15777420026E+02  0.94719059310E+02  0.89748341642E+02 0.  0.
         13    1    3    3    0    0 -0.19841778012E+02 -0.31631252502E+02  0.15423047985E+02  0.40399428989E+02  0.10566000000E+00 0. -1.
         22    1    1    0    0    0  0.22478983079E+02 -0.12755536292E+02  0.15777420026E+02  0.30280940690E+02  0.00000000000E+00 0.  1.
</event>
<event>
 5    1  0.1315753E-009  0.9118800E+02  0.7818608E-02  0.1130116E+00
         25   -1    0    0    0    0  0.00000000000E+00  0.00000000000E+00  0.99999998245E-14  0.12500000000E+03  0.12500000000E+03 0.  0.
        -13    1    3    3    0    0 -0.15975398279E+02  0.36158852648E+02  0.36719727707E+02  0.53953920542E+02  0.10566000000E+00 0. -1.
         23    2    1    0    0    0  0.15741946304E+02  0.10408539317E+02  0.18099885620E+02  0.98851339927E+02  0.95330136798E+02 0.  0.
         13    1    3    3    0    0  0.31717344583E+02 -0.25750313331E+02 -0.18619842087E+02  0.44897419385E+02  0.10566000000E+00 0.  1.
         22    1    1    0    0    0 -0.15741946304E+02 -0.10408539317E+02 -0.18099885620E+02  0.26148660073E+02  0.00000000000E+00 0.  1.
</event>
<event>
 5    1  0.1315753E-009  0.9118800E+02  0.7818608E-02  0.1130116E+00
         25   -1    0    0    0    0  0.00000000000E+00  0.00000000000E+00  0.99999998245E-14  0.12500000000E+03  0.12500000000E+03 0.  0.
        -13    1    3    3    0    0 -0.27494732803E+02  0.36076143274E+02 -0.24702451846E+02  0.51649498900E+02  0.10566000000E+00 0.  1.
         23    2    1    0    0    0 -0.10969844951E+02 -0.58876653226E+01 -0.25353534733E+02  0.96754578696E+02  0.92539962578E+02 0.  0.
         13    1    3    3    0    0  0.16524887852E+02 -0.41963808596E+02 -0.65108288714E+00  0.45105079796E+02  0.10566000000E+00 0. -1.
         22    1    1    0    0    0  0.10969844951E+02  0.58876653226E+01  0.25353534733E+02  0.28245421304E+02  0.00000000000E+00 0.  1.
</event>
<event>
 5    1  0.1315753E-009  0.9118800E+02  0.7818608E-02  0.1130116E+00
         25   -1    0    0    0    0  0.00000000000E+00  0.00000000000E+00  0.99999998245E-14  0.12500000000E+03  0.12500000000E+03 0.  0.
        -13    1    3    3    0    0 -0.10618384646E+02 -0.58367024001E+02 -0.15179556362E+02  0.61236342793E+02  0.10566000000E+00 0. -1.
         23    2    1    0    0    0 -0.17048126065E+00 -0.28578449016E+02  0.35363680322E+00  0.96418854624E+02  0.92085360704E+02 0.  0.
         13    1    3    3    0    0  0.10447903386E+02  0.29788574985E+02  0.15533193165E+02  0.35182511831E+02  0.10566000000E+00 0.  1.
         22    1    1    0    0    0  0.17048126065E+00  0.28578449016E+02 -0.35363680322E+00  0.28581145376E+02  0.00000000000E+00 0. -1.
</event>
<event>
 5    1  0.1315753E-009  0.9118800E+02  0.7818608E-02  0.1130116E+00
         25   -1    0    0    0    0  0.00000000000E+00  0.00000000000E+00  0.99999998245E-14  0.12500000000E+03  0.12500000000E+03 0.  0.
        -13    1    3    3    0    0  0.15759171573E+02  0.55912156308E+01 -0.30692934156E+02  0.34952547147E+02  0.10566000000E+00 0.  1.
         23    2    1    0    0    0 -0.25063473945E+02 -0.11232288422E+02  0.10747296351E+02  0.95506841332E+02  0.90838925208E+02 0.  0.
         13    1    3    3    0    0 -0.40822645518E+02 -0.16823504053E+02  0.41440230507E+02  0.60554294185E+02  0.10566000000E+00 0. -1.
         22    1    1    0    0    0  0.25063473945E+02  0.11232288422E+02 -0.10747296351E+02  0.29493158668E+02  0.00000000000E+00 0. -1.
</event>
<event>
 5    1  0.1315753E-009  0.9118800E+02  0.7818608E-02  0.1130116E+00
         25   -1    0    0    0    0  0.00000000000E+00  0.00000000000E+00  0.99999998245E-14  0.12500000000E+03  0.12500000000E+03 0.  0.
        -13    1    3    3    0    0  0.22794397978E+02  0.39710845388E+02  0.36585932200E+02  0.58609533521E+02  0.10566000000E+00 0.  1.
         23    2    1    0    0    0  0.23028753961E+02  0.10155803403E+02  0.11711421989E+02  0.97239934137E+02  0.93193259060E+02 0.  0.
         13    1    3    3    0    0  0.23435598238E+00 -0.29555041985E+02 -0.24874510211E+02  0.38630400616E+02  0.10566000000E+00 0. -1.
         22    1    1    0    0    0 -0.23028753961E+02 -0.10155803403E+02 -0.11711421989E+02  0.27760065863E+02  0.00000000000E+00 0.  1.
</event>
<event>
 5    1  0.1315753E-009  0.9118800E+02  0.7818608E-02  0.1130116E+00
         25   -1    0    0    0    0  0.00000000000E+00  0.00000000000E+00  0.99999998245E-14  0.12500000000E+03  0.12500000000E+03 0.  0.
        -13    1    3    3    0    0  0.53868238633E+01  0.28473474431E+02  0.26834209562E+02  0.39494842503E+02  0.10566000000E+00 0.  1.
         23    2    1    0    0    0  0.31951054656E+02 -0.68990998192E+01 -0.19211284680E+01  0.92256173001E+02  0.86249888407E+02 0.  0.
         13    1    3    3    0    0  0.26564230793E+02 -0.35372574250E+02 -0.28755338030E+02  0.52761330498E+02  0.10566000000E+00 0. -1.
         22    1    1    0    0    0 -0.31951054656E+02  0.68990998192E+01  0.19211284680E+01  0.32743826999E+02  0.00000000000E+00 0. -1.
</event>
<event>
 5    1  0.1315753E-009  0.9118800E+02  0.7818608E-02  0.1130116E+00
         25   -1    0    0    0    0  0.00000000000E+00  0.00000000000E+00  0.99999998245E-14  0.12500000000E+03  0.12500000000E+03 0.  0.
        -13    1    3    3    0    0  0.24702753695E+02 -0.37398625506E+00  0.24851240402E+02  0.35042277599E+02  0.10566000000E+00 0. -1.
         23    2    1    0    0    0 -0.20783342086E+02  0.20977702712E+02 -0.71517761180E+01  0.94616464640E+02  0.89605335555E+02 0.  0.
         13    1    3    3    0    0 -0.45486095781E+02  0.21351688967E+02 -0.32003016520E+02  0.59574187040E+02  0.10566000000E+00 0.  1.
         22    1    1    0    0    0  0.20783342086E+02 -0.20977702712E+02  0.71517761180E+01  0.30383535360E+02  0.00000000000E+00 0.  1.
</event>
<event>
 5    1  0.1315753E-009  0.9118800E+02  0.7818608E-02  0.1130116E+00
         25   -1    0    0    0    0  0.00000000000E+00  0.00000000000E+00  0.99999998245E-14  0.12500000000E+03  0.12500000000E+03 0.  0.
        -13    1    3    3    0    0 -0.19077656342E+02 -0.47354561774E+01 -0.33363914664E+02  0.38723939398E+02  0.10566000000E+00 0.  1.
         23    2    1    0    0    0  0.27406667607E+02  0.11801147852E+02 -0.84979964899E+01  0.93974067874E+02  0.88704661481E+02 0.  0.
         13    1    3    3    0    0  0.46484323950E+02  0.16536604029E+02  0.24865918175E+02  0.55250128476E+02  0.10566000000E+00 0. -1.
         22    1    1    0    0    0 -0.27406667607E+02 -0.11801147852E+02  0.84979964899E+01  0.31025932126E+02  0.00000000000E+00 0. -1.
</event>
<event>
 5    1  0.1315753E-009  0.9118800E+02  0.7818608E-02  0.1130116E+00
         25   -1    0    0    0    0  0.00000000000E+00  0.00000000000E+00  0.99999998245E-14  0.12500000000E+03  0.12500000000E+03 0.  0.
        -13    1    3    3    0    0 -0.30058470097E+02 -0.27089344221E+02 -0.44351031594E+02  0.60036400311E+02  0.10566000000E+00 0.  1.
         23    2    1    0    0    0 -0.28381080501E+01 -0.16858158328E+02 -0.24015756386E+02  0.95521042856E+02  0.90858465285E+02 0.  0.
         13    1    3    3    0    0  0.27220362046E+02  0.10231185893E+02  0.20335275208E+02  0.35484642545E+02  0.10566000000E+00 0. -1.
         22    1    1    0    0    0  0.28381080501E+01  0.16858158328E+02  0.24015756386E+02  0.29478957144E+02  0.00000000000E+00 0.  1.
</event>
<event>
 5    1  0.1315753E-009  0.9118800E+02  0.7818608E-02  0.1130116E+00
         25   -1    0    0    0    0  0.00000000000E+00  0.00000000000E+00  0.99999998245E-14  0.12500000000E+03  0.12500000000E+03 0.  0.
        -13    1    3    3    0    0  0.28792343897E+02 -0.14897429826E+02 -0.19720660573E+02  0.37945330411E+02  0.10566000000E+00 0.  1.
         23    2    1    0    0    0  0.56943942958E+01  0.29337006587E+02  0.66468517809E+01  0.94385187891E+02  0.89282120117E+02 0.  0.
         13    1    3    3    0    0 -0.23097949601E+02  0.44234436413E+02  0.26367512354E+02  0.56439857480E+02  0.10566000000E+00 0. -1.
         22    1    1    0    0    0 -0.56943942958E+01 -0.29337006587E+02 -0.66468517809E+01  0.30614812109E+02  0.00000000000E+00 0. -1.
</event>
<event>
 5    1  0.1315753E-009  0.9118800E+02  0.7818608E-02  0.1130116E+00
         25   -1    0    0    0    0  0.00000000000E+00  0.00000000000E+00  0.99999998245E-14  0.12500000000E+03  0.12500000000E+03 0.  0.
        -13    1    3    3    0    0 -0.25991722169E+01 -0.15945635643E+02  0.54833958801E+02  0.57164614877E+02  0.10566000000E+00 0. -1.
         23    2    1    0    0    0 -0.12936479657E+02 -0.20010620845E+02  0.19480114949E+02  0.94222535339E+02  0.89054106221E+02 0.  0.
         13    1    3    3    0    0 -0.10337307440E+02 -0.40649852021E+01 -0.35353843852E+02  0.37057920462E+02  0.10566000000E+00 0.  1.
         22    1    1    0    0    0  0.12936479657E+02  0.20010620845E+02 -0.19480114949E+02  0.30777464661E+02  0.00000000000E+00 0. -1.
</event>
<event>
 5    1  0.1315753E-009  0.9118800E+02  0.7818608E-02  0.1130116E+00
         25   -1    0    0    0    0  0.00000000000E+00  0.00000000000E+00  0.99999998245E-14  0.12500000000E+03  0.12500000000E+03 0.  0.
        -13    1    3    3    0    0 -0.16097786975E+02 -0.11527299995E+02 -0.36759574503E+02  0.41752782810E+02  0.10566000000E+00 0. -1.
         23    2    1    0    0    0  0.23892957433E+02  0.13555627196E+02 -0.14326020201E+02  0.94018339322E+02  0.88767025581E+02 0.  0.
         13    1    3    3    0    0  0.39990744408E+02  0.25082927191E+02  0.22433554302E+02  0.52265556512E+02  0.10566000000E+00 0.  1.
         22    1    1    0    0    0 -0.23892957433E+02 -0.13555627196E+02  0.14326020201E+02  0.30981660678E+02  0.00000000000E+00 0. -1.
</event>
<event>
 5    1  0.1315753E-009  0.9118800E+02  0.7818608E-02  0.1130116E+00
         25   -1    0    0    0    0  0.00000000000E+00  0.00000000000E+00  0.99999998245E-14  0.12500000000E+03  0.12500000000E+03 0.  0.
        -13    1    3    3    0    0 -0.51787212426E+02 -0.21836089337E+02 -0.18901208289E+02  0.59295843085E+02  0.10566000000E+00 0. -1.
         23    2    1    0    0    0 -0.28003266521E+02  0.20028796916E+01 -0.23253575717E+01  0.96829061948E+02  0.92640517523E+02 0.  0.
         13    1    3    3    0    0  0.23783945905E+02  0.23838969029E+02  0.16575850717E+02  0.37533218863E+02  0.10566000000E+00 0.  1.
         22    1    1    0    0    0  0.28003266521E+02 -0.20028796916E+01  0.23253575717E+01  0.28170938052E+02  0.00000000000E+00 0. -1.
</event>
<event>
 5    1  0.1315753E-009  0.9118800E+02  0.7818608E-02  0.1130116E+00
         25   -1    0    0    0    0  0.00000000000E+00  0.00000000000E+00  0.99999998245E-14  0.12500000000E+03  0.12500000000E+03 0.  0.
        -13    1    3    3    0    0  0.27750576174E+02  0.33710305971E+02  0.13184471007E+02  0.45610532188E+02  0.10566000000E+00 0.  1.
         23    2    1    0    0    0 -0.13052133442E+02  0.22626602776E+02 -0.13487967267E+02  0.95601928608E+02  0.90969677102E+02 0.  0.
         13    1    3    3    0    0 -0.40802709616E+02 -0.11083703195E+02 -0.26672438275E+02  0.49991396420E+02  0.10566000000E+00 0. -1.
         22    1    1    0    0    0  0.13052133442E+02 -0.22626602776E+02  0.13487967267E+02  0.29398071392E+02  0.00000000000E+00 0. -1.
</event>
<event>
 5    1  0.1315753E-009  0.9118800E+02  0.7818608E-02  0.1130116E+00
         25   -1    0    0    0    0  0.00000000000E+00  0.00000000000E+00  0.99999998245E-14  0.12500000000E+03  0.12500000000E+03 0.  0.
        -13    1    3    3    0    0 -0.22085965082E+02  0.47269696293E+02 -0.28382909226E+02  0.59395410104E+02  0.10566000000E+00 0. -1.
         23    2    1    0    0    0 -0.58661775143E+01  0.26895864777E+02 -0.61408942155E+00  0.97464991619E+02  0.93494641048E+02 0.  0.
         13    1    3    3    0    0  0.16219787567E+02 -0.20373831516E+02  0.27768819805E+02  0.38069581515E+02  0.10566000000E+00 0.  1.
         22    1    1    0    0    0  0.58661775143E+01 -0.26895864777E+02  0.61408942155E+00  0.27535008381E+02  0.00000000000E+00 0. -1.
</event>
<event>
 5    1  0.1315753E-009  0.9118800E+02  0.7818608E-02  0.1130116E+00
         25   -1    0    0    0    0  0.00000000000E+00  0.00000000000E+00  0.99999998245E-14  0.12500000000E+03  0.12500000000E+03 0.  0.
        -13    1    3    3    0    0 -0.93697386020E+01  0.32273166102E+02 -0.71434516269E+01  0.34356794334E+02  0.10566000000E+00 0. -1.
         23    2    1    0    0    0  0.96199377252E+01 -0.17756554031E+02  0.21872816526E+02  0.95229905682E+02  0.90457041852E+02 0.  0.
         13    1    3    3    0    0  0.18989676327E+02 -0.50029720134E+02  0.29016268153E+02  0.60873111348E+02  0.10566000000E+00 0.  1.
         22    1    1    0    0    0 -0.96199377252E+01  0.17756554031E+02 -0.21872816526E+02  0.29770094318E+02  0.00000000000E+00 0.  1.
</event>
<event>
 5    1  0.1315753E-009  0.9118800E+02  0.7818608E-02  0.1130116E+00
         25   -1    0    0    0    0  0.00000000000E+00  0.00000000000E+00  0.99999998245E-14  0.12500000000E+03  0.12500000000E+03 0.  0.
        -13    1    3    3    0    0 -0.10184165611E+02 -0.19455171306E+01 -0.33146545182E+02  0.34730489309E+02  0.10566000000E+00 0. -1.
         23    2    1    0    0    0  0.90945629213E+00 -0.82113151077E+01  0.27285559587E+02  0.96491149295E+02  0.92183443871E+02 0.  0.
         13    1    3    3    0    0  0.11093621903E+02 -0.62657979771E+01  0.60432104768E+02  0.61760659987E+02  0.10566000000E+00 0.  1.
         22    1    1    0    0    0 -0.90945629213E+00  0.82113151077E+01 -0.27285559587E+02  0.28508850705E+02  0.00000000000E+00 0.  1.
</event>
<event>
 5    1  0.1315753E-009  0.9118800E+02  0.7818608E-02  0.1130116E+00
         25   -1    0    0    0    0  0.00000000000E+00  0.00000000000E+00  0.99999998245E-14  0.12500000000E+03  0.12500000000E+03 0.  0.
        -13    1    3    3    0    0 -0.35670980143E+02 -0.29392540381E+02 -0.17108072402E+02  0.49285267167E+02  0.10566000000E+00 0.  1.
         23    2    1    0    0    0 -0.22725613797E+02  0.14263801281E+02  0.65047642869E+00  0.98160986064E+02  0.94420583117E+02 0.  0.
         13    1    3    3    0    0  0.12945366346E+02  0.43656341662E+02  0.17758548831E+02  0.48875718897E+02  0.10566000000E+00 0. -1.
         22    1    1    0    0    0  0.22725613797E+02 -0.14263801281E+02 -0.65047642869E+00  0.26839013936E+02  0.00000000000E+00 0.  1.
</event>
<event>
 5    1  0.1315753E-009  0.9118800E+02  0.7818608E-02  0.1130116E+00
         25   -1    0    0    0    0  0.00000000000E+00  0.00000000000E+00  0.99999998245E-14  0.12500000000E+03  0.12500000000E+03 0.  0.
        -13    1    3    3    0    0  0.25646289842E+02 -0.36652440093E+02  0.17673027858E+02  0.48098655128E+02  0.10566000000E+00 0.  1.
         23    2    1    0    0    0  0.16507368905E+02  0.99925944369E+01  0.21892252025E+02  0.95817541734E+02  0.91265466818E+02 0.  0.
         13    1    3    3    0    0 -0.91389209369E+01  0.46645034530E+02  0.42192241670E+01  0.47718886605E+02  0.10566000000E+00 0. -1.
         22    1    1    0    0    0 -0.16507368905E+02 -0.99925944369E+01 -0.21892252025E+02  0.29182458266E+02  0.00000000000E+00 0.  1.
</event>
<event>
 5    1  0.1315753E-009  0.9118800E+02  0.7818608E-02  0.1130116E+00
         25   -1    0    0    0    0  0.00000000000E+00  0.00000000000E+00  0.99999998245E-14  0.12500000000E+03  0.12500000000E+03 0.  0.
        -13    1    3    3    0    0 -0.31028090242E+02 -0.31102585599E+02 -0.42255985187E+01  0.44135927110E+02  0.10566000000E+00 0.  1.
         23    2    1    0    0    0  0.17128825253E+02 -0.12107609059E+01  0.13096930106E+02  0.10340388519E+03  0.10112354473E+03 0.  0.
         13    1    3    3    0    0  0.48156915495E+02  0.29891824693E+02  0.17322528624E+02  0.59267958084E+02  0.10566000000E+00 0. -1.
         22    1    1    0    0    0 -0.17128825253E+02  0.12107609059E+01 -0.13096930106E+02  0.21596114806E+02  0.00000000000E+00 0. -1.
</event>
<event>
 5    1  0.1315753E-009  0.9118800E+02  0.7818608E-02  0.1130116E+00
         25   -1    0    0    0    0  0.00000000000E+00  0.00000000000E+00  0.99999998245E-14  0.12500000000E+03  0.12500000000E+03 0.  0.
        -13    1    3    3    0    0  0.93218241642E+01  0.53402780151E+02  0.17953908789E+02  0.57106105965E+02  0.10566000000E+00 0. -1.
         23    2    1    0    0    0 -0.11628679415E+02  0.27583827586E+02 -0.35398527296E+00  0.95063082410E+02  0.90226219041E+02 0.  0.
         13    1    3    3    0    0 -0.20950503579E+02 -0.25818952565E+02 -0.18307894062E+02  0.37956976445E+02  0.10566000000E+00 0.  1.
         22    1    1    0    0    0  0.11628679415E+02 -0.27583827586E+02  0.35398527296E+00  0.29936917590E+02  0.00000000000E+00 0. -1.
</event>
<event>
 5    1  0.1315753E-009  0.9118800E+02  0.7818608E-02  0.1130116E+00
         25   -1    0    0    0    0  0.00000000000E+00  0.00000000000E+00  0.99999998245E-14  0.12500000000E+03  0.12500000000E+03 0.  0.
        -13    1    3    3    0    0 -0.24116322664E+02  0.11688919586E+02  0.19273751873E+02  0.33010854809E+02  0.10566000000E+00 0.  1.
         23    2    1    0    0    0  0.15368660638E+02 -0.19737082876E+02 -0.16645292235E+02  0.94953137870E+02  0.90073772362E+02 0.  0.
         13    1    3    3    0    0  0.39484983303E+02 -0.31426002462E+02 -0.35919044108E+02  0.61942283061E+02  0.10566000000E+00 0. -1.
         22    1    1    0    0    0 -0.15368660638E+02  0.19737082876E+02  0.16645292235E+02  0.30046862130E+02  0.00000000000E+00 0. -1.
</event>
<event>
 5    1  0.1315753E-009  0.9118800E+02  0.7818608E-02  0.1130116E+00
         25   -1    0    0    0    0  0.00000000000E+00  0.00000000000E+00  0.99999998245E-14  0.12500000000E+03  0.12500000000E+03 0.  0.
        -13    1    3    3    0    0  0.23719076842E+02  0.29932971860E+02  0.12381684411E+02  0.40148408231E+02  0.10566000000E+00 0. -1.
         23    2    1    0    0    0 -0.14681918468E+02 -0.11465343240E+02  0.20618672422E+02  0.97212548192E+02  0.93156519085E+02 0.  0.
         13    1    3    3    0    0 -0.38400995310E+02 -0.41398315101E+02  0.82369880112E+01  0.57064139961E+02  0.10566000000E+00 0.  1.
         22    1    1    0    0    0  0.14681918468E+02  0.11465343240E+02 -0.20618672422E+02  0.27787451808E+02  0.00000000000E+00 0. -1.
</event>
<event>
 5    1  0.1315753E-009  0.9118800E+02  0.7818608E-02  0.1130116E+00
         25   -1    0    0    0    0  0.00000000000E+00  0.00000000000E+00  0.99999998245E-14  0.12500000000E+03  0.12500000000E+03 0.  0.
        -13    1    3    3    0    0  0.54450275384E+02  0.60339529461E+01  0.18355273715E+02  0.57776883913E+02  0.10566000000E+00 0. -1.
         23    2    1    0    0    0  0.89847688786E+01  0.15191938503E+02  0.93664579995E+01  0.10501871869E+03  0.10310033789E+03 0.  0.
         13    1    3    3    0    0 -0.45465506505E+02  0.91579855566E+01 -0.89888157159E+01  0.47241834778E+02  0.10566000000E+00 0.  1.
         22    1    1    0    0    0 -0.89847688786E+01 -0.15191938503E+02 -0.93664579995E+01  0.19981281308E+02  0.00000000000E+00 0. -1.
</event>
<event>
 5    1  0.1315753E-009  0.9118800E+02  0.7818608E-02  0.1130116E+00
         25   -1    0    0    0    0  0.00000000000E+00  0.00000000000E+00  0.99999998245E-14  0.12500000000E+03  0.12500000000E+03 0.  0.
        -13    1    3    3    0    0  0.19467463531E+02  0.66117987055E+01 -0.24580613742E+02  0.32045526277E+02  0.10566000000E+00 0. -1.
         23    2    1    0    0    0 -0.18581350417E+02 -0.92236577184E+01  0.22352061700E+02  0.94504801898E+02  0.89449429705E+02 0.  0.
         13    1    3    3    0    0 -0.38048813948E+02 -0.15835456424E+02  0.46932675441E+02  0.62459275621E+02  0.10566000000E+00 0.  1.
         22    1    1    0    0    0  0.18581350417E+02  0.92236577184E+01 -0.22352061700E+02  0.30495198102E+02  0.00000000000E+00 0.  1.
</event>
<event>
 5    1  0.1315753E-009  0.9118800E+02  0.7818608E-02  0.1130116E+00
         25   -1    0    0    0    0  0.00000000000E+00  0.00000000000E+00  0.99999998245E-14  0.12500000000E+03  0.12500000000E+03 0.  0.
        -13    1    3    3    0    0 -0.10079079172E+02  0.27393066478E+02 -0.83367920686E+01  0.30355908718E+02  0.10566000000E+00 0.  1.
         23    2    1    0    0    0  0.69328981604E+01 -0.31032529413E+02  0.54207593615E+01  0.92743720135E+02  0.86953608515E+02 0.  0.
         13    1    3    3    0    0  0.17011977332E+02 -0.58425595892E+02  0.13757551430E+02  0.62387811417E+02  0.10566000000E+00 0. -1.
         22    1    1    0    0    0 -0.69328981604E+01  0.31032529413E+02 -0.54207593615E+01  0.32256279865E+02  0.00000000000E+00 0. -1.
</event>
<event>
 5    1  0.1315753E-009  0.9118800E+02  0.7818608E-02  0.1130116E+00
         25   -1    0    0    0    0  0.00000000000E+00  0.00000000000E+00  0.99999998245E-14  0.12500000000E+03  0.12500000000E+03 0.  0.
        -13    1    3    3    0    0 -0.15347016645E+01 -0.37507289743E+02  0.13348869515E+02  0.39841631172E+02  0.10566000000E+00 0.  1.
         23    2    1    0    0    0  0.27847838737E+02  0.84186203870E+01  0.28408024340E+00  0.95906083229E+02  0.91386655520E+02 0.  0.
         13    1    3    3    0    0  0.29382540401E+02  0.45925910130E+02 -0.13064789272E+02  0.56064452057E+02  0.10566000000E+00 0. -1.
         22    1    1    0    0    0 -0.27847838737E+02 -0.84186203870E+01 -0.28408024340E+00  0.29093916771E+02  0.00000000000E+00 0. -1.
</event>
<event>
 5    1  0.1315753E-009  0.9118800E+02  0.7818608E-02  0.1130116E+00
         25   -1    0    0    0    0  0.00000000000E+00  0.00000000000E+00  0.99999998245E-14  0.12500000000E+03  0.12500000000E+03 0.  0.
        -13    1    3    3    0    0 -0.16714318497E+02 -0.28877362014E+02  0.13715040738E+02  0.36074700084E+02  0.10566000000E+00 0.  1.
         23    2    1    0    0    0  0.12702043666E+02  0.85523041972E+01 -0.23809394135E+02  0.96691501816E+02  0.92454721101E+02 0.  0.
         13    1    3    3    0    0  0.29416362162E+02  0.37429666211E+02 -0.37524434873E+02  0.60616801731E+02  0.10566000000E+00 0. -1.
         22    1    1    0    0    0 -0.12702043666E+02 -0.85523041972E+01  0.23809394135E+02  0.28308498184E+02  0.00000000000E+00 0. -1.
</event>
<event>
 5    1  0.1315753E-009  0.9118800E+02  0.7818608E-02  0.1130116E+00
         25   -1    0    0    0    0  0.00000000000E+00  0.00000000000E+00  0.99999998245E-14  0.12500000000E+03  0.12500000000E+03 0.  0.
        -13    1    3    3    0    0  0.11506174948E+02  0.36407029659E+02  0.76911322262E+00  0.38189875225E+02  0.10566000000E+00 0. -1.
         23    2    1    0    0    0 -0.34415314459E+01 -0.15152109182E+02  0.23778009417E+02  0.96595347508E+02  0.92324627684E+02 0.  0.
         13    1    3    3    0    0 -0.14947706394E+02 -0.51559138841E+02  0.23008896195E+02  0.58405472283E+02  0.10566000000E+00 0.  1.
         22    1    1    0    0    0  0.34415314459E+01  0.15152109182E+02 -0.23778009417E+02  0.28404652492E+02  0.00000000000E+00 0.  1.
</event>
<event>
 5    1  0.1315753E-009  0.9118800E+02  0.7818608E-02  0.1130116E+00
         25   -1    0    0    0    0  0.00000000000E+00  0.00000000000E+00  0.99999998245E-14  0.12500000000E+03  0.12500000000E+03 0.  0.
        -13    1    3    3    0    0 -0.29412772438E+02 -0.34970019535E+02 -0.33940345527E+02  0.56920749005E+02  0.10566000000E+00 0.  1.
         23    2    1    0    0    0  0.40542395376E+01 -0.18823266061E+02 -0.21573704639E+02  0.96083275855E+02  0.91628701637E+02 0.  0.
         13    1    3    3    0    0  0.33467011976E+02  0.16146753474E+02  0.12366640888E+02  0.39162526849E+02  0.10566000000E+00 0. -1.
         22    1    1    0    0    0 -0.40542395376E+01  0.18823266061E+02  0.21573704639E+02  0.28916724145E+02  0.00000000000E+00 0.  1.
</event>
<event>
 5    1  0.1315753E-009  0.9118800E+02  0.7818608E-02  0.1130116E+00
         25   -1    0    0    0    0  0.00000000000E+00  0.00000000000E+00  0.99999998245E-14  0.12500000000E+03  0.12500000000E+03 0.  0.
        -13    1    3    3    0    0 -0.13102381989E+01  0.92335815823E+01 -0.41265733714E+02  0.42306591637E+02  0.10566000000E+00 0. -1.
         23    2    1    0    0    0 -0.32347072809E+02 -0.79037340299E+01 -0.83825811184E+01  0.90662414221E+02  0.83908304447E+02 0.  0.
         13    1    3    3    0    0 -0.31036834610E+02 -0.17137315612E+02  0.32883152596E+02  0.48355822583E+02  0.10566000000E+00 0.  1.
         22    1    1    0    0    0  0.32347072809E+02  0.79037340299E+01  0.83825811184E+01  0.34337585779E+02  0.00000000000E+00 0.  1.
</event>
<event>
 5    1  0.1315753E-009  0.9118800E+02  0.7818608E-02  0.1130116E+00
         25   -1    0    0    0    0  0.00000000000E+00  0.00000000000E+00  0.99999998245E-14  0.12500000000E+03  0.12500000000E+03 0.  0.
        -13    1    3    3    0    0  0.32741908057E+02 -0.61461185483E+01  0.10590954865E+02  0.34956927860E+02  0.10566000000E+00 0. -1.
         23    2    1    0    0    0 -0.24957701218E+02  0.13532448477E+02  0.49605631302E+01  0.96179500379E+02  0.91759877368E+02 0.  0.
         13    1    3    3    0    0 -0.57699609275E+02  0.19678567025E+02 -0.56303917349E+01  0.61222572518E+02  0.10566000000E+00 0.  1.
         22    1    1    0    0    0  0.24957701218E+02 -0.13532448477E+02 -0.49605631302E+01  0.28820499621E+02  0.00000000000E+00 0.  1.
</event>
<event>
 5    1  0.1315753E-009  0.9118800E+02  0.7818608E-02  0.1130116E+00
         25   -1    0    0    0    0  0.00000000000E+00  0.00000000000E+00  0.99999998245E-14  0.12500000000E+03  0.12500000000E+03 0.  0.
        -13    1    3    3    0    0 -0.44280163717E+02 -0.22476373487E+02  0.26470967912E+02  0.56272938169E+02  0.10566000000E+00 0. -1.
         23    2    1    0    0    0 -0.18716940680E+02  0.82447426908E+01  0.19303729228E+02  0.96876458037E+02  0.92704447084E+02 0.  0.
         13    1    3    3    0    0  0.25563223037E+02  0.30721116178E+02 -0.71672386846E+01  0.40603519868E+02  0.10566000000E+00 0.  1.
         22    1    1    0    0    0  0.18716940680E+02 -0.82447426908E+01 -0.19303729228E+02  0.28123541963E+02  0.00000000000E+00 0. -1.
</event>
<event>
 5    1  0.1315753E-009  0.9118800E+02  0.7818608E-02  0.1130116E+00
         25   -1    0    0    0    0  0.00000000000E+00  0.00000000000E+00  0.99999998245E-14  0.12500000000E+03  0.12500000000E+03 0.  0.
        -13    1    3    3    0    0  0.11725021334E+02  0.14655781953E+02  0.35242824203E+02  0.39929135875E+02  0.10566000000E+00 0. -1.
         23    2    1    0    0    0 -0.25508767220E+02 -0.14830849969E+02  0.92210950540E+01  0.94085926993E+02  0.88862150256E+02 0.  0.
         13    1    3    3    0    0 -0.37233788554E+02 -0.29486631922E+02 -0.26021729149E+02  0.54156791117E+02  0.10566000000E+00 0.  1.
         22    1    1    0    0    0  0.25508767220E+02  0.14830849969E+02 -0.92210950540E+01  0.30914073007E+02  0.00000000000E+00 0.  1.
</event>
<event>
 5    1  0.1315753E-009  0.9118800E+02  0.7818608E-02  0.1130116E+00
         25   -1    0    0    0    0  0.00000000000E+00  0.00000000000E+00  0.99999998245E-14  0.12500000000E+03  0.12500000000E+03 0.  0.
        -13    1    3    3    0    0 -0.12708271449E+02  0.58837480877E+01 -0.30219016860E+02  0.33306437798E+02  0.10566000000E+00 0. -1.
         23    2    1    0    0    0  0.87293552556E+00 -0.55127287282E+01  0.29177933556E+02  0.95293031103E+02  0.90544231046E+02 0.  0.
         13    1    3    3    0    0  0.13581206974E+02 -0.11396476816E+02  0.59396950416E+02  0.61986593304E+02  0.10566000000E+00 0.  1.
         22    1    1    0    0    0 -0.87293552556E+00  0.55127287282E+01 -0.29177933556E+02  0.29706968897E+02  0.00000000000E+00 0.  1.
</event>
<event>
 5    1  0.1315753E-009  0.9118800E+02  0.7818608E-02  0.1130116E+00
         25   -1    0    0    0    0  0.00000000000E+00  0.00000000000E+00  0.99999998245E-14  0.12500000000E+03  0.12500000000E+03 0.  0.
        -13    1    3    3    0    0 -0.38236088576E+02 -0.90722791338E+01  0.47138307133E+01  0.39579490677E+02  0.10566000000E+00 0.  1.
         23    2    1    0    0    0  0.58982334777E+01  0.19935159027E+02 -0.18407409974E+02  0.97232528643E+02  0.93183325552E+02 0.  0.
         13    1    3    3    0    0  0.44134322053E+02  0.29007438161E+02 -0.23121240687E+02  0.57653037966E+02  0.10566000000E+00 0. -1.
         22    1    1    0    0    0 -0.58982334777E+01 -0.19935159027E+02  0.18407409974E+02  0.27767471357E+02  0.00000000000E+00 0. -1.
</event>
<event>
 5    1  0.1315753E-009  0.9118800E+02  0.7818608E-02  0.1130116E+00
         25   -1    0    0    0    0  0.00000000000E+00  0.00000000000E+00  0.99999998245E-14  0.12500000000E+03  0.12500000000E+03 0.  0.
        -13    1    3    3    0    0  0.24514161169E+02  0.41423786440E+02 -0.19763071261E+02  0.52033300208E+02  0.10566000000E+00 0.  1.
         23    2    1    0    0    0 -0.10474247565E+02  0.28202602036E+02  0.11636315029E+01  0.94892680924E+02  0.89989834043E+02 0.  0.
         13    1    3    3    0    0 -0.34988408733E+02 -0.13221184405E+02  0.20926702764E+02  0.42859380716E+02  0.10566000000E+00 0. -1.
         22    1    1    0    0    0  0.10474247565E+02 -0.28202602036E+02 -0.11636315029E+01  0.30107319076E+02  0.00000000000E+00 0.  1.
</event>
<event>
 5    1  0.1315753E-009  0.9118800E+02  0.7818608E-02  0.1130116E+00
         25   -1    0    0    0    0  0.00000000000E+00  0.00000000000E+00  0.99999998245E-14  0.12500000000E+03  0.12500000000E+03 0.  0.
        -13    1    3    3    0    0  0.35486818064E+02 -0.20595282339E+02 -0.71272465613E+01  0.41644792214E+02  0.10566000000E+00 0. -1.
         23    2    1    0    0    0  0.13524654843E+02  0.27198913445E+02 -0.90214831055E+00  0.94610675349E+02  0.89597259094E+02 0.  0.
         13    1    3    3    0    0 -0.21962163221E+02  0.47794195784E+02  0.62250982508E+01  0.52965883135E+02  0.10566000000E+00 0.  1.
         22    1    1    0    0    0 -0.13524654843E+02 -0.27198913445E+02  0.90214831055E+00  0.30389324651E+02  0.00000000000E+00 0.  1.
</event>
<event>
 5    1  0.1315753E-009  0.9118800E+02  0.7818608E-02  0.1130116E+00
         25   -1    0    0    0    0  0.00000000000E+00  0.00000000000E+00  0.99999998245E-14  0.12500000000E+03  0.12500000000E+03 0.  0.
        -13    1    3    3    0    0 -0.23789312232E+02  0.32737989083E+02  0.84129816795E+00  0.40477478334E+02  0.10566000000E+00 0.  1.
         23    2    1    0    0    0 -0.37501304115E+02 -0.94702024053E+01  0.81962135620E+01  0.85462543574E+02  0.75766984191E+02 0.  0.
         13    1    3    3    0    0 -0.13711991883E+02 -0.42208191488E+02  0.73549153941E+01  0.44985065240E+02  0.10566000000E+00 0. -1.
         22    1    1    0    0    0  0.37501304115E+02  0.94702024053E+01 -0.81962135620E+01  0.39537456426E+02  0.00000000000E+00 0.  1.
</event>
<event>
 5    1  0.1315753E-009  0.9118800E+02  0.7818608E-02  0.1130116E+00
         25   -1    0    0    0    0  0.00000000000E+00  0.00000000000E+00  0.99999998245E-14  0.12500000000E+03  0.12500000000E+03 0.  0.
        -13    1    3    3    0    0 -0.22660369594E+01 -0.57289077806E+02 -0.17819635663E+00  0.57334250473E+02  0.10566000000E+00 0. -1.
         23    2    1    0    0    0 -0.16544347775E+02 -0.23333519106E+02  0.84645622102E+01  0.95170193253E+02  0.90374489284E+02 0.  0.
         13    1    3    3    0    0 -0.14278310815E+02  0.33955558700E+02  0.86427585669E+01  0.37835942780E+02  0.10566000000E+00 0.  1.
         22    1    1    0    0    0  0.16544347775E+02  0.23333519106E+02 -0.84645622102E+01  0.29829806747E+02  0.00000000000E+00 0. -1.
</event>
<event>
 5    1  0.1315753E-009  0.9118800E+02  0.7818608E-02  0.1130116E+00
         25   -1    0    0    0    0  0.00000000000E+00  0.00000000000E+00  0.99999998245E-14  0.12500000000E+03  0.12500000000E+03 0.  0.
        -13    1    3    3    0    0  0.32293354337E+02  0.30810258249E+02  0.97640171209E+00  0.44644118001E+02  0.10566000000E+00 0.  1.
         23    2    1    0    0    0  0.12179264919E+02 -0.68355468621E+01  0.26976798728E+02  0.94622263671E+02  0.89613424874E+02 0.  0.
         13    1    3    3    0    0 -0.20114089418E+02 -0.37645805111E+02  0.26000397016E+02  0.49978145670E+02  0.10566000000E+00 0. -1.
         22    1    1    0    0    0 -0.12179264919E+02  0.68355468621E+01 -0.26976798728E+02  0.30377736329E+02  0.00000000000E+00 0. -1.
</event>
<event>
 5    1  0.1315753E-009  0.9118800E+02  0.7818608E-02  0.1130116E+00
         25   -1    0    0    0    0  0.00000000000E+00  0.00000000000E+00  0.99999998245E-14  0.12500000000E+03  0.12500000000E+03 0.  0.
        -13    1    3    3    0    0 -0.55104641870E+02 -0.17143638857E+02 -0.15585696529E+02  0.59777512571E+02  0.10566000000E+00 0.  1.
         23    2    1    0    0    0 -0.28464313691E+02  0.29606790988E+01 -0.13873553850E+02  0.93196568251E+02  0.87602180696E+02 0.  0.
         13    1    3    3    0    0  0.26640328179E+02  0.20104317955E+02  0.17121426793E+01  0.33419055680E+02  0.10566000000E+00 0. -1.
         22    1    1    0    0    0  0.28464313691E+02 -0.29606790988E+01  0.13873553850E+02  0.31803431749E+02  0.00000000000E+00 0. -1.
</event>
<event>
 5    1  0.1315753E-009  0.9118800E+02  0.7818608E-02  0.1130116E+00
         25   -1    0    0    0    0  0.00000000000E+00  0.00000000000E+00  0.99999998245E-14  0.12500000000E+03  0.12500000000E+03 0.  0.
        -13    1    3    3    0    0 -0.38508044675E+02 -0.11132633259E+02 -0.12928640662E+02  0.42118475060E+02  0.10566000000E+00 0.  1.
         23    2    1    0    0    0 -0.78155063341E+01  0.27057989660E+02  0.84797483605E+01  0.95587025381E+02  0.90949196506E+02 0.  0.
         13    1    3    3    0    0  0.30692538341E+02  0.38190622919E+02  0.21408389022E+02  0.53468550320E+02  0.10566000000E+00 0. -1.
         22    1    1    0    0    0  0.78155063341E+01 -0.27057989660E+02 -0.84797483605E+01  0.29412974619E+02  0.00000000000E+00 0. -1.
</event>
<event>
 5    1  0.1315753E-009  0.9118800E+02  0.7818608E-02  0.1130116E+00
         25   -1    0    0    0    0  0.00000000000E+00  0.00000000000E+00  0.99999998245E-14  0.12500000000E+03  0.12500000000E+03 0.  0.
        -13    1    3    3    0    0  0.33681157786E+02  0.13435381048E+02  0.12097626380E+02  0.38226869892E+02  0.10566000000E+00 0. -1.
         23    2    1    0    0    0 -0.22390922628E+02  0.15376334077E+00  0.18162064722E+02  0.96168807616E+02  0.91745309984E+02 0.  0.
         13    1    3    3    0    0 -0.56072080413E+02 -0.13281617707E+02  0.60644383420E+01  0.57941937724E+02  0.10566000000E+00 0.  1.
         22    1    1    0    0    0  0.22390922628E+02 -0.15376334077E+00 -0.18162064722E+02  0.28831192384E+02  0.00000000000E+00 0.  1.
</event>
<event>
 5    1  0.1315753E-009  0.9118800E+02  0.7818608E-02  0.1130116E+00
         25   -1    0    0    0    0  0.00000000000E+00  0.00000000000E+00  0.99999998245E-14  0.12500000000E+03  0.12500000000E+03 0.  0.
        -13    1    3    3    0    0  0.73760969942E+01  0.37290898650E+02 -0.46426506817E+02  0.60003746785E+02  0.10566000000E+00 0. -1.
         23    2    1    0    0    0  0.11193367806E+02  0.26962332793E+02 -0.17481634574E+02  0.90972563719E+02  0.84369075671E+02 0.  0.
         13    1    3    3    0    0  0.38172708122E+01 -0.10328565857E+02  0.28944872242E+02  0.30968816934E+02  0.10566000000E+00 0.  1.
         22    1    1    0    0    0 -0.11193367806E+02 -0.26962332793E+02  0.17481634574E+02  0.34027436281E+02  0.00000000000E+00 0. -1.
</event>
<event>
 5    1  0.1315753E-009  0.9118800E+02  0.7818608E-02  0.1130116E+00
         25   -1    0    0    0    0  0.00000000000E+00  0.00000000000E+00  0.99999998245E-14  0.12500000000E+03  0.12500000000E+03 0.  0.
        -13    1    3    3    0    0 -0.33972340573E+02  0.63719624326E+01  0.18743239123E+02  0.39319740667E+02  0.10566000000E+00 0.  1.
         23    2    1    0    0    0 -0.87701251843E+00 -0.59713594726E+01 -0.27124557129E+02  0.97212091040E+02  0.93155905664E+02 0.  0.
         13    1    3    3    0    0  0.33095328055E+02 -0.12343321905E+02 -0.45867796252E+02  0.57892350373E+02  0.10566000000E+00 0. -1.
         22    1    1    0    0    0  0.87701251843E+00  0.59713594726E+01  0.27124557129E+02  0.27787908960E+02  0.00000000000E+00 0. -1.
</event>
<event>
 5    1  0.1315753E-009  0.9118800E+02  0.7818608E-02  0.1130116E+00
         25   -1    0    0    0    0  0.00000000000E+00  0.00000000000E+00  0.99999998245E-14  0.12500000000E+03  0.12500000000E+03 0.  0.
        -13    1    3    3    0    0 -0.22647875542E+02 -0.11405787486E+02  0.35177388302E+02  0.43364479318E+02  0.10566000000E+00 0.  1.
         23    2    1    0    0    0 -0.34102824230E+02 -0.57225535739E+01 -0.89281230222E+01  0.89286394461E+02  0.81832747817E+02 0.  0.
         13    1    3    3    0    0 -0.11454948689E+02  0.56832339123E+01 -0.44105511324E+02  0.45921915143E+02  0.10566000000E+00 0. -1.
         22    1    1    0    0    0  0.34102824230E+02  0.57225535739E+01  0.89281230222E+01  0.35713605539E+02  0.00000000000E+00 0.  1.
</event>
<event>
 5    1  0.1315753E-009  0.9118800E+02  0.7818608E-02  0.1130116E+00
         25   -1    0    0    0    0  0.00000000000E+00  0.00000000000E+00  0.99999998245E-14  0.12500000000E+03  0.12500000000E+03 0.  0.
        -13    1    3    3    0    0  0.30199129321E+02  0.28584009441E+01  0.23591059306E+02  0.38427947004E+02  0.10566000000E+00 0. -1.
         23    2    1    0    0    0  0.10438668307E+02  0.14563025770E+02 -0.26199030611E+02  0.93259856325E+02  0.87692440274E+02 0.  0.
         13    1    3    3    0    0 -0.19760461014E+02  0.11704624826E+02 -0.49790089917E+02  0.54831909321E+02  0.10566000000E+00 0.  1.
         22    1    1    0    0    0 -0.10438668307E+02 -0.14563025770E+02  0.26199030611E+02  0.31740143675E+02  0.00000000000E+00 0.  1.
</event>
<event>
 5    1  0.1315753E-009  0.9118800E+02  0.7818608E-02  0.1130116E+00
         25   -1    0    0    0    0  0.00000000000E+00  0.00000000000E+00  0.99999998245E-14  0.12500000000E+03  0.12500000000E+03 0.  0.
        -13    1    3    3    0    0  0.29891808957E+02  0.45661513577E+02  0.16421005213E+00  0.54575930536E+02  0.10566000000E+00 0.  1.
         23    2    1    0    0    0 -0.67987389508E+01  0.25493379513E+02  0.85282184304E+01  0.97271571268E+02  0.93235684247E+02 0.  0.
         13    1    3    3    0    0 -0.36690547908E+02 -0.20168134064E+02  0.83640083783E+01  0.42695640732E+02  0.10566000000E+00 0. -1.
         22    1    1    0    0    0  0.67987389508E+01 -0.25493379513E+02 -0.85282184304E+01  0.27728428732E+02  0.00000000000E+00 0.  1.
</event>
<event>
 5    1  0.1315753E-009  0.9118800E+02  0.7818608E-02  0.1130116E+00
         25   -1    0    0    0    0  0.00000000000E+00  0.00000000000E+00  0.99999998245E-14  0.12500000000E+03  0.12500000000E+03 0.  0.
        -13    1    3    3    0    0  0.22925712452E+02 -0.10200643827E+01  0.50418830333E+02  0.55395834129E+02  0.10566000000E+00 0. -1.
         23    2    1    0    0    0  0.26366835238E+02  0.16086378375E+01  0.89220213969E+01  0.97118102971E+02  0.93029703551E+02 0.  0.
         13    1    3    3    0    0  0.34411227859E+01  0.26287022203E+01 -0.41496808936E+02  0.41722268841E+02  0.10566000000E+00 0.  1.
         22    1    1    0    0    0 -0.26366835238E+02 -0.16086378375E+01 -0.89220213969E+01  0.27881897029E+02  0.00000000000E+00 0. -1.
</event>
<event>
 5    1  0.1315753E-009  0.9118800E+02  0.7818608E-02  0.1130116E+00
         25   -1    0    0    0    0  0.00000000000E+00  0.00000000000E+00  0.99999998245E-14  0.12500000000E+03  0.12500000000E+03 0.  0.
        -13    1    3    3    0    0  0.19125011723E+01  0.17067297221E+02  0.39468693461E+02  0.43043457375E+02  0.10566000000E+00 0.  1.
         23    2    1    0    0    0  0.17734277471E+01  0.26124893034E+02 -0.12632978129E+02  0.95926864317E+02  0.91415075777E+02 0.  0.
         13    1    3    3    0    0 -0.13907342522E+00  0.90575958129E+01 -0.52101671590E+02  0.52883406943E+02  0.10566000000E+00 0. -1.
         22    1    1    0    0    0 -0.17734277471E+01 -0.26124893034E+02  0.12632978129E+02  0.29073135683E+02  0.00000000000E+00 0. -1.
</event>
<event>
 5    1  0.1315753E-009  0.9118800E+02  0.7818608E-02  0.1130116E+00
         25   -1    0    0    0    0  0.00000000000E+00  0.00000000000E+00  0.99999998245E-14  0.12500000000E+03  0.12500000000E+03 0.  0.
        -13    1    3    3    0    0 -0.29777936870E+02 -0.27284679797E+02 -0.26673388216E+02  0.48401033861E+02  0.10566000000E+00 0.  1.
         23    2    1    0    0    0 -0.28788735687E+02 -0.54019686917E+01  0.12397180359E+02  0.93193355268E+02  0.87597595955E+02 0.  0.
         13    1    3    3    0    0  0.98920118264E+00  0.21882711105E+02  0.39070568575E+02  0.44792321408E+02  0.10566000000E+00 0. -1.
         22    1    1    0    0    0  0.28788735687E+02  0.54019686917E+01 -0.12397180359E+02  0.31806644732E+02  0.00000000000E+00 0.  1.
</event>
<event>
 5    1  0.1315753E-009  0.9118800E+02  0.7818608E-02  0.1130116E+00
         25   -1    0    0    0    0  0.00000000000E+00  0.00000000000E+00  0.99999998245E-14  0.12500000000E+03  0.12500000000E+03 0.  0.
        -13    1    3    3    0    0  0.59700624523E+01  0.61335316214E+00  0.35893361648E+02  0.36391790588E+02  0.10566000000E+00 0. -1.
         23    2    1    0    0    0  0.21389345149E+02 -0.13455840177E+02 -0.17860039113E+02  0.94055780542E+02  0.88819733931E+02 0.  0.
         13    1    3    3    0    0  0.15419282696E+02 -0.14069193339E+02 -0.53753400761E+02  0.57663989954E+02  0.10566000000E+00 0.  1.
         22    1    1    0    0    0 -0.21389345149E+02  0.13455840177E+02  0.17860039113E+02  0.30944219458E+02  0.00000000000E+00 0.  1.
</event>
<event>
 5    1  0.1315753E-009  0.9118800E+02  0.7818608E-02  0.1130116E+00
         25   -1    0    0    0    0  0.00000000000E+00  0.00000000000E+00  0.99999998245E-14  0.12500000000E+03  0.12500000000E+03 0.  0.
        -13    1    3    3    0    0 -0.34864864599E+02  0.86503004166E+01  0.34169711189E+02  0.49577886275E+02  0.10566000000E+00 0.  1.
         23    2    1    0    0    0  0.73679028722E+01  0.18072800043E+02  0.24069080178E+02  0.94012378039E+02  0.88758630622E+02 0.  0.
         13    1    3    3    0    0  0.42232767471E+02  0.94224996268E+01 -0.10100631010E+02  0.44434491764E+02  0.10566000000E+00 0. -1.
         22    1    1    0    0    0 -0.73679028722E+01 -0.18072800043E+02 -0.24069080178E+02  0.30987621961E+02  0.00000000000E+00 0. -1.
</event>
<event>
 5    1  0.1315753E-009  0.9118800E+02  0.7818608E-02  0.1130116E+00
         25   -1    0    0    0    0  0.00000000000E+00  0.00000000000E+00  0.99999998245E-14  0.12500000000E+03  0.12500000000E+03 0.  0.
        -13    1    3    3    0    0 -0.26487477719E+01  0.32297182186E+02 -0.39815732744E+02  0.51336415729E+02  0.10566000000E+00 0. -1.
         23    2    1    0    0    0  0.16628081119E+02  0.25453660087E+02 -0.17552068616E+01  0.94545728630E+02  0.89506603988E+02 0.  0.
         13    1    3    3    0    0  0.19276828891E+02 -0.68435220987E+01  0.38060525883E+02  0.43209312900E+02  0.10566000000E+00 0.  1.
         22    1    1    0    0    0 -0.16628081119E+02 -0.25453660087E+02  0.17552068616E+01  0.30454271370E+02  0.00000000000E+00 0. -1.
</event>
<event>
 5    1  0.1315753E-009  0.9118800E+02  0.7818608E-02  0.1130116E+00
         25   -1    0    0    0    0  0.00000000000E+00  0.00000000000E+00  0.99999998245E-14  0.12500000000E+03  0.12500000000E+03 0.  0.
        -13    1    3    3    0    0  0.12859925757E+02  0.22260778154E+02 -0.31449999486E+02  0.40620605192E+02  0.10566000000E+00 0.  1.
         23    2    1    0    0    0  0.77778912422E+01  0.17469128578E+02  0.22756783410E+02  0.95275645732E+02  0.90520226652E+02 0.  0.
         13    1    3    3    0    0 -0.50820345148E+01 -0.47916495757E+01  0.54206782896E+02  0.54655040540E+02  0.10566000000E+00 0. -1.
         22    1    1    0    0    0 -0.77778912422E+01 -0.17469128578E+02 -0.22756783410E+02  0.29724354268E+02  0.00000000000E+00 0. -1.
</event>
<event>
 5    1  0.1315753E-009  0.9118800E+02  0.7818608E-02  0.1130116E+00
         25   -1    0    0    0    0  0.00000000000E+00  0.00000000000E+00  0.99999998245E-14  0.12500000000E+03  0.12500000000E+03 0.  0.
        -13    1    3    3    0    0 -0.78794312175E+01  0.22033607437E+01  0.41274216020E+02  0.42077456043E+02  0.10566000000E+00 0. -1.
         23    2    1    0    0    0  0.29446207521E+02  0.25147474602E+01  0.34042553064E+01  0.95251184118E+02  0.90486441137E+02 0.  0.
         13    1    3    3    0    0  0.37325638739E+02  0.31138671652E+00 -0.37869960714E+02  0.53173728076E+02  0.10566000000E+00 0.  1.
         22    1    1    0    0    0 -0.29446207521E+02 -0.25147474602E+01 -0.34042553064E+01  0.29748815882E+02  0.00000000000E+00 0.  1.
</event>
<event>
 5    1  0.1315753E-009  0.9118800E+02  0.7818608E-02  0.1130116E+00
         25   -1    0    0    0    0  0.00000000000E+00  0.00000000000E+00  0.99999998245E-14  0.12500000000E+03  0.12500000000E+03 0.  0.
        -13    1    3    3    0    0  0.28280810470E+02  0.25438735639E+02 -0.60218780713E+01  0.38512435541E+02  0.10566000000E+00 0. -1.
         23    2    1    0    0    0 -0.14532207357E+02 -0.90087627852E+01 -0.23285499840E+02  0.96111293549E+02  0.91666915446E+02 0.  0.
         13    1    3    3    0    0 -0.42813017827E+02 -0.34447498425E+02 -0.17263621769E+02  0.57598858008E+02  0.10566000000E+00 0.  1.
         22    1    1    0    0    0  0.14532207357E+02  0.90087627852E+01  0.23285499840E+02  0.28888706451E+02  0.00000000000E+00 0.  1.
</event>
<event>
 5    1  0.1315753E-009  0.9118800E+02  0.7818608E-02  0.1130116E+00
         25   -1    0    0    0    0  0.00000000000E+00  0.00000000000E+00  0.99999998245E-14  0.12500000000E+03  0.12500000000E+03 0.  0.
        -13    1    3    3    0    0 -0.14374080442E+02  0.42081276864E+02  0.40421145226E+02  0.60094327490E+02  0.10566000000E+00 0.  1.
         23    2    1    0    0    0 -0.15689868466E+02  0.12109225258E+02  0.22395061789E+02  0.95094413542E+02  0.90269614963E+02 0.  0.
         13    1    3    3    0    0 -0.13157880243E+01 -0.29972051606E+02 -0.18026083437E+02  0.35000086053E+02  0.10566000000E+00 0. -1.
         22    1    1    0    0    0  0.15689868466E+02 -0.12109225258E+02 -0.22395061789E+02  0.29905586458E+02  0.00000000000E+00 0.  1.
</event>
<event>
 5    1  0.1315753E-009  0.9118800E+02  0.7818608E-02  0.1130116E+00
         25   -1    0    0    0    0  0.00000000000E+00  0.00000000000E+00  0.99999998245E-14  0.12500000000E+03  0.12500000000E+03 0.  0.
        -13    1    3    3    0    0 -0.24371609175E+02  0.37856915106E+02 -0.42604661810E+02  0.61986205942E+02  0.10566000000E+00 0.  1.
         23    2    1    0    0    0 -0.10538730894E+02  0.21983355218E+02 -0.16326922509E+02  0.95658882876E+02  0.91047903430E+02 0.  0.
         13    1    3    3    0    0  0.13832878281E+02 -0.15873559888E+02  0.26277739302E+02  0.33672676934E+02  0.10566000000E+00 0. -1.
         22    1    1    0    0    0  0.10538730894E+02 -0.21983355218E+02  0.16326922509E+02  0.29341117124E+02  0.00000000000E+00 0.  1.
</event>
<event>
 5    1  0.1315753E-009  0.9118800E+02  0.7818608E-02  0.1130116E+00
         25   -1    0    0    0    0  0.00000000000E+00  0.00000000000E+00  0.99999998245E-14  0.12500000000E+03  0.12500000000E+03 0.  0.
        -13    1    3    3    0    0  0.32754405531E+02 -0.20499733394E+02  0.36426499130E+02  0.53103588897E+02  0.10566000000E+00 0. -1.
         23    2    1    0    0    0 -0.62649401562E+01 -0.42891692024E+01  0.27739500798E+02  0.96240195548E+02  0.91842522216E+02 0.  0.
         13    1    3    3    0    0 -0.39019345687E+02  0.16210564191E+02 -0.86869983315E+01  0.43136606650E+02  0.10566000000E+00 0.  1.
         22    1    1    0    0    0  0.62649401562E+01  0.42891692024E+01 -0.27739500798E+02  0.28759804452E+02  0.00000000000E+00 0. -1.
</event>
<event>
 5    1  0.1315753E-009  0.9118800E+02  0.7818608E-02  0.1130116E+00
         25   -1    0    0    0    0  0.00000000000E+00  0.00000000000E+00  0.99999998245E-14  0.12500000000E+03  0.12500000000E+03 0.  0.
        -13    1    3    3    0    0  0.24826156944E+02  0.23442729366E+02 -0.13941612680E+02  0.36881965198E+02  0.10566000000E+00 0. -1.
         23    2    1    0    0    0 -0.56173524593E+01 -0.26843011188E+02 -0.10043255708E+02  0.95794368977E+02  0.91233723174E+02 0.  0.
         13    1    3    3    0    0 -0.30443509404E+02 -0.50285740553E+02  0.38983569721E+01  0.58912403778E+02  0.10566000000E+00 0.  1.
         22    1    1    0    0    0  0.56173524593E+01  0.26843011188E+02  0.10043255708E+02  0.29205631023E+02  0.00000000000E+00 0.  1.
</event>
<event>
 5    1  0.1315753E-009  0.9118800E+02  0.7818608E-02  0.1130116E+00
         25   -1    0    0    0    0  0.00000000000E+00  0.00000000000E+00  0.99999998245E-14  0.12500000000E+03  0.12500000000E+03 0.  0.
        -13    1    3    3    0    0  0.19805538431E+01 -0.13190454252E+01 -0.45883431423E+02  0.45945216482E+02  0.10566000000E+00 0. -1.
         23    2    1    0    0    0  0.18540975534E+02 -0.25832916762E+02 -0.11784473018E+02  0.91088627771E+02  0.84540859605E+02 0.  0.
         13    1    3    3    0    0  0.16560421691E+02 -0.24513871337E+02  0.34098958405E+02  0.45143411289E+02  0.10566000000E+00 0.  1.
         22    1    1    0    0    0 -0.18540975534E+02  0.25832916762E+02  0.11784473018E+02  0.33911372229E+02  0.00000000000E+00 0. -1.
</event>
<event>
 5    1  0.1315753E-009  0.9118800E+02  0.7818608E-02  0.1130116E+00
         25   -1    0    0    0    0  0.00000000000E+00  0.00000000000E+00  0.99999998245E-14  0.12500000000E+03  0.12500000000E+03 0.  0.
        -13    1    3    3    0    0 -0.69428452840E+01  0.43284846145E+02 -0.76044732076E+01  0.44492922845E+02  0.10566000000E+00 0.  1.
         23    2    1    0    0    0  0.21281509699E+02  0.34410676881E+02  0.15128140111E+02  0.81804421966E+02  0.69470176994E+02 0.  0.
         13    1    3    3    0    0  0.28224354983E+02 -0.88741692647E+01  0.22732613319E+02  0.37311499121E+02  0.10566000000E+00 0. -1.
         22    1    1    0    0    0 -0.21281509699E+02 -0.34410676881E+02 -0.15128140111E+02  0.43195578034E+02  0.00000000000E+00 0. -1.
</event>
<event>
 5    1  0.1315753E-009  0.9118800E+02  0.7818608E-02  0.1130116E+00
         25   -1    0    0    0    0  0.00000000000E+00  0.00000000000E+00  0.99999998245E-14  0.12500000000E+03  0.12500000000E+03 0.  0.
        -13    1    3    3    0    0  0.13034733985E+02  0.68798840286E+01  0.43370932150E+02  0.45807052011E+02  0.10566000000E+00 0. -1.
         23    2    1    0    0    0 -0.11882526072E+02  0.26266530880E+02  0.46000914356E+01  0.95806063788E+02  0.91249744914E+02 0.  0.
         13    1    3    3    0    0 -0.24917260057E+02  0.19386646852E+02 -0.38770840715E+02  0.49999011777E+02  0.10566000000E+00 0.  1.
         22    1    1    0    0    0  0.11882526072E+02 -0.26266530880E+02 -0.46000914356E+01  0.29193936212E+02  0.00000000000E+00 0.  1.
</event>
<event>
 5    1  0.1315753E-009  0.9118800E+02  0.7818608E-02  0.1130116E+00
         25   -1    0    0    0    0  0.00000000000E+00  0.00000000000E+00  0.99999998245E-14  0.12500000000E+03  0.12500000000E+03 0.  0.
        -13    1    3    3    0    0  0.59350438011E+01  0.47251732435E+01 -0.43424581421E+02  0.44082393795E+02  0.10566000000E+00 0.  1.
         23    2    1    0    0    0  0.26059961209E+02  0.13074467143E+02  0.33201886901E+01  0.95655717385E+02  0.91043557411E+02 0.  0.
         13    1    3    3    0    0  0.20124917408E+02  0.83492938998E+01  0.46744770111E+02  0.51573323589E+02  0.10566000000E+00 0. -1.
         22    1    1    0    0    0 -0.26059961209E+02 -0.13074467143E+02 -0.33201886901E+01  0.29344282615E+02  0.00000000000E+00 0. -1.
</event>
<event>
 5    1  0.1315753E-009  0.9118800E+02  0.7818608E-02  0.1130116E+00
         25   -1    0    0    0    0  0.00000000000E+00  0.00000000000E+00  0.99999998245E-14  0.12500000000E+03  0.12500000000E+03 0.  0.
        -13    1    3    3    0    0  0.65679900553E+01  0.54406496154E+02  0.71356486763E+01  0.55264219557E+02  0.10566000000E+00 0.  1.
         23    2    1    0    0    0  0.16563576188E+02  0.19166421756E+02  0.18516901491E+02  0.93621991460E+02  0.88207130466E+02 0.  0.
         13    1    3    3    0    0  0.99955861331E+01 -0.35240074398E+02  0.11381252815E+02  0.38357771903E+02  0.10566000000E+00 0. -1.
         22    1    1    0    0    0 -0.16563576188E+02 -0.19166421756E+02 -0.18516901491E+02  0.31378008540E+02  0.00000000000E+00 0.  1.
</event>
<event>
 5    1  0.1315753E-009  0.9118800E+02  0.7818608E-02  0.1130116E+00
         25   -1    0    0    0    0  0.00000000000E+00  0.00000000000E+00  0.99999998245E-14  0.12500000000E+03  0.12500000000E+03 0.  0.
        -13    1    3    3    0    0  0.58863883792E+01  0.12622912533E+02  0.28503928285E+02  0.31724952020E+02  0.10566000000E+00 0.  1.
         23    2    1    0    0    0  0.30163952591E+01 -0.60495907769E+01 -0.30541632502E+02  0.93719215086E+02  0.88344800478E+02 0.  0.
         13    1    3    3    0    0 -0.28699931200E+01 -0.18672503310E+02 -0.59045560787E+02  0.61994263066E+02  0.10566000000E+00 0. -1.
         22    1    1    0    0    0 -0.30163952591E+01  0.60495907769E+01  0.30541632502E+02  0.31280784914E+02  0.00000000000E+00 0. -1.
</event>
<event>
 5    1  0.1315753E-009  0.9118800E+02  0.7818608E-02  0.1130116E+00
         25   -1    0    0    0    0  0.00000000000E+00  0.00000000000E+00  0.99999998245E-14  0.12500000000E+03  0.12500000000E+03 0.  0.
        -13    1    3    3    0    0 -0.30006861309E+02  0.34176954664E-01  0.17753285018E+02  0.34865501383E+02  0.10566000000E+00 0.  1.
         23    2    1    0    0    0  0.16174721239E+02  0.12838651842E+02 -0.20286754714E+02  0.96051683898E+02  0.91585593706E+02 0.  0.
         13    1    3    3    0    0  0.46181582549E+02  0.12804474888E+02 -0.38040039733E+02  0.61186182515E+02  0.10566000000E+00 0. -1.
         22    1    1    0    0    0 -0.16174721239E+02 -0.12838651842E+02  0.20286754714E+02  0.28948316102E+02  0.00000000000E+00 0. -1.
</event>
<event>
 5    1  0.1315753E-009  0.9118800E+02  0.7818608E-02  0.1130116E+00
         25   -1    0    0    0    0  0.00000000000E+00  0.00000000000E+00  0.99999998245E-14  0.12500000000E+03  0.12500000000E+03 0.  0.
        -13    1    3    3    0    0 -0.19356412979E+02  0.29641364544E+02  0.30618950909E+01  0.35534034122E+02  0.10566000000E+00 0.  1.
         23    2    1    0    0    0  0.18130976276E+02 -0.12402734197E+02 -0.18927281889E+02  0.96003411995E+02  0.91519686399E+02 0.  0.
         13    1    3    3    0    0  0.37487389254E+02 -0.42044098740E+02 -0.21989176979E+02  0.60469377872E+02  0.10566000000E+00 0. -1.
         22    1    1    0    0    0 -0.18130976276E+02  0.12402734197E+02  0.18927281889E+02  0.28996588005E+02  0.00000000000E+00 0. -1.
</event>
<event>
 5    1  0.1315753E-009  0.9118800E+02  0.7818608E-02  0.1130116E+00
         25   -1    0    0    0    0  0.00000000000E+00  0.00000000000E+00  0.99999998245E-14  0.12500000000E+03  0.12500000000E+03 0.  0.
        -13    1    3    3    0    0  0.22000813638E+02  0.27186994473E+02 -0.43116632875E+01  0.35238758116E+02  0.10566000000E+00 0.  1.
         23    2    1    0    0    0 -0.93948480339E+01 -0.15521896689E+02 -0.26649632224E+02  0.92760345162E+02  0.86977504509E+02 0.  0.
         13    1    3    3    0    0 -0.31395661672E+02 -0.42708891162E+02 -0.22337968936E+02  0.57521587046E+02  0.10566000000E+00 0. -1.
         22    1    1    0    0    0  0.93948480339E+01  0.15521896689E+02  0.26649632224E+02  0.32239654838E+02  0.00000000000E+00 0. -1.
</event>
<event>
 5    1  0.1315753E-009  0.9118800E+02  0.7818608E-02  0.1130116E+00
         25   -1    0    0    0    0  0.00000000000E+00  0.00000000000E+00  0.99999998245E-14  0.12500000000E+03  0.12500000000E+03 0.  0.
        -13    1    3    3    0    0 -0.40182148730E+02  0.45389703567E+02 -0.46108052829E+01  0.60795566909E+02  0.10566000000E+00 0. -1.
         23    2    1    0    0    0 -0.12393430808E+02  0.24875334096E+02  0.52509983452E+01  0.96716570978E+02  0.92488608729E+02 0.  0.
         13    1    3    3    0    0  0.27788717922E+02 -0.20514369471E+02  0.98618036281E+01  0.35921004069E+02  0.10566000000E+00 0.  1.
         22    1    1    0    0    0  0.12393430808E+02 -0.24875334096E+02 -0.52509983452E+01  0.28283429022E+02  0.00000000000E+00 0. -1.
</event>
<event>
 5    1  0.1315753E-009  0.9118800E+02  0.7818608E-02  0.1130116E+00
         25   -1    0    0    0    0  0.00000000000E+00  0.00000000000E+00  0.99999998245E-14  0.12500000000E+03  0.12500000000E+03 0.  0.
        -13    1    3    3    0    0 -0.15093244392E+02 -0.31230961729E+02 -0.48184460925E+02  0.59371141436E+02  0.10566000000E+00 0.  1.
         23    2    1    0    0    0 -0.16088980440E+02 -0.31386516771E+01 -0.16185154388E+02  0.10196381871E+03  0.99327512186E+02 0.  0.
         13    1    3    3    0    0 -0.99573604822E+00  0.28092310052E+02  0.31999306536E+02  0.42592677272E+02  0.10566000000E+00 0. -1.
         22    1    1    0    0    0  0.16088980440E+02  0.31386516771E+01  0.16185154388E+02  0.23036181292E+02  0.00000000000E+00 0.  1.
</event>
<event>
 5    1  0.1315753E-009  0.9118800E+02  0.7818608E-02  0.1130116E+00
         25   -1    0    0    0    0  0.00000000000E+00  0.00000000000E+00  0.99999998245E-14  0.12500000000E+03  0.12500000000E+03 0.  0.
        -13    1    3    3    0    0  0.13886588210E+02 -0.28219705263E+02  0.28258300849E+02  0.42281577881E+02  0.10566000000E+00 0.  1.
         23    2    1    0    0    0  0.28278892027E+00  0.21973141578E+02  0.20661185908E+02  0.94837382019E+02  0.89912988520E+02 0.  0.
         13    1    3    3    0    0 -0.13603799290E+02  0.50192846840E+02 -0.75971149411E+01  0.52555804137E+02  0.10566000000E+00 0. -1.
         22    1    1    0    0    0 -0.28278892027E+00 -0.21973141578E+02 -0.20661185908E+02  0.30162617981E+02  0.00000000000E+00 0. -1.
</event>
<event>
 5    1  0.1315753E-009  0.9118800E+02  0.7818608E-02  0.1130116E+00
         25   -1    0    0    0    0  0.00000000000E+00  0.00000000000E+00  0.99999998245E-14  0.12500000000E+03  0.12500000000E+03 0.  0.
        -13    1    3    3    0    0 -0.32752822258E+02 -0.14405062711E+01 -0.36515545688E+02  0.49073604566E+02  0.10566000000E+00 0.  1.
         23    2    1    0    0    0 -0.16315406649E+02 -0.24247664214E+02  0.76259022187E+00  0.95764349541E+02  0.91192584047E+02 0.  0.
         13    1    3    3    0    0  0.16437415609E+02 -0.22807157942E+02  0.37278135910E+02  0.46690744974E+02  0.10566000000E+00 0. -1.
         22    1    1    0    0    0  0.16315406649E+02  0.24247664214E+02 -0.76259022187E+00  0.29235650459E+02  0.00000000000E+00 0. -1.
</event>
<event>
 5    1  0.1315753E-009  0.9118800E+02  0.7818608E-02  0.1130116E+00
         25   -1    0    0    0    0  0.00000000000E+00  0.00000000000E+00  0.99999998245E-14  0.12500000000E+03  0.12500000000E+03 0.  0.
        -13    1    3    3    0    0  0.41584987538E+02  0.14560593373E+01 -0.15102731859E+02  0.44266634963E+02  0.10566000000E+00 0. -1.
         23    2    1    0    0    0  0.10753449283E+01 -0.28306887796E+02 -0.10670236771E+02  0.94729713973E+02  0.89763180053E+02 0.  0.
         13    1    3    3    0    0 -0.40509642610E+02 -0.29762947133E+02  0.44324950875E+01  0.50463079010E+02  0.10566000000E+00 0.  1.
         22    1    1    0    0    0 -0.10753449283E+01  0.28306887796E+02  0.10670236771E+02  0.30270286027E+02  0.00000000000E+00 0.  1.
</event>
<event>
 5    1  0.1315753E-009  0.9118800E+02  0.7818608E-02  0.1130116E+00
         25   -1    0    0    0    0  0.00000000000E+00  0.00000000000E+00  0.99999998245E-14  0.12500000000E+03  0.12500000000E+03 0.  0.
        -13    1    3    3    0    0 -0.19706455759E+02  0.10438344134E+02  0.37294503672E+02  0.43453361147E+02  0.10566000000E+00 0.  1.
         23    2    1    0    0    0  0.13971788324E+02 -0.21765563873E+02  0.14871745304E+02  0.95165130333E+02  0.90367486316E+02 0.  0.
         13    1    3    3    0    0  0.33678244083E+02 -0.32203908007E+02 -0.22422758368E+02  0.51711769185E+02  0.10566000000E+00 0. -1.
         22    1    1    0    0    0 -0.13971788324E+02  0.21765563873E+02 -0.14871745304E+02  0.29834869667E+02  0.00000000000E+00 0. -1.
</event>
<event>
 5    1  0.1315753E-009  0.9118800E+02  0.7818608E-02  0.1130116E+00
         25   -1    0    0    0    0  0.00000000000E+00  0.00000000000E+00  0.99999998245E-14  0.12500000000E+03  0.12500000000E+03 0.  0.
        -13    1    3    3    0    0  0.95416202383E+01  0.34438762877E+02  0.10475544839E+02  0.37240020261E+02  0.10566000000E+00 0.  1.
         23    2    1    0    0    0 -0.24387791437E+02 -0.13445080923E+02  0.81960041489E+01  0.95970548468E+02  0.91474789517E+02 0.  0.
         13    1    3    3    0    0 -0.33929411676E+02 -0.47883843801E+02 -0.22795406901E+01  0.58730528208E+02  0.10566000000E+00 0. -1.
         22    1    1    0    0    0  0.24387791437E+02  0.13445080923E+02 -0.81960041489E+01  0.29029451532E+02  0.00000000000E+00 0. -1.
</event>
<event>
 5    1  0.1315753E-009  0.9118800E+02  0.7818608E-02  0.1130116E+00
         25   -1    0    0    0    0  0.00000000000E+00  0.00000000000E+00  0.99999998245E-14  0.12500000000E+03  0.12500000000E+03 0.  0.
        -13    1    3    3    0    0  0.14853997023E+00 -0.40647574644E+02 -0.23796188187E+01  0.40717577756E+02  0.10566000000E+00 0. -1.
         23    2    1    0    0    0 -0.48242828244E+01  0.58695146628E+01  0.27661019673E+02  0.96314517322E+02  0.91943620390E+02 0.  0.
         13    1    3    3    0    0 -0.49728227946E+01  0.46517089307E+02  0.30040638491E+02  0.55596939566E+02  0.10566000000E+00 0.  1.
         22    1    1    0    0    0  0.48242828244E+01 -0.58695146628E+01 -0.27661019673E+02  0.28685482678E+02  0.00000000000E+00 0.  1.
</event>
<event>
 5    1  0.1315753E-009  0.9118800E+02  0.7818608E-02  0.1130116E+00
         25   -1    0    0    0    0  0.00000000000E+00  0.00000000000E+00  0.99999998245E-14  0.12500000000E+03  0.12500000000E+03 0.  0.
        -13    1    3    3    0    0  0.30516288201E+02  0.11230661393E+02 -0.17384787038E+02  0.36872938387E+02  0.10566000000E+00 0. -1.
         23    2    1    0    0    0 -0.25124670201E+02  0.14888854152E+02  0.15305100378E+01  0.95755009119E+02  0.91179779994E+02 0.  0.
         13    1    3    3    0    0 -0.55640958402E+02  0.36581927587E+01  0.18915297076E+02  0.58882070732E+02  0.10566000000E+00 0.  1.
         22    1    1    0    0    0  0.25124670201E+02 -0.14888854152E+02 -0.15305100378E+01  0.29244990881E+02  0.00000000000E+00 0.  1.
</event>
<event>
 5    1  0.1315753E-009  0.9118800E+02  0.7818608E-02  0.1130116E+00
         25   -1    0    0    0    0  0.00000000000E+00  0.00000000000E+00  0.99999998245E-14  0.12500000000E+03  0.12500000000E+03 0.  0.
        -13    1    3    3    0    0  0.37810620381E+01 -0.36683067410E+02 -0.15684805076E+02  0.40074532300E+02  0.10566000000E+00 0.  1.
         23    2    1    0    0    0  0.20052795451E+00  0.18573169661E+02 -0.22454265814E+02  0.95859016901E+02  0.91322254820E+02 0.  0.
         13    1    3    3    0    0 -0.35805340836E+01  0.55256237071E+02 -0.67694607377E+01  0.55784484602E+02  0.10566000000E+00 0. -1.
         22    1    1    0    0    0 -0.20052795451E+00 -0.18573169661E+02  0.22454265814E+02  0.29140983099E+02  0.00000000000E+00 0. -1.
</event>
<event>
 5    1  0.1315753E-009  0.9118800E+02  0.7818608E-02  0.1130116E+00
         25   -1    0    0    0    0  0.00000000000E+00  0.00000000000E+00  0.99999998245E-14  0.12500000000E+03  0.12500000000E+03 0.  0.
        -13    1    3    3    0    0 -0.47631952720E+02  0.82898682392E+01  0.28020027219E+02  0.55880747353E+02  0.10566000000E+00 0.  1.
         23    2    1    0    0    0 -0.84211863655E+01  0.12639929087E+02  0.25382587953E+02  0.95420277920E+02  0.90719730379E+02 0.  0.
         13    1    3    3    0    0  0.39210766355E+02  0.43500608477E+01 -0.26374392660E+01  0.39539530567E+02  0.10566000000E+00 0. -1.
         22    1    1    0    0    0  0.84211863655E+01 -0.12639929087E+02 -0.25382587953E+02  0.29579722080E+02  0.00000000000E+00 0.  1.
</event>
<event>
 5    1  0.1315753E-009  0.9118800E+02  0.7818608E-02  0.1130116E+00
         25   -1    0    0    0    0  0.00000000000E+00  0.00000000000E+00  0.99999998245E-14  0.12500000000E+03  0.12500000000E+03 0.  0.
        -13    1    3    3    0    0 -0.24843755485E+02  0.23366532658E+02 -0.30640332826E+02  0.45848099140E+02  0.10566000000E+00 0. -1.
         23    2    1    0    0    0  0.97482444963E+00  0.27964199695E+02  0.10897349922E+02  0.94971696974E+02  0.90099524103E+02 0.  0.
         13    1    3    3    0    0  0.25818579935E+02  0.45976670370E+01  0.41537682748E+02  0.49123597834E+02  0.10566000000E+00 0.  1.
         22    1    1    0    0    0 -0.97482444963E+00 -0.27964199695E+02 -0.10897349922E+02  0.30028303026E+02  0.00000000000E+00 0. -1.
</event>
<event>
 5    1  0.1315753E-009  0.9118800E+02  0.7818608E-02  0.1130116E+00
         25   -1    0    0    0    0  0.00000000000E+00  0.00000000000E+00  0.99999998245E-14  0.12500000000E+03  0.12500000000E+03 0.  0.
        -13    1    3    3    0    0  0.57269076001E+01 -0.64029104565E+01 -0.39827562667E+02  0.40743596368E+02  0.10566000000E+00 0. -1.
         23    2    1    0    0    0 -0.24426822566E+02 -0.10206411348E+02  0.79409920164E+01  0.97361261832E+02  0.93355853904E+02 0.  0.
         13    1    3    3    0    0 -0.30153730167E+02 -0.38035008912E+01  0.47768554684E+02  0.56617665464E+02  0.10566000000E+00 0.  1.
         22    1    1    0    0    0  0.24426822566E+02  0.10206411348E+02 -0.79409920164E+01  0.27638738168E+02  0.00000000000E+00 0.  1.
</event>
<event>
 5    1  0.1315753E-009  0.9118800E+02  0.7818608E-02  0.1130116E+00
         25   -1    0    0    0    0  0.00000000000E+00  0.00000000000E+00  0.99999998245E-14  0.12500000000E+03  0.12500000000E+03 0.  0.
        -13    1    3    3    0    0 -0.32708649235E+02  0.42891121548E+02 -0.20535760391E+02  0.57716831698E+02  0.10566000000E+00 0. -1.
         23    2    1    0    0    0 -0.18599742440E+01  0.26942212546E+02 -0.18015936574E+02  0.92535923058E+02  0.86654375335E+02 0.  0.
         13    1    3    3    0    0  0.30848674991E+02 -0.15948909002E+02  0.25198238176E+01  0.34819091360E+02  0.10566000000E+00 0.  1.
         22    1    1    0    0    0  0.18599742440E+01 -0.26942212546E+02  0.18015936574E+02  0.32464076942E+02  0.00000000000E+00 0. -1.
</event>
<event>
 5    1  0.1315753E-009  0.9118800E+02  0.7818608E-02  0.1130116E+00
         25   -1    0    0    0    0  0.00000000000E+00  0.00000000000E+00  0.99999998245E-14  0.12500000000E+03  0.12500000000E+03 0.  0.
        -13    1    3    3    0    0  0.11694331022E+02 -0.36040085868E+02 -0.24589807246E+01  0.37969763202E+02  0.10566000000E+00 0. -1.
         23    2    1    0    0    0  0.15011188625E+02  0.17231482946E+02 -0.20488392148E+02  0.94307427588E+02  0.89173184855E+02 0.  0.
         13    1    3    3    0    0  0.33168576033E+01  0.53271568813E+02 -0.18029411423E+02  0.56337664386E+02  0.10566000000E+00 0.  1.
         22    1    1    0    0    0 -0.15011188625E+02 -0.17231482946E+02  0.20488392148E+02  0.30692572412E+02  0.00000000000E+00 0.  1.
</event>
<event>
 5    1  0.1315753E-009  0.9118800E+02  0.7818608E-02  0.1130116E+00
         25   -1    0    0    0    0  0.00000000000E+00  0.00000000000E+00  0.99999998245E-14  0.12500000000E+03  0.12500000000E+03 0.  0.
        -13    1    3    3    0    0  0.13280558947E+02 -0.19064240858E+02  0.55855587700E+02  0.60495259044E+02  0.10566000000E+00 0. -1.
         23    2    1    0    0    0  0.14159008486E+02 -0.13254498247E+02  0.18886140920E+02  0.97928879522E+02  0.94112804020E+02 0.  0.
         13    1    3    3    0    0  0.87844953852E+00  0.58097426114E+01 -0.36969446780E+02  0.37433620478E+02  0.10566000000E+00 0.  1.
         22    1    1    0    0    0 -0.14159008486E+02  0.13254498247E+02 -0.18886140920E+02  0.27071120478E+02  0.00000000000E+00 0. -1.
</event>
<event>
 5    1  0.1315753E-009  0.9118800E+02  0.7818608E-02  0.1130116E+00
         25   -1    0    0    0    0  0.00000000000E+00  0.00000000000E+00  0.99999998245E-14  0.12500000000E+03  0.12500000000E+03 0.  0.
        -13    1    3    3    0    0 -0.42715183928E+02 -0.82295027681E+01  0.13210097090E+02  0.45462396362E+02  0.10566000000E+00 0.  1.
         23    2    1    0    0    0 -0.14199726980E+02  0.16719302386E+02 -0.19600321759E+02  0.95583339217E+02  0.90944130125E+02 0.  0.
         13    1    3    3    0    0  0.28515456948E+02  0.24948805154E+02 -0.32810418848E+02  0.50120942855E+02  0.10566000000E+00 0. -1.
         22    1    1    0    0    0  0.14199726980E+02 -0.16719302386E+02  0.19600321759E+02  0.29416660783E+02  0.00000000000E+00 0. -1.
</event>
<event>
 5    1  0.1315753E-009  0.9118800E+02  0.7818608E-02  0.1130116E+00
         25   -1    0    0    0    0  0.00000000000E+00  0.00000000000E+00  0.99999998245E-14  0.12500000000E+03  0.12500000000E+03 0.  0.
        -13    1    3    3    0    0  0.22059090142E+02  0.45721297002E+02  0.28351147312E+01  0.50843775401E+02  0.10566000000E+00 0. -1.
         23    2    1    0    0    0  0.33381092676E+02  0.76567319927E+01  0.35948599790E+01  0.90563886524E+02  0.83761397021E+02 0.  0.
         13    1    3    3    0    0  0.11322002534E+02 -0.38064565009E+02  0.75974524778E+00  0.39720111123E+02  0.10566000000E+00 0.  1.
         22    1    1    0    0    0 -0.33381092676E+02 -0.76567319927E+01 -0.35948599790E+01  0.34436113476E+02  0.00000000000E+00 0. -1.
</event>
<event>
 5    1  0.1315753E-009  0.9118800E+02  0.7818608E-02  0.1130116E+00
         25   -1    0    0    0    0  0.00000000000E+00  0.00000000000E+00  0.99999998245E-14  0.12500000000E+03  0.12500000000E+03 0.  0.
        -13    1    3    3    0    0 -0.13154136471E+02 -0.55821553528E+02  0.45646347188E+00  0.57352390251E+02  0.10566000000E+00 0. -1.
         23    2    1    0    0    0 -0.11086123034E+02 -0.20593857884E+02  0.16761578804E+02  0.96225712338E+02  0.91822808084E+02 0.  0.
         13    1    3    3    0    0  0.20680134378E+01  0.35227695644E+02  0.16305115332E+02  0.38873322086E+02  0.10566000000E+00 0.  1.
         22    1    1    0    0    0  0.11086123034E+02  0.20593857884E+02 -0.16761578804E+02  0.28774287662E+02  0.00000000000E+00 0. -1.
</event>
<event>
 5    1  0.1315753E-009  0.9118800E+02  0.7818608E-02  0.1130116E+00
         25   -1    0    0    0    0  0.00000000000E+00  0.00000000000E+00  0.99999998245E-14  0.12500000000E+03  0.12500000000E+03 0.  0.
        -13    1    3    3    0    0 -0.31285334552E+02  0.36845987938E+02 -0.80680703433E+01  0.49005141651E+02  0.10566000000E+00 0.  1.
         23    2    1    0    0    0 -0.27342478474E+02 -0.47220501224E+01  0.11308589148E+02  0.95036804660E+02  0.90189806326E+02 0.  0.
         13    1    3    3    0    0  0.39428560782E+01 -0.41568038061E+02  0.19376659492E+02  0.46031663009E+02  0.10566000000E+00 0. -1.
         22    1    1    0    0    0  0.27342478474E+02  0.47220501224E+01 -0.11308589148E+02  0.29963195340E+02  0.00000000000E+00 0.  1.
</event>
<event>
 5    1  0.1315753E-009  0.9118800E+02  0.7818608E-02  0.1130116E+00
         25   -1    0    0    0    0  0.00000000000E+00  0.00000000000E+00  0.99999998245E-14  0.12500000000E+03  0.12500000000E+03 0.  0.
        -13    1    3    3    0    0  0.21556696965E+02  0.34458120539E+02 -0.76265250988E+01  0.41354906653E+02  0.10566000000E+00 0.  1.
         23    2    1    0    0    0 -0.76250532792E+01 -0.10946544646E+02 -0.23814075911E+02  0.97703874108E+02  0.93813477321E+02 0.  0.
         13    1    3    3    0    0 -0.29181750244E+02 -0.45404665185E+02 -0.16187550813E+02  0.56348967455E+02  0.10566000000E+00 0. -1.
         22    1    1    0    0    0  0.76250532792E+01  0.10946544646E+02  0.23814075911E+02  0.27296125892E+02  0.00000000000E+00 0. -1.
</event>
<event>
 5    1  0.1315753E-009  0.9118800E+02  0.7818608E-02  0.1130116E+00
         25   -1    0    0    0    0  0.00000000000E+00  0.00000000000E+00  0.99999998245E-14  0.12500000000E+03  0.12500000000E+03 0.  0.
        -13    1    3    3    0    0 -0.18105577827E+02 -0.48815238351E+02 -0.29051772660E+01  0.52145859497E+02  0.10566000000E+00 0.  1.
         23    2    1    0    0    0 -0.22192216375E+00 -0.14822286767E+02 -0.24614208506E+02  0.96266592704E+02  0.91878442390E+02 0.  0.
         13    1    3    3    0    0  0.17883655663E+02  0.33992951584E+02 -0.21709031240E+02  0.44120733207E+02  0.10566000000E+00 0. -1.
         22    1    1    0    0    0  0.22192216375E+00  0.14822286767E+02  0.24614208506E+02  0.28733407296E+02  0.00000000000E+00 0. -1.
</event>
<event>
 5    1  0.1315753E-009  0.9118800E+02  0.7818608E-02  0.1130116E+00
         25   -1    0    0    0    0  0.00000000000E+00  0.00000000000E+00  0.99999998245E-14  0.12500000000E+03  0.12500000000E+03 0.  0.
        -13    1    3    3    0    0  0.31308525891E+02  0.12261019369E+02  0.19520909382E+02  0.38879730665E+02  0.10566000000E+00 0.  1.
         23    2    1    0    0    0 -0.21935128036E+02  0.17998587001E+02 -0.19117297879E+01  0.96561404979E+02  0.92278660831E+02 0.  0.
         13    1    3    3    0    0 -0.53243653927E+02  0.57375676317E+01 -0.21432639170E+02  0.57681674314E+02  0.10566000000E+00 0. -1.
         22    1    1    0    0    0  0.21935128036E+02 -0.17998587001E+02  0.19117297879E+01  0.28438595021E+02  0.00000000000E+00 0.  1.
</event>
<event>
 5    1  0.1315753E-009  0.9118800E+02  0.7818608E-02  0.1130116E+00
         25   -1    0    0    0    0  0.00000000000E+00  0.00000000000E+00  0.99999998245E-14  0.12500000000E+03  0.12500000000E+03 0.  0.
        -13    1    3    3    0    0  0.40864786508E+02  0.16416728052E+01 -0.11358909676E+02  0.42445987549E+02  0.10566000000E+00 0.  1.
         23    2    1    0    0    0  0.22146831953E+01  0.26779875792E+02  0.13609605611E+02  0.94878779341E+02  0.89970522035E+02 0.  0.
         13    1    3    3    0    0 -0.38650103312E+02  0.25138202987E+02  0.24968515287E+02  0.52432791792E+02  0.10566000000E+00 0. -1.
         22    1    1    0    0    0 -0.22146831953E+01 -0.26779875792E+02 -0.13609605611E+02  0.30121220659E+02  0.00000000000E+00 0. -1.
</event>
<event>
 5    1  0.1315753E-009  0.9118800E+02  0.7818608E-02  0.1130116E+00
         25   -1    0    0    0    0  0.00000000000E+00  0.00000000000E+00  0.99999998245E-14  0.12500000000E+03  0.12500000000E+03 0.  0.
        -13    1    3    3    0    0  0.16796886019E+02  0.23005449671E+01 -0.29697050432E+02  0.34195816345E+02  0.10566000000E+00 0.  1.
         23    2    1    0    0    0 -0.31266506948E+02 -0.11687980501E+02 -0.16405420883E+01  0.91580025086E+02  0.85264331765E+02 0.  0.
         13    1    3    3    0    0 -0.48063392967E+02 -0.13988525468E+02  0.28056508344E+02  0.57384208741E+02  0.10566000000E+00 0. -1.
         22    1    1    0    0    0  0.31266506948E+02  0.11687980501E+02  0.16405420883E+01  0.33419974914E+02  0.00000000000E+00 0. -1.
</event>
<event>
 5    1  0.1315753E-009  0.9118800E+02  0.7818608E-02  0.1130116E+00
         25   -1    0    0    0    0  0.00000000000E+00  0.00000000000E+00  0.99999998245E-14  0.12500000000E+03  0.12500000000E+03 0.  0.
        -13    1    3    3    0    0 -0.18441095735E+02 -0.11242137459E+02  0.38403171301E+02  0.44059895557E+02  0.10566000000E+00 0. -1.
         23    2    1    0    0    0 -0.26013195159E+02 -0.17198434824E+02 -0.90877970268E+01  0.92518304577E+02  0.86628956730E+02 0.  0.
         13    1    3    3    0    0 -0.75720994246E+01 -0.59562973647E+01 -0.47490968327E+02  0.48458409019E+02  0.10566000000E+00 0.  1.
         22    1    1    0    0    0  0.26013195159E+02  0.17198434824E+02  0.90877970268E+01  0.32481695423E+02  0.00000000000E+00 0.  1.
</event>
<event>
 5    1  0.1315753E-009  0.9118800E+02  0.7818608E-02  0.1130116E+00
         25   -1    0    0    0    0  0.00000000000E+00  0.00000000000E+00  0.99999998245E-14  0.12500000000E+03  0.12500000000E+03 0.  0.
        -13    1    3    3    0    0 -0.15336334180E+01  0.57122217737E+02 -0.22500279621E+02  0.61413138152E+02  0.10566000000E+00 0. -1.
         23    2    1    0    0    0  0.62170052476E+01  0.21224745697E+02 -0.12995627211E+02  0.99347956987E+02  0.95979108387E+02 0.  0.
         13    1    3    3    0    0  0.77506386656E+01 -0.35897472040E+02  0.95046524095E+01  0.37934818835E+02  0.10566000000E+00 0.  1.
         22    1    1    0    0    0 -0.62170052476E+01 -0.21224745697E+02  0.12995627211E+02  0.25652043013E+02  0.00000000000E+00 0. -1.
</event>
<event>
 5    1  0.1315753E-009  0.9118800E+02  0.7818608E-02  0.1130116E+00
         25   -1    0    0    0    0  0.00000000000E+00  0.00000000000E+00  0.99999998245E-14  0.12500000000E+03  0.12500000000E+03 0.  0.
        -13    1    3    3    0    0 -0.33830737731E+01 -0.38477059076E+02  0.11983503156E+02  0.40441869086E+02  0.10566000000E+00 0.  1.
         23    2    1    0    0    0 -0.20662627372E+02  0.13102547560E+02  0.17205802418E+02  0.95089123060E+02  0.90262288720E+02 0.  0.
         13    1    3    3    0    0 -0.17279553599E+02  0.51579606635E+02  0.52222992616E+01  0.54647253974E+02  0.10566000000E+00 0. -1.
         22    1    1    0    0    0  0.20662627372E+02 -0.13102547560E+02 -0.17205802418E+02  0.29910876940E+02  0.00000000000E+00 0. -1.
</event>
<event>
 5    1  0.1315753E-009  0.9118800E+02  0.7818608E-02  0.1130116E+00
         25   -1    0    0    0    0  0.00000000000E+00  0.00000000000E+00  0.99999998245E-14  0.12500000000E+03  0.12500000000E+03 0.  0.
        -13    1    3    3    0    0  0.22107954761E+02  0.19837416946E+02 -0.20193656421E+02  0.35917679470E+02  0.10566000000E+00 0.  1.
         23    2    1    0    0    0 -0.29783451985E+01 -0.16778499073E+02  0.22009644417E+02  0.97164536673E+02  0.93092073606E+02 0.  0.
         13    1    3    3    0    0 -0.25086299959E+02 -0.36615916019E+02  0.42203300838E+02  0.61246857203E+02  0.10566000000E+00 0. -1.
         22    1    1    0    0    0  0.29783451985E+01  0.16778499073E+02 -0.22009644417E+02  0.27835463327E+02  0.00000000000E+00 0. -1.
</event>
<event>
 5    1  0.1315753E-009  0.9118800E+02  0.7818608E-02  0.1130116E+00
         25   -1    0    0    0    0  0.00000000000E+00  0.00000000000E+00  0.99999998245E-14  0.12500000000E+03  0.12500000000E+03 0.  0.
        -13    1    3    3    0    0 -0.28615023718E+02  0.62246339305E+01  0.31257406044E+02  0.42832257081E+02  0.10566000000E+00 0. -1.
         23    2    1    0    0    0  0.12705136672E+02  0.26818738461E+02  0.14730008827E+02  0.91869373828E+02  0.85687475497E+02 0.  0.
         13    1    3    3    0    0  0.41320160391E+02  0.20594104530E+02 -0.16527397217E+02  0.49037116748E+02  0.10566000000E+00 0.  1.
         22    1    1    0    0    0 -0.12705136672E+02 -0.26818738461E+02 -0.14730008827E+02  0.33130626172E+02  0.00000000000E+00 0. -1.
</event>
<event>
 5    1  0.1315753E-009  0.9118800E+02  0.7818608E-02  0.1130116E+00
         25   -1    0    0    0    0  0.00000000000E+00  0.00000000000E+00  0.99999998245E-14  0.12500000000E+03  0.12500000000E+03 0.  0.
        -13    1    3    3    0    0 -0.10546352300E+02 -0.53407784817E+01 -0.32747574175E+02  0.34816149126E+02  0.10566000000E+00 0.  1.
         23    2    1    0    0    0 -0.11898070386E+02  0.94276526610E+01  0.25719415900E+02  0.95134751502E+02  0.90325455302E+02 0.  0.
         13    1    3    3    0    0 -0.13517180862E+01  0.14768431143E+02  0.58466990074E+02  0.60318602376E+02  0.10566000000E+00 0. -1.
         22    1    1    0    0    0  0.11898070386E+02 -0.94276526610E+01 -0.25719415900E+02  0.29865248498E+02  0.00000000000E+00 0. -1.
</event>
<event>
 5    1  0.1315753E-009  0.9118800E+02  0.7818608E-02  0.1130116E+00
         25   -1    0    0    0    0  0.00000000000E+00  0.00000000000E+00  0.99999998245E-14  0.12500000000E+03  0.12500000000E+03 0.  0.
        -13    1    3    3    0    0 -0.24879003940E+02 -0.25312613800E+02 -0.12799102449E+02  0.37729583114E+02  0.10566000000E+00 0. -1.
         23    2    1    0    0    0  0.28625730617E+02 -0.56897338599E+01 -0.67871477375E+01  0.95035506025E+02  0.90188006444E+02 0.  0.
         13    1    3    3    0    0  0.53504734557E+02  0.19622879940E+02  0.60119547115E+01  0.57305922911E+02  0.10566000000E+00 0.  1.
         22    1    1    0    0    0 -0.28625730617E+02  0.56897338599E+01  0.67871477375E+01  0.29964493975E+02  0.00000000000E+00 0. -1.
</event>
<event>
 5    1  0.1315753E-009  0.9118800E+02  0.7818608E-02  0.1130116E+00
         25   -1    0    0    0    0  0.00000000000E+00  0.00000000000E+00  0.99999998245E-14  0.12500000000E+03  0.12500000000E+03 0.  0.
        -13    1    3    3    0    0 -0.31087907769E+01  0.42164611127E+02  0.11539819019E+02  0.43825764096E+02  0.10566000000E+00 0. -1.
         23    2    1    0    0    0 -0.26050767687E+02 -0.41850856763E+01  0.13049109481E+02  0.95564703204E+02  0.90918511872E+02 0.  0.
         13    1    3    3    0    0 -0.22941976910E+02 -0.46349696803E+02  0.15092904624E+01  0.51738939108E+02  0.10566000000E+00 0.  1.
         22    1    1    0    0    0  0.26050767687E+02  0.41850856763E+01 -0.13049109481E+02  0.29435296796E+02  0.00000000000E+00 0. -1.
</event>
<event>
 5    1  0.1315753E-009  0.9118800E+02  0.7818608E-02  0.1130116E+00
         25   -1    0    0    0    0  0.00000000000E+00  0.00000000000E+00  0.99999998245E-14  0.12500000000E+03  0.12500000000E+03 0.  0.
        -13    1    3    3    0    0 -0.14736991270E+02 -0.34287299251E+02  0.64838201604E+00  0.37325987796E+02  0.10566000000E+00 0.  1.
         23    2    1    0    0    0 -0.12744222277E+02  0.23225698951E+02  0.11890716443E+02  0.95961449232E+02  0.91462354594E+02 0.  0.
         13    1    3    3    0    0  0.19927689932E+01  0.57512998202E+02  0.11242334427E+02  0.58635461436E+02  0.10566000000E+00 0. -1.
         22    1    1    0    0    0  0.12744222277E+02 -0.23225698951E+02 -0.11890716443E+02  0.29038550768E+02  0.00000000000E+00 0.  1.
</event>
<event>
 5    1  0.1315753E-009  0.9118800E+02  0.7818608E-02  0.1130116E+00
         25   -1    0    0    0    0  0.00000000000E+00  0.00000000000E+00  0.99999998245E-14  0.12500000000E+03  0.12500000000E+03 0.  0.
        -13    1    3    3    0    0  0.27859579024E+02  0.23499366252E+02 -0.46804309720E+02  0.59321420499E+02  0.10566000000E+00 0. -1.
         23    2    1    0    0    0  0.20603071900E+01  0.18713466762E+02 -0.26469301035E+02  0.92518272810E+02  0.86628910893E+02 0.  0.
         13    1    3    3    0    0 -0.25799271834E+02 -0.47858994903E+01  0.20335008685E+02  0.33196852311E+02  0.10566000000E+00 0.  1.
         22    1    1    0    0    0 -0.20603071900E+01 -0.18713466762E+02  0.26469301035E+02  0.32481727190E+02  0.00000000000E+00 0. -1.
</event>
<event>
 5    1  0.1315753E-009  0.9118800E+02  0.7818608E-02  0.1130116E+00
         25   -1    0    0    0    0  0.00000000000E+00  0.00000000000E+00  0.99999998245E-14  0.12500000000E+03  0.12500000000E+03 0.  0.
        -13    1    3    3    0    0  0.28738649315E+02  0.53752488042E+01 -0.24887021634E+02  0.38395029287E+02  0.10566000000E+00 0. -1.
         23    2    1    0    0    0 -0.59369158423E+00 -0.24769322897E+02  0.14729970951E+02  0.96175637549E+02  0.91754615074E+02 0.  0.
         13    1    3    3    0    0 -0.29332340899E+02 -0.30144571701E+02  0.39616992585E+02  0.57780608262E+02  0.10566000000E+00 0.  1.
         22    1    1    0    0    0  0.59369158423E+00  0.24769322897E+02 -0.14729970951E+02  0.28824362451E+02  0.00000000000E+00 0.  1.
</event>
<event>
 5    1  0.1315753E-009  0.9118800E+02  0.7818608E-02  0.1130116E+00
         25   -1    0    0    0    0  0.00000000000E+00  0.00000000000E+00  0.99999998245E-14  0.12500000000E+03  0.12500000000E+03 0.  0.
        -13    1    3    3    0    0  0.60847937837E+01  0.28264260347E+02  0.17807074132E+02  0.33955797466E+02  0.10566000000E+00 0. -1.
         23    2    1    0    0    0 -0.55272571040E+01 -0.29519306824E+02  0.24186735149E+01  0.94870445937E+02  0.89958943326E+02 0.  0.
         13    1    3    3    0    0 -0.11612050888E+02 -0.57783567171E+02 -0.15388400617E+02  0.60914648471E+02  0.10566000000E+00 0.  1.
         22    1    1    0    0    0  0.55272571040E+01  0.29519306824E+02 -0.24186735149E+01  0.30129554063E+02  0.00000000000E+00 0.  1.
</event>
<event>
 5    1  0.1315753E-009  0.9118800E+02  0.7818608E-02  0.1130116E+00
         25   -1    0    0    0    0  0.00000000000E+00  0.00000000000E+00  0.99999998245E-14  0.12500000000E+03  0.12500000000E+03 0.  0.
        -13    1    3    3    0    0 -0.64463486848E+01  0.33386322284E+02 -0.19473349924E+02  0.39184492447E+02  0.10566000000E+00 0.  1.
         23    2    1    0    0    0  0.14636307583E+02  0.44770498476E+01  0.24645438813E+02  0.95988568989E+02  0.91499411185E+02 0.  0.
         13    1    3    3    0    0  0.21082656268E+02 -0.28909272437E+02  0.44118788737E+02  0.56804076542E+02  0.10566000000E+00 0. -1.
         22    1    1    0    0    0 -0.14636307583E+02 -0.44770498476E+01 -0.24645438813E+02  0.29011431011E+02  0.00000000000E+00 0. -1.
</event>
<event>
 5    1  0.1315753E-009  0.9118800E+02  0.7818608E-02  0.1130116E+00
         25   -1    0    0    0    0  0.00000000000E+00  0.00000000000E+00  0.99999998245E-14  0.12500000000E+03  0.12500000000E+03 0.  0.
        -13    1    3    3    0    0  0.58275276582E+02  0.51541648089E+01 -0.16889681158E+02  0.60892082976E+02  0.10566000000E+00 0. -1.
         23    2    1    0    0    0  0.22874735629E+02  0.10305567904E+02 -0.12608709808E+02  0.96920864989E+02  0.92764304812E+02 0.  0.
         13    1    3    3    0    0 -0.35400540952E+02  0.51514030956E+01  0.42809713496E+01  0.36028782012E+02  0.10566000000E+00 0.  1.
         22    1    1    0    0    0 -0.22874735629E+02 -0.10305567904E+02  0.12608709808E+02  0.28079135011E+02  0.00000000000E+00 0. -1.
</event>
<event>
 5    1  0.1315753E-009  0.9118800E+02  0.7818608E-02  0.1130116E+00
         25   -1    0    0    0    0  0.00000000000E+00  0.00000000000E+00  0.99999998245E-14  0.12500000000E+03  0.12500000000E+03 0.  0.
        -13    1    3    3    0    0  0.35258921297E+02 -0.31202996342E+02  0.22421556572E+02  0.52149361213E+02  0.10566000000E+00 0.  1.
         23    2    1    0    0    0  0.22433930481E+01 -0.27664694449E+02 -0.68471807568E+01  0.96412380028E+02  0.92076571434E+02 0.  0.
         13    1    3    3    0    0 -0.33015528249E+02  0.35383018932E+01 -0.29268737329E+02  0.44263018816E+02  0.10566000000E+00 0. -1.
         22    1    1    0    0    0 -0.22433930481E+01  0.27664694449E+02  0.68471807568E+01  0.28587619972E+02  0.00000000000E+00 0.  1.
</event>
<event>
 5    1  0.1315753E-009  0.9118800E+02  0.7818608E-02  0.1130116E+00
         25   -1    0    0    0    0  0.00000000000E+00  0.00000000000E+00  0.99999998245E-14  0.12500000000E+03  0.12500000000E+03 0.  0.
        -13    1    3    3    0    0  0.49172100997E+02  0.29411686870E+02  0.79474587935E+01  0.57845623052E+02  0.10566000000E+00 0.  1.
         23    2    1    0    0    0  0.28207593541E+02 -0.23632992331E+01  0.65836632528E+01  0.95938029343E+02  0.91430341440E+02 0.  0.
         13    1    3    3    0    0 -0.20964507456E+02 -0.31774986103E+02 -0.13637955407E+01  0.38092406291E+02  0.10566000000E+00 0. -1.
         22    1    1    0    0    0 -0.28207593541E+02  0.23632992331E+01 -0.65836632528E+01  0.29061970657E+02  0.00000000000E+00 0.  1.
</event>
<event>
 5    1  0.1315753E-009  0.9118800E+02  0.7818608E-02  0.1130116E+00
         25   -1    0    0    0    0  0.00000000000E+00  0.00000000000E+00  0.99999998245E-14  0.12500000000E+03  0.12500000000E+03 0.  0.
        -13    1    3    3    0    0 -0.23279943192E+02  0.42931091030E+02  0.27080097967E+02  0.55842431913E+02  0.10566000000E+00 0. -1.
         23    2    1    0    0    0  0.67924522781E+01  0.19129203977E+02  0.22863076819E+02  0.94425760281E+02  0.89338905693E+02 0.  0.
         13    1    3    3    0    0  0.30072395470E+02 -0.23801887053E+02 -0.42170211483E+01  0.38583328368E+02  0.10566000000E+00 0.  1.
         22    1    1    0    0    0 -0.67924522781E+01 -0.19129203977E+02 -0.22863076819E+02  0.30574239719E+02  0.00000000000E+00 0.  1.
</event>
<event>
 5    1  0.1315753E-009  0.9118800E+02  0.7818608E-02  0.1130116E+00
         25   -1    0    0    0    0  0.00000000000E+00  0.00000000000E+00  0.99999998245E-14  0.12500000000E+03  0.12500000000E+03 0.  0.
        -13    1    3    3    0    0 -0.20236274179E+02  0.20886110907E+01  0.41553253333E+02  0.46266111956E+02  0.10566000000E+00 0. -1.
         23    2    1    0    0    0  0.22568187117E+02  0.71627364873E+01  0.12755511131E+02  0.98105187713E+02  0.94346684776E+02 0.  0.
         13    1    3    3    0    0  0.42804461296E+02  0.50741253967E+01 -0.28797742201E+02  0.51839075757E+02  0.10566000000E+00 0.  1.
         22    1    1    0    0    0 -0.22568187117E+02 -0.71627364873E+01 -0.12755511131E+02  0.26894812287E+02  0.00000000000E+00 0.  1.
</event>
<event>
 5    1  0.1315753E-009  0.9118800E+02  0.7818608E-02  0.1130116E+00
         25   -1    0    0    0    0  0.00000000000E+00  0.00000000000E+00  0.99999998245E-14  0.12500000000E+03  0.12500000000E+03 0.  0.
        -13    1    3    3    0    0  0.17695028644E+02 -0.42814021559E+01 -0.48129451483E+02  0.51457746814E+02  0.10566000000E+00 0. -1.
         23    2    1    0    0    0 -0.18269688380E+01 -0.25392695675E+02 -0.14508460069E+02  0.95697743733E+02  0.91101240020E+02 0.  0.
         13    1    3    3    0    0 -0.19521997482E+02 -0.21111293519E+02  0.33620991413E+02  0.44239996919E+02  0.10566000000E+00 0.  1.
         22    1    1    0    0    0  0.18269688380E+01  0.25392695675E+02  0.14508460069E+02  0.29302256267E+02  0.00000000000E+00 0. -1.
</event>
<event>
 5    1  0.1315753E-009  0.9118800E+02  0.7818608E-02  0.1130116E+00
         25   -1    0    0    0    0  0.00000000000E+00  0.00000000000E+00  0.99999998245E-14  0.12500000000E+03  0.12500000000E+03 0.  0.
        -13    1    3    3    0    0 -0.22212424995E+02 -0.46727924406E+02  0.23446651201E+01  0.51791885098E+02  0.10566000000E+00 0.  1.
         23    2    1    0    0    0 -0.26484225851E+02 -0.47961846780E+01 -0.10883459028E+02  0.95967823250E+02  0.91471065439E+02 0.  0.
         13    1    3    3    0    0 -0.42718008564E+01  0.41931739728E+02 -0.13228124148E+02  0.44175938153E+02  0.10566000000E+00 0. -1.
         22    1    1    0    0    0  0.26484225851E+02  0.47961846780E+01  0.10883459028E+02  0.29032176750E+02  0.00000000000E+00 0.  1.
</event>
<event>
 5    1  0.1315753E-009  0.9118800E+02  0.7818608E-02  0.1130116E+00
         25   -1    0    0    0    0  0.00000000000E+00  0.00000000000E+00  0.99999998245E-14  0.12500000000E+03  0.12500000000E+03 0.  0.
        -13    1    3    3    0    0 -0.37311930238E+02 -0.71728233739E+01 -0.97070674181E+01  0.39215658290E+02  0.10566000000E+00 0. -1.
         23    2    1    0    0    0  0.39205219842E+01 -0.79446384211E+01  0.28329057006E+02  0.95317964303E+02  0.90578645805E+02 0.  0.
         13    1    3    3    0    0  0.41232452222E+02 -0.77181504717E+00  0.38036124424E+02  0.56102306013E+02  0.10566000000E+00 0.  1.
         22    1    1    0    0    0 -0.39205219842E+01  0.79446384211E+01 -0.28329057006E+02  0.29682035697E+02  0.00000000000E+00 0.  1.
</event>
<event>
 5    1  0.1315753E-009  0.9118800E+02  0.7818608E-02  0.1130116E+00
         25   -1    0    0    0    0  0.00000000000E+00  0.00000000000E+00  0.99999998245E-14  0.12500000000E+03  0.12500000000E+03 0.  0.
        -13    1    3    3    0    0 -0.21300077548E+02 -0.49863276816E+02  0.14362385525E+01  0.54241253891E+02  0.10566000000E+00 0.  1.
         23    2    1    0    0    0 -0.14507819979E+02 -0.88071632600E+01  0.19099830709E+02  0.99449138990E+02  0.96110794125E+02 0.  0.
         13    1    3    3    0    0  0.67922575682E+01  0.41056113556E+02  0.17663592157E+02  0.45207885099E+02  0.10566000000E+00 0. -1.
         22    1    1    0    0    0  0.14507819979E+02  0.88071632600E+01 -0.19099830709E+02  0.25550861010E+02  0.00000000000E+00 0.  1.
</event>
<event>
 5    1  0.1315753E-009  0.9118800E+02  0.7818608E-02  0.1130116E+00
         25   -1    0    0    0    0  0.00000000000E+00  0.00000000000E+00  0.99999998245E-14  0.12500000000E+03  0.12500000000E+03 0.  0.
        -13    1    3    3    0    0  0.15680845704E+02 -0.16733133613E+02  0.34554875391E+02  0.41472126300E+02  0.10566000000E+00 0.  1.
         23    2    1    0    0    0 -0.99630416954E+01  0.24901491037E+02  0.85860511475E+01  0.96838559519E+02  0.92653331725E+02 0.  0.
         13    1    3    3    0    0 -0.25643887399E+02  0.41634624650E+02 -0.25968824244E+02  0.55366433219E+02  0.10566000000E+00 0. -1.
         22    1    1    0    0    0  0.99630416954E+01 -0.24901491037E+02 -0.85860511475E+01  0.28161440481E+02  0.00000000000E+00 0. -1.
</event>
<event>
 5    1  0.1315753E-009  0.9118800E+02  0.7818608E-02  0.1130116E+00
         25   -1    0    0    0    0  0.00000000000E+00  0.00000000000E+00  0.99999998245E-14  0.12500000000E+03  0.12500000000E+03 0.  0.
        -13    1    3    3    0    0  0.13087069872E+02 -0.69478660112E+01  0.59443185573E+02  0.61262123005E+02  0.10566000000E+00 0. -1.
         23    2    1    0    0    0  0.13960130598E+02 -0.93259700457E-01  0.25240584144E+02  0.96155918603E+02  0.91727747442E+02 0.  0.
         13    1    3    3    0    0  0.87306072518E+00  0.68546063108E+01 -0.34202601429E+02  0.34893795598E+02  0.10566000000E+00 0.  1.
         22    1    1    0    0    0 -0.13960130598E+02  0.93259700457E-01 -0.25240584144E+02  0.28844081397E+02  0.00000000000E+00 0. -1.
</event>
<event>
 5    1  0.1315753E-009  0.9118800E+02  0.7818608E-02  0.1130116E+00
         25   -1    0    0    0    0  0.00000000000E+00  0.00000000000E+00  0.99999998245E-14  0.12500000000E+03  0.12500000000E+03 0.  0.
        -13    1    3    3    0    0  0.18496127038E+02 -0.29740888823E+01 -0.28358484488E+02  0.33987743770E+02  0.10566000000E+00 0. -1.
         23    2    1    0    0    0 -0.18259726867E+02 -0.10279122426E+02  0.20582107386E+02  0.95628225665E+02  0.91005804300E+02 0.  0.
         13    1    3    3    0    0 -0.36755853904E+02 -0.73050335439E+01  0.48940591874E+02  0.61640481896E+02  0.10566000000E+00 0.  1.
         22    1    1    0    0    0  0.18259726867E+02  0.10279122426E+02 -0.20582107386E+02  0.29371774335E+02  0.00000000000E+00 0.  1.
</event>
<event>
 5    1  0.1315753E-009  0.9118800E+02  0.7818608E-02  0.1130116E+00
         25   -1    0    0    0    0  0.00000000000E+00  0.00000000000E+00  0.99999998245E-14  0.12500000000E+03  0.12500000000E+03 0.  0.
        -13    1    3    3    0    0 -0.48064824147E+01 -0.89745454462E+01  0.37418773593E+02  0.38779124802E+02  0.10566000000E+00 0. -1.
         23    2    1    0    0    0 -0.22402247350E+02 -0.10974266214E+02 -0.16205849605E+02  0.95252314936E+02  0.90488003259E+02 0.  0.
         13    1    3    3    0    0 -0.17595764935E+02 -0.19997207679E+01 -0.53624623197E+02  0.56473190134E+02  0.10566000000E+00 0.  1.
         22    1    1    0    0    0  0.22402247350E+02  0.10974266214E+02  0.16205849605E+02  0.29747685064E+02  0.00000000000E+00 0. -1.
</event>
<event>
 5    1  0.1315753E-009  0.9118800E+02  0.7818608E-02  0.1130116E+00
         25   -1    0    0    0    0  0.00000000000E+00  0.00000000000E+00  0.99999998245E-14  0.12500000000E+03  0.12500000000E+03 0.  0.
        -13    1    3    3    0    0 -0.18841105133E+02  0.13365705395E+02  0.26077182951E+02  0.34837622738E+02  0.10566000000E+00 0.  1.
         23    2    1    0    0    0  0.80490188957E+01 -0.23980467684E+02 -0.14198049549E+02  0.95992515681E+02  0.91504802717E+02 0.  0.
         13    1    3    3    0    0  0.26890124029E+02 -0.37346173079E+02 -0.40275232500E+02  0.61154892943E+02  0.10566000000E+00 0. -1.
         22    1    1    0    0    0 -0.80490188957E+01  0.23980467684E+02  0.14198049549E+02  0.29007484319E+02  0.00000000000E+00 0. -1.
</event>
<event>
 5    1  0.1315753E-009  0.9118800E+02  0.7818608E-02  0.1130116E+00
         25   -1    0    0    0    0  0.00000000000E+00  0.00000000000E+00  0.99999998245E-14  0.12500000000E+03  0.12500000000E+03 0.  0.
        -13    1    3    3    0    0 -0.30368858116E+01  0.13581724002E+02 -0.38036240306E+02  0.40502501688E+02  0.10566000000E+00 0. -1.
         23    2    1    0    0    0  0.25079116125E+02 -0.25874619787E+01  0.95066462917E+01  0.98054993991E+02  0.94280159618E+02 0.  0.
         13    1    3    3    0    0  0.28116001937E+02 -0.16169185981E+02  0.47542886598E+02  0.57552492303E+02  0.10566000000E+00 0.  1.
         22    1    1    0    0    0 -0.25079116125E+02  0.25874619787E+01 -0.95066462917E+01  0.26945006009E+02  0.00000000000E+00 0.  1.
</event>
<event>
 5    1  0.1315753E-009  0.9118800E+02  0.7818608E-02  0.1130116E+00
         25   -1    0    0    0    0  0.00000000000E+00  0.00000000000E+00  0.99999998245E-14  0.12500000000E+03  0.12500000000E+03 0.  0.
        -13    1    3    3    0    0 -0.57248132145E+02 -0.14518894582E+02 -0.94420465359E+01  0.59810620635E+02  0.10566000000E+00 0.  1.
         23    2    1    0    0    0 -0.29981120811E+02  0.48757925696E+01 -0.91629499982E+01  0.93273030228E+02  0.87711216825E+02 0.  0.
         13    1    3    3    0    0  0.27267011334E+02  0.19394687152E+02  0.27909653770E+00  0.33462409592E+02  0.10566000000E+00 0. -1.
         22    1    1    0    0    0  0.29981120811E+02 -0.48757925696E+01  0.91629499982E+01  0.31726969772E+02  0.00000000000E+00 0.  1.
</event>
<event>
 5    1  0.1315753E-009  0.9118800E+02  0.7818608E-02  0.1130116E+00
         25   -1    0    0    0    0  0.00000000000E+00  0.00000000000E+00  0.99999998245E-14  0.12500000000E+03  0.12500000000E+03 0.  0.
        -13    1    3    3    0    0  0.19626495119E+02  0.40282652184E+02 -0.42663625471E+02  0.61871540146E+02  0.10566000000E+00 0. -1.
         23    2    1    0    0    0  0.33918615262E+01  0.21106650700E+02 -0.20680973874E+02  0.95256124853E+02  0.90493266121E+02 0.  0.
         13    1    3    3    0    0 -0.16234633593E+02 -0.19176001484E+02  0.21982651598E+02  0.33384584708E+02  0.10566000000E+00 0.  1.
         22    1    1    0    0    0 -0.33918615262E+01 -0.21106650700E+02  0.20680973874E+02  0.29743875147E+02  0.00000000000E+00 0. -1.
</event>
<event>
 5    1  0.1315753E-009  0.9118800E+02  0.7818608E-02  0.1130116E+00
         25   -1    0    0    0    0  0.00000000000E+00  0.00000000000E+00  0.99999998245E-14  0.12500000000E+03  0.12500000000E+03 0.  0.
        -13    1    3    3    0    0 -0.35449050898E+02 -0.29580084522E+02 -0.38826365791E+02  0.60325073182E+02  0.10566000000E+00 0.  1.
         23    2    1    0    0    0 -0.22460712368E+02 -0.39490267391E+01 -0.19905696521E+02  0.94729301854E+02  0.89762606154E+02 0.  0.
         13    1    3    3    0    0  0.12988338530E+02  0.25631057783E+02  0.18920669270E+02  0.34404228672E+02  0.10566000000E+00 0. -1.
         22    1    1    0    0    0  0.22460712368E+02  0.39490267391E+01  0.19905696521E+02  0.30270698146E+02  0.00000000000E+00 0.  1.
</event>
<event>
 5    1  0.1315753E-009  0.9118800E+02  0.7818608E-02  0.1130116E+00
         25   -1    0    0    0    0  0.00000000000E+00  0.00000000000E+00  0.99999998245E-14  0.12500000000E+03  0.12500000000E+03 0.  0.
        -13    1    3    3    0    0  0.16046004269E+01  0.34208273940E+02 -0.58468809585E+01  0.34741587895E+02  0.10566000000E+00 0.  1.
         23    2    1    0    0    0  0.27975113469E+02 -0.16554321831E+02 -0.59960535629E+01  0.91945420843E+02  0.85798340373E+02 0.  0.
         13    1    3    3    0    0  0.26370513043E+02 -0.50762595771E+02 -0.14917260441E+00  0.57203832948E+02  0.10566000000E+00 0. -1.
         22    1    1    0    0    0 -0.27975113469E+02  0.16554321831E+02  0.59960535629E+01  0.33054579157E+02  0.00000000000E+00 0. -1.
</event>
<event>
 5    1  0.1315753E-009  0.9118800E+02  0.7818608E-02  0.1130116E+00
         25   -1    0    0    0    0  0.00000000000E+00  0.00000000000E+00  0.99999998245E-14  0.12500000000E+03  0.12500000000E+03 0.  0.
        -13    1    3    3    0    0  0.17194681624E+01  0.40809932880E+02 -0.21907217711E+02  0.46350237802E+02  0.10566000000E+00 0. -1.
         23    2    1    0    0    0  0.19331353014E+02 -0.32294312402E+01 -0.24227498981E+02  0.93837488189E+02  0.88511988156E+02 0.  0.
         13    1    3    3    0    0  0.17611884852E+02 -0.44039364120E+02 -0.23202812692E+01  0.47487250387E+02  0.10566000000E+00 0.  1.
         22    1    1    0    0    0 -0.19331353014E+02  0.32294312402E+01  0.24227498981E+02  0.31162511811E+02  0.00000000000E+00 0. -1.
</event>
<event>
 5    1  0.1315753E-009  0.9118800E+02  0.7818608E-02  0.1130116E+00
         25   -1    0    0    0    0  0.00000000000E+00  0.00000000000E+00  0.99999998245E-14  0.12500000000E+03  0.12500000000E+03 0.  0.
        -13    1    3    3    0    0  0.44867289653E+02 -0.17216304471E+02  0.13872271277E+02  0.50019255241E+02  0.10566000000E+00 0. -1.
         23    2    1    0    0    0  0.13277765465E+02 -0.20305583038E+02 -0.17838812281E+02  0.94886232686E+02  0.89980876698E+02 0.  0.
         13    1    3    3    0    0 -0.31589524188E+02 -0.30892785676E+01 -0.31711083558E+02  0.44866977444E+02  0.10566000000E+00 0.  1.
         22    1    1    0    0    0 -0.13277765465E+02  0.20305583038E+02  0.17838812281E+02  0.30113767314E+02  0.00000000000E+00 0. -1.
</event>
<event>
 5    1  0.1315753E-009  0.9118800E+02  0.7818608E-02  0.1130116E+00
         25   -1    0    0    0    0  0.00000000000E+00  0.00000000000E+00  0.99999998245E-14  0.12500000000E+03  0.12500000000E+03 0.  0.
        -13    1    3    3    0    0 -0.29547156921E+02  0.40599550482E+01  0.48224328137E+02  0.56701981495E+02  0.10566000000E+00 0. -1.
         23    2    1    0    0    0 -0.26770861960E+02  0.68641521856E+01  0.92787359789E+01  0.95847117181E+02  0.91305965278E+02 0.  0.
         13    1    3    3    0    0  0.27762949618E+01  0.28041971374E+01 -0.38945592158E+02  0.39145135686E+02  0.10566000000E+00 0.  1.
         22    1    1    0    0    0  0.26770861960E+02 -0.68641521856E+01 -0.92787359789E+01  0.29152882819E+02  0.00000000000E+00 0. -1.
</event>
<event>
 5    1  0.1315753E-009  0.9118800E+02  0.7818608E-02  0.1130116E+00
         25   -1    0    0    0    0  0.00000000000E+00  0.00000000000E+00  0.99999998245E-14  0.12500000000E+03  0.12500000000E+03 0.  0.
        -13    1    3    3    0    0  0.38910513659E+02 -0.41421184940E+01  0.47601591229E+02  0.61620677296E+02  0.10566000000E+00 0.  1.
         23    2    1    0    0    0  0.19575818150E+02  0.48014166142E+01  0.27446940083E+02  0.90947088558E+02  0.84331323596E+02 0.  0.
         13    1    3    3    0    0 -0.19334695509E+02  0.89435351082E+01 -0.20154651146E+02  0.29326411262E+02  0.10566000000E+00 0. -1.
         22    1    1    0    0    0 -0.19575818150E+02 -0.48014166142E+01 -0.27446940083E+02  0.34052911442E+02  0.00000000000E+00 0.  1.
</event>
<event>
 5    1  0.1315753E-009  0.9118800E+02  0.7818608E-02  0.1130116E+00
         25   -1    0    0    0    0  0.00000000000E+00  0.00000000000E+00  0.99999998245E-14  0.12500000000E+03  0.12500000000E+03 0.  0.
        -13    1    3    3    0    0 -0.42141851753E+02  0.45704556723E+02 -0.14433680512E+01  0.62184697875E+02  0.10566000000E+00 0.  1.
         23    2    1    0    0    0 -0.22071589876E+02  0.30104603504E+02 -0.20851439936E+01  0.87612969398E+02  0.79235360474E+02 0.  0.
         13    1    3    3    0    0  0.20070261877E+02 -0.15599953219E+02 -0.64177594246E+00  0.25428271523E+02  0.10566000000E+00 0. -1.
         22    1    1    0    0    0  0.22071589876E+02 -0.30104603504E+02  0.20851439936E+01  0.37387030602E+02  0.00000000000E+00 0.  1.
</event>
