<event>
 5    1  0.1724235E-003  0.9118800E+02  0.7818608E-02  0.1130116E+00
         25   -1    0    0    0    0  0.00000000000E+00  0.00000000000E+00  0.99999998245E-14  0.12500000000E+03  0.12500000000E+03 0.  0.
        -13    1    3    3    0    0 -0.33016085543E+02  0.15326965182E+02 -0.34713752107E+02  0.50299438523E+02  0.10566000000E+00 0.  1.
         23    2    1    0    0    0 -0.16595475147E+01  0.29494196696E+02 -0.66050829730E+01  0.94729736411E+02  0.89763211299E+02 0.  0.
         13    1    3    3    0    0  0.31356538029E+02  0.14167231513E+02  0.28108669134E+02  0.44430297888E+02  0.10566000000E+00 0. -1.
         22    1    1    0    0    0  0.16595475147E+01 -0.29494196696E+02  0.66050829730E+01  0.30270263589E+02  0.00000000000E+00 0.  1.
</event>
<event>
 5    1  0.1724235E-003  0.9118800E+02  0.7818608E-02  0.1130116E+00
         25   -1    0    0    0    0  0.00000000000E+00  0.00000000000E+00  0.99999998245E-14  0.12500000000E+03  0.12500000000E+03 0.  0.
        -13    1    3    3    0    0  0.41837284028E+02 -0.42685481045E+02 -0.15129573050E+02  0.61654876300E+02  0.10566000000E+00 0.  1.
         23    2    1    0    0    0  0.24781717141E+02 -0.26982734851E+02 -0.16372871885E+02  0.84871800211E+02  0.74786028460E+02 0.  0.
         13    1    3    3    0    0 -0.17055566887E+02  0.15702746194E+02 -0.12432988354E+01  0.23216923911E+02  0.10566000000E+00 0. -1.
         22    1    1    0    0    0 -0.24781717141E+02  0.26982734851E+02  0.16372871885E+02  0.40128199789E+02  0.00000000000E+00 0.  1.
</event>
<event>
 5    1  0.1724235E-003  0.9118800E+02  0.7818608E-02  0.1130116E+00
         25   -1    0    0    0    0  0.00000000000E+00  0.00000000000E+00  0.99999998245E-14  0.12500000000E+03  0.12500000000E+03 0.  0.
        -13    1    3    3    0    0 -0.25121391909E+02 -0.16373684432E+02  0.52256288866E+02  0.60248757360E+02  0.10566000000E+00 0.  1.
         23    2    1    0    0    0 -0.20626139312E+02 -0.12561394763E+01  0.19578706585E+02  0.96533506348E+02  0.92240861808E+02 0.  0.
         13    1    3    3    0    0  0.44952525976E+01  0.15117544956E+02 -0.32677582281E+02  0.36284748988E+02  0.10566000000E+00 0. -1.
         22    1    1    0    0    0  0.20626139312E+02  0.12561394763E+01 -0.19578706585E+02  0.28466493652E+02  0.00000000000E+00 0.  1.
</event>
<event>
 5    1  0.1724235E-003  0.9118800E+02  0.7818608E-02  0.1130116E+00
         25   -1    0    0    0    0  0.00000000000E+00  0.00000000000E+00  0.99999998245E-14  0.12500000000E+03  0.12500000000E+03 0.  0.
        -13    1    3    3    0    0 -0.12316478077E+02  0.10369825659E+01 -0.40835333150E+02  0.42665050833E+02  0.10566000000E+00 0. -1.
         23    2    1    0    0    0  0.14183261293E+02 -0.26330652892E+02 -0.55683642522E+01  0.94578381649E+02  0.89552193789E+02 0.  0.
         13    1    3    3    0    0  0.26499739370E+02 -0.27367635458E+02  0.35266968897E+02  0.51913330817E+02  0.10566000000E+00 0.  1.
         22    1    1    0    0    0 -0.14183261293E+02  0.26330652892E+02  0.55683642522E+01  0.30421618351E+02  0.00000000000E+00 0.  1.
</event>
<event>
 5    1  0.1724235E-003  0.9118800E+02  0.7818608E-02  0.1130116E+00
         25   -1    0    0    0    0  0.00000000000E+00  0.00000000000E+00  0.99999998245E-14  0.12500000000E+03  0.12500000000E+03 0.  0.
        -13    1    3    3    0    0  0.29421722805E+02  0.15448299930E+02 -0.19368452980E+02  0.38463435603E+02  0.10566000000E+00 0.  1.
         23    2    1    0    0    0 -0.12345791170E+02 -0.23272589770E+02 -0.12530882505E+02  0.95827152854E+02  0.91278629556E+02 0.  0.
         13    1    3    3    0    0 -0.41767513975E+02 -0.38720889700E+02  0.68375704747E+01  0.57363717251E+02  0.10566000000E+00 0. -1.
         22    1    1    0    0    0  0.12345791170E+02  0.23272589770E+02  0.12530882505E+02  0.29172847146E+02  0.00000000000E+00 0. -1.
</event>
<event>
 5    1  0.1724235E-003  0.9118800E+02  0.7818608E-02  0.1130116E+00
         25   -1    0    0    0    0  0.00000000000E+00  0.00000000000E+00  0.99999998245E-14  0.12500000000E+03  0.12500000000E+03 0.  0.
        -13    1    3    3    0    0 -0.85215772681E+01 -0.33454697105E+02  0.28506925324E+02  0.44771531054E+02  0.10566000000E+00 0.  1.
         23    2    1    0    0    0  0.26401690955E+02 -0.43202276101E+01  0.38422500544E+00  0.98244415896E+02  0.94530968334E+02 0.  0.
         13    1    3    3    0    0  0.34923268223E+02  0.29134469495E+02 -0.28122700318E+02  0.53472884842E+02  0.10566000000E+00 0. -1.
         22    1    1    0    0    0 -0.26401690955E+02  0.43202276101E+01 -0.38422500544E+00  0.26755584104E+02  0.00000000000E+00 0. -1.
</event>
<event>
 5    1  0.1724235E-003  0.9118800E+02  0.7818608E-02  0.1130116E+00
         25   -1    0    0    0    0  0.00000000000E+00  0.00000000000E+00  0.99999998245E-14  0.12500000000E+03  0.12500000000E+03 0.  0.
        -13    1    3    3    0    0  0.28852857282E+02 -0.15353761632E+02  0.15951878506E+02  0.36368928518E+02  0.10566000000E+00 0. -1.
         23    2    1    0    0    0 -0.15662386835E+01  0.28505621690E+01 -0.30234042382E+02  0.94591512253E+02  0.89570520057E+02 0.  0.
         13    1    3    3    0    0 -0.30419095966E+02  0.18204323801E+02 -0.46185920889E+02  0.58222583735E+02  0.10566000000E+00 0.  1.
         22    1    1    0    0    0  0.15662386835E+01 -0.28505621690E+01  0.30234042382E+02  0.30408487747E+02  0.00000000000E+00 0. -1.
</event>
<event>
 5    1  0.1724235E-003  0.9118800E+02  0.7818608E-02  0.1130116E+00
         25   -1    0    0    0    0  0.00000000000E+00  0.00000000000E+00  0.99999998245E-14  0.12500000000E+03  0.12500000000E+03 0.  0.
        -13    1    3    3    0    0  0.16920289798E+02 -0.48362347040E+02  0.27744188385E+02  0.58266319356E+02  0.10566000000E+00 0.  1.
         23    2    1    0    0    0 -0.76144521150E+01 -0.26582955658E+02  0.97823063167E+01  0.95668669832E+02  0.91061338987E+02 0.  0.
         13    1    3    3    0    0 -0.24534741913E+02  0.21779391382E+02 -0.17961882068E+02  0.37402350477E+02  0.10566000000E+00 0. -1.
         22    1    1    0    0    0  0.76144521150E+01  0.26582955658E+02 -0.97823063167E+01  0.29331330168E+02  0.00000000000E+00 0.  1.
</event>
<event>
 5    1  0.1724235E-003  0.9118800E+02  0.7818608E-02  0.1130116E+00
         25   -1    0    0    0    0  0.00000000000E+00  0.00000000000E+00  0.99999998245E-14  0.12500000000E+03  0.12500000000E+03 0.  0.
        -13    1    3    3    0    0 -0.49643437682E+02  0.25598960593E+02 -0.11772228815E+02  0.57082170803E+02  0.10566000000E+00 0. -1.
         23    2    1    0    0    0 -0.26015357137E+02 -0.57209737729E+01  0.10067950290E+01  0.98344006601E+02  0.94662567313E+02 0.  0.
         13    1    3    3    0    0  0.23628080545E+02 -0.31319934366E+02  0.12779023844E+02  0.41261835798E+02  0.10566000000E+00 0.  1.
         22    1    1    0    0    0  0.26015357137E+02  0.57209737729E+01 -0.10067950290E+01  0.26655993399E+02  0.00000000000E+00 0. -1.
</event>
<event>
 5    1  0.1724235E-003  0.9118800E+02  0.7818608E-02  0.1130116E+00
         25   -1    0    0    0    0  0.00000000000E+00  0.00000000000E+00  0.99999998245E-14  0.12500000000E+03  0.12500000000E+03 0.  0.
        -13    1    3    3    0    0 -0.18347539668E-01 -0.40644076774E+02  0.25190467437E+02  0.47817487671E+02  0.10566000000E+00 0.  1.
         23    2    1    0    0    0  0.12675101266E+02 -0.20105274656E+02 -0.16549988707E+02  0.96038259940E+02  0.91567270271E+02 0.  0.
         13    1    3    3    0    0  0.12693448806E+02  0.20538802118E+02 -0.41740456144E+02  0.48220772268E+02  0.10566000000E+00 0. -1.
         22    1    1    0    0    0 -0.12675101266E+02  0.20105274656E+02  0.16549988707E+02  0.28961740060E+02  0.00000000000E+00 0. -1.
</event>
<event>
 5    1  0.1724235E-003  0.9118800E+02  0.7818608E-02  0.1130116E+00
         25   -1    0    0    0    0  0.00000000000E+00  0.00000000000E+00  0.99999998245E-14  0.12500000000E+03  0.12500000000E+03 0.  0.
        -13    1    3    3    0    0 -0.43228641260E+02 -0.24165014590E+01  0.20189754953E+02  0.47772296089E+02  0.10566000000E+00 0.  1.
         23    2    1    0    0    0 -0.22628567876E+01  0.22911262141E+02  0.17627833995E+02  0.96003672903E+02  0.91520042755E+02 0.  0.
         13    1    3    3    0    0  0.40965784472E+02  0.25327763600E+02 -0.25619209582E+01  0.48231376815E+02  0.10566000000E+00 0. -1.
         22    1    1    0    0    0  0.22628567876E+01 -0.22911262141E+02 -0.17627833995E+02  0.28996327097E+02  0.00000000000E+00 0. -1.
</event>
<event>
 5    1  0.1724235E-003  0.9118800E+02  0.7818608E-02  0.1130116E+00
         25   -1    0    0    0    0  0.00000000000E+00  0.00000000000E+00  0.99999998245E-14  0.12500000000E+03  0.12500000000E+03 0.  0.
        -13    1    3    3    0    0  0.18879622224E+02 -0.90732725343E+01 -0.31000745701E+02  0.37414192599E+02  0.10566000000E+00 0. -1.
         23    2    1    0    0    0 -0.69121465893E+01 -0.16841578070E+02  0.21745346806E+02  0.96640228666E+02  0.92385373120E+02 0.  0.
         13    1    3    3    0    0 -0.25791768813E+02 -0.77683055362E+01  0.52746092507E+02  0.59226036067E+02  0.10566000000E+00 0.  1.
         22    1    1    0    0    0  0.69121465893E+01  0.16841578070E+02 -0.21745346806E+02  0.28359771334E+02  0.00000000000E+00 0.  1.
</event>
<event>
 5    1  0.1724235E-003  0.9118800E+02  0.7818608E-02  0.1130116E+00
         25   -1    0    0    0    0  0.00000000000E+00  0.00000000000E+00  0.99999998245E-14  0.12500000000E+03  0.12500000000E+03 0.  0.
        -13    1    3    3    0    0  0.28359537755E+02 -0.21598660932E+02  0.14970823744E+01  0.35679377172E+02  0.10566000000E+00 0.  1.
         23    2    1    0    0    0 -0.28649313212E+02 -0.26380379953E+01  0.47190561851E+01  0.95845036730E+02  0.91303117047E+02 0.  0.
         13    1    3    3    0    0 -0.57008850967E+02  0.18960622937E+02  0.32219738107E+01  0.60165659558E+02  0.10566000000E+00 0. -1.
         22    1    1    0    0    0  0.28649313212E+02  0.26380379953E+01 -0.47190561851E+01  0.29154963270E+02  0.00000000000E+00 0. -1.
</event>
<event>
 5    1  0.1724235E-003  0.9118800E+02  0.7818608E-02  0.1130116E+00
         25   -1    0    0    0    0  0.00000000000E+00  0.00000000000E+00  0.99999998245E-14  0.12500000000E+03  0.12500000000E+03 0.  0.
        -13    1    3    3    0    0 -0.27608416755E+02  0.15968960401E+02  0.33764080622E+02  0.46446277313E+02  0.10566000000E+00 0. -1.
         23    2    1    0    0    0 -0.32122510973E+01  0.32398626858E+02 -0.15508138809E+01  0.92405604729E+02  0.86466185195E+02 0.  0.
         13    1    3    3    0    0  0.24396165658E+02  0.16429666457E+02 -0.35314894503E+02  0.45959327415E+02  0.10566000000E+00 0.  1.
         22    1    1    0    0    0  0.32122510973E+01 -0.32398626858E+02  0.15508138809E+01  0.32594395271E+02  0.00000000000E+00 0. -1.
</event>
<event>
 5    1  0.1724235E-003  0.9118800E+02  0.7818608E-02  0.1130116E+00
         25   -1    0    0    0    0  0.00000000000E+00  0.00000000000E+00  0.99999998245E-14  0.12500000000E+03  0.12500000000E+03 0.  0.
        -13    1    3    3    0    0  0.35480007688E+02  0.33557788295E+02 -0.35842155636E+02  0.60577449480E+02  0.10566000000E+00 0. -1.
         23    2    1    0    0    0  0.24756842300E+02  0.13168870600E+02 -0.99230122827E+01  0.95254637902E+02  0.90491212146E+02 0.  0.
         13    1    3    3    0    0 -0.10723165387E+02 -0.20388917695E+02  0.25919143353E+02  0.34677188423E+02  0.10566000000E+00 0.  1.
         22    1    1    0    0    0 -0.24756842300E+02 -0.13168870600E+02  0.99230122827E+01  0.29745362098E+02  0.00000000000E+00 0. -1.
</event>
<event>
 5    1  0.1724235E-003  0.9118800E+02  0.7818608E-02  0.1130116E+00
         25   -1    0    0    0    0  0.00000000000E+00  0.00000000000E+00  0.99999998245E-14  0.12500000000E+03  0.12500000000E+03 0.  0.
        -13    1    3    3    0    0 -0.31029342954E+02  0.86387225757E+01 -0.43975221288E+01  0.32508414554E+02  0.10566000000E+00 0. -1.
         23    2    1    0    0    0  0.30468541161E+02  0.25748460261E+01 -0.70822403775E+00  0.94414653609E+02  0.89323364258E+02 0.  0.
         13    1    3    3    0    0  0.61497884116E+02 -0.60638765497E+01  0.36892980910E+01  0.61906239055E+02  0.10566000000E+00 0.  1.
         22    1    1    0    0    0 -0.30468541161E+02 -0.25748460261E+01  0.70822403775E+00  0.30585346391E+02  0.00000000000E+00 0.  1.
</event>
<event>
 5    1  0.1724235E-003  0.9118800E+02  0.7818608E-02  0.1130116E+00
         25   -1    0    0    0    0  0.00000000000E+00  0.00000000000E+00  0.99999998245E-14  0.12500000000E+03  0.12500000000E+03 0.  0.
        -13    1    3    3    0    0  0.10116903849E+02  0.19534649883E+02  0.11662594227E+02  0.24899428862E+02  0.10566000000E+00 0.  1.
         23    2    1    0    0    0  0.14849128708E+02 -0.38318530495E+02  0.11591315373E+01  0.83888566206E+02  0.73124151629E+02 0.  0.
         13    1    3    3    0    0  0.47322248593E+01 -0.57853180378E+02 -0.10503462690E+02  0.58989137343E+02  0.10566000000E+00 0. -1.
         22    1    1    0    0    0 -0.14849128708E+02  0.38318530495E+02 -0.11591315373E+01  0.41111433794E+02  0.00000000000E+00 0. -1.
</event>
<event>
 5    1  0.1724235E-003  0.9118800E+02  0.7818608E-02  0.1130116E+00
         25   -1    0    0    0    0  0.00000000000E+00  0.00000000000E+00  0.99999998245E-14  0.12500000000E+03  0.12500000000E+03 0.  0.
        -13    1    3    3    0    0 -0.18293808760E+02  0.22680434800E+01  0.38457951069E+02  0.42647773971E+02  0.10566000000E+00 0. -1.
         23    2    1    0    0    0 -0.22639375963E+02 -0.12298882550E+02 -0.12884549801E+02  0.96193481996E+02  0.91778921866E+02 0.  0.
         13    1    3    3    0    0 -0.43455672030E+01 -0.14566926030E+02 -0.51342500870E+02  0.53545708025E+02  0.10566000000E+00 0.  1.
         22    1    1    0    0    0  0.22639375963E+02  0.12298882550E+02  0.12884549801E+02  0.28806518004E+02  0.00000000000E+00 0.  1.
</event>
<event>
 5    1  0.1724235E-003  0.9118800E+02  0.7818608E-02  0.1130116E+00
         25   -1    0    0    0    0  0.00000000000E+00  0.00000000000E+00  0.99999998245E-14  0.12500000000E+03  0.12500000000E+03 0.  0.
        -13    1    3    3    0    0  0.23858649610E+02 -0.24574189654E+02  0.28751878143E+02  0.44719208615E+02  0.10566000000E+00 0. -1.
         23    2    1    0    0    0 -0.10259468081E+02 -0.30393698287E+02 -0.43699652356E+01  0.92625161359E+02  0.86783007206E+02 0.  0.
         13    1    3    3    0    0 -0.34118117691E+02 -0.58195086329E+01 -0.33121843379E+02  0.47905952744E+02  0.10566000000E+00 0.  1.
         22    1    1    0    0    0  0.10259468081E+02  0.30393698287E+02  0.43699652356E+01  0.32374838641E+02  0.00000000000E+00 0.  1.
</event>
<event>
 5    1  0.1724235E-003  0.9118800E+02  0.7818608E-02  0.1130116E+00
         25   -1    0    0    0    0  0.00000000000E+00  0.00000000000E+00  0.99999998245E-14  0.12500000000E+03  0.12500000000E+03 0.  0.
        -13    1    3    3    0    0 -0.74372821569E+01 -0.28058159212E+02 -0.20886276611E+02  0.35760609320E+02  0.10566000000E+00 0.  1.
         23    2    1    0    0    0 -0.26330817794E+02  0.91971675647E+01  0.17152133285E+02  0.92257130041E+02  0.86251275413E+02 0.  0.
         13    1    3    3    0    0 -0.18893535637E+02  0.37255326777E+02  0.38038409896E+02  0.56496520721E+02  0.10566000000E+00 0. -1.
         22    1    1    0    0    0  0.26330817794E+02 -0.91971675647E+01 -0.17152133285E+02  0.32742869959E+02  0.00000000000E+00 0. -1.
</event>
<event>
 5    1  0.1724235E-003  0.9118800E+02  0.7818608E-02  0.1130116E+00
         25   -1    0    0    0    0  0.00000000000E+00  0.00000000000E+00  0.99999998245E-14  0.12500000000E+03  0.12500000000E+03 0.  0.
        -13    1    3    3    0    0 -0.37103017690E+02  0.18323554999E+02  0.14523835363E+02  0.43855895238E+02  0.10566000000E+00 0.  1.
         23    2    1    0    0    0 -0.11373806306E+01  0.18276942164E+02 -0.22845412003E+02  0.95721115131E+02  0.91133302271E+02 0.  0.
         13    1    3    3    0    0  0.35965637059E+02 -0.46612834908E-01 -0.37369247366E+02  0.51865219893E+02  0.10566000000E+00 0. -1.
         22    1    1    0    0    0  0.11373806306E+01 -0.18276942164E+02  0.22845412003E+02  0.29278884869E+02  0.00000000000E+00 0. -1.
</event>
<event>
 5    1  0.1724235E-003  0.9118800E+02  0.7818608E-02  0.1130116E+00
         25   -1    0    0    0    0  0.00000000000E+00  0.00000000000E+00  0.99999998245E-14  0.12500000000E+03  0.12500000000E+03 0.  0.
        -13    1    3    3    0    0  0.21574447636E+02 -0.17895757312E+02 -0.25174247070E+02  0.37675838413E+02  0.10566000000E+00 0. -1.
         23    2    1    0    0    0  0.21963485158E+02  0.90402428273E+01  0.22402831445E+02  0.92350229290E+02  0.86386094498E+02 0.  0.
         13    1    3    3    0    0  0.38903752203E+00  0.26936000140E+02  0.47577078515E+02  0.54674390877E+02  0.10566000000E+00 0.  1.
         22    1    1    0    0    0 -0.21963485158E+02 -0.90402428273E+01 -0.22402831445E+02  0.32649770710E+02  0.00000000000E+00 0.  1.
</event>
<event>
 5    1  0.1724235E-003  0.9118800E+02  0.7818608E-02  0.1130116E+00
         25   -1    0    0    0    0  0.00000000000E+00  0.00000000000E+00  0.99999998245E-14  0.12500000000E+03  0.12500000000E+03 0.  0.
        -13    1    3    3    0    0 -0.39444940634E+02  0.21671918685E+02  0.29143077870E+02  0.53618145743E+02  0.10566000000E+00 0. -1.
         23    2    1    0    0    0  0.20234152334E+01  0.20060677541E+02  0.20959128357E+02  0.95917186276E+02  0.91401841169E+02 0.  0.
         13    1    3    3    0    0  0.41468355868E+02 -0.16112411437E+01 -0.81839495131E+01  0.42299040533E+02  0.10566000000E+00 0.  1.
         22    1    1    0    0    0 -0.20234152334E+01 -0.20060677541E+02 -0.20959128357E+02  0.29082813724E+02  0.00000000000E+00 0. -1.
</event>
<event>
 5    1  0.1724235E-003  0.9118800E+02  0.7818608E-02  0.1130116E+00
         25   -1    0    0    0    0  0.00000000000E+00  0.00000000000E+00  0.99999998245E-14  0.12500000000E+03  0.12500000000E+03 0.  0.
        -13    1    3    3    0    0 -0.20214345297E+02  0.35391321199E+02  0.41747243503E+02  0.58343884650E+02  0.10566000000E+00 0. -1.
         23    2    1    0    0    0 -0.18336124877E+02  0.35664789938E+01  0.23154982378E+02  0.95249597366E+02  0.90484249135E+02 0.  0.
         13    1    3    3    0    0  0.18782204193E+01 -0.31824842205E+02 -0.18592261125E+02  0.36905712716E+02  0.10566000000E+00 0.  1.
         22    1    1    0    0    0  0.18336124877E+02 -0.35664789938E+01 -0.23154982378E+02  0.29750402634E+02  0.00000000000E+00 0. -1.
</event>
<event>
 5    1  0.1724235E-003  0.9118800E+02  0.7818608E-02  0.1130116E+00
         25   -1    0    0    0    0  0.00000000000E+00  0.00000000000E+00  0.99999998245E-14  0.12500000000E+03  0.12500000000E+03 0.  0.
        -13    1    3    3    0    0  0.19151888867E+02  0.18797522745E+02 -0.22482275166E+02  0.35008649919E+02  0.10566000000E+00 0. -1.
         23    2    1    0    0    0  0.16591926732E+02 -0.24551427067E+02  0.14466235604E+02  0.92025213022E+02  0.85914511321E+02 0.  0.
         13    1    3    3    0    0 -0.25599621354E+01 -0.43348949812E+02  0.36948510770E+02  0.57016563103E+02  0.10566000000E+00 0.  1.
         22    1    1    0    0    0 -0.16591926732E+02  0.24551427067E+02 -0.14466235604E+02  0.32974786978E+02  0.00000000000E+00 0.  1.
</event>
<event>
 5    1  0.1724235E-003  0.9118800E+02  0.7818608E-02  0.1130116E+00
         25   -1    0    0    0    0  0.00000000000E+00  0.00000000000E+00  0.99999998245E-14  0.12500000000E+03  0.12500000000E+03 0.  0.
        -13    1    3    3    0    0  0.11917639075E+02  0.33774876722E+02  0.25491464400E+02  0.43961327778E+02  0.10566000000E+00 0. -1.
         23    2    1    0    0    0 -0.27991183816E+02  0.94625972295E+01  0.48133990498E+01  0.95063134296E+02  0.90226290925E+02 0.  0.
         13    1    3    3    0    0 -0.39908822891E+02 -0.24312279493E+02 -0.20678065351E+02  0.51101806518E+02  0.10566000000E+00 0.  1.
         22    1    1    0    0    0  0.27991183816E+02 -0.94625972295E+01 -0.48133990498E+01  0.29936865704E+02  0.00000000000E+00 0.  1.
</event>
<event>
 5    1  0.1724235E-003  0.9118800E+02  0.7818608E-02  0.1130116E+00
         25   -1    0    0    0    0  0.00000000000E+00  0.00000000000E+00  0.99999998245E-14  0.12500000000E+03  0.12500000000E+03 0.  0.
        -13    1    3    3    0    0  0.22286348408E+02 -0.22100975269E+02  0.24694592676E+02  0.39937056785E+02  0.10566000000E+00 0.  1.
         23    2    1    0    0    0  0.30034880389E+01 -0.11709536703E+02 -0.26637669434E+02  0.95747656110E+02  0.91169699064E+02 0.  0.
         13    1    3    3    0    0 -0.19282860369E+02  0.10391438566E+02 -0.51332262111E+02  0.55810599324E+02  0.10566000000E+00 0. -1.
         22    1    1    0    0    0 -0.30034880389E+01  0.11709536703E+02  0.26637669434E+02  0.29252343890E+02  0.00000000000E+00 0. -1.
</event>
<event>
 5    1  0.1724235E-003  0.9118800E+02  0.7818608E-02  0.1130116E+00
         25   -1    0    0    0    0  0.00000000000E+00  0.00000000000E+00  0.99999998245E-14  0.12500000000E+03  0.12500000000E+03 0.  0.
        -13    1    3    3    0    0 -0.54759880082E+01 -0.21066802611E+02  0.13975034593E+02  0.25867148525E+02  0.10566000000E+00 0.  1.
         23    2    1    0    0    0 -0.36528149808E+02 -0.53816663549E+01 -0.26733278441E+02  0.79415614105E+02  0.65030020193E+02 0.  0.
         13    1    3    3    0    0 -0.31052161800E+02  0.15685136256E+02 -0.40708313034E+02  0.53548465580E+02  0.10566000000E+00 0. -1.
         22    1    1    0    0    0  0.36528149808E+02  0.53816663549E+01  0.26733278441E+02  0.45584385895E+02  0.00000000000E+00 0. -1.
</event>
<event>
 5    1  0.1724235E-003  0.9118800E+02  0.7818608E-02  0.1130116E+00
         25   -1    0    0    0    0  0.00000000000E+00  0.00000000000E+00  0.99999998245E-14  0.12500000000E+03  0.12500000000E+03 0.  0.
        -13    1    3    3    0    0  0.36170710531E+02 -0.35130133327E+02  0.25517561222E+02  0.56511978046E+02  0.10566000000E+00 0.  1.
         23    2    1    0    0    0  0.46904784376E+00 -0.26220969276E+02  0.15026379085E+02  0.94774988766E+02  0.89826205484E+02 0.  0.
         13    1    3    3    0    0 -0.35701662687E+02  0.89091640509E+01 -0.10491182137E+02  0.38263010720E+02  0.10566000000E+00 0. -1.
         22    1    1    0    0    0 -0.46904784376E+00  0.26220969276E+02 -0.15026379085E+02  0.30225011234E+02  0.00000000000E+00 0.  1.
</event>
<event>
 5    1  0.1724235E-003  0.9118800E+02  0.7818608E-02  0.1130116E+00
         25   -1    0    0    0    0  0.00000000000E+00  0.00000000000E+00  0.99999998245E-14  0.12500000000E+03  0.12500000000E+03 0.  0.
        -13    1    3    3    0    0  0.11123054902E+02 -0.15619015279E+02  0.26583534990E+02  0.32777606459E+02  0.10566000000E+00 0.  1.
         23    2    1    0    0    0 -0.12026953244E+02  0.27296561534E+02 -0.97841973853E+01  0.93607637961E+02  0.88186787504E+02 0.  0.
         13    1    3    3    0    0 -0.23150008146E+02  0.42915576813E+02 -0.36367732375E+02  0.60830031501E+02  0.10566000000E+00 0. -1.
         22    1    1    0    0    0  0.12026953244E+02 -0.27296561534E+02  0.97841973853E+01  0.31392362039E+02  0.00000000000E+00 0. -1.
</event>
<event>
 5    1  0.1724235E-003  0.9118800E+02  0.7818608E-02  0.1130116E+00
         25   -1    0    0    0    0  0.00000000000E+00  0.00000000000E+00  0.99999998245E-14  0.12500000000E+03  0.12500000000E+03 0.  0.
        -13    1    3    3    0    0 -0.52930871544E+02 -0.12167664934E+02  0.94851556344E+01  0.55133552160E+02  0.10566000000E+00 0. -1.
         23    2    1    0    0    0 -0.19354163161E+02 -0.15418350486E+02 -0.14309994752E+02  0.96415299316E+02  0.92080534474E+02 0.  0.
         13    1    3    3    0    0  0.33576708383E+02 -0.32506855525E+01 -0.23795150386E+02  0.41281747157E+02  0.10566000000E+00 0.  1.
         22    1    1    0    0    0  0.19354163161E+02  0.15418350486E+02  0.14309994752E+02  0.28584700684E+02  0.00000000000E+00 0. -1.
</event>
<event>
 5    1  0.1724235E-003  0.9118800E+02  0.7818608E-02  0.1130116E+00
         25   -1    0    0    0    0  0.00000000000E+00  0.00000000000E+00  0.99999998245E-14  0.12500000000E+03  0.12500000000E+03 0.  0.
        -13    1    3    3    0    0 -0.14453055080E+02 -0.33634960716E+02 -0.34783588605E+02  0.50498619623E+02  0.10566000000E+00 0.  1.
         23    2    1    0    0    0 -0.14406638287E+02 -0.22498342717E+02  0.98694499131E+01  0.96519608616E+02  0.92222026404E+02 0.  0.
         13    1    3    3    0    0  0.46416792876E-01  0.11136617998E+02  0.44653038519E+02  0.46020988993E+02  0.10566000000E+00 0. -1.
         22    1    1    0    0    0  0.14406638287E+02  0.22498342717E+02 -0.98694499131E+01  0.28480391384E+02  0.00000000000E+00 0.  1.
</event>
<event>
 5    1  0.1724235E-003  0.9118800E+02  0.7818608E-02  0.1130116E+00
         25   -1    0    0    0    0  0.00000000000E+00  0.00000000000E+00  0.99999998245E-14  0.12500000000E+03  0.12500000000E+03 0.  0.
        -13    1    3    3    0    0  0.14442545136E+02  0.19463499746E+02 -0.46073972327E+02  0.52059936826E+02  0.10566000000E+00 0. -1.
         23    2    1    0    0    0 -0.89313466446E+01  0.28475156435E+02 -0.16213115967E+02  0.91037246634E+02  0.84464854575E+02 0.  0.
         13    1    3    3    0    0 -0.23373891780E+02  0.90116566888E+01  0.29860856360E+02  0.38977309808E+02  0.10566000000E+00 0.  1.
         22    1    1    0    0    0  0.89313466446E+01 -0.28475156435E+02  0.16213115967E+02  0.33962753366E+02  0.00000000000E+00 0. -1.
</event>
<event>
 5    1  0.1724235E-003  0.9118800E+02  0.7818608E-02  0.1130116E+00
         25   -1    0    0    0    0  0.00000000000E+00  0.00000000000E+00  0.99999998245E-14  0.12500000000E+03  0.12500000000E+03 0.  0.
        -13    1    3    3    0    0  0.33990823990E+02  0.40382004331E+02 -0.28248241413E+02  0.59866991709E+02  0.10566000000E+00 0. -1.
         23    2    1    0    0    0  0.25873554796E+02  0.11298660008E+02 -0.10590664333E+02  0.94846016403E+02  0.89924991524E+02 0.  0.
         13    1    3    3    0    0 -0.81172691939E+01 -0.29083344323E+02  0.17657577080E+02  0.34979024694E+02  0.10566000000E+00 0.  1.
         22    1    1    0    0    0 -0.25873554796E+02 -0.11298660008E+02  0.10590664333E+02  0.30153983597E+02  0.00000000000E+00 0. -1.
</event>
<event>
 5    1  0.1724235E-003  0.9118800E+02  0.7818608E-02  0.1130116E+00
         25   -1    0    0    0    0  0.00000000000E+00  0.00000000000E+00  0.99999998245E-14  0.12500000000E+03  0.12500000000E+03 0.  0.
        -13    1    3    3    0    0 -0.18675139146E+02 -0.17572765627E+02 -0.36718808939E+02  0.44786661048E+02  0.10566000000E+00 0. -1.
         23    2    1    0    0    0  0.13059512814E+02  0.18653792808E+02 -0.79749889384E+01  0.10087293409E+03  0.97945053583E+02 0.  0.
         13    1    3    3    0    0  0.31734651960E+02  0.36226558435E+02  0.28743820000E+02  0.56086273038E+02  0.10566000000E+00 0.  1.
         22    1    1    0    0    0 -0.13059512814E+02 -0.18653792808E+02  0.79749889384E+01  0.24127065914E+02  0.00000000000E+00 0.  1.
</event>
<event>
 5    1  0.1724235E-003  0.9118800E+02  0.7818608E-02  0.1130116E+00
         25   -1    0    0    0    0  0.00000000000E+00  0.00000000000E+00  0.99999998245E-14  0.12500000000E+03  0.12500000000E+03 0.  0.
        -13    1    3    3    0    0 -0.22218491944E+02 -0.26755971448E+02 -0.20521245998E+02  0.40381630648E+02  0.10566000000E+00 0.  1.
         23    2    1    0    0    0 -0.10121212013E+02  0.25990457815E+02 -0.88068409972E+01  0.95751012352E+02  0.91174300590E+02 0.  0.
         13    1    3    3    0    0  0.12097279931E+02  0.52746429264E+02  0.11714405001E+02  0.55369381705E+02  0.10566000000E+00 0. -1.
         22    1    1    0    0    0  0.10121212013E+02 -0.25990457815E+02  0.88068409972E+01  0.29248987648E+02  0.00000000000E+00 0. -1.
</event>
<event>
 5    1  0.1724235E-003  0.9118800E+02  0.7818608E-02  0.1130116E+00
         25   -1    0    0    0    0  0.00000000000E+00  0.00000000000E+00  0.99999998245E-14  0.12500000000E+03  0.12500000000E+03 0.  0.
        -13    1    3    3    0    0  0.28530192546E+02 -0.16062067748E+02 -0.92001286668E+01  0.34009049363E+02  0.10566000000E+00 0. -1.
         23    2    1    0    0    0 -0.16544932344E+02  0.24688023834E+02 -0.17417014425E+01  0.95229766024E+02  0.90456848862E+02 0.  0.
         13    1    3    3    0    0 -0.45075124890E+02  0.40750091581E+02  0.74584272243E+01  0.61220716661E+02  0.10566000000E+00 0.  1.
         22    1    1    0    0    0  0.16544932344E+02 -0.24688023834E+02  0.17417014425E+01  0.29770233976E+02  0.00000000000E+00 0.  1.
</event>
<event>
 5    1  0.1724235E-003  0.9118800E+02  0.7818608E-02  0.1130116E+00
         25   -1    0    0    0    0  0.00000000000E+00  0.00000000000E+00  0.99999998245E-14  0.12500000000E+03  0.12500000000E+03 0.  0.
        -13    1    3    3    0    0 -0.11455459047E+02 -0.74800893477E+01  0.35842738941E+02  0.38365249607E+02  0.10566000000E+00 0.  1.
         23    2    1    0    0    0 -0.13156669428E+02  0.21213296264E+02 -0.14351052993E+02  0.96206691562E+02  0.91796911116E+02 0.  0.
         13    1    3    3    0    0 -0.17012103814E+01  0.28693385611E+02 -0.50193791934E+02  0.57841441954E+02  0.10566000000E+00 0. -1.
         22    1    1    0    0    0  0.13156669428E+02 -0.21213296264E+02  0.14351052993E+02  0.28793308438E+02  0.00000000000E+00 0. -1.
</event>
<event>
 5    1  0.1724235E-003  0.9118800E+02  0.7818608E-02  0.1130116E+00
         25   -1    0    0    0    0  0.00000000000E+00  0.00000000000E+00  0.99999998245E-14  0.12500000000E+03  0.12500000000E+03 0.  0.
        -13    1    3    3    0    0  0.31947315613E+02  0.12240102438E+02 -0.95467331016E+00  0.34225336342E+02  0.10566000000E+00 0. -1.
         23    2    1    0    0    0 -0.18530499979E+02 -0.20178068333E+02 -0.11768272225E+02  0.95183459251E+02  0.90392836069E+02 0.  0.
         13    1    3    3    0    0 -0.50477815592E+02 -0.32418170770E+02 -0.10813598915E+02  0.60958122909E+02  0.10566000000E+00 0.  1.
         22    1    1    0    0    0  0.18530499979E+02  0.20178068333E+02  0.11768272225E+02  0.29816540749E+02  0.00000000000E+00 0.  1.
</event>
<event>
 5    1  0.1724235E-003  0.9118800E+02  0.7818608E-02  0.1130116E+00
         25   -1    0    0    0    0  0.00000000000E+00  0.00000000000E+00  0.99999998245E-14  0.12500000000E+03  0.12500000000E+03 0.  0.
        -13    1    3    3    0    0  0.23037852267E+02  0.29318965235E+02 -0.99842255914E+01  0.38601039937E+02  0.10566000000E+00 0.  1.
         23    2    1    0    0    0 -0.17871071074E+02  0.60532753949E+01  0.22387502399E+02  0.95721721567E+02  0.91134134065E+02 0.  0.
         13    1    3    3    0    0 -0.40908923342E+02 -0.23265689840E+02  0.32371727990E+02  0.57120681630E+02  0.10566000000E+00 0. -1.
         22    1    1    0    0    0  0.17871071074E+02 -0.60532753949E+01 -0.22387502399E+02  0.29278278433E+02  0.00000000000E+00 0. -1.
</event>
<event>
 5    1  0.1724235E-003  0.9118800E+02  0.7818608E-02  0.1130116E+00
         25   -1    0    0    0    0  0.00000000000E+00  0.00000000000E+00  0.99999998245E-14  0.12500000000E+03  0.12500000000E+03 0.  0.
        -13    1    3    3    0    0  0.47378069992E+02  0.29828883494E+01 -0.10980506411E+02  0.48725371462E+02  0.10566000000E+00 0.  1.
         23    2    1    0    0    0  0.34065733297E+01  0.57524963670E+01 -0.28191623330E+02  0.96026502071E+02  0.91551218002E+02 0.  0.
         13    1    3    3    0    0 -0.43971496662E+02  0.27696080177E+01 -0.17211116918E+02  0.47301130609E+02  0.10566000000E+00 0. -1.
         22    1    1    0    0    0 -0.34065733297E+01 -0.57524963670E+01  0.28191623330E+02  0.28973497929E+02  0.00000000000E+00 0.  1.
</event>
<event>
 5    1  0.1724235E-003  0.9118800E+02  0.7818608E-02  0.1130116E+00
         25   -1    0    0    0    0  0.00000000000E+00  0.00000000000E+00  0.99999998245E-14  0.12500000000E+03  0.12500000000E+03 0.  0.
        -13    1    3    3    0    0  0.83242246858E+01  0.31735663495E+01  0.36520552622E+02  0.37591570436E+02  0.10566000000E+00 0. -1.
         23    2    1    0    0    0 -0.23479228236E+02 -0.16153538694E+02 -0.77880445453E+01  0.95455717834E+02  0.90768548839E+02 0.  0.
         13    1    3    3    0    0 -0.31803452921E+02 -0.19327105044E+02 -0.44308597167E+02  0.57864147398E+02  0.10566000000E+00 0.  1.
         22    1    1    0    0    0  0.23479228236E+02  0.16153538694E+02  0.77880445453E+01  0.29544282166E+02  0.00000000000E+00 0.  1.
</event>
<event>
 5    1  0.1724235E-003  0.9118800E+02  0.7818608E-02  0.1130116E+00
         25   -1    0    0    0    0  0.00000000000E+00  0.00000000000E+00  0.99999998245E-14  0.12500000000E+03  0.12500000000E+03 0.  0.
        -13    1    3    3    0    0  0.44183417925E+02  0.21229330744E+02 -0.15712856354E+02  0.51475857663E+02  0.10566000000E+00 0. -1.
         23    2    1    0    0    0  0.83939548457E-01  0.23600392999E+02 -0.17411408695E+02  0.95671809665E+02  0.91065648937E+02 0.  0.
         13    1    3    3    0    0 -0.44099478376E+02  0.23710622555E+01 -0.16985523412E+01  0.44195952002E+02  0.10566000000E+00 0.  1.
         22    1    1    0    0    0 -0.83939548457E-01 -0.23600392999E+02  0.17411408695E+02  0.29328190335E+02  0.00000000000E+00 0. -1.
</event>
<event>
 5    1  0.1724235E-003  0.9118800E+02  0.7818608E-02  0.1130116E+00
         25   -1    0    0    0    0  0.00000000000E+00  0.00000000000E+00  0.99999998245E-14  0.12500000000E+03  0.12500000000E+03 0.  0.
        -13    1    3    3    0    0 -0.49553857522E+02  0.43579913806E+01  0.23563119622E+02  0.55043697682E+02  0.10566000000E+00 0.  1.
         23    2    1    0    0    0 -0.19210809307E+02  0.20127475469E+02 -0.10170340719E+01  0.97157499730E+02  0.93082624225E+02 0.  0.
         13    1    3    3    0    0  0.30343048215E+02  0.15769484088E+02 -0.24580153693E+02  0.42113802049E+02  0.10566000000E+00 0. -1.
         22    1    1    0    0    0  0.19210809307E+02 -0.20127475469E+02  0.10170340719E+01  0.27842500270E+02  0.00000000000E+00 0.  1.
</event>
<event>
 5    1  0.1724235E-003  0.9118800E+02  0.7818608E-02  0.1130116E+00
         25   -1    0    0    0    0  0.00000000000E+00  0.00000000000E+00  0.99999998245E-14  0.12500000000E+03  0.12500000000E+03 0.  0.
        -13    1    3    3    0    0  0.12501698061E+02  0.95056904570E+01  0.42778885810E+02  0.45570767392E+02  0.10566000000E+00 0. -1.
         23    2    1    0    0    0 -0.19399193228E+01  0.23534715618E+02 -0.78970702695E+01  0.10010000311E+03  0.96953601160E+02 0.  0.
         13    1    3    3    0    0 -0.14441617384E+02  0.14029025161E+02 -0.50675956079E+02  0.54529235720E+02  0.10566000000E+00 0.  1.
         22    1    1    0    0    0  0.19399193228E+01 -0.23534715618E+02  0.78970702695E+01  0.24899996888E+02  0.00000000000E+00 0.  1.
</event>
<event>
 5    1  0.1724235E-003  0.9118800E+02  0.7818608E-02  0.1130116E+00
         25   -1    0    0    0    0  0.00000000000E+00  0.00000000000E+00  0.99999998245E-14  0.12500000000E+03  0.12500000000E+03 0.  0.
        -13    1    3    3    0    0 -0.25730567509E+02 -0.18436463283E+02 -0.10402499107E+02  0.33319490308E+02  0.10566000000E+00 0. -1.
         23    2    1    0    0    0  0.26550440916E+02  0.10699532199E+02 -0.13706791964E+02  0.93262292961E+02  0.87695913476E+02 0.  0.
         13    1    3    3    0    0  0.52281008425E+02  0.29135995481E+02 -0.33042928576E+01  0.59942802653E+02  0.10566000000E+00 0.  1.
         22    1    1    0    0    0 -0.26550440916E+02 -0.10699532199E+02  0.13706791964E+02  0.31737707039E+02  0.00000000000E+00 0.  1.
</event>
<event>
 5    1  0.1724235E-003  0.9118800E+02  0.7818608E-02  0.1130116E+00
         25   -1    0    0    0    0  0.00000000000E+00  0.00000000000E+00  0.99999998245E-14  0.12500000000E+03  0.12500000000E+03 0.  0.
        -13    1    3    3    0    0  0.38921920935E+02  0.28893203903E+02  0.25549285832E+02  0.54795167046E+02  0.10566000000E+00 0.  1.
         23    2    1    0    0    0  0.17555974237E+02  0.22590196312E+02 -0.82041852797E+01  0.95236971644E+02  0.90466805575E+02 0.  0.
         13    1    3    3    0    0 -0.21365946698E+02 -0.63030075917E+01 -0.33753471111E+02  0.40441804598E+02  0.10566000000E+00 0. -1.
         22    1    1    0    0    0 -0.17555974237E+02 -0.22590196312E+02  0.82041852797E+01  0.29763028356E+02  0.00000000000E+00 0.  1.
</event>
<event>
 5    1  0.1724235E-003  0.9118800E+02  0.7818608E-02  0.1130116E+00
         25   -1    0    0    0    0  0.00000000000E+00  0.00000000000E+00  0.99999998245E-14  0.12500000000E+03  0.12500000000E+03 0.  0.
        -13    1    3    3    0    0  0.22570912183E+02  0.16162539207E+00  0.25402930159E+02  0.33982233950E+02  0.10566000000E+00 0.  1.
         23    2    1    0    0    0  0.10712426662E+02  0.16695596227E+02 -0.27745660980E+02  0.90892512236E+02  0.84250389073E+02 0.  0.
         13    1    3    3    0    0 -0.11858485521E+02  0.16533970835E+02 -0.53148591139E+02  0.56910278286E+02  0.10566000000E+00 0. -1.
         22    1    1    0    0    0 -0.10712426662E+02 -0.16695596227E+02  0.27745660980E+02  0.34107487764E+02  0.00000000000E+00 0. -1.
</event>
<event>
 5    1  0.1724235E-003  0.9118800E+02  0.7818608E-02  0.1130116E+00
         25   -1    0    0    0    0  0.00000000000E+00  0.00000000000E+00  0.99999998245E-14  0.12500000000E+03  0.12500000000E+03 0.  0.
        -13    1    3    3    0    0  0.23921960169E+01  0.35874141044E+02 -0.27176732627E+01  0.36056532132E+02  0.10566000000E+00 0.  1.
         23    2    1    0    0    0  0.26147469002E+02 -0.16347063674E+02  0.43384806178E+01  0.93859366737E+02  0.88542880483E+02 0.  0.
         13    1    3    3    0    0  0.23755272985E+02 -0.52221204718E+02  0.70561538805E+01  0.57802834605E+02  0.10566000000E+00 0. -1.
         22    1    1    0    0    0 -0.26147469002E+02  0.16347063674E+02 -0.43384806178E+01  0.31140633263E+02  0.00000000000E+00 0. -1.
</event>
<event>
 5    1  0.1724235E-003  0.9118800E+02  0.7818608E-02  0.1130116E+00
         25   -1    0    0    0    0  0.00000000000E+00  0.00000000000E+00  0.99999998245E-14  0.12500000000E+03  0.12500000000E+03 0.  0.
        -13    1    3    3    0    0 -0.27375101292E+02  0.35521724777E+02 -0.39321818805E+02  0.59643991315E+02  0.10566000000E+00 0. -1.
         23    2    1    0    0    0 -0.61857014846E+01  0.25650900689E+02 -0.10881719388E+02  0.96458040959E+02  0.92138538299E+02 0.  0.
         13    1    3    3    0    0  0.21189399807E+02 -0.98708240873E+01  0.28440099416E+02  0.36814049644E+02  0.10566000000E+00 0.  1.
         22    1    1    0    0    0  0.61857014846E+01 -0.25650900689E+02  0.10881719388E+02  0.28541959041E+02  0.00000000000E+00 0. -1.
</event>
<event>
 5    1  0.1724235E-003  0.9118800E+02  0.7818608E-02  0.1130116E+00
         25   -1    0    0    0    0  0.00000000000E+00  0.00000000000E+00  0.99999998245E-14  0.12500000000E+03  0.12500000000E+03 0.  0.
        -13    1    3    3    0    0 -0.23297399624E+02  0.33426171984E+02 -0.42933455178E+02  0.59189277241E+02  0.10566000000E+00 0.  1.
         23    2    1    0    0    0 -0.19073095694E+02  0.19519185161E+02 -0.87396241924E+01  0.96344065192E+02  0.91983782799E+02 0.  0.
         13    1    3    3    0    0  0.42243039304E+01 -0.13906986823E+02  0.34193830985E+02  0.37154787951E+02  0.10566000000E+00 0. -1.
         22    1    1    0    0    0  0.19073095694E+02 -0.19519185161E+02  0.87396241924E+01  0.28655934808E+02  0.00000000000E+00 0.  1.
</event>
<event>
 5    1  0.1724235E-003  0.9118800E+02  0.7818608E-02  0.1130116E+00
         25   -1    0    0    0    0  0.00000000000E+00  0.00000000000E+00  0.99999998245E-14  0.12500000000E+03  0.12500000000E+03 0.  0.
        -13    1    3    3    0    0  0.29084936698E+02  0.20143358193E+02 -0.18066347547E+02  0.39725212394E+02  0.10566000000E+00 0.  1.
         23    2    1    0    0    0 -0.38565016229E+01  0.16051894896E+02  0.25576982798E+02  0.94557956974E+02  0.89523679792E+02 0.  0.
         13    1    3    3    0    0 -0.32941438321E+02 -0.40914632975E+01  0.43643330345E+02  0.54832744580E+02  0.10566000000E+00 0. -1.
         22    1    1    0    0    0  0.38565016229E+01 -0.16051894896E+02 -0.25576982798E+02  0.30442043026E+02  0.00000000000E+00 0. -1.
</event>
<event>
 5    1  0.1724235E-003  0.9118800E+02  0.7818608E-02  0.1130116E+00
         25   -1    0    0    0    0  0.00000000000E+00  0.00000000000E+00  0.99999998245E-14  0.12500000000E+03  0.12500000000E+03 0.  0.
        -13    1    3    3    0    0  0.38220381763E+01 -0.39897705621E+02  0.86043828737E+01  0.40993675833E+02  0.10566000000E+00 0.  1.
         23    2    1    0    0    0  0.27077216774E+02  0.94672432878E+01  0.64198261557E+01  0.95605807860E+02  0.90975007365E+02 0.  0.
         13    1    3    3    0    0  0.23255178598E+02  0.49364948909E+02 -0.21845567180E+01  0.54612132027E+02  0.10566000000E+00 0. -1.
         22    1    1    0    0    0 -0.27077216774E+02 -0.94672432878E+01 -0.64198261557E+01  0.29394192140E+02  0.00000000000E+00 0. -1.
</event>
<event>
 5    1  0.1724235E-003  0.9118800E+02  0.7818608E-02  0.1130116E+00
         25   -1    0    0    0    0  0.00000000000E+00  0.00000000000E+00  0.99999998245E-14  0.12500000000E+03  0.12500000000E+03 0.  0.
        -13    1    3    3    0    0  0.40653098556E+02  0.30751817340E+02  0.60811544397E+01  0.51335565598E+02  0.10566000000E+00 0.  1.
         23    2    1    0    0    0  0.20542110006E+02 -0.83540896341E+01  0.17479963092E+02  0.96763176403E+02  0.92551575356E+02 0.  0.
         13    1    3    3    0    0 -0.20110988550E+02 -0.39105906974E+02  0.11398808653E+02  0.45427610805E+02  0.10566000000E+00 0. -1.
         22    1    1    0    0    0 -0.20542110006E+02  0.83540896341E+01 -0.17479963092E+02  0.28236823597E+02  0.00000000000E+00 0.  1.
</event>
<event>
 5    1  0.1724235E-003  0.9118800E+02  0.7818608E-02  0.1130116E+00
         25   -1    0    0    0    0  0.00000000000E+00  0.00000000000E+00  0.99999998245E-14  0.12500000000E+03  0.12500000000E+03 0.  0.
        -13    1    3    3    0    0 -0.41371018172E+02  0.39704201185E+01 -0.34052206728E+02  0.53729780640E+02  0.10566000000E+00 0. -1.
         23    2    1    0    0    0 -0.31989544638E+02  0.41372317728E+01  0.36093539132E+01  0.92542719021E+02  0.86664178040E+02 0.  0.
         13    1    3    3    0    0  0.93814735343E+01  0.16681165427E+00  0.37661560641E+02  0.38812938381E+02  0.10566000000E+00 0.  1.
         22    1    1    0    0    0  0.31989544638E+02 -0.41372317728E+01 -0.36093539132E+01  0.32457280979E+02  0.00000000000E+00 0. -1.
</event>
<event>
 5    1  0.1724235E-003  0.9118800E+02  0.7818608E-02  0.1130116E+00
         25   -1    0    0    0    0  0.00000000000E+00  0.00000000000E+00  0.99999998245E-14  0.12500000000E+03  0.12500000000E+03 0.  0.
        -13    1    3    3    0    0 -0.22241769227E+02  0.26948687284E+02  0.81923346834E+01  0.35889463026E+02  0.10566000000E+00 0.  1.
         23    2    1    0    0    0 -0.45715836024E+01 -0.28423853695E+02 -0.57039107872E+01  0.95651244766E+02  0.91037416437E+02 0.  0.
         13    1    3    3    0    0  0.17670185625E+02 -0.55372540979E+02 -0.13896245471E+02  0.59761781740E+02  0.10566000000E+00 0. -1.
         22    1    1    0    0    0  0.45715836024E+01  0.28423853695E+02  0.57039107872E+01  0.29348755234E+02  0.00000000000E+00 0. -1.
</event>
<event>
 5    1  0.1724235E-003  0.9118800E+02  0.7818608E-02  0.1130116E+00
         25   -1    0    0    0    0  0.00000000000E+00  0.00000000000E+00  0.99999998245E-14  0.12500000000E+03  0.12500000000E+03 0.  0.
        -13    1    3    3    0    0  0.69456264163E+01  0.27393189230E+02  0.35890845923E+02  0.45681424317E+02  0.10566000000E+00 0.  1.
         23    2    1    0    0    0  0.19195597753E+02  0.15406565853E+02 -0.12768882173E+02  0.97271357833E+02  0.93235398097E+02 0.  0.
         13    1    3    3    0    0  0.12249971337E+02 -0.11986623377E+02 -0.48659728096E+02  0.51589933516E+02  0.10566000000E+00 0. -1.
         22    1    1    0    0    0 -0.19195597753E+02 -0.15406565853E+02  0.12768882173E+02  0.27728642167E+02  0.00000000000E+00 0.  1.
</event>
<event>
 5    1  0.1724235E-003  0.9118800E+02  0.7818608E-02  0.1130116E+00
         25   -1    0    0    0    0  0.00000000000E+00  0.00000000000E+00  0.99999998245E-14  0.12500000000E+03  0.12500000000E+03 0.  0.
        -13    1    3    3    0    0 -0.57690138046E+02  0.12199352187E+02  0.99123996275E+01  0.59793336183E+02  0.10566000000E+00 0.  1.
         23    2    1    0    0    0 -0.25027689213E+02  0.16764942801E+02 -0.18778688348E+01  0.94817638829E+02  0.89885536697E+02 0.  0.
         13    1    3    3    0    0  0.32662448832E+02  0.45655906145E+01 -0.11790268462E+02  0.35024302646E+02  0.10566000000E+00 0. -1.
         22    1    1    0    0    0  0.25027689213E+02 -0.16764942801E+02  0.18778688348E+01  0.30182361171E+02  0.00000000000E+00 0.  1.
</event>
<event>
 5    1  0.1724235E-003  0.9118800E+02  0.7818608E-02  0.1130116E+00
         25   -1    0    0    0    0  0.00000000000E+00  0.00000000000E+00  0.99999998245E-14  0.12500000000E+03  0.12500000000E+03 0.  0.
        -13    1    3    3    0    0 -0.15434145235E+02  0.28047297173E+01 -0.48658977521E+02  0.51125205186E+02  0.10566000000E+00 0.  1.
         23    2    1    0    0    0  0.19284723536E+02 -0.32371663534E+01 -0.23516408270E+02  0.94415669604E+02  0.89324786039E+02 0.  0.
         13    1    3    3    0    0  0.34718868771E+02 -0.60418960707E+01  0.25142569251E+02  0.43290464417E+02  0.10566000000E+00 0. -1.
         22    1    1    0    0    0 -0.19284723536E+02  0.32371663534E+01  0.23516408270E+02  0.30584330396E+02  0.00000000000E+00 0.  1.
</event>
<event>
 5    1  0.1724235E-003  0.9118800E+02  0.7818608E-02  0.1130116E+00
         25   -1    0    0    0    0  0.00000000000E+00  0.00000000000E+00  0.99999998245E-14  0.12500000000E+03  0.12500000000E+03 0.  0.
        -13    1    3    3    0    0 -0.46875210802E+02  0.34679494706E+01  0.38369786964E+02  0.60675891233E+02  0.10566000000E+00 0.  1.
         23    2    1    0    0    0 -0.15997803952E+02 -0.30803767968E+01  0.25450227217E+02  0.94781917369E+02  0.89835846644E+02 0.  0.
         13    1    3    3    0    0  0.30877406850E+02 -0.65483262674E+01 -0.12919559747E+02  0.34106026136E+02  0.10566000000E+00 0. -1.
         22    1    1    0    0    0  0.15997803952E+02  0.30803767968E+01 -0.25450227217E+02  0.30218082631E+02  0.00000000000E+00 0.  1.
</event>
<event>
 5    1  0.1724235E-003  0.9118800E+02  0.7818608E-02  0.1130116E+00
         25   -1    0    0    0    0  0.00000000000E+00  0.00000000000E+00  0.99999998245E-14  0.12500000000E+03  0.12500000000E+03 0.  0.
        -13    1    3    3    0    0 -0.40554455596E+02  0.32560986118E+02 -0.29097259651E+02  0.59594826696E+02  0.10566000000E+00 0.  1.
         23    2    1    0    0    0 -0.24775522899E+02  0.31154469038E+01 -0.15123828857E+02  0.95806460584E+02  0.91250288470E+02 0.  0.
         13    1    3    3    0    0  0.15778932696E+02 -0.29445539214E+02  0.13973430794E+02  0.36211633888E+02  0.10566000000E+00 0. -1.
         22    1    1    0    0    0  0.24775522899E+02 -0.31154469038E+01  0.15123828857E+02  0.29193539416E+02  0.00000000000E+00 0.  1.
</event>
<event>
 5    1  0.1724235E-003  0.9118800E+02  0.7818608E-02  0.1130116E+00
         25   -1    0    0    0    0  0.00000000000E+00  0.00000000000E+00  0.99999998245E-14  0.12500000000E+03  0.12500000000E+03 0.  0.
        -13    1    3    3    0    0  0.24917872227E+00 -0.61489848756E+02 -0.59050922461E+01  0.61773334608E+02  0.10566000000E+00 0. -1.
         23    2    1    0    0    0  0.48899691287E+01 -0.28308971758E+02  0.20165741227E+01  0.96201106770E+02  0.91789305982E+02 0.  0.
         13    1    3    3    0    0  0.46407904064E+01  0.33180876999E+02  0.79216663689E+01  0.34427772163E+02  0.10566000000E+00 0.  1.
         22    1    1    0    0    0 -0.48899691287E+01  0.28308971758E+02 -0.20165741227E+01  0.28798893230E+02  0.00000000000E+00 0. -1.
</event>
<event>
 5    1  0.1724235E-003  0.9118800E+02  0.7818608E-02  0.1130116E+00
         25   -1    0    0    0    0  0.00000000000E+00  0.00000000000E+00  0.99999998245E-14  0.12500000000E+03  0.12500000000E+03 0.  0.
        -13    1    3    3    0    0 -0.32567808652E+02 -0.86020980483E+01 -0.39166392375E+02  0.51659226736E+02  0.10566000000E+00 0. -1.
         23    2    1    0    0    0 -0.22700939398E+01 -0.26587607673E+02 -0.14946806689E+02  0.94414689172E+02  0.89323414025E+02 0.  0.
         13    1    3    3    0    0  0.30297714712E+02 -0.17985509625E+02  0.24219585687E+02  0.42755462436E+02  0.10566000000E+00 0.  1.
         22    1    1    0    0    0  0.22700939398E+01  0.26587607673E+02  0.14946806689E+02  0.30585310828E+02  0.00000000000E+00 0. -1.
</event>
<event>
 5    1  0.1724235E-003  0.9118800E+02  0.7818608E-02  0.1130116E+00
         25   -1    0    0    0    0  0.00000000000E+00  0.00000000000E+00  0.99999998245E-14  0.12500000000E+03  0.12500000000E+03 0.  0.
        -13    1    3    3    0    0 -0.15357438555E+02 -0.13315476175E+02 -0.52734327091E+02  0.56516132586E+02  0.10566000000E+00 0. -1.
         23    2    1    0    0    0  0.51579958470E+01 -0.18213831481E+02 -0.11450113381E+02  0.10287640005E+03  0.10046939839E+03 0.  0.
         13    1    3    3    0    0  0.20515434402E+02 -0.48983553065E+01  0.41284213710E+02  0.46360267462E+02  0.10566000000E+00 0.  1.
         22    1    1    0    0    0 -0.51579958470E+01  0.18213831481E+02  0.11450113381E+02  0.22123599952E+02  0.00000000000E+00 0. -1.
</event>
<event>
 5    1  0.1724235E-003  0.9118800E+02  0.7818608E-02  0.1130116E+00
         25   -1    0    0    0    0  0.00000000000E+00  0.00000000000E+00  0.99999998245E-14  0.12500000000E+03  0.12500000000E+03 0.  0.
        -13    1    3    3    0    0  0.25162808405E+02 -0.31082392582E+01 -0.29699833151E+02  0.39050215509E+02  0.10566000000E+00 0.  1.
         23    2    1    0    0    0  0.19556270318E+02 -0.83572129094E+00  0.24530490256E+02  0.93617025459E+02  0.88200092771E+02 0.  0.
         13    1    3    3    0    0 -0.56065380867E+01  0.22725179673E+01  0.54230323407E+02  0.54566809950E+02  0.10566000000E+00 0. -1.
         22    1    1    0    0    0 -0.19556270318E+02  0.83572129094E+00 -0.24530490256E+02  0.31382974541E+02  0.00000000000E+00 0.  1.
</event>
<event>
 5    1  0.1724235E-003  0.9118800E+02  0.7818608E-02  0.1130116E+00
         25   -1    0    0    0    0  0.00000000000E+00  0.00000000000E+00  0.99999998245E-14  0.12500000000E+03  0.12500000000E+03 0.  0.
        -13    1    3    3    0    0 -0.17485829261E+02  0.49759856506E+02 -0.17185673338E+01  0.52770845949E+02  0.10566000000E+00 0.  1.
         23    2    1    0    0    0  0.19985999315E+01  0.21313858970E+02 -0.23229962941E+02  0.93410347198E+02  0.87906693713E+02 0.  0.
         13    1    3    3    0    0  0.19484429193E+02 -0.28445997536E+02 -0.21511395607E+02  0.40639501249E+02  0.10566000000E+00 0. -1.
         22    1    1    0    0    0 -0.19985999315E+01 -0.21313858970E+02  0.23229962941E+02  0.31589652802E+02  0.00000000000E+00 0.  1.
</event>
<event>
 5    1  0.1724235E-003  0.9118800E+02  0.7818608E-02  0.1130116E+00
         25   -1    0    0    0    0  0.00000000000E+00  0.00000000000E+00  0.99999998245E-14  0.12500000000E+03  0.12500000000E+03 0.  0.
        -13    1    3    3    0    0  0.18915379804E+02  0.31616227201E+02 -0.44985900053E+01  0.37116383062E+02  0.10566000000E+00 0. -1.
         23    2    1    0    0    0 -0.86173413520E+01 -0.20583422458E+02 -0.16383330329E+02  0.97316984183E+02  0.93296548949E+02 0.  0.
         13    1    3    3    0    0 -0.27532721156E+02 -0.52199649659E+02 -0.11884740323E+02  0.60200601121E+02  0.10566000000E+00 0.  1.
         22    1    1    0    0    0  0.86173413520E+01  0.20583422458E+02  0.16383330329E+02  0.27683015817E+02  0.00000000000E+00 0.  1.
</event>
<event>
 5    1  0.1724235E-003  0.9118800E+02  0.7818608E-02  0.1130116E+00
         25   -1    0    0    0    0  0.00000000000E+00  0.00000000000E+00  0.99999998245E-14  0.12500000000E+03  0.12500000000E+03 0.  0.
        -13    1    3    3    0    0  0.29077655124E+01  0.52431648621E+02  0.20945339167E+02  0.56535398418E+02  0.10566000000E+00 0. -1.
         23    2    1    0    0    0  0.20382244101E+02  0.21302229932E+02  0.93290916625E+01  0.94076662115E+02  0.88849116646E+02 0.  0.
         13    1    3    3    0    0  0.17474478589E+02 -0.31129418689E+02 -0.11616247504E+02  0.37541263697E+02  0.10566000000E+00 0.  1.
         22    1    1    0    0    0 -0.20382244101E+02 -0.21302229932E+02 -0.93290916625E+01  0.30923337885E+02  0.00000000000E+00 0.  1.
</event>
<event>
 5    1  0.1724235E-003  0.9118800E+02  0.7818608E-02  0.1130116E+00
         25   -1    0    0    0    0  0.00000000000E+00  0.00000000000E+00  0.99999998245E-14  0.12500000000E+03  0.12500000000E+03 0.  0.
        -13    1    3    3    0    0  0.14280285673E+02 -0.21327952229E+02  0.27567636653E+02  0.37666880145E+02  0.10566000000E+00 0.  1.
         23    2    1    0    0    0 -0.28535856380E+02  0.54925930377E+00 -0.53829115219E+01  0.95955680046E+02  0.91454469609E+02 0.  0.
         13    1    3    3    0    0 -0.42816142053E+02  0.21877211533E+02 -0.32950548175E+02  0.58288799901E+02  0.10566000000E+00 0. -1.
         22    1    1    0    0    0  0.28535856380E+02 -0.54925930377E+00  0.53829115219E+01  0.29044319954E+02  0.00000000000E+00 0. -1.
</event>
<event>
 5    1  0.1724235E-003  0.9118800E+02  0.7818608E-02  0.1130116E+00
         25   -1    0    0    0    0  0.00000000000E+00  0.00000000000E+00  0.99999998245E-14  0.12500000000E+03  0.12500000000E+03 0.  0.
        -13    1    3    3    0    0  0.23947132434E+02  0.27250463252E+02  0.14790649541E+02  0.39176872989E+02  0.10566000000E+00 0.  1.
         23    2    1    0    0    0 -0.23920489006E+02  0.15600803828E+02 -0.10522931939E+02  0.94564708462E+02  0.89533106254E+02 0.  0.
         13    1    3    3    0    0 -0.47867621441E+02 -0.11649659424E+02 -0.25313581480E+02  0.55387835474E+02  0.10566000000E+00 0. -1.
         22    1    1    0    0    0  0.23920489006E+02 -0.15600803828E+02  0.10522931939E+02  0.30435291538E+02  0.00000000000E+00 0. -1.
</event>
<event>
 5    1  0.1724235E-003  0.9118800E+02  0.7818608E-02  0.1130116E+00
         25   -1    0    0    0    0  0.00000000000E+00  0.00000000000E+00  0.99999998245E-14  0.12500000000E+03  0.12500000000E+03 0.  0.
        -13    1    3    3    0    0  0.38031295165E+02  0.37466513987E+02  0.25628671896E+02  0.59219583496E+02  0.10566000000E+00 0.  1.
         23    2    1    0    0    0  0.25612083323E+02  0.14192756745E+02  0.40887492441E+00  0.95715527410E+02  0.91125637734E+02 0.  0.
         13    1    3    3    0    0 -0.12419211842E+02 -0.23273757241E+02 -0.25219796971E+02  0.36495943914E+02  0.10566000000E+00 0. -1.
         22    1    1    0    0    0 -0.25612083323E+02 -0.14192756745E+02 -0.40887492441E+00  0.29284472590E+02  0.00000000000E+00 0.  1.
</event>
<event>
 5    1  0.1724235E-003  0.9118800E+02  0.7818608E-02  0.1130116E+00
         25   -1    0    0    0    0  0.00000000000E+00  0.00000000000E+00  0.99999998245E-14  0.12500000000E+03  0.12500000000E+03 0.  0.
        -13    1    3    3    0    0 -0.40731162775E+02 -0.26218272358E+02  0.99214354135E+01  0.49445641579E+02  0.10566000000E+00 0.  1.
         23    2    1    0    0    0  0.94974821982E+00 -0.27707074265E+02 -0.98192085820E+01  0.95589103325E+02  0.90952052376E+02 0.  0.
         13    1    3    3    0    0  0.41680910995E+02 -0.14888019068E+01 -0.19740643996E+02  0.46143461746E+02  0.10566000000E+00 0. -1.
         22    1    1    0    0    0 -0.94974821982E+00  0.27707074265E+02  0.98192085820E+01  0.29410896675E+02  0.00000000000E+00 0.  1.
</event>
<event>
 4    1  0.1724235E-003  0.9118800E+02  0.7818608E-02  0.1130116E+00
         25   -1    0    0    0    0  0.00000000000E+00  0.00000000000E+00  0.99999998245E-14  0.12500000000E+03  0.12500000000E+03 0.  0.
        -13    1    1    0    0    0 -0.12252230485E+02  0.23615484858E+02  0.76827783826E+01  0.27691957761E+02  0.10566000000E+00 0. -1.
         13    1    1    0    0    0 -0.39796216263E+02 -0.19891182187E+02  0.47264663764E+00  0.44493061442E+02  0.10566000000E+00 0.  1.
         22    1    1    0    0    0  0.52048446748E+02 -0.37243026714E+01 -0.81554250202E+01  0.52814980796E+02  0.00000000000E+00 0.  1.
</event>
<event>
 5    1  0.1724235E-003  0.9118800E+02  0.7818608E-02  0.1130116E+00
         25   -1    0    0    0    0  0.00000000000E+00  0.00000000000E+00  0.99999998245E-14  0.12500000000E+03  0.12500000000E+03 0.  0.
        -13    1    3    3    0    0  0.21318273819E+02 -0.53288462128E+02 -0.21214198453E+01  0.57433793021E+02  0.10566000000E+00 0.  1.
         23    2    1    0    0    0  0.71732875846E+01 -0.30537978699E+02 -0.18254521127E+02  0.88706037150E+02  0.80941394153E+02 0.  0.
         13    1    3    3    0    0 -0.14144986234E+02  0.22750483429E+02 -0.16133101281E+02  0.31272244128E+02  0.10566000000E+00 0. -1.
         22    1    1    0    0    0 -0.71732875846E+01  0.30537978699E+02  0.18254521127E+02  0.36293962850E+02  0.00000000000E+00 0.  1.
</event>
<event>
 5    1  0.1724235E-003  0.9118800E+02  0.7818608E-02  0.1130116E+00
         25   -1    0    0    0    0  0.00000000000E+00  0.00000000000E+00  0.99999998245E-14  0.12500000000E+03  0.12500000000E+03 0.  0.
        -13    1    3    3    0    0  0.61603235905E+02 -0.29026791983E+01  0.59497657459E+01  0.61958010757E+02  0.10566000000E+00 0.  1.
         23    2    1    0    0    0  0.28168425807E+02 -0.13533816585E+01  0.85547719095E+01  0.95530083529E+02  0.90870902286E+02 0.  0.
         13    1    3    3    0    0 -0.33434810097E+02  0.15492975398E+01  0.26050061636E+01  0.33572072773E+02  0.10566000000E+00 0. -1.
         22    1    1    0    0    0 -0.28168425807E+02  0.13533816585E+01 -0.85547719095E+01  0.29469916471E+02  0.00000000000E+00 0.  1.
</event>
<event>
 5    1  0.1724235E-003  0.9118800E+02  0.7818608E-02  0.1130116E+00
         25   -1    0    0    0    0  0.00000000000E+00  0.00000000000E+00  0.99999998245E-14  0.12500000000E+03  0.12500000000E+03 0.  0.
        -13    1    3    3    0    0  0.35312322372E+01 -0.10819250178E+02 -0.59432968330E+02  0.60512929726E+02  0.10566000000E+00 0. -1.
         23    2    1    0    0    0  0.80720905539E+01 -0.13210191906E+02 -0.23191605685E+02  0.97115983246E+02  0.93026855325E+02 0.  0.
         13    1    3    3    0    0  0.45408583167E+01 -0.23909417280E+01  0.36241362645E+02  0.36603053520E+02  0.10566000000E+00 0.  1.
         22    1    1    0    0    0 -0.80720905539E+01  0.13210191906E+02  0.23191605685E+02  0.27884016754E+02  0.00000000000E+00 0. -1.
</event>
<event>
 5    1  0.1724235E-003  0.9118800E+02  0.7818608E-02  0.1130116E+00
         25   -1    0    0    0    0  0.00000000000E+00  0.00000000000E+00  0.99999998245E-14  0.12500000000E+03  0.12500000000E+03 0.  0.
        -13    1    3    3    0    0  0.24073807827E+02 -0.33553551057E+02  0.13748148488E+02  0.43524840755E+02  0.10566000000E+00 0. -1.
         23    2    1    0    0    0  0.56124201764E+01 -0.12289600269E+02 -0.28016384392E+02  0.93896120348E+02  0.88594752029E+02 0.  0.
         13    1    3    3    0    0 -0.18461387651E+02  0.21263950789E+02 -0.41764532880E+02  0.50371279593E+02  0.10566000000E+00 0.  1.
         22    1    1    0    0    0 -0.56124201764E+01  0.12289600269E+02  0.28016384392E+02  0.31103879652E+02  0.00000000000E+00 0.  1.
</event>
<event>
 5    1  0.1724235E-003  0.9118800E+02  0.7818608E-02  0.1130116E+00
         25   -1    0    0    0    0  0.00000000000E+00  0.00000000000E+00  0.99999998245E-14  0.12500000000E+03  0.12500000000E+03 0.  0.
        -13    1    3    3    0    0  0.70263993286E+01 -0.13016893252E+02 -0.38265345838E+02  0.41025085662E+02  0.10566000000E+00 0. -1.
         23    2    1    0    0    0  0.20016551628E+02 -0.32495987499E+02  0.10898522578E+01  0.86818337902E+02  0.77971690218E+02 0.  0.
         13    1    3    3    0    0  0.12990152300E+02 -0.19479094247E+02  0.39355198096E+02  0.45793252239E+02  0.10566000000E+00 0.  1.
         22    1    1    0    0    0 -0.20016551628E+02  0.32495987499E+02 -0.10898522578E+01  0.38181662098E+02  0.00000000000E+00 0.  1.
</event>
<event>
 5    1  0.1724235E-003  0.9118800E+02  0.7818608E-02  0.1130116E+00
         25   -1    0    0    0    0  0.00000000000E+00  0.00000000000E+00  0.99999998245E-14  0.12500000000E+03  0.12500000000E+03 0.  0.
        -13    1    3    3    0    0 -0.25485920267E+02  0.41706189108E+02 -0.35225690490E+02  0.60247811382E+02  0.10566000000E+00 0.  1.
         23    2    1    0    0    0 -0.50814505146E+01  0.11701124639E+02 -0.23288060974E+02  0.98446822392E+02  0.94798236260E+02 0.  0.
         13    1    3    3    0    0  0.20404469752E+02 -0.30005064469E+02  0.11937629516E+02  0.38199011011E+02  0.10566000000E+00 0. -1.
         22    1    1    0    0    0  0.50814505146E+01 -0.11701124639E+02  0.23288060974E+02  0.26553177608E+02  0.00000000000E+00 0.  1.
</event>
<event>
 5    1  0.1724235E-003  0.9118800E+02  0.7818608E-02  0.1130116E+00
         25   -1    0    0    0    0  0.00000000000E+00  0.00000000000E+00  0.99999998245E-14  0.12500000000E+03  0.12500000000E+03 0.  0.
        -13    1    3    3    0    0  0.35870915465E+02  0.10895413737E+02  0.29488155659E+01  0.37605043466E+02  0.10566000000E+00 0.  1.
         23    2    1    0    0    0 -0.17941038399E+02 -0.45610450505E+01  0.21539483166E+02  0.96598709081E+02  0.92329178867E+02 0.  0.
         13    1    3    3    0    0 -0.53811953864E+02 -0.15456458788E+02  0.18590667600E+02  0.58993665616E+02  0.10566000000E+00 0. -1.
         22    1    1    0    0    0  0.17941038399E+02  0.45610450505E+01 -0.21539483166E+02  0.28401290919E+02  0.00000000000E+00 0. -1.
</event>
<event>
 5    1  0.1724235E-003  0.9118800E+02  0.7818608E-02  0.1130116E+00
         25   -1    0    0    0    0  0.00000000000E+00  0.00000000000E+00  0.99999998245E-14  0.12500000000E+03  0.12500000000E+03 0.  0.
        -13    1    3    3    0    0  0.34147314268E+02  0.76406727748E+01  0.45249340853E+02  0.57200812615E+02  0.10566000000E+00 0. -1.
         23    2    1    0    0    0  0.26765813141E+02 -0.56681983672E+01  0.95282482915E+01  0.96028898169E+02  0.91554489471E+02 0.  0.
         13    1    3    3    0    0 -0.73815011277E+01 -0.13308871142E+02 -0.35721092561E+02  0.38828085554E+02  0.10566000000E+00 0.  1.
         22    1    1    0    0    0 -0.26765813141E+02  0.56681983672E+01 -0.95282482915E+01  0.28971101831E+02  0.00000000000E+00 0. -1.
</event>
<event>
 5    1  0.1724235E-003  0.9118800E+02  0.7818608E-02  0.1130116E+00
         25   -1    0    0    0    0  0.00000000000E+00  0.00000000000E+00  0.99999998245E-14  0.12500000000E+03  0.12500000000E+03 0.  0.
        -13    1    3    3    0    0  0.13468099447E+02  0.41930327705E+02  0.84047829125E+01  0.44835182881E+02  0.10566000000E+00 0.  1.
         23    2    1    0    0    0  0.18537483812E+02 -0.13653258719E+02 -0.29380733675E+01  0.10179047491E+03  0.99109125351E+02 0.  0.
         13    1    3    3    0    0  0.50693843648E+01 -0.55583586424E+02 -0.11342856280E+02  0.56955292030E+02  0.10566000000E+00 0. -1.
         22    1    1    0    0    0 -0.18537483812E+02  0.13653258719E+02  0.29380733675E+01  0.23209525088E+02  0.00000000000E+00 0. -1.
</event>
<event>
 5    1  0.1724235E-003  0.9118800E+02  0.7818608E-02  0.1130116E+00
         25   -1    0    0    0    0  0.00000000000E+00  0.00000000000E+00  0.99999998245E-14  0.12500000000E+03  0.12500000000E+03 0.  0.
        -13    1    3    3    0    0 -0.34856084241E+02  0.46485420833E+02 -0.21498205208E+02  0.61951795372E+02  0.10566000000E+00 0.  1.
         23    2    1    0    0    0 -0.20258393733E+02  0.22092746629E+02 -0.56531462266E+01  0.94496720955E+02  0.89438136377E+02 0.  0.
         13    1    3    3    0    0  0.14597690508E+02 -0.24392674204E+02  0.15845058982E+02  0.32544925582E+02  0.10566000000E+00 0. -1.
         22    1    1    0    0    0  0.20258393733E+02 -0.22092746629E+02  0.56531462266E+01  0.30503279045E+02  0.00000000000E+00 0.  1.
</event>
<event>
 5    1  0.1724235E-003  0.9118800E+02  0.7818608E-02  0.1130116E+00
         25   -1    0    0    0    0  0.00000000000E+00  0.00000000000E+00  0.99999998245E-14  0.12500000000E+03  0.12500000000E+03 0.  0.
        -13    1    3    3    0    0 -0.31891410566E+02  0.48705321126E+02  0.15378712112E+02  0.60214502606E+02  0.10566000000E+00 0. -1.
         23    2    1    0    0    0 -0.52876442962E+01  0.28517089121E+02  0.11357384436E+02  0.93852387967E+02  0.88533027688E+02 0.  0.
         13    1    3    3    0    0  0.26603766270E+02 -0.20188232005E+02 -0.40213276758E+01  0.33637885360E+02  0.10566000000E+00 0.  1.
         22    1    1    0    0    0  0.52876442962E+01 -0.28517089121E+02 -0.11357384436E+02  0.31147612033E+02  0.00000000000E+00 0. -1.
</event>
<event>
 5    1  0.1724235E-003  0.9118800E+02  0.7818608E-02  0.1130116E+00
         25   -1    0    0    0    0  0.00000000000E+00  0.00000000000E+00  0.99999998245E-14  0.12500000000E+03  0.12500000000E+03 0.  0.
        -13    1    3    3    0    0 -0.77234073461E+01 -0.20031621372E+02  0.55156910230E+02  0.59187944600E+02  0.10566000000E+00 0.  1.
         23    2    1    0    0    0  0.69670643076E+01  0.28871015781E+00  0.27975491390E+02  0.96168568244E+02  0.91744983846E+02 0.  0.
         13    1    3    3    0    0  0.14690471654E+02  0.20320331530E+02 -0.27181418840E+02  0.36980623644E+02  0.10566000000E+00 0. -1.
         22    1    1    0    0    0 -0.69670643076E+01 -0.28871015781E+00 -0.27975491390E+02  0.28831431756E+02  0.00000000000E+00 0.  1.
</event>
<event>
 5    1  0.1724235E-003  0.9118800E+02  0.7818608E-02  0.1130116E+00
         25   -1    0    0    0    0  0.00000000000E+00  0.00000000000E+00  0.99999998245E-14  0.12500000000E+03  0.12500000000E+03 0.  0.
        -13    1    3    3    0    0  0.25896207643E+01  0.27308185805E+02 -0.23334742132E+02  0.36013393371E+02  0.10566000000E+00 0.  1.
         23    2    1    0    0    0  0.14594885364E+02 -0.22660189125E+02  0.88267325349E+01  0.96637946879E+02  0.92382285747E+02 0.  0.
         13    1    3    3    0    0  0.12005264600E+02 -0.49968374930E+02  0.32161474667E+02  0.60624553508E+02  0.10566000000E+00 0. -1.
         22    1    1    0    0    0 -0.14594885364E+02  0.22660189125E+02 -0.88267325349E+01  0.28362053121E+02  0.00000000000E+00 0. -1.
</event>
<event>
 5    1  0.1724235E-003  0.9118800E+02  0.7818608E-02  0.1130116E+00
         25   -1    0    0    0    0  0.00000000000E+00  0.00000000000E+00  0.99999998245E-14  0.12500000000E+03  0.12500000000E+03 0.  0.
        -13    1    3    3    0    0  0.30555821325E+02 -0.78991190867E+01 -0.15647335219E+02  0.35226475309E+02  0.10566000000E+00 0. -1.
         23    2    1    0    0    0 -0.16793658841E+02  0.23088635927E+02  0.60218354321E+01  0.95821676055E+02  0.91271129137E+02 0.  0.
         13    1    3    3    0    0 -0.47349480166E+02  0.30987755014E+02  0.21669170651E+02  0.60595200747E+02  0.10566000000E+00 0.  1.
         22    1    1    0    0    0  0.16793658841E+02 -0.23088635927E+02 -0.60218354321E+01  0.29178323945E+02  0.00000000000E+00 0.  1.
</event>
<event>
 5    1  0.1724235E-003  0.9118800E+02  0.7818608E-02  0.1130116E+00
         25   -1    0    0    0    0  0.00000000000E+00  0.00000000000E+00  0.99999998245E-14  0.12500000000E+03  0.12500000000E+03 0.  0.
        -13    1    3    3    0    0  0.89594654213E+01 -0.31425642142E+02 -0.19803361099E+02  0.38210303316E+02  0.10566000000E+00 0. -1.
         23    2    1    0    0    0 -0.14885152346E+02  0.61271969878E+01  0.20977523185E+02  0.98558237913E+02  0.94945033984E+02 0.  0.
         13    1    3    3    0    0 -0.23844617768E+02  0.37552839129E+02  0.40780884283E+02  0.60347934597E+02  0.10566000000E+00 0.  1.
         22    1    1    0    0    0  0.14885152346E+02 -0.61271969878E+01 -0.20977523185E+02  0.26441762087E+02  0.00000000000E+00 0.  1.
</event>
<event>
 5    1  0.1724235E-003  0.9118800E+02  0.7818608E-02  0.1130116E+00
         25   -1    0    0    0    0  0.00000000000E+00  0.00000000000E+00  0.99999998245E-14  0.12500000000E+03  0.12500000000E+03 0.  0.
        -13    1    3    3    0    0  0.26524433908E+02 -0.13713810080E+02  0.19079619967E+02  0.35435254242E+02  0.10566000000E+00 0.  1.
         23    2    1    0    0    0 -0.13794176970E+02  0.87032196117E+01 -0.22276699786E+02  0.97390641021E+02  0.93395183255E+02 0.  0.
         13    1    3    3    0    0 -0.40318610878E+02  0.22417029691E+02 -0.41356319754E+02  0.61955386779E+02  0.10566000000E+00 0. -1.
         22    1    1    0    0    0  0.13794176970E+02 -0.87032196117E+01  0.22276699786E+02  0.27609358979E+02  0.00000000000E+00 0. -1.
</event>
<event>
 5    1  0.1724235E-003  0.9118800E+02  0.7818608E-02  0.1130116E+00
         25   -1    0    0    0    0  0.00000000000E+00  0.00000000000E+00  0.99999998245E-14  0.12500000000E+03  0.12500000000E+03 0.  0.
        -13    1    3    3    0    0 -0.10658148259E+00 -0.22303636252E+02 -0.17256389658E+01  0.22370796668E+02  0.10566000000E+00 0.  1.
         23    2    1    0    0    0 -0.40071303234E+02  0.14100795124E+02  0.16511531785E+02  0.79423992629E+02  0.65046123308E+02 0.  0.
         13    1    3    3    0    0 -0.39964721751E+02  0.36404431376E+02  0.18237170750E+02  0.57053195962E+02  0.10566000000E+00 0. -1.
         22    1    1    0    0    0  0.40071303234E+02 -0.14100795124E+02 -0.16511531785E+02  0.45576007371E+02  0.00000000000E+00 0. -1.
</event>
<event>
 5    1  0.1724235E-003  0.9118800E+02  0.7818608E-02  0.1130116E+00
         25   -1    0    0    0    0  0.00000000000E+00  0.00000000000E+00  0.99999998245E-14  0.12500000000E+03  0.12500000000E+03 0.  0.
        -13    1    3    3    0    0 -0.62108944936E+01  0.13631815577E+02  0.42928714761E+02  0.45467431436E+02  0.10566000000E+00 0. -1.
         23    2    1    0    0    0  0.26663757423E+01  0.30100296953E+02 -0.25800838608E+01  0.94671889788E+02  0.89682620653E+02 0.  0.
         13    1    3    3    0    0  0.88772702359E+01  0.16468481376E+02 -0.45508798622E+02  0.49204458352E+02  0.10566000000E+00 0.  1.
         22    1    1    0    0    0 -0.26663757423E+01 -0.30100296953E+02  0.25800838608E+01  0.30328110212E+02  0.00000000000E+00 0.  1.
</event>
<event>
 5    1  0.1724235E-003  0.9118800E+02  0.7818608E-02  0.1130116E+00
         25   -1    0    0    0    0  0.00000000000E+00  0.00000000000E+00  0.99999998245E-14  0.12500000000E+03  0.12500000000E+03 0.  0.
        -13    1    3    3    0    0 -0.14766062923E+02  0.29554863344E+02 -0.10975307692E+02  0.34813720061E+02  0.10566000000E+00 0.  1.
         23    2    1    0    0    0 -0.22626421070E+01 -0.29270796291E+02 -0.27526474154E+01  0.95513119313E+02  0.90847563690E+02 0.  0.
         13    1    3    3    0    0  0.12503420816E+02 -0.58825659635E+02  0.82226602763E+01  0.60699399253E+02  0.10566000000E+00 0. -1.
         22    1    1    0    0    0  0.22626421070E+01  0.29270796291E+02  0.27526474154E+01  0.29486880687E+02  0.00000000000E+00 0. -1.
</event>
<event>
 5    1  0.1724235E-003  0.9118800E+02  0.7818608E-02  0.1130116E+00
         25   -1    0    0    0    0  0.00000000000E+00  0.00000000000E+00  0.99999998245E-14  0.12500000000E+03  0.12500000000E+03 0.  0.
        -13    1    3    3    0    0  0.20772061662E+02 -0.32423670471E+02  0.35812294145E+02  0.52586162899E+02  0.10566000000E+00 0.  1.
         23    2    1    0    0    0 -0.10778407570E+02 -0.39513688589E+01  0.26538942346E+02  0.96084556955E+02  0.91630449299E+02 0.  0.
         13    1    3    3    0    0 -0.31550469232E+02  0.28472301612E+02 -0.92733517982E+01  0.43498394056E+02  0.10566000000E+00 0. -1.
         22    1    1    0    0    0  0.10778407570E+02  0.39513688589E+01 -0.26538942346E+02  0.28915443045E+02  0.00000000000E+00 0.  1.
</event>
<event>
 5    1  0.1724235E-003  0.9118800E+02  0.7818608E-02  0.1130116E+00
         25   -1    0    0    0    0  0.00000000000E+00  0.00000000000E+00  0.99999998245E-14  0.12500000000E+03  0.12500000000E+03 0.  0.
        -13    1    3    3    0    0  0.34101700947E+02 -0.10022143165E+02  0.81956562875E+01  0.36476695398E+02  0.10566000000E+00 0.  1.
         23    2    1    0    0    0 -0.26452965561E+02 -0.65453180585E+01  0.55565141616E+01  0.97188573839E+02  0.93124344077E+02 0.  0.
         13    1    3    3    0    0 -0.60554666508E+02  0.34768251064E+01 -0.26391421258E+01  0.60711878442E+02  0.10566000000E+00 0. -1.
         22    1    1    0    0    0  0.26452965561E+02  0.65453180585E+01 -0.55565141616E+01  0.27811426161E+02  0.00000000000E+00 0. -1.
</event>
<event>
 5    1  0.1724235E-003  0.9118800E+02  0.7818608E-02  0.1130116E+00
         25   -1    0    0    0    0  0.00000000000E+00  0.00000000000E+00  0.99999998245E-14  0.12500000000E+03  0.12500000000E+03 0.  0.
        -13    1    3    3    0    0 -0.20972860032E+02  0.29438531827E+02  0.99119130557E+01  0.37479930610E+02  0.10566000000E+00 0.  1.
         23    2    1    0    0    0  0.19791164928E+02 -0.26057883486E+01 -0.19501774654E+02  0.97093019569E+02  0.92995993958E+02 0.  0.
         13    1    3    3    0    0  0.40764024960E+02 -0.32044320176E+02 -0.29413687710E+02  0.59613088959E+02  0.10566000000E+00 0. -1.
         22    1    1    0    0    0 -0.19791164928E+02  0.26057883486E+01  0.19501774654E+02  0.27906980431E+02  0.00000000000E+00 0. -1.
</event>
<event>
 5    1  0.1724235E-003  0.9118800E+02  0.7818608E-02  0.1130116E+00
         25   -1    0    0    0    0  0.00000000000E+00  0.00000000000E+00  0.99999998245E-14  0.12500000000E+03  0.12500000000E+03 0.  0.
        -13    1    3    3    0    0  0.20220717751E+02  0.33526487676E+02  0.17170904622E+02  0.42752238910E+02  0.10566000000E+00 0. -1.
         23    2    1    0    0    0  0.23707232990E+02 -0.13918410228E+02 -0.77229839571E+01  0.96444798713E+02  0.92120571418E+02 0.  0.
         13    1    3    3    0    0  0.34865152391E+01 -0.47444897904E+02 -0.24893888579E+02  0.53692559803E+02  0.10566000000E+00 0.  1.
         22    1    1    0    0    0 -0.23707232990E+02  0.13918410228E+02  0.77229839571E+01  0.28555201287E+02  0.00000000000E+00 0.  1.
</event>
<event>
 5    1  0.1724235E-003  0.9118800E+02  0.7818608E-02  0.1130116E+00
         25   -1    0    0    0    0  0.00000000000E+00  0.00000000000E+00  0.99999998245E-14  0.12500000000E+03  0.12500000000E+03 0.  0.
        -13    1    3    3    0    0 -0.11534463469E+02  0.36485156560E+02 -0.35455535887E+01  0.38429059460E+02  0.10566000000E+00 0.  1.
         23    2    1    0    0    0  0.21398127947E+02 -0.44463498396E+01  0.19418691478E+02  0.95764140423E+02  0.91192297403E+02 0.  0.
         13    1    3    3    0    0  0.32932591416E+02 -0.40931506399E+02  0.22964245066E+02  0.57335080963E+02  0.10566000000E+00 0. -1.
         22    1    1    0    0    0 -0.21398127947E+02  0.44463498396E+01 -0.19418691478E+02  0.29235859577E+02  0.00000000000E+00 0. -1.
</event>
<event>
 5    1  0.1724235E-003  0.9118800E+02  0.7818608E-02  0.1130116E+00
         25   -1    0    0    0    0  0.00000000000E+00  0.00000000000E+00  0.99999998245E-14  0.12500000000E+03  0.12500000000E+03 0.  0.
        -13    1    3    3    0    0 -0.33166100469E+02 -0.17339135414E+02 -0.45857469300E+01  0.37705120025E+02  0.10566000000E+00 0.  1.
         23    2    1    0    0    0  0.50660572607E+01  0.89799711261E+01  0.28491180104E+02  0.94700624407E+02  0.89722662142E+02 0.  0.
         13    1    3    3    0    0  0.38232157729E+02  0.26319106540E+02  0.33076927034E+02  0.56995504382E+02  0.10566000000E+00 0. -1.
         22    1    1    0    0    0 -0.50660572607E+01 -0.89799711261E+01 -0.28491180104E+02  0.30299375593E+02  0.00000000000E+00 0. -1.
</event>
<event>
 5    1  0.1724235E-003  0.9118800E+02  0.7818608E-02  0.1130116E+00
         25   -1    0    0    0    0  0.00000000000E+00  0.00000000000E+00  0.99999998245E-14  0.12500000000E+03  0.12500000000E+03 0.  0.
        -13    1    3    3    0    0  0.37027319923E+02 -0.12386354224E+01  0.93254252547E+01  0.38203813404E+02  0.10566000000E+00 0. -1.
         23    2    1    0    0    0 -0.86907679350E+01  0.28949065771E+02 -0.37914516519E+01  0.94537679636E+02  0.89495362500E+02 0.  0.
         13    1    3    3    0    0 -0.45718087858E+02  0.30187701194E+02 -0.13116876907E+02  0.56333866232E+02  0.10566000000E+00 0.  1.
         22    1    1    0    0    0  0.86907679350E+01 -0.28949065771E+02  0.37914516519E+01  0.30462320364E+02  0.00000000000E+00 0.  1.
</event>
<event>
 5    1  0.1724235E-003  0.9118800E+02  0.7818608E-02  0.1130116E+00
         25   -1    0    0    0    0  0.00000000000E+00  0.00000000000E+00  0.99999998245E-14  0.12500000000E+03  0.12500000000E+03 0.  0.
        -13    1    3    3    0    0 -0.23274984279E+02 -0.10217416900E+02  0.47177823992E+02  0.53589912688E+02  0.10566000000E+00 0. -1.
         23    2    1    0    0    0 -0.19661700288E+02  0.16040095925E+02  0.14120103271E+02  0.95961328338E+02  0.91462189371E+02 0.  0.
         13    1    3    3    0    0  0.36132839909E+01  0.26257512825E+02 -0.33057720720E+02  0.42371415650E+02  0.10566000000E+00 0.  1.
         22    1    1    0    0    0  0.19661700288E+02 -0.16040095925E+02 -0.14120103271E+02  0.29038671662E+02  0.00000000000E+00 0. -1.
</event>
<event>
 5    1  0.1724235E-003  0.9118800E+02  0.7818608E-02  0.1130116E+00
         25   -1    0    0    0    0  0.00000000000E+00  0.00000000000E+00  0.99999998245E-14  0.12500000000E+03  0.12500000000E+03 0.  0.
        -13    1    3    3    0    0 -0.83792961157E+01  0.55976461436E+02  0.89856856521E+01  0.57309079115E+02  0.10566000000E+00 0. -1.
         23    2    1    0    0    0  0.99794782109E+01  0.22471876198E+02  0.15311621542E+02  0.96034141486E+02  0.91561647929E+02 0.  0.
         13    1    3    3    0    0  0.18358774327E+02 -0.33504585238E+02  0.63259358898E+01  0.38725062372E+02  0.10566000000E+00 0.  1.
         22    1    1    0    0    0 -0.99794782109E+01 -0.22471876198E+02 -0.15311621542E+02  0.28965858514E+02  0.00000000000E+00 0.  1.
</event>
<event>
 5    1  0.1724235E-003  0.9118800E+02  0.7818608E-02  0.1130116E+00
         25   -1    0    0    0    0  0.00000000000E+00  0.00000000000E+00  0.99999998245E-14  0.12500000000E+03  0.12500000000E+03 0.  0.
        -13    1    3    3    0    0 -0.10871065926E+02  0.38119437337E+02 -0.21204926597E+02  0.44954773421E+02  0.10566000000E+00 0.  1.
         23    2    1    0    0    0 -0.25553197217E+01  0.14175629778E+02  0.24131952183E+02  0.96896098943E+02  0.92730926533E+02 0.  0.
         13    1    3    3    0    0  0.83157462044E+01 -0.23943807560E+02  0.45336878780E+02  0.51941325522E+02  0.10566000000E+00 0. -1.
         22    1    1    0    0    0  0.25553197217E+01 -0.14175629778E+02 -0.24131952183E+02  0.28103901057E+02  0.00000000000E+00 0. -1.
</event>
<event>
 5    1  0.1724235E-003  0.9118800E+02  0.7818608E-02  0.1130116E+00
         25   -1    0    0    0    0  0.00000000000E+00  0.00000000000E+00  0.99999998245E-14  0.12500000000E+03  0.12500000000E+03 0.  0.
        -13    1    3    3    0    0 -0.19484636121E+01 -0.26615459470E+02 -0.25795943101E+02  0.37116317675E+02  0.10566000000E+00 0.  1.
         23    2    1    0    0    0  0.22232888386E+02 -0.70922476739E+01  0.21208198933E+02  0.93466065817E+02  0.87985887814E+02 0.  0.
         13    1    3    3    0    0  0.24181351998E+02  0.19523211796E+02  0.47004142034E+02  0.56349748142E+02  0.10566000000E+00 0. -1.
         22    1    1    0    0    0 -0.22232888386E+02  0.70922476739E+01 -0.21208198933E+02  0.31533934183E+02  0.00000000000E+00 0. -1.
</event>
<event>
 4    1  0.1724235E-003  0.9118800E+02  0.7818608E-02  0.1130116E+00
         25   -1    0    0    0    0  0.00000000000E+00  0.00000000000E+00  0.99999998245E-14  0.12500000000E+03  0.12500000000E+03 0.  0.
        -13    1    1    0    0    0  0.11199537260E+02  0.79787083457E+01 -0.95094332424E+01  0.16719147895E+02  0.10566000000E+00 0. -1.
         13    1    1    0    0    0  0.41222741841E+02 -0.28830205624E+02 -0.33543844659E+01  0.50415853264E+02  0.10566000000E+00 0.  1.
         22    1    1    0    0    0 -0.52422279101E+02  0.20851497278E+02  0.12863817708E+02  0.57864998841E+02  0.00000000000E+00 0.  1.
</event>
<event>
 5    1  0.1724235E-003  0.9118800E+02  0.7818608E-02  0.1130116E+00
         25   -1    0    0    0    0  0.00000000000E+00  0.00000000000E+00  0.99999998245E-14  0.12500000000E+03  0.12500000000E+03 0.  0.
        -13    1    3    3    0    0 -0.17830117990E+01  0.27227971728E+02 -0.28111693969E+02  0.39176779823E+02  0.10566000000E+00 0. -1.
         23    2    1    0    0    0  0.15779574865E+02 -0.22949711106E+02 -0.79202193607E+01  0.96044618851E+02  0.91575950516E+02 0.  0.
         13    1    3    3    0    0  0.17562586664E+02 -0.50177682833E+02  0.20191474608E+02  0.56867839028E+02  0.10566000000E+00 0.  1.
         22    1    1    0    0    0 -0.15779574865E+02  0.22949711106E+02  0.79202193607E+01  0.28955381149E+02  0.00000000000E+00 0.  1.
</event>
<event>
 5    1  0.1724235E-003  0.9118800E+02  0.7818608E-02  0.1130116E+00
         25   -1    0    0    0    0  0.00000000000E+00  0.00000000000E+00  0.99999998245E-14  0.12500000000E+03  0.12500000000E+03 0.  0.
        -13    1    3    3    0    0  0.22894396018E+02 -0.30099454844E+02 -0.13471119710E+01  0.37841200108E+02  0.10566000000E+00 0.  1.
         23    2    1    0    0    0 -0.14901328799E+02 -0.44305627763E+02  0.34871945975E+00  0.78254306544E+02  0.62758080244E+02 0.  0.
         13    1    3    3    0    0 -0.37795724817E+02 -0.14206172919E+02  0.16958314307E+01  0.40413106435E+02  0.10566000000E+00 0. -1.
         22    1    1    0    0    0  0.14901328799E+02  0.44305627763E+02 -0.34871945975E+00  0.46745693456E+02  0.00000000000E+00 0.  1.
</event>
<event>
 5    1  0.1724235E-003  0.9118800E+02  0.7818608E-02  0.1130116E+00
         25   -1    0    0    0    0  0.00000000000E+00  0.00000000000E+00  0.99999998245E-14  0.12500000000E+03  0.12500000000E+03 0.  0.
        -13    1    3    3    0    0 -0.75735741142E+01 -0.47370834188E+02 -0.28899608245E+01  0.48059525530E+02  0.10566000000E+00 0. -1.
         23    2    1    0    0    0 -0.20390132262E+02 -0.58163521420E+01 -0.20991954918E+02  0.95162948920E+02  0.90364468847E+02 0.  0.
         13    1    3    3    0    0 -0.12816558148E+02  0.41554482046E+02 -0.18101994093E+02  0.47103423390E+02  0.10566000000E+00 0.  1.
         22    1    1    0    0    0  0.20390132262E+02  0.58163521420E+01  0.20991954918E+02  0.29837051080E+02  0.00000000000E+00 0.  1.
</event>
<event>
 5    1  0.1724235E-003  0.9118800E+02  0.7818608E-02  0.1130116E+00
         25   -1    0    0    0    0  0.00000000000E+00  0.00000000000E+00  0.99999998245E-14  0.12500000000E+03  0.12500000000E+03 0.  0.
        -13    1    3    3    0    0 -0.60630515065E+01 -0.39378271160E+02  0.23463566781E+02  0.46238068334E+02  0.10566000000E+00 0. -1.
         23    2    1    0    0    0  0.13241371676E+02  0.53210978972E+01  0.26371732531E+02  0.95014732227E+02  0.90159209495E+02 0.  0.
         13    1    3    3    0    0  0.19304423182E+02  0.44699369057E+02  0.29081657502E+01  0.48776663893E+02  0.10566000000E+00 0.  1.
         22    1    1    0    0    0 -0.13241371676E+02 -0.53210978972E+01 -0.26371732531E+02  0.29985267773E+02  0.00000000000E+00 0.  1.
</event>
<event>
 5    1  0.1724235E-003  0.9118800E+02  0.7818608E-02  0.1130116E+00
         25   -1    0    0    0    0  0.00000000000E+00  0.00000000000E+00  0.99999998245E-14  0.12500000000E+03  0.12500000000E+03 0.  0.
        -13    1    3    3    0    0  0.24757460366E+02  0.16580366543E+02 -0.14677157285E+02  0.33215516081E+02  0.10566000000E+00 0.  1.
         23    2    1    0    0    0 -0.90550576533E+01 -0.15921848916E+02  0.24557930156E+02  0.94363562943E+02  0.89251838837E+02 0.  0.
         13    1    3    3    0    0 -0.33812518020E+02 -0.32502215460E+02  0.39235087440E+02  0.61148046862E+02  0.10566000000E+00 0. -1.
         22    1    1    0    0    0  0.90550576533E+01  0.15921848916E+02 -0.24557930156E+02  0.30636437057E+02  0.00000000000E+00 0. -1.
</event>
<event>
 5    1  0.1724235E-003  0.9118800E+02  0.7818608E-02  0.1130116E+00
         25   -1    0    0    0    0  0.00000000000E+00  0.00000000000E+00  0.99999998245E-14  0.12500000000E+03  0.12500000000E+03 0.  0.
        -13    1    3    3    0    0  0.15846210725E+02 -0.54729497060E+02 -0.19455211451E+02  0.60207446876E+02  0.10566000000E+00 0. -1.
         23    2    1    0    0    0  0.13135775758E+02 -0.28088940328E+02  0.11101122133E+01  0.93971472438E+02  0.88701003994E+02 0.  0.
         13    1    3    3    0    0 -0.27104349668E+01  0.26640556731E+02  0.20565323665E+02  0.33764025562E+02  0.10566000000E+00 0.  1.
         22    1    1    0    0    0 -0.13135775758E+02  0.28088940328E+02 -0.11101122133E+01  0.31028527562E+02  0.00000000000E+00 0. -1.
</event>
<event>
 4    1  0.1724235E-003  0.9118800E+02  0.7818608E-02  0.1130116E+00
         25   -1    0    0    0    0  0.00000000000E+00  0.00000000000E+00  0.99999998245E-14  0.12500000000E+03  0.12500000000E+03 0.  0.
        -13    1    1    0    0    0 -0.15494204576E+02  0.14855073010E+02 -0.49338528765E+02  0.53805623816E+02  0.10566000000E+00 0. -1.
         13    1    1    0    0    0 -0.82404521950E+01  0.12242499313E+02  0.98457774679E+01  0.17740753642E+02  0.10566000000E+00 0.  1.
         22    1    1    0    0    0  0.23734656771E+02 -0.27097572323E+02  0.39492751297E+02  0.53453622542E+02  0.00000000000E+00 0. -1.
</event>
<event>
 5    1  0.1724235E-003  0.9118800E+02  0.7818608E-02  0.1130116E+00
         25   -1    0    0    0    0  0.00000000000E+00  0.00000000000E+00  0.99999998245E-14  0.12500000000E+03  0.12500000000E+03 0.  0.
        -13    1    3    3    0    0  0.35946973649E+02  0.51904709486E+01 -0.58563188205E+01  0.36789040995E+02  0.10566000000E+00 0. -1.
         23    2    1    0    0    0 -0.23396861765E+02  0.92030305568E+01  0.93406238931E+01  0.98179184081E+02  0.94444671740E+02 0.  0.
         13    1    3    3    0    0 -0.59343835414E+02  0.40125596082E+01  0.15196942714E+02  0.61390143086E+02  0.10566000000E+00 0.  1.
         22    1    1    0    0    0  0.23396861765E+02 -0.92030305568E+01 -0.93406238931E+01  0.26820815919E+02  0.00000000000E+00 0.  1.
</event>
<event>
 5    1  0.1724235E-003  0.9118800E+02  0.7818608E-02  0.1130116E+00
         25   -1    0    0    0    0  0.00000000000E+00  0.00000000000E+00  0.99999998245E-14  0.12500000000E+03  0.12500000000E+03 0.  0.
        -13    1    3    3    0    0  0.10606565404E+02  0.15100373189E+02  0.53795795672E+01  0.19221642502E+02  0.10566000000E+00 0. -1.
         23    2    1    0    0    0 -0.28980307554E+02 -0.31887564272E+02 -0.53075588329E+01  0.81585196512E+02  0.69074591044E+02 0.  0.
         13    1    3    3    0    0 -0.39586872958E+02 -0.46987937462E+02 -0.10687138400E+02  0.62363554010E+02  0.10566000000E+00 0.  1.
         22    1    1    0    0    0  0.28980307554E+02  0.31887564272E+02  0.53075588329E+01  0.43414803488E+02  0.00000000000E+00 0.  1.
</event>
<event>
 5    1  0.1724235E-003  0.9118800E+02  0.7818608E-02  0.1130116E+00
         25   -1    0    0    0    0  0.00000000000E+00  0.00000000000E+00  0.99999998245E-14  0.12500000000E+03  0.12500000000E+03 0.  0.
        -13    1    3    3    0    0 -0.24530422691E+02  0.30354304801E+01 -0.47506911443E+02  0.53552528180E+02  0.10566000000E+00 0.  1.
         23    2    1    0    0    0  0.12260578022E+02  0.14268674130E+01 -0.26049472047E+02  0.96174096407E+02  0.91752515506E+02 0.  0.
         13    1    3    3    0    0  0.36791000713E+02 -0.16085630671E+01  0.21457439396E+02  0.42621568227E+02  0.10566000000E+00 0. -1.
         22    1    1    0    0    0 -0.12260578022E+02 -0.14268674130E+01  0.26049472047E+02  0.28825903593E+02  0.00000000000E+00 0. -1.
</event>
<event>
 5    1  0.1724235E-003  0.9118800E+02  0.7818608E-02  0.1130116E+00
         25   -1    0    0    0    0  0.00000000000E+00  0.00000000000E+00  0.99999998245E-14  0.12500000000E+03  0.12500000000E+03 0.  0.
        -13    1    3    3    0    0 -0.21567453273E+02  0.25158808971E+02  0.21461010512E+01  0.33207493481E+02  0.10566000000E+00 0. -1.
         23    2    1    0    0    0  0.30642167213E+02 -0.52004733209E+01 -0.27365459264E+01  0.93799422796E+02  0.88458214423E+02 0.  0.
         13    1    3    3    0    0  0.52209620486E+02 -0.30359282292E+02 -0.48826469777E+01  0.60591929315E+02  0.10566000000E+00 0.  1.
         22    1    1    0    0    0 -0.30642167213E+02  0.52004733209E+01  0.27365459264E+01  0.31200577204E+02  0.00000000000E+00 0.  1.
</event>
<event>
 5    1  0.1724235E-003  0.9118800E+02  0.7818608E-02  0.1130116E+00
         25   -1    0    0    0    0  0.00000000000E+00  0.00000000000E+00  0.99999998245E-14  0.12500000000E+03  0.12500000000E+03 0.  0.
        -13    1    3    3    0    0 -0.37560683599E+02 -0.24127580783E+01  0.42563934340E+02  0.56818359924E+02  0.10566000000E+00 0. -1.
         23    2    1    0    0    0 -0.33070635617E+02  0.14084123853E+02  0.25874459860E+02  0.80710981521E+02  0.67474034859E+02 0.  0.
         13    1    3    3    0    0  0.44900479818E+01  0.16496881931E+02 -0.16689474479E+02  0.23892621597E+02  0.10566000000E+00 0.  1.
         22    1    1    0    0    0  0.33070635617E+02 -0.14084123853E+02 -0.25874459860E+02  0.44289018479E+02  0.00000000000E+00 0. -1.
</event>
<event>
 5    1  0.1724235E-003  0.9118800E+02  0.7818608E-02  0.1130116E+00
         25   -1    0    0    0    0  0.00000000000E+00  0.00000000000E+00  0.99999998245E-14  0.12500000000E+03  0.12500000000E+03 0.  0.
        -13    1    3    3    0    0 -0.20865390279E+02 -0.29571308908E+02  0.20790053601E+02  0.41738043974E+02  0.10566000000E+00 0.  1.
         23    2    1    0    0    0 -0.24446051589E+02  0.15179136298E+02 -0.80782403405E+01  0.95112317185E+02  0.90294403460E+02 0.  0.
         13    1    3    3    0    0 -0.35806613108E+01  0.44750445207E+02 -0.28868293942E+02  0.53374273210E+02  0.10566000000E+00 0. -1.
         22    1    1    0    0    0  0.24446051589E+02 -0.15179136298E+02  0.80782403405E+01  0.29887682815E+02  0.00000000000E+00 0. -1.
</event>
<event>
 5    1  0.1724235E-003  0.9118800E+02  0.7818608E-02  0.1130116E+00
         25   -1    0    0    0    0  0.00000000000E+00  0.00000000000E+00  0.99999998245E-14  0.12500000000E+03  0.12500000000E+03 0.  0.
        -13    1    3    3    0    0  0.30766140149E+01 -0.39278432565E+02  0.34131687953E+02  0.52127191610E+02  0.10566000000E+00 0. -1.
         23    2    1    0    0    0  0.25058102182E+01  0.43288210432E+01  0.28457954516E+02  0.96105831874E+02  0.91659467424E+02 0.  0.
         13    1    3    3    0    0 -0.57080379668E+00  0.43607253609E+02 -0.56737334373E+01  0.43978640263E+02  0.10566000000E+00 0.  1.
         22    1    1    0    0    0 -0.25058102182E+01 -0.43288210432E+01 -0.28457954516E+02  0.28894168126E+02  0.00000000000E+00 0. -1.
</event>
<event>
 5    1  0.1724235E-003  0.9118800E+02  0.7818608E-02  0.1130116E+00
         25   -1    0    0    0    0  0.00000000000E+00  0.00000000000E+00  0.99999998245E-14  0.12500000000E+03  0.12500000000E+03 0.  0.
        -13    1    3    3    0    0  0.14893127365E+02 -0.45753729587E+02  0.22245544130E+02  0.53010229310E+02  0.10566000000E+00 0.  1.
         23    2    1    0    0    0 -0.86565141095E+01 -0.84786398363E+01  0.25032176622E+02  0.97189346709E+02  0.93125381488E+02 0.  0.
         13    1    3    3    0    0 -0.23549641474E+02  0.37275089751E+02  0.27866324920E+01  0.44179117399E+02  0.10566000000E+00 0. -1.
         22    1    1    0    0    0  0.86565141095E+01  0.84786398363E+01 -0.25032176622E+02  0.27810653291E+02  0.00000000000E+00 0. -1.
</event>
<event>
 5    1  0.1724235E-003  0.9118800E+02  0.7818608E-02  0.1130116E+00
         25   -1    0    0    0    0  0.00000000000E+00  0.00000000000E+00  0.99999998245E-14  0.12500000000E+03  0.12500000000E+03 0.  0.
        -13    1    3    3    0    0 -0.40058883368E+02  0.12732859370E+02 -0.19492197077E+02  0.46333538127E+02  0.10566000000E+00 0.  1.
         23    2    1    0    0    0 -0.91265744237E+00 -0.14844136070E+02 -0.26385585247E+02  0.94711711370E+02  0.89738106970E+02 0.  0.
         13    1    3    3    0    0  0.39146225926E+02 -0.27576995441E+02 -0.68933881704E+01  0.48378173243E+02  0.10566000000E+00 0. -1.
         22    1    1    0    0    0  0.91265744237E+00  0.14844136070E+02  0.26385585247E+02  0.30288288630E+02  0.00000000000E+00 0.  1.
</event>
<event>
 5    1  0.1724235E-003  0.9118800E+02  0.7818608E-02  0.1130116E+00
         25   -1    0    0    0    0  0.00000000000E+00  0.00000000000E+00  0.99999998245E-14  0.12500000000E+03  0.12500000000E+03 0.  0.
        -13    1    3    3    0    0 -0.56941362102E+01  0.48106753499E+02  0.18652094028E+02  0.51909485598E+02  0.10566000000E+00 0.  1.
         23    2    1    0    0    0  0.15345843290E+02  0.10118321657E+02  0.23005338170E+02  0.95553082950E+02  0.90902534275E+02 0.  0.
         13    1    3    3    0    0  0.21039979501E+02 -0.37988431842E+02  0.43532441420E+01  0.43643597352E+02  0.10566000000E+00 0. -1.
         22    1    1    0    0    0 -0.15345843290E+02 -0.10118321657E+02 -0.23005338170E+02  0.29446917050E+02  0.00000000000E+00 0.  1.
</event>
<event>
 5    1  0.1724235E-003  0.9118800E+02  0.7818608E-02  0.1130116E+00
         25   -1    0    0    0    0  0.00000000000E+00  0.00000000000E+00  0.99999998245E-14  0.12500000000E+03  0.12500000000E+03 0.  0.
        -13    1    3    3    0    0  0.49481059750E+01  0.14859243602E+02  0.38185430646E+02  0.41272498723E+02  0.10566000000E+00 0.  1.
         23    2    1    0    0    0  0.27066497015E+02  0.10517960269E+01 -0.10053552265E+02  0.96107519167E+02  0.91661768430E+02 0.  0.
         13    1    3    3    0    0  0.22118391040E+02 -0.13807447575E+02 -0.48238982912E+02  0.54835020444E+02  0.10566000000E+00 0. -1.
         22    1    1    0    0    0 -0.27066497015E+02 -0.10517960269E+01  0.10053552265E+02  0.28892480833E+02  0.00000000000E+00 0. -1.
</event>
<event>
 5    1  0.1724235E-003  0.9118800E+02  0.7818608E-02  0.1130116E+00
         25   -1    0    0    0    0  0.00000000000E+00  0.00000000000E+00  0.99999998245E-14  0.12500000000E+03  0.12500000000E+03 0.  0.
        -13    1    3    3    0    0 -0.11562230690E+02 -0.32598453587E+02 -0.29575852328E+02  0.45509192036E+02  0.10566000000E+00 0.  1.
         23    2    1    0    0    0 -0.10630219016E+02  0.16680048400E+02 -0.22068029197E+02  0.95365164357E+02  0.90643759240E+02 0.  0.
         13    1    3    3    0    0  0.93201167370E+00  0.49278501987E+02  0.75078231315E+01  0.49855972321E+02  0.10566000000E+00 0. -1.
         22    1    1    0    0    0  0.10630219016E+02 -0.16680048400E+02  0.22068029197E+02  0.29634835643E+02  0.00000000000E+00 0.  1.
</event>
<event>
 5    1  0.1724235E-003  0.9118800E+02  0.7818608E-02  0.1130116E+00
         25   -1    0    0    0    0  0.00000000000E+00  0.00000000000E+00  0.99999998245E-14  0.12500000000E+03  0.12500000000E+03 0.  0.
        -13    1    3    3    0    0  0.24028403138E+02  0.29306000795E+02 -0.48572513473E+02  0.61607678654E+02  0.10566000000E+00 0.  1.
         23    2    1    0    0    0  0.10588721860E+02  0.22658502507E+02 -0.24361895822E+02  0.90085379359E+02  0.83044234235E+02 0.  0.
         13    1    3    3    0    0 -0.13439681278E+02 -0.66474982877E+01  0.24210617652E+02  0.28477700705E+02  0.10566000000E+00 0. -1.
         22    1    1    0    0    0 -0.10588721860E+02 -0.22658502507E+02  0.24361895822E+02  0.34914620641E+02  0.00000000000E+00 0.  1.
</event>
<event>
 5    1  0.1724235E-003  0.9118800E+02  0.7818608E-02  0.1130116E+00
         25   -1    0    0    0    0  0.00000000000E+00  0.00000000000E+00  0.99999998245E-14  0.12500000000E+03  0.12500000000E+03 0.  0.
        -13    1    3    3    0    0 -0.45378169316E+02 -0.57090196506E+01  0.36419089050E+01  0.45880778332E+02  0.10566000000E+00 0. -1.
         23    2    1    0    0    0 -0.97211896161E+01 -0.85293502224E+01  0.31324833586E+02  0.91110524614E+02  0.84573229532E+02 0.  0.
         13    1    3    3    0    0  0.35656979700E+02 -0.28203305717E+01  0.27682924681E+02  0.45229746282E+02  0.10566000000E+00 0.  1.
         22    1    1    0    0    0  0.97211896161E+01  0.85293502224E+01 -0.31324833586E+02  0.33889475386E+02  0.00000000000E+00 0. -1.
</event>
<event>
 5    1  0.1724235E-003  0.9118800E+02  0.7818608E-02  0.1130116E+00
         25   -1    0    0    0    0  0.00000000000E+00  0.00000000000E+00  0.99999998245E-14  0.12500000000E+03  0.12500000000E+03 0.  0.
        -13    1    3    3    0    0  0.29442260446E+01 -0.49184743157E+01  0.40404386221E+02  0.40809134352E+02  0.10566000000E+00 0.  1.
         23    2    1    0    0    0  0.22877870002E+02 -0.97087798958E+01 -0.12234207172E+02  0.97299220805E+02  0.93272746294E+02 0.  0.
         13    1    3    3    0    0  0.19933643957E+02 -0.47903055801E+01 -0.52638593394E+02  0.56490086453E+02  0.10566000000E+00 0. -1.
         22    1    1    0    0    0 -0.22877870002E+02  0.97087798958E+01  0.12234207172E+02  0.27700779195E+02  0.00000000000E+00 0. -1.
</event>
<event>
 5    1  0.1724235E-003  0.9118800E+02  0.7818608E-02  0.1130116E+00
         25   -1    0    0    0    0  0.00000000000E+00  0.00000000000E+00  0.99999998245E-14  0.12500000000E+03  0.12500000000E+03 0.  0.
        -13    1    3    3    0    0 -0.44219711233E+02 -0.16082871979E+02  0.34380748593E+02  0.58275969923E+02  0.10566000000E+00 0. -1.
         23    2    1    0    0    0 -0.26791959190E+02 -0.94633206893E+01  0.93041715371E+00  0.96570628009E+02  0.92291153435E+02 0.  0.
         13    1    3    3    0    0  0.17427752043E+02  0.66195512893E+01 -0.33450331439E+02  0.38294658086E+02  0.10566000000E+00 0.  1.
         22    1    1    0    0    0  0.26791959190E+02  0.94633206893E+01 -0.93041715371E+00  0.28429371991E+02  0.00000000000E+00 0. -1.
</event>
<event>
 5    1  0.1724235E-003  0.9118800E+02  0.7818608E-02  0.1130116E+00
         25   -1    0    0    0    0  0.00000000000E+00  0.00000000000E+00  0.99999998245E-14  0.12500000000E+03  0.12500000000E+03 0.  0.
        -13    1    3    3    0    0 -0.33167155940E+02 -0.50404365741E+02  0.10474988609E+02  0.61240483908E+02  0.10566000000E+00 0. -1.
         23    2    1    0    0    0 -0.21397034123E+02 -0.19787659229E+02 -0.56627498689E+00  0.95850296839E+02  0.91310318200E+02 0.  0.
         13    1    3    3    0    0  0.11770121817E+02  0.30616706512E+02 -0.11041263596E+02  0.34609812931E+02  0.10566000000E+00 0.  1.
         22    1    1    0    0    0  0.21397034123E+02  0.19787659229E+02  0.56627498689E+00  0.29149703161E+02  0.00000000000E+00 0. -1.
</event>
<event>
 5    1  0.1724235E-003  0.9118800E+02  0.7818608E-02  0.1130116E+00
         25   -1    0    0    0    0  0.00000000000E+00  0.00000000000E+00  0.99999998245E-14  0.12500000000E+03  0.12500000000E+03 0.  0.
        -13    1    3    3    0    0  0.37377388111E+02  0.21004928582E+02  0.71275652808E+01  0.43463657434E+02  0.10566000000E+00 0. -1.
         23    2    1    0    0    0 -0.95576458621E+01  0.22542517712E+02 -0.15939926089E+02  0.95783652813E+02  0.91219039697E+02 0.  0.
         13    1    3    3    0    0 -0.46935033973E+02  0.15375891304E+01 -0.23067491370E+02  0.52319995379E+02  0.10566000000E+00 0.  1.
         22    1    1    0    0    0  0.95576458621E+01 -0.22542517712E+02  0.15939926089E+02  0.29216347187E+02  0.00000000000E+00 0.  1.
</event>
<event>
 5    1  0.1724235E-003  0.9118800E+02  0.7818608E-02  0.1130116E+00
         25   -1    0    0    0    0  0.00000000000E+00  0.00000000000E+00  0.99999998245E-14  0.12500000000E+03  0.12500000000E+03 0.  0.
        -13    1    3    3    0    0 -0.34468743102E+02 -0.17594248760E+02 -0.16638643322E+02  0.42124903040E+02  0.10566000000E+00 0.  1.
         23    2    1    0    0    0  0.10514418323E+01  0.20726255398E+02 -0.22127615447E+02  0.94663313329E+02  0.89670665952E+02 0.  0.
         13    1    3    3    0    0  0.35520184935E+02  0.38320504158E+02 -0.54889721255E+01  0.52538410290E+02  0.10566000000E+00 0. -1.
         22    1    1    0    0    0 -0.10514418323E+01 -0.20726255398E+02  0.22127615447E+02  0.30336686671E+02  0.00000000000E+00 0.  1.
</event>
<event>
 5    1  0.1724235E-003  0.9118800E+02  0.7818608E-02  0.1130116E+00
         25   -1    0    0    0    0  0.00000000000E+00  0.00000000000E+00  0.99999998245E-14  0.12500000000E+03  0.12500000000E+03 0.  0.
        -13    1    3    3    0    0  0.12038813851E+02 -0.18806378015E+02  0.51265886909E+02  0.55917932880E+02  0.10566000000E+00 0. -1.
         23    2    1    0    0    0 -0.12731357209E+01 -0.24742569102E+02  0.12673111362E+02  0.97171537018E+02  0.93101472892E+02 0.  0.
         13    1    3    3    0    0 -0.13311949572E+02 -0.59361910871E+01 -0.38592775546E+02  0.41253604139E+02  0.10566000000E+00 0.  1.
         22    1    1    0    0    0  0.12731357209E+01  0.24742569102E+02 -0.12673111362E+02  0.27828462982E+02  0.00000000000E+00 0. -1.
</event>
<event>
 5    1  0.1724235E-003  0.9118800E+02  0.7818608E-02  0.1130116E+00
         25   -1    0    0    0    0  0.00000000000E+00  0.00000000000E+00  0.99999998245E-14  0.12500000000E+03  0.12500000000E+03 0.  0.
        -13    1    3    3    0    0 -0.40473730645E+02 -0.11754581805E+02 -0.26135664932E+02  0.49592108357E+02  0.10566000000E+00 0. -1.
         23    2    1    0    0    0 -0.53182385262E+01 -0.28561383983E+02 -0.10627501023E+01  0.95928265380E+02  0.91416991555E+02 0.  0.
         13    1    3    3    0    0  0.35155492119E+02 -0.16806802178E+02  0.25072914830E+02  0.46336157024E+02  0.10566000000E+00 0.  1.
         22    1    1    0    0    0  0.53182385262E+01  0.28561383983E+02  0.10627501023E+01  0.29071734620E+02  0.00000000000E+00 0.  1.
</event>
<event>
 5    1  0.1724235E-003  0.9118800E+02  0.7818608E-02  0.1130116E+00
         25   -1    0    0    0    0  0.00000000000E+00  0.00000000000E+00  0.99999998245E-14  0.12500000000E+03  0.12500000000E+03 0.  0.
        -13    1    3    3    0    0  0.49890343048E+02  0.29056916520E+02 -0.22556506518E+02  0.61985142392E+02  0.10566000000E+00 0.  1.
         23    2    1    0    0    0  0.21022867059E+02  0.18317372836E+02 -0.13005448980E+02  0.94232666834E+02  0.89068326067E+02 0.  0.
         13    1    3    3    0    0 -0.28867475989E+02 -0.10739543684E+02  0.95510575375E+01  0.32247524442E+02  0.10566000000E+00 0. -1.
         22    1    1    0    0    0 -0.21022867059E+02 -0.18317372836E+02  0.13005448980E+02  0.30767333166E+02  0.00000000000E+00 0.  1.
</event>
<event>
 5    1  0.1724235E-003  0.9118800E+02  0.7818608E-02  0.1130116E+00
         25   -1    0    0    0    0  0.00000000000E+00  0.00000000000E+00  0.99999998245E-14  0.12500000000E+03  0.12500000000E+03 0.  0.
        -13    1    3    3    0    0  0.43591893836E+02 -0.50781092276E+01  0.21463703818E+02  0.48854295074E+02  0.10566000000E+00 0.  1.
         23    2    1    0    0    0  0.77343499445E+01 -0.82073439695E+01  0.35699789609E+02  0.87561308220E+02  0.79153818954E+02 0.  0.
         13    1    3    3    0    0 -0.35857543892E+02 -0.31292347419E+01  0.14236085791E+02  0.38707013146E+02  0.10566000000E+00 0. -1.
         22    1    1    0    0    0 -0.77343499445E+01  0.82073439695E+01 -0.35699789609E+02  0.37438691780E+02  0.00000000000E+00 0.  1.
</event>
<event>
 5    1  0.1724235E-003  0.9118800E+02  0.7818608E-02  0.1130116E+00
         25   -1    0    0    0    0  0.00000000000E+00  0.00000000000E+00  0.99999998245E-14  0.12500000000E+03  0.12500000000E+03 0.  0.
        -13    1    3    3    0    0  0.30663660976E+02  0.32143633256E+02 -0.23374054405E+02  0.50197916756E+02  0.10566000000E+00 0. -1.
         23    2    1    0    0    0 -0.12937786831E+02  0.23169370976E+02 -0.83503444121E+01  0.97180324744E+02  0.93113270730E+02 0.  0.
         13    1    3    3    0    0 -0.43601447807E+02 -0.89742622795E+01  0.15023709993E+02  0.46982407988E+02  0.10566000000E+00 0.  1.
         22    1    1    0    0    0  0.12937786831E+02 -0.23169370976E+02  0.83503444121E+01  0.27819675256E+02  0.00000000000E+00 0. -1.
</event>
<event>
 5    1  0.1724235E-003  0.9118800E+02  0.7818608E-02  0.1130116E+00
         25   -1    0    0    0    0  0.00000000000E+00  0.00000000000E+00  0.99999998245E-14  0.12500000000E+03  0.12500000000E+03 0.  0.
        -13    1    3    3    0    0  0.26572510312E+02  0.38512986987E+01  0.20815992301E+02  0.33974218247E+02  0.10566000000E+00 0. -1.
         23    2    1    0    0    0 -0.15541420531E+02 -0.21371097839E+02 -0.14883669678E+02  0.94672072308E+02  0.89682875049E+02 0.  0.
         13    1    3    3    0    0 -0.42113930844E+02 -0.25222396538E+02 -0.35699661979E+02  0.60697854062E+02  0.10566000000E+00 0.  1.
         22    1    1    0    0    0  0.15541420531E+02  0.21371097839E+02  0.14883669678E+02  0.30327927692E+02  0.00000000000E+00 0.  1.
</event>
<event>
 5    1  0.1724235E-003  0.9118800E+02  0.7818608E-02  0.1130116E+00
         25   -1    0    0    0    0  0.00000000000E+00  0.00000000000E+00  0.99999998245E-14  0.12500000000E+03  0.12500000000E+03 0.  0.
        -13    1    3    3    0    0  0.30032451893E+02  0.10255519353E+02  0.24178006837E+02  0.39896253240E+02  0.10566000000E+00 0. -1.
         23    2    1    0    0    0 -0.39127254799E+01  0.26439437186E+02 -0.15122894738E+02  0.94290796092E+02  0.89149868328E+02 0.  0.
         13    1    3    3    0    0 -0.33945177373E+02  0.16183917833E+02 -0.39300901576E+02  0.54394542852E+02  0.10566000000E+00 0.  1.
         22    1    1    0    0    0  0.39127254799E+01 -0.26439437186E+02  0.15122894738E+02  0.30709203908E+02  0.00000000000E+00 0. -1.
</event>
<event>
 5    1  0.1724235E-003  0.9118800E+02  0.7818608E-02  0.1130116E+00
         25   -1    0    0    0    0  0.00000000000E+00  0.00000000000E+00  0.99999998245E-14  0.12500000000E+03  0.12500000000E+03 0.  0.
        -13    1    3    3    0    0 -0.49716857530E+02 -0.13996818634E+02  0.81998242533E+01  0.52296511704E+02  0.10566000000E+00 0. -1.
         23    2    1    0    0    0 -0.24685083657E+02  0.14310670777E+02 -0.10673999874E+02  0.94535546508E+02  0.89492383068E+02 0.  0.
         13    1    3    3    0    0  0.25031773874E+02  0.28307489411E+02 -0.18873824127E+02  0.42239034805E+02  0.10566000000E+00 0.  1.
         22    1    1    0    0    0  0.24685083657E+02 -0.14310670777E+02  0.10673999874E+02  0.30464453492E+02  0.00000000000E+00 0. -1.
</event>
<event>
 5    1  0.1724235E-003  0.9118800E+02  0.7818608E-02  0.1130116E+00
         25   -1    0    0    0    0  0.00000000000E+00  0.00000000000E+00  0.99999998245E-14  0.12500000000E+03  0.12500000000E+03 0.  0.
        -13    1    3    3    0    0  0.33945940717E+02 -0.98999711657E+01  0.49856526103E+02  0.61122996322E+02  0.10566000000E+00 0.  1.
         23    2    1    0    0    0  0.70505806072E+01 -0.97868718321E+01  0.93829750313E+01  0.10971818834E+03  0.10864873255E+03 0.  0.
         13    1    3    3    0    0 -0.26895360110E+02  0.11309933353E+00 -0.40473551072E+02  0.48595192019E+02  0.10566000000E+00 0. -1.
         22    1    1    0    0    0 -0.70505806072E+01  0.97868718321E+01 -0.93829750313E+01  0.15281811659E+02  0.00000000000E+00 0.  1.
</event>
<event>
 5    1  0.1724235E-003  0.9118800E+02  0.7818608E-02  0.1130116E+00
         25   -1    0    0    0    0  0.00000000000E+00  0.00000000000E+00  0.99999998245E-14  0.12500000000E+03  0.12500000000E+03 0.  0.
        -13    1    3    3    0    0  0.33527254055E+02 -0.94093949645E+01 -0.26366883158E+02  0.43678795423E+02  0.10566000000E+00 0.  1.
         23    2    1    0    0    0 -0.15558896510E+02 -0.21325207974E+02 -0.98963167649E+01  0.96808142288E+02  0.92612286290E+02 0.  0.
         13    1    3    3    0    0 -0.49086150565E+02 -0.11915813010E+02  0.16470566393E+02  0.53129346865E+02  0.10566000000E+00 0. -1.
         22    1    1    0    0    0  0.15558896510E+02  0.21325207974E+02  0.98963167649E+01  0.28191857712E+02  0.00000000000E+00 0.  1.
</event>
<event>
 5    1  0.1724235E-003  0.9118800E+02  0.7818608E-02  0.1130116E+00
         25   -1    0    0    0    0  0.00000000000E+00  0.00000000000E+00  0.99999998245E-14  0.12500000000E+03  0.12500000000E+03 0.  0.
        -13    1    3    3    0    0 -0.40338212916E+02 -0.13932103510E+02  0.16318516671E+02  0.45690043552E+02  0.10566000000E+00 0.  1.
         23    2    1    0    0    0  0.19845397515E+01 -0.28320001073E+02 -0.64956100691E+01  0.95876919651E+02  0.91346756444E+02 0.  0.
         13    1    3    3    0    0  0.42322752667E+02 -0.14387897563E+02 -0.22814126740E+02  0.50186876099E+02  0.10566000000E+00 0. -1.
         22    1    1    0    0    0 -0.19845397515E+01  0.28320001073E+02  0.64956100691E+01  0.29123080349E+02  0.00000000000E+00 0. -1.
</event>
<event>
 5    1  0.1724235E-003  0.9118800E+02  0.7818608E-02  0.1130116E+00
         25   -1    0    0    0    0  0.00000000000E+00  0.00000000000E+00  0.99999998245E-14  0.12500000000E+03  0.12500000000E+03 0.  0.
        -13    1    3    3    0    0 -0.25521046031E+02 -0.36936147007E+01  0.56048922084E+02  0.61696510525E+02  0.10566000000E+00 0.  1.
         23    2    1    0    0    0 -0.16883943298E+02  0.11442338530E+01  0.21482911264E+02  0.97652380565E+02  0.93744840611E+02 0.  0.
         13    1    3    3    0    0  0.86371027330E+01  0.48378485538E+01 -0.34566010820E+02  0.35955870040E+02  0.10566000000E+00 0. -1.
         22    1    1    0    0    0  0.16883943298E+02 -0.11442338530E+01 -0.21482911264E+02  0.27347619435E+02  0.00000000000E+00 0.  1.
</event>
<event>
 5    1  0.1724235E-003  0.9118800E+02  0.7818608E-02  0.1130116E+00
         25   -1    0    0    0    0  0.00000000000E+00  0.00000000000E+00  0.99999998245E-14  0.12500000000E+03  0.12500000000E+03 0.  0.
        -13    1    3    3    0    0  0.38282684020E+01  0.18490203763E+01 -0.41672250959E+02  0.41888687964E+02  0.10566000000E+00 0.  1.
         23    2    1    0    0    0 -0.29445876889E+02 -0.41945883410E+01 -0.39049550336E+00  0.95254299070E+02  0.90490744098E+02 0.  0.
         13    1    3    3    0    0 -0.33274145291E+02 -0.60436087173E+01  0.41281755456E+02  0.53365611106E+02  0.10566000000E+00 0. -1.
         22    1    1    0    0    0  0.29445876889E+02  0.41945883410E+01  0.39049550336E+00  0.29745700930E+02  0.00000000000E+00 0. -1.
</event>
<event>
 5    1  0.1724235E-003  0.9118800E+02  0.7818608E-02  0.1130116E+00
         25   -1    0    0    0    0  0.00000000000E+00  0.00000000000E+00  0.99999998245E-14  0.12500000000E+03  0.12500000000E+03 0.  0.
        -13    1    3    3    0    0 -0.41697078610E+02  0.33063940776E+02  0.21707417828E+01  0.53259682952E+02  0.10566000000E+00 0. -1.
         23    2    1    0    0    0 -0.28682643545E+02 -0.68814613539E+01 -0.17311916705E+01  0.95452655353E+02  0.90764331310E+02 0.  0.
         13    1    3    3    0    0  0.13014435065E+02 -0.39945402129E+02 -0.39019334533E+01  0.42192972401E+02  0.10566000000E+00 0.  1.
         22    1    1    0    0    0  0.28682643545E+02  0.68814613539E+01  0.17311916705E+01  0.29547344647E+02  0.00000000000E+00 0. -1.
</event>
<event>
 5    1  0.1724235E-003  0.9118800E+02  0.7818608E-02  0.1130116E+00
         25   -1    0    0    0    0  0.00000000000E+00  0.00000000000E+00  0.99999998245E-14  0.12500000000E+03  0.12500000000E+03 0.  0.
        -13    1    3    3    0    0  0.63538364109E+01 -0.19832307285E+02 -0.37844060770E+02  0.43195783926E+02  0.10566000000E+00 0. -1.
         23    2    1    0    0    0  0.22058433042E+02 -0.12727445681E+02  0.12659640972E+02  0.96560083485E+02  0.92276870728E+02 0.  0.
         13    1    3    3    0    0  0.15704596631E+02  0.71048616047E+01  0.50503701742E+02  0.53364299559E+02  0.10566000000E+00 0.  1.
         22    1    1    0    0    0 -0.22058433042E+02  0.12727445681E+02 -0.12659640972E+02  0.28439916515E+02  0.00000000000E+00 0.  1.
</event>
<event>
 5    1  0.1724235E-003  0.9118800E+02  0.7818608E-02  0.1130116E+00
         25   -1    0    0    0    0  0.00000000000E+00  0.00000000000E+00  0.99999998245E-14  0.12500000000E+03  0.12500000000E+03 0.  0.
        -13    1    3    3    0    0 -0.50856152380E+01  0.29850902640E+02  0.17220451168E+02  0.34835254747E+02  0.10566000000E+00 0. -1.
         23    2    1    0    0    0  0.52640606884E+01 -0.28632078792E+02  0.58897003991E+01  0.95298235041E+02  0.90551415010E+02 0.  0.
         13    1    3    3    0    0  0.10349675926E+02 -0.58482981433E+02 -0.11330750769E+02  0.60462980294E+02  0.10566000000E+00 0.  1.
         22    1    1    0    0    0 -0.52640606884E+01  0.28632078792E+02 -0.58897003991E+01  0.29701764959E+02  0.00000000000E+00 0.  1.
</event>
<event>
 5    1  0.1724235E-003  0.9118800E+02  0.7818608E-02  0.1130116E+00
         25   -1    0    0    0    0  0.00000000000E+00  0.00000000000E+00  0.99999998245E-14  0.12500000000E+03  0.12500000000E+03 0.  0.
        -13    1    3    3    0    0  0.29084766365E+02  0.13918001701E+02 -0.19513590717E+02  0.37688536620E+02  0.10566000000E+00 0. -1.
         23    2    1    0    0    0 -0.20483684284E+02 -0.14728117777E+02 -0.16163974677E+02  0.95037142118E+02  0.90190274029E+02 0.  0.
         13    1    3    3    0    0 -0.49568450649E+02 -0.28646119478E+02  0.33496160400E+01  0.57348605498E+02  0.10566000000E+00 0.  1.
         22    1    1    0    0    0  0.20483684284E+02  0.14728117777E+02  0.16163974677E+02  0.29962857882E+02  0.00000000000E+00 0.  1.
</event>
<event>
 5    1  0.1724235E-003  0.9118800E+02  0.7818608E-02  0.1130116E+00
         25   -1    0    0    0    0  0.00000000000E+00  0.00000000000E+00  0.99999998245E-14  0.12500000000E+03  0.12500000000E+03 0.  0.
        -13    1    3    3    0    0  0.20765125227E+02  0.35735545656E+02  0.67302891505E+01  0.41875143046E+02  0.10566000000E+00 0. -1.
         23    2    1    0    0    0 -0.26931492817E+02  0.14971074230E+02  0.16572841931E+01  0.94142505613E+02  0.88941702273E+02 0.  0.
         13    1    3    3    0    0 -0.47696618044E+02 -0.20764471426E+02 -0.50730049574E+01  0.52267362567E+02  0.10566000000E+00 0.  1.
         22    1    1    0    0    0  0.26931492817E+02 -0.14971074230E+02 -0.16572841931E+01  0.30857494387E+02  0.00000000000E+00 0.  1.
</event>
<event>
 5    1  0.1724235E-003  0.9118800E+02  0.7818608E-02  0.1130116E+00
         25   -1    0    0    0    0  0.00000000000E+00  0.00000000000E+00  0.99999998245E-14  0.12500000000E+03  0.12500000000E+03 0.  0.
        -13    1    3    3    0    0 -0.19072451087E+01  0.10573698766E+02  0.41066674715E+02  0.42449070963E+02  0.10566000000E+00 0.  1.
         23    2    1    0    0    0  0.24804929971E+02 -0.14729052142E+02  0.20489596140E+01  0.96078939103E+02  0.91622785244E+02 0.  0.
         13    1    3    3    0    0  0.26712175080E+02 -0.25302750907E+02 -0.39017715101E+02  0.53629868140E+02  0.10566000000E+00 0. -1.
         22    1    1    0    0    0 -0.24804929971E+02  0.14729052142E+02 -0.20489596140E+01  0.28921060897E+02  0.00000000000E+00 0. -1.
</event>
<event>
 5    1  0.1724235E-003  0.9118800E+02  0.7818608E-02  0.1130116E+00
         25   -1    0    0    0    0  0.00000000000E+00  0.00000000000E+00  0.99999998245E-14  0.12500000000E+03  0.12500000000E+03 0.  0.
        -13    1    3    3    0    0  0.34341485899E+02 -0.23665162926E+02  0.66222993832E-01  0.41706032412E+02  0.10566000000E+00 0.  1.
         23    2    1    0    0    0  0.23954184720E+01  0.11206650412E+02 -0.26626782488E+02  0.96011854340E+02  0.91531216451E+02 0.  0.
         13    1    3    3    0    0 -0.31946067427E+02  0.34871813338E+02 -0.26693005482E+02  0.54305821928E+02  0.10566000000E+00 0. -1.
         22    1    1    0    0    0 -0.23954184720E+01 -0.11206650412E+02  0.26626782488E+02  0.28988145660E+02  0.00000000000E+00 0. -1.
</event>
<event>
 5    1  0.1724235E-003  0.9118800E+02  0.7818608E-02  0.1130116E+00
         25   -1    0    0    0    0  0.00000000000E+00  0.00000000000E+00  0.99999998245E-14  0.12500000000E+03  0.12500000000E+03 0.  0.
        -13    1    3    3    0    0 -0.86637175102E+01  0.19919202474E+02  0.42673728560E+02  0.47884161281E+02  0.10566000000E+00 0.  1.
         23    2    1    0    0    0  0.17460899247E+02 -0.12619374244E+02  0.21037813197E+02  0.94888188481E+02  0.89983593618E+02 0.  0.
         13    1    3    3    0    0  0.26124616757E+02 -0.32538576717E+02 -0.21635915363E+02  0.47004027201E+02  0.10566000000E+00 0. -1.
         22    1    1    0    0    0 -0.17460899247E+02  0.12619374244E+02 -0.21037813197E+02  0.30111811519E+02  0.00000000000E+00 0. -1.
</event>
<event>
 5    1  0.1724235E-003  0.9118800E+02  0.7818608E-02  0.1130116E+00
         25   -1    0    0    0    0  0.00000000000E+00  0.00000000000E+00  0.99999998245E-14  0.12500000000E+03  0.12500000000E+03 0.  0.
        -13    1    3    3    0    0  0.26954217492E+02  0.73681103658E+01  0.27718184788E+02  0.39358961152E+02  0.10566000000E+00 0. -1.
         23    2    1    0    0    0 -0.21917240304E+02  0.20808562024E+02  0.80778942809E+01  0.93717192388E+02  0.88341938495E+02 0.  0.
         13    1    3    3    0    0 -0.48871457796E+02  0.13440451659E+02 -0.19640290507E+02  0.54358231236E+02  0.10566000000E+00 0.  1.
         22    1    1    0    0    0  0.21917240304E+02 -0.20808562024E+02 -0.80778942809E+01  0.31282807612E+02  0.00000000000E+00 0.  1.
</event>
<event>
 5    1  0.1724235E-003  0.9118800E+02  0.7818608E-02  0.1130116E+00
         25   -1    0    0    0    0  0.00000000000E+00  0.00000000000E+00  0.99999998245E-14  0.12500000000E+03  0.12500000000E+03 0.  0.
        -13    1    3    3    0    0 -0.35907078602E+01 -0.31484218348E+02 -0.52194941470E+02  0.61061217373E+02  0.10566000000E+00 0. -1.
         23    2    1    0    0    0 -0.80374849061E+01 -0.79109018677E+01 -0.26426469703E+02  0.96267756215E+02  0.91880025325E+02 0.  0.
         13    1    3    3    0    0 -0.44467770459E+01  0.23573316480E+02  0.25768471767E+02  0.35206538842E+02  0.10566000000E+00 0.  1.
         22    1    1    0    0    0  0.80374849061E+01  0.79109018677E+01  0.26426469703E+02  0.28732243785E+02  0.00000000000E+00 0. -1.
</event>
<event>
 5    1  0.1724235E-003  0.9118800E+02  0.7818608E-02  0.1130116E+00
         25   -1    0    0    0    0  0.00000000000E+00  0.00000000000E+00  0.99999998245E-14  0.12500000000E+03  0.12500000000E+03 0.  0.
        -13    1    3    3    0    0 -0.22792744259E+02  0.26555396827E+02 -0.58299441590E+01  0.35478129945E+02  0.10566000000E+00 0.  1.
         23    2    1    0    0    0 -0.12691667642E+01 -0.90809240067E+01 -0.36613993936E+02  0.87255351147E+02  0.78669166685E+02 0.  0.
         13    1    3    3    0    0  0.21523577495E+02 -0.35636320834E+02 -0.30784049777E+02  0.51777221202E+02  0.10566000000E+00 0. -1.
         22    1    1    0    0    0  0.12691667642E+01  0.90809240067E+01  0.36613993936E+02  0.37744648853E+02  0.00000000000E+00 0. -1.
</event>
<event>
 5    1  0.1724235E-003  0.9118800E+02  0.7818608E-02  0.1130116E+00
         25   -1    0    0    0    0  0.00000000000E+00  0.00000000000E+00  0.99999998245E-14  0.12500000000E+03  0.12500000000E+03 0.  0.
        -13    1    3    3    0    0 -0.18014367570E+02  0.74680688426E+01  0.60414805947E+01  0.20415683750E+02  0.10566000000E+00 0.  1.
         23    2    1    0    0    0  0.18550106062E+02  0.62796537696E+01  0.46248722271E+02  0.74775655325E+02  0.55397778216E+02 0.  0.
         13    1    3    3    0    0  0.36564473632E+02 -0.11884150730E+01  0.40207241676E+02  0.54359971575E+02  0.10566000000E+00 0. -1.
         22    1    1    0    0    0 -0.18550106062E+02 -0.62796537696E+01 -0.46248722271E+02  0.50224344675E+02  0.00000000000E+00 0. -1.
</event>
<event>
 5    1  0.1724235E-003  0.9118800E+02  0.7818608E-02  0.1130116E+00
         25   -1    0    0    0    0  0.00000000000E+00  0.00000000000E+00  0.99999998245E-14  0.12500000000E+03  0.12500000000E+03 0.  0.
        -13    1    3    3    0    0  0.38319480456E+02  0.23271372047E+02 -0.13832076774E+02  0.46917766905E+02  0.10566000000E+00 0. -1.
         23    2    1    0    0    0  0.13393009039E+02  0.38552788757E+01  0.24633942283E+02  0.96696873340E+02  0.92461983188E+02 0.  0.
         13    1    3    3    0    0 -0.24926471417E+02 -0.19416093171E+02  0.38466019057E+02  0.49779106435E+02  0.10566000000E+00 0.  1.
         22    1    1    0    0    0 -0.13393009039E+02 -0.38552788757E+01 -0.24633942283E+02  0.28303126660E+02  0.00000000000E+00 0.  1.
</event>
<event>
 5    1  0.1724235E-003  0.9118800E+02  0.7818608E-02  0.1130116E+00
         25   -1    0    0    0    0  0.00000000000E+00  0.00000000000E+00  0.99999998245E-14  0.12500000000E+03  0.12500000000E+03 0.  0.
        -13    1    3    3    0    0 -0.42358933211E+02 -0.15312066539E+02 -0.40530304576E+02  0.60592535494E+02  0.10566000000E+00 0. -1.
         23    2    1    0    0    0 -0.13407782423E+02 -0.91600418778E+00 -0.25341653528E+02  0.96315385714E+02  0.91944800987E+02 0.  0.
         13    1    3    3    0    0  0.28951150788E+02  0.14396062352E+02  0.15188651047E+02  0.35722850221E+02  0.10566000000E+00 0.  1.
         22    1    1    0    0    0  0.13407782423E+02  0.91600418778E+00  0.25341653528E+02  0.28684614286E+02  0.00000000000E+00 0. -1.
</event>
<event>
 5    1  0.1724235E-003  0.9118800E+02  0.7818608E-02  0.1130116E+00
         25   -1    0    0    0    0  0.00000000000E+00  0.00000000000E+00  0.99999998245E-14  0.12500000000E+03  0.12500000000E+03 0.  0.
        -13    1    3    3    0    0  0.21027274168E+02 -0.19862046467E+02  0.21420326603E+02  0.35992897974E+02  0.10566000000E+00 0. -1.
         23    2    1    0    0    0 -0.14634771227E+02 -0.14313862667E+02 -0.23642144646E+02  0.93726781477E+02  0.88355505597E+02 0.  0.
         13    1    3    3    0    0 -0.35662045394E+02  0.55481837994E+01 -0.45062471249E+02  0.57733883503E+02  0.10566000000E+00 0.  1.
         22    1    1    0    0    0  0.14634771227E+02  0.14313862667E+02  0.23642144646E+02  0.31273218523E+02  0.00000000000E+00 0.  1.
</event>
<event>
 5    1  0.1724235E-003  0.9118800E+02  0.7818608E-02  0.1130116E+00
         25   -1    0    0    0    0  0.00000000000E+00  0.00000000000E+00  0.99999998245E-14  0.12500000000E+03  0.12500000000E+03 0.  0.
        -13    1    3    3    0    0  0.38929381074E+02 -0.52687377626E+00 -0.37250898108E+02  0.53883345114E+02  0.10566000000E+00 0.  1.
         23    2    1    0    0    0  0.19830903825E+02  0.22375141478E+02 -0.12674642196E+02  0.92526037238E+02  0.86640113744E+02 0.  0.
         13    1    3    3    0    0 -0.19098477249E+02  0.22902015254E+02  0.24576255912E+02  0.38642692124E+02  0.10566000000E+00 0. -1.
         22    1    1    0    0    0 -0.19830903825E+02 -0.22375141478E+02  0.12674642196E+02  0.32473962762E+02  0.00000000000E+00 0.  1.
</event>
<event>
 5    1  0.1724235E-003  0.9118800E+02  0.7818608E-02  0.1130116E+00
         25   -1    0    0    0    0  0.00000000000E+00  0.00000000000E+00  0.99999998245E-14  0.12500000000E+03  0.12500000000E+03 0.  0.
        -13    1    3    3    0    0  0.36726754068E+02  0.38684797881E+02  0.13735089340E+02  0.55082046936E+02  0.10566000000E+00 0. -1.
         23    2    1    0    0    0  0.26973713271E+02 -0.10467943277E+01  0.78297123390E+00  0.97994629609E+02  0.94200092369E+02 0.  0.
         13    1    3    3    0    0 -0.97530407967E+01 -0.39731592208E+02 -0.12952118107E+02  0.42912582673E+02  0.10566000000E+00 0.  1.
         22    1    1    0    0    0 -0.26973713271E+02  0.10467943277E+01 -0.78297123390E+00  0.27005370391E+02  0.00000000000E+00 0. -1.
</event>
<event>
 5    1  0.1724235E-003  0.9118800E+02  0.7818608E-02  0.1130116E+00
         25   -1    0    0    0    0  0.00000000000E+00  0.00000000000E+00  0.99999998245E-14  0.12500000000E+03  0.12500000000E+03 0.  0.
        -13    1    3    3    0    0  0.43082684899E+02 -0.47570983832E+01  0.14960496361E+02  0.45853847587E+02  0.10566000000E+00 0.  1.
         23    2    1    0    0    0 -0.20236540194E+01 -0.20555340202E+02  0.22744401635E+02  0.94276637682E+02  0.89130014139E+02 0.  0.
         13    1    3    3    0    0 -0.45106338918E+02 -0.15798241819E+02  0.77839052735E+01  0.48422790094E+02  0.10566000000E+00 0. -1.
         22    1    1    0    0    0  0.20236540194E+01  0.20555340202E+02 -0.22744401635E+02  0.30723362318E+02  0.00000000000E+00 0. -1.
</event>
<event>
 5    1  0.1724235E-003  0.9118800E+02  0.7818608E-02  0.1130116E+00
         25   -1    0    0    0    0  0.00000000000E+00  0.00000000000E+00  0.99999998245E-14  0.12500000000E+03  0.12500000000E+03 0.  0.
        -13    1    3    3    0    0  0.11252685290E+02  0.26536287362E+02 -0.13077407442E+02  0.31651654343E+02  0.10566000000E+00 0.  1.
         23    2    1    0    0    0 -0.33337365855E+02 -0.60276487007E+01  0.70051916681E+01  0.90405416301E+02  0.83524571685E+02 0.  0.
         13    1    3    3    0    0 -0.44590051146E+02 -0.32563936063E+02  0.20082599110E+02  0.58753761957E+02  0.10566000000E+00 0. -1.
         22    1    1    0    0    0  0.33337365855E+02  0.60276487007E+01 -0.70051916681E+01  0.34594583699E+02  0.00000000000E+00 0. -1.
</event>
<event>
 5    1  0.1724235E-003  0.9118800E+02  0.7818608E-02  0.1130116E+00
         25   -1    0    0    0    0  0.00000000000E+00  0.00000000000E+00  0.99999998245E-14  0.12500000000E+03  0.12500000000E+03 0.  0.
        -13    1    3    3    0    0 -0.21478433093E+02  0.23375378446E+01  0.40941936447E+02  0.46292985379E+02  0.10566000000E+00 0.  1.
         23    2    1    0    0    0 -0.18552440172E+02 -0.26863077182E+02  0.62024013280E+01  0.91769174938E+02  0.85541181513E+02 0.  0.
         13    1    3    3    0    0  0.29259929203E+01 -0.29200615027E+02 -0.34739535119E+02  0.45476189559E+02  0.10566000000E+00 0. -1.
         22    1    1    0    0    0  0.18552440172E+02  0.26863077182E+02 -0.62024013280E+01  0.33230825062E+02  0.00000000000E+00 0.  1.
</event>
<event>
 5    1  0.1724235E-003  0.9118800E+02  0.7818608E-02  0.1130116E+00
         25   -1    0    0    0    0  0.00000000000E+00  0.00000000000E+00  0.99999998245E-14  0.12500000000E+03  0.12500000000E+03 0.  0.
        -13    1    3    3    0    0  0.19228106013E+02  0.29816748665E+02  0.16951404225E+02  0.39320730296E+02  0.10566000000E+00 0. -1.
         23    2    1    0    0    0 -0.13386982968E+02 -0.14187022775E+02  0.23472357514E+02  0.94480588219E+02  0.89415586196E+02 0.  0.
         13    1    3    3    0    0 -0.32615088981E+02 -0.44003771440E+02  0.65209532889E+01  0.55159857923E+02  0.10566000000E+00 0.  1.
         22    1    1    0    0    0  0.13386982968E+02  0.14187022775E+02 -0.23472357514E+02  0.30519411781E+02  0.00000000000E+00 0.  1.
</event>
<event>
 5    1  0.1724235E-003  0.9118800E+02  0.7818608E-02  0.1130116E+00
         25   -1    0    0    0    0  0.00000000000E+00  0.00000000000E+00  0.99999998245E-14  0.12500000000E+03  0.12500000000E+03 0.  0.
        -13    1    3    3    0    0  0.32978935791E+02 -0.38077466662E+02  0.12416279263E+02  0.51881391925E+02  0.10566000000E+00 0. -1.
         23    2    1    0    0    0 -0.11435197819E+02 -0.19821681133E+02  0.10182538343E+02  0.99953106396E+02  0.96764025335E+02 0.  0.
         13    1    3    3    0    0 -0.44414133610E+02  0.18255785529E+02 -0.22337409205E+01  0.48071714471E+02  0.10566000000E+00 0.  1.
         22    1    1    0    0    0  0.11435197819E+02  0.19821681133E+02 -0.10182538343E+02  0.25046893604E+02  0.00000000000E+00 0. -1.
</event>
<event>
 5    1  0.1724235E-003  0.9118800E+02  0.7818608E-02  0.1130116E+00
         25   -1    0    0    0    0  0.00000000000E+00  0.00000000000E+00  0.99999998245E-14  0.12500000000E+03  0.12500000000E+03 0.  0.
        -13    1    3    3    0    0 -0.47170444632E+02 -0.37090052014E+02  0.13887138090E+02  0.61592098305E+02  0.10566000000E+00 0. -1.
         23    2    1    0    0    0 -0.20293136501E+02 -0.21388360006E+02  0.40622025253E+00  0.95513760028E+02  0.90848445265E+02 0.  0.
         13    1    3    3    0    0  0.26877308132E+02  0.15701692008E+02 -0.13480917838E+02  0.33921661724E+02  0.10566000000E+00 0.  1.
         22    1    1    0    0    0  0.20293136501E+02  0.21388360006E+02 -0.40622025253E+00  0.29486239972E+02  0.00000000000E+00 0. -1.
</event>
<event>
 5    1  0.1724235E-003  0.9118800E+02  0.7818608E-02  0.1130116E+00
         25   -1    0    0    0    0  0.00000000000E+00  0.00000000000E+00  0.99999998245E-14  0.12500000000E+03  0.12500000000E+03 0.  0.
        -13    1    3    3    0    0 -0.12918834704E+02 -0.31986419547E+02  0.43629639495E+01  0.34771740595E+02  0.10566000000E+00 0.  1.
         23    2    1    0    0    0  0.11449910312E+02  0.23124836690E+02 -0.10986075347E+02  0.96954459006E+02  0.92809561746E+02 0.  0.
         13    1    3    3    0    0  0.24368745016E+02  0.55111256237E+02 -0.15349039297E+02  0.62182718411E+02  0.10566000000E+00 0. -1.
         22    1    1    0    0    0 -0.11449910312E+02 -0.23124836690E+02  0.10986075347E+02  0.28045540994E+02  0.00000000000E+00 0. -1.
</event>
<event>
 5    1  0.1724235E-003  0.9118800E+02  0.7818608E-02  0.1130116E+00
         25   -1    0    0    0    0  0.00000000000E+00  0.00000000000E+00  0.99999998245E-14  0.12500000000E+03  0.12500000000E+03 0.  0.
        -13    1    3    3    0    0  0.27430884523E+02  0.45063809207E+02 -0.18453229538E+02  0.55890367420E+02  0.10566000000E+00 0. -1.
         23    2    1    0    0    0  0.27573851025E+02  0.11958576878E+02  0.21234941936E+01  0.94869715420E+02  0.89957928250E+02 0.  0.
         13    1    3    3    0    0  0.14296650149E+00 -0.33105232329E+02  0.20576723731E+02  0.38979348000E+02  0.10566000000E+00 0.  1.
         22    1    1    0    0    0 -0.27573851025E+02 -0.11958576878E+02 -0.21234941936E+01  0.30130284580E+02  0.00000000000E+00 0.  1.
</event>
<event>
 5    1  0.1724235E-003  0.9118800E+02  0.7818608E-02  0.1130116E+00
         25   -1    0    0    0    0  0.00000000000E+00  0.00000000000E+00  0.99999998245E-14  0.12500000000E+03  0.12500000000E+03 0.  0.
        -13    1    3    3    0    0 -0.14094047162E+02 -0.11768167530E+02  0.29293203449E+02  0.34572168933E+02  0.10566000000E+00 0.  1.
         23    2    1    0    0    0  0.20866788790E+02 -0.46332922286E+01 -0.20202504504E+02  0.95588582838E+02  0.90951337040E+02 0.  0.
         13    1    3    3    0    0  0.34960835952E+02  0.71348753014E+01 -0.49495707952E+02  0.61016413904E+02  0.10566000000E+00 0. -1.
         22    1    1    0    0    0 -0.20866788790E+02  0.46332922286E+01  0.20202504504E+02  0.29411417162E+02  0.00000000000E+00 0. -1.
</event>
<event>
 5    1  0.1724235E-003  0.9118800E+02  0.7818608E-02  0.1130116E+00
         25   -1    0    0    0    0  0.00000000000E+00  0.00000000000E+00  0.99999998245E-14  0.12500000000E+03  0.12500000000E+03 0.  0.
        -13    1    3    3    0    0  0.32771175767E+02 -0.24738709178E+02 -0.23393656149E+02  0.47257041856E+02  0.10566000000E+00 0. -1.
         23    2    1    0    0    0  0.15366714461E+02 -0.11499534375E+02  0.20881322439E+02  0.96637968497E+02  0.92382314997E+02 0.  0.
         13    1    3    3    0    0 -0.17404461306E+02  0.13239174803E+02  0.44274978589E+02  0.49380926641E+02  0.10566000000E+00 0.  1.
         22    1    1    0    0    0 -0.15366714461E+02  0.11499534375E+02 -0.20881322439E+02  0.28362031503E+02  0.00000000000E+00 0.  1.
</event>
<event>
 5    1  0.1724235E-003  0.9118800E+02  0.7818608E-02  0.1130116E+00
         25   -1    0    0    0    0  0.00000000000E+00  0.00000000000E+00  0.99999998245E-14  0.12500000000E+03  0.12500000000E+03 0.  0.
        -13    1    3    3    0    0 -0.18737005177E+02 -0.24549915008E+02  0.13885103008E+02  0.33861201093E+02  0.10566000000E+00 0.  1.
         23    2    1    0    0    0  0.92228107963E+01  0.26065383508E+02 -0.88121352850E+01  0.95980727357E+02  0.91488697878E+02 0.  0.
         13    1    3    3    0    0  0.27959815973E+02  0.50615298516E+02 -0.22697238293E+02  0.62119526264E+02  0.10566000000E+00 0. -1.
         22    1    1    0    0    0 -0.92228107963E+01 -0.26065383508E+02  0.88121352850E+01  0.29019272643E+02  0.00000000000E+00 0. -1.
</event>
<event>
 5    1  0.1724235E-003  0.9118800E+02  0.7818608E-02  0.1130116E+00
         25   -1    0    0    0    0  0.00000000000E+00  0.00000000000E+00  0.99999998245E-14  0.12500000000E+03  0.12500000000E+03 0.  0.
        -13    1    3    3    0    0  0.23729926400E+02 -0.20690135419E+01  0.35456630644E+02  0.42715033006E+02  0.10566000000E+00 0. -1.
         23    2    1    0    0    0 -0.70274804978E+01  0.28941927054E+02  0.85529580567E+01  0.94013330039E+02  0.88759971325E+02 0.  0.
         13    1    3    3    0    0 -0.30757406898E+02  0.31010940596E+02 -0.26903672588E+02  0.51298297033E+02  0.10566000000E+00 0.  1.
         22    1    1    0    0    0  0.70274804978E+01 -0.28941927054E+02 -0.85529580567E+01  0.30986669961E+02  0.00000000000E+00 0.  1.
</event>
<event>
 5    1  0.1724235E-003  0.9118800E+02  0.7818608E-02  0.1130116E+00
         25   -1    0    0    0    0  0.00000000000E+00  0.00000000000E+00  0.99999998245E-14  0.12500000000E+03  0.12500000000E+03 0.  0.
        -13    1    3    3    0    0 -0.21119096299E+02  0.24759104834E+02  0.46397213021E+01  0.32871989269E+02  0.10566000000E+00 0. -1.
         23    2    1    0    0    0  0.15548957714E+02 -0.25434277652E+02  0.27752131024E+01  0.95060488089E+02  0.90222624780E+02 0.  0.
         13    1    3    3    0    0  0.36668054014E+02 -0.50193382487E+02 -0.18645081996E+01  0.62188498820E+02  0.10566000000E+00 0.  1.
         22    1    1    0    0    0 -0.15548957714E+02  0.25434277652E+02 -0.27752131024E+01  0.29939511911E+02  0.00000000000E+00 0.  1.
</event>
<event>
 5    1  0.1724235E-003  0.9118800E+02  0.7818608E-02  0.1130116E+00
         25   -1    0    0    0    0  0.00000000000E+00  0.00000000000E+00  0.99999998245E-14  0.12500000000E+03  0.12500000000E+03 0.  0.
        -13    1    3    3    0    0  0.22380057013E+02 -0.28290690292E+02 -0.39976357675E+02  0.53845616777E+02  0.10566000000E+00 0.  1.
         23    2    1    0    0    0  0.28126154871E+02 -0.11422713030E+00 -0.10632287017E+02  0.94931093088E+02  0.90043174488E+02 0.  0.
         13    1    3    3    0    0  0.57460978584E+01  0.28176463162E+02  0.29344070657E+02  0.41085476311E+02  0.10566000000E+00 0. -1.
         22    1    1    0    0    0 -0.28126154871E+02  0.11422713030E+00  0.10632287017E+02  0.30068906912E+02  0.00000000000E+00 0.  1.
</event>
<event>
 5    1  0.1724235E-003  0.9118800E+02  0.7818608E-02  0.1130116E+00
         25   -1    0    0    0    0  0.00000000000E+00  0.00000000000E+00  0.99999998245E-14  0.12500000000E+03  0.12500000000E+03 0.  0.
        -13    1    3    3    0    0 -0.35486744645E+02 -0.10603335700E+02 -0.68183628535E+01  0.37659540750E+02  0.10566000000E+00 0.  1.
         23    2    1    0    0    0  0.40388267036E+01  0.27728110813E+02  0.10028067155E+02  0.95238911625E+02  0.90469486051E+02 0.  0.
         13    1    3    3    0    0  0.39525571349E+02  0.38331446513E+02  0.16846430009E+02  0.57579370875E+02  0.10566000000E+00 0. -1.
         22    1    1    0    0    0 -0.40388267036E+01 -0.27728110813E+02 -0.10028067155E+02  0.29761088375E+02  0.00000000000E+00 0. -1.
</event>
<event>
 5    1  0.1724235E-003  0.9118800E+02  0.7818608E-02  0.1130116E+00
         25   -1    0    0    0    0  0.00000000000E+00  0.00000000000E+00  0.99999998245E-14  0.12500000000E+03  0.12500000000E+03 0.  0.
        -13    1    3    3    0    0 -0.36369012637E+02  0.38814497326E+02  0.30785022810E+02  0.61457294736E+02  0.10566000000E+00 0.  1.
         23    2    1    0    0    0 -0.23235543964E+02  0.15365879560E+02  0.21207606280E+02  0.89989097097E+02  0.82899181385E+02 0.  0.
         13    1    3    3    0    0  0.13133468673E+02 -0.23448617766E+02 -0.95774165297E+01  0.28531802361E+02  0.10566000000E+00 0. -1.
         22    1    1    0    0    0  0.23235543964E+02 -0.15365879560E+02 -0.21207606280E+02  0.35010902903E+02  0.00000000000E+00 0.  1.
</event>
<event>
 5    1  0.1724235E-003  0.9118800E+02  0.7818608E-02  0.1130116E+00
         25   -1    0    0    0    0  0.00000000000E+00  0.00000000000E+00  0.99999998245E-14  0.12500000000E+03  0.12500000000E+03 0.  0.
        -13    1    3    3    0    0 -0.24727208109E+02  0.53382957384E+01  0.12871577063E+02  0.28383461424E+02  0.10566000000E+00 0. -1.
         23    2    1    0    0    0  0.25408014617E+02 -0.24819092630E+02 -0.39562027549E+01  0.89261979546E+02  0.81795445389E+02 0.  0.
         13    1    3    3    0    0  0.50135222727E+02 -0.30157388368E+02 -0.16827779818E+02  0.60878518122E+02  0.10566000000E+00 0.  1.
         22    1    1    0    0    0 -0.25408014617E+02  0.24819092630E+02  0.39562027549E+01  0.35738020454E+02  0.00000000000E+00 0.  1.
</event>
<event>
 5    1  0.1724235E-003  0.9118800E+02  0.7818608E-02  0.1130116E+00
         25   -1    0    0    0    0  0.00000000000E+00  0.00000000000E+00  0.99999998245E-14  0.12500000000E+03  0.12500000000E+03 0.  0.
        -13    1    3    3    0    0  0.92822875076E+01 -0.28188808209E+02 -0.35810104248E+02  0.46509617284E+02  0.10566000000E+00 0.  1.
         23    2    1    0    0    0 -0.25842643864E+02 -0.19289948879E+01 -0.15065818069E+02  0.95024307560E+02  0.90172484107E+02 0.  0.
         13    1    3    3    0    0 -0.35124931371E+02  0.26259813321E+02  0.20744286179E+02  0.48514690276E+02  0.10566000000E+00 0. -1.
         22    1    1    0    0    0  0.25842643864E+02  0.19289948879E+01  0.15065818069E+02  0.29975692440E+02  0.00000000000E+00 0.  1.
</event>
<event>
 5    1  0.1724235E-003  0.9118800E+02  0.7818608E-02  0.1130116E+00
         25   -1    0    0    0    0  0.00000000000E+00  0.00000000000E+00  0.99999998245E-14  0.12500000000E+03  0.12500000000E+03 0.  0.
        -13    1    3    3    0    0  0.24235465225E+02 -0.27088205125E+02 -0.61054121161E+01  0.36856693459E+02  0.10566000000E+00 0. -1.
         23    2    1    0    0    0 -0.22893223322E+02  0.38201956942E+01 -0.19384648649E+02  0.94759990535E+02  0.89805331878E+02 0.  0.
         13    1    3    3    0    0 -0.47128688547E+02  0.30908400819E+02 -0.13279236533E+02  0.57903297076E+02  0.10566000000E+00 0.  1.
         22    1    1    0    0    0  0.22893223322E+02 -0.38201956942E+01  0.19384648649E+02  0.30240009465E+02  0.00000000000E+00 0.  1.
</event>
<event>
 5    1  0.1724235E-003  0.9118800E+02  0.7818608E-02  0.1130116E+00
         25   -1    0    0    0    0  0.00000000000E+00  0.00000000000E+00  0.99999998245E-14  0.12500000000E+03  0.12500000000E+03 0.  0.
        -13    1    3    3    0    0  0.46125784151E+02  0.29685680670E+02  0.29456992206E+02  0.62261971975E+02  0.10566000000E+00 0.  1.
         23    2    1    0    0    0  0.24648691401E+02  0.11943844742E+02  0.12336605040E+02  0.94959939433E+02  0.90083210745E+02 0.  0.
         13    1    3    3    0    0 -0.21477092750E+02 -0.17741835928E+02 -0.17120387166E+02  0.32697967458E+02  0.10566000000E+00 0. -1.
         22    1    1    0    0    0 -0.24648691401E+02 -0.11943844742E+02 -0.12336605040E+02  0.30040060567E+02  0.00000000000E+00 0.  1.
</event>
<event>
 5    1  0.1724235E-003  0.9118800E+02  0.7818608E-02  0.1130116E+00
         25   -1    0    0    0    0  0.00000000000E+00  0.00000000000E+00  0.99999998245E-14  0.12500000000E+03  0.12500000000E+03 0.  0.
        -13    1    3    3    0    0  0.23266760966E+02  0.85537751993E+01 -0.24840972849E+02  0.35094078306E+02  0.10566000000E+00 0. -1.
         23    2    1    0    0    0  0.11747148550E+02 -0.19952342831E+02  0.23259127233E+02  0.92181126114E+02  0.86141055998E+02 0.  0.
         13    1    3    3    0    0 -0.11519612417E+02 -0.28506118030E+02  0.48100100083E+02  0.57087047808E+02  0.10566000000E+00 0.  1.
         22    1    1    0    0    0 -0.11747148550E+02  0.19952342831E+02 -0.23259127233E+02  0.32818873886E+02  0.00000000000E+00 0.  1.
</event>
<event>
 4    1  0.1724235E-003  0.9118800E+02  0.7818608E-02  0.1130116E+00
         25   -1    0    0    0    0  0.00000000000E+00  0.00000000000E+00  0.99999998245E-14  0.12500000000E+03  0.12500000000E+03 0.  0.
        -13    1    1    0    0    0 -0.19894788076E+02  0.13727129427E+02  0.46028180088E+02  0.51988856510E+02  0.10566000000E+00 0.  1.
         13    1    1    0    0    0  0.28596632265E+01 -0.21264390057E+02  0.19490834201E+01  0.21544420356E+02  0.10566000000E+00 0. -1.
         22    1    1    0    0    0  0.17035124850E+02  0.75372606301E+01 -0.47977263509E+02  0.51466723135E+02  0.00000000000E+00 0.  1.
</event>
<event>
 5    1  0.1724235E-003  0.9118800E+02  0.7818608E-02  0.1130116E+00
         25   -1    0    0    0    0  0.00000000000E+00  0.00000000000E+00  0.99999998245E-14  0.12500000000E+03  0.12500000000E+03 0.  0.
        -13    1    3    3    0    0 -0.38830842661E+02  0.17485028503E+01 -0.48704192803E+02  0.62313731750E+02  0.10566000000E+00 0.  1.
         23    2    1    0    0    0 -0.20709689252E+02  0.14450396213E+01 -0.20609458207E+02  0.95747151660E+02  0.91169007426E+02 0.  0.
         13    1    3    3    0    0  0.18121153409E+02 -0.30346322903E+00  0.28094734597E+02  0.33433419910E+02  0.10566000000E+00 0. -1.
         22    1    1    0    0    0  0.20709689252E+02 -0.14450396213E+01  0.20609458207E+02  0.29252848340E+02  0.00000000000E+00 0.  1.
</event>
<event>
 5    1  0.1724235E-003  0.9118800E+02  0.7818608E-02  0.1130116E+00
         25   -1    0    0    0    0  0.00000000000E+00  0.00000000000E+00  0.99999998245E-14  0.12500000000E+03  0.12500000000E+03 0.  0.
        -13    1    3    3    0    0 -0.36052366099E+02  0.21226352294E+02 -0.44959291244E+02  0.61414006270E+02  0.10566000000E+00 0.  1.
         23    2    1    0    0    0 -0.22814863910E+02  0.76165485291E+01 -0.15757003782E+02  0.96245643896E+02  0.91849937257E+02 0.  0.
         13    1    3    3    0    0  0.13237502188E+02 -0.13609803765E+02  0.29202287462E+02  0.34831637626E+02  0.10566000000E+00 0. -1.
         22    1    1    0    0    0  0.22814863910E+02 -0.76165485291E+01  0.15757003782E+02  0.28754356104E+02  0.00000000000E+00 0.  1.
</event>
<event>
 5    1  0.1724235E-003  0.9118800E+02  0.7818608E-02  0.1130116E+00
         25   -1    0    0    0    0  0.00000000000E+00  0.00000000000E+00  0.99999998245E-14  0.12500000000E+03  0.12500000000E+03 0.  0.
        -13    1    3    3    0    0  0.27920926992E+02  0.87394811487E+01 -0.17667575656E+02  0.34177640182E+02  0.10566000000E+00 0. -1.
         23    2    1    0    0    0 -0.21941041142E+02 -0.18062996119E+02  0.66880754644E+01  0.95803913471E+02  0.91246799219E+02 0.  0.
         13    1    3    3    0    0 -0.49861968134E+02 -0.26802477268E+02  0.24355651120E+02  0.61626273289E+02  0.10566000000E+00 0.  1.
         22    1    1    0    0    0  0.21941041142E+02  0.18062996119E+02 -0.66880754644E+01  0.29196086529E+02  0.00000000000E+00 0.  1.
</event>
<event>
 5    1  0.1724235E-003  0.9118800E+02  0.7818608E-02  0.1130116E+00
         25   -1    0    0    0    0  0.00000000000E+00  0.00000000000E+00  0.99999998245E-14  0.12500000000E+03  0.12500000000E+03 0.  0.
        -13    1    3    3    0    0 -0.33321312911E+02  0.38032445598E+02  0.32384393062E+02  0.60046123024E+02  0.10566000000E+00 0.  1.
         23    2    1    0    0    0 -0.15780620687E+02  0.25050924762E+02  0.51441419126E+01  0.94949392407E+02  0.90068574441E+02 0.  0.
         13    1    3    3    0    0  0.17540692224E+02 -0.12981520836E+02 -0.27240251149E+02  0.34903269383E+02  0.10566000000E+00 0. -1.
         22    1    1    0    0    0  0.15780620687E+02 -0.25050924762E+02 -0.51441419126E+01  0.30050607593E+02  0.00000000000E+00 0.  1.
</event>
<event>
 5    1  0.1724235E-003  0.9118800E+02  0.7818608E-02  0.1130116E+00
         25   -1    0    0    0    0  0.00000000000E+00  0.00000000000E+00  0.99999998245E-14  0.12500000000E+03  0.12500000000E+03 0.  0.
        -13    1    3    3    0    0 -0.53055784597E+02  0.11360111433E+02 -0.26223472544E+02  0.60263173558E+02  0.10566000000E+00 0. -1.
         23    2    1    0    0    0 -0.18940712414E+02  0.13444029994E+02 -0.18505142050E+02  0.95302646389E+02  0.90557504368E+02 0.  0.
         13    1    3    3    0    0  0.34115072183E+02  0.20839185610E+01  0.77183304945E+01  0.35039472831E+02  0.10566000000E+00 0.  1.
         22    1    1    0    0    0  0.18940712414E+02 -0.13444029994E+02  0.18505142050E+02  0.29697353611E+02  0.00000000000E+00 0. -1.
</event>
<event>
 5    1  0.1724235E-003  0.9118800E+02  0.7818608E-02  0.1130116E+00
         25   -1    0    0    0    0  0.00000000000E+00  0.00000000000E+00  0.99999998245E-14  0.12500000000E+03  0.12500000000E+03 0.  0.
        -13    1    3    3    0    0 -0.25786092552E+02 -0.22550383256E+02  0.11166755486E+01  0.34273903811E+02  0.10566000000E+00 0.  1.
         23    2    1    0    0    0  0.23535187322E+02  0.14185727356E+02  0.85504236340E+01  0.96220673266E+02  0.91815948052E+02 0.  0.
         13    1    3    3    0    0  0.49321279874E+02  0.36736110612E+02  0.74337480854E+01  0.61946769456E+02  0.10566000000E+00 0. -1.
         22    1    1    0    0    0 -0.23535187322E+02 -0.14185727356E+02 -0.85504236340E+01  0.28779326734E+02  0.00000000000E+00 0. -1.
</event>
<event>
 5    1  0.1724235E-003  0.9118800E+02  0.7818608E-02  0.1130116E+00
         25   -1    0    0    0    0  0.00000000000E+00  0.00000000000E+00  0.99999998245E-14  0.12500000000E+03  0.12500000000E+03 0.  0.
        -13    1    3    3    0    0  0.35526354160E+02 -0.25353976096E+02  0.20071986755E+02  0.48040001666E+02  0.10566000000E+00 0.  1.
         23    2    1    0    0    0 -0.11697680734E+02 -0.21976235130E+02  0.15657143995E+02  0.95590192059E+02  0.90953548665E+02 0.  0.
         13    1    3    3    0    0 -0.47224034894E+02  0.33777409665E+01 -0.44148427596E+01  0.47550190393E+02  0.10566000000E+00 0. -1.
         22    1    1    0    0    0  0.11697680734E+02  0.21976235130E+02 -0.15657143995E+02  0.29409807941E+02  0.00000000000E+00 0. -1.
</event>
<event>
 5    1  0.1724235E-003  0.9118800E+02  0.7818608E-02  0.1130116E+00
         25   -1    0    0    0    0  0.00000000000E+00  0.00000000000E+00  0.99999998245E-14  0.12500000000E+03  0.12500000000E+03 0.  0.
        -13    1    3    3    0    0  0.12175704058E+02 -0.10289376286E+02  0.43088352199E+02  0.45942750167E+02  0.10566000000E+00 0. -1.
         23    2    1    0    0    0 -0.94142457689E+01  0.23395582434E+02  0.23657759415E+02  0.90421525751E+02  0.83548677056E+02 0.  0.
         13    1    3    3    0    0 -0.21589949827E+02  0.33684958720E+02 -0.19430592783E+02  0.44478775584E+02  0.10566000000E+00 0.  1.
         22    1    1    0    0    0  0.94142457689E+01 -0.23395582434E+02 -0.23657759415E+02  0.34578474249E+02  0.00000000000E+00 0. -1.
</event>
<event>
 5    1  0.1724235E-003  0.9118800E+02  0.7818608E-02  0.1130116E+00
         25   -1    0    0    0    0  0.00000000000E+00  0.00000000000E+00  0.99999998245E-14  0.12500000000E+03  0.12500000000E+03 0.  0.
        -13    1    3    3    0    0 -0.18161296885E+02 -0.88143772573E+01  0.29435135890E+02  0.35692637054E+02  0.10566000000E+00 0.  1.
         23    2    1    0    0    0 -0.52144445723E+01  0.46980250690E+01 -0.28017718798E+02  0.96116536939E+02  0.91674065224E+02 0.  0.
         13    1    3    3    0    0  0.12946852313E+02  0.13512402326E+02 -0.57452854688E+02  0.60423899885E+02  0.10566000000E+00 0. -1.
         22    1    1    0    0    0  0.52144445723E+01 -0.46980250690E+01  0.28017718798E+02  0.28883463061E+02  0.00000000000E+00 0. -1.
</event>
<event>
 5    1  0.1724235E-003  0.9118800E+02  0.7818608E-02  0.1130116E+00
         25   -1    0    0    0    0  0.00000000000E+00  0.00000000000E+00  0.99999998245E-14  0.12500000000E+03  0.12500000000E+03 0.  0.
        -13    1    3    3    0    0 -0.19934896032E+02 -0.36777721477E+02 -0.35178061619E+02  0.54658101505E+02  0.10566000000E+00 0. -1.
         23    2    1    0    0    0 -0.24058770700E+02 -0.76739393254E+00 -0.18920541328E+02  0.94383007574E+02  0.89279067499E+02 0.  0.
         13    1    3    3    0    0 -0.41238746683E+01  0.36010327544E+02  0.16257520291E+02  0.39724906069E+02  0.10566000000E+00 0.  1.
         22    1    1    0    0    0  0.24058770700E+02  0.76739393254E+00  0.18920541328E+02  0.30616992426E+02  0.00000000000E+00 0. -1.
</event>
<event>
 5    1  0.1724235E-003  0.9118800E+02  0.7818608E-02  0.1130116E+00
         25   -1    0    0    0    0  0.00000000000E+00  0.00000000000E+00  0.99999998245E-14  0.12500000000E+03  0.12500000000E+03 0.  0.
        -13    1    3    3    0    0  0.60899219011E+02 -0.63645987908E+01 -0.14191882569E+01  0.61247434667E+02  0.10566000000E+00 0. -1.
         23    2    1    0    0    0  0.28533152499E+02  0.58682162707E+01 -0.22662687340E+00  0.95868777687E+02  0.91335614202E+02 0.  0.
         13    1    3    3    0    0 -0.32366066512E+02  0.12232815061E+02  0.11925613836E+01  0.34621343020E+02  0.10566000000E+00 0.  1.
         22    1    1    0    0    0 -0.28533152499E+02 -0.58682162707E+01  0.22662687340E+00  0.29131222313E+02  0.00000000000E+00 0. -1.
</event>
<event>
 5    1  0.1724235E-003  0.9118800E+02  0.7818608E-02  0.1130116E+00
         25   -1    0    0    0    0  0.00000000000E+00  0.00000000000E+00  0.99999998245E-14  0.12500000000E+03  0.12500000000E+03 0.  0.
        -13    1    3    3    0    0  0.33272810661E+02 -0.17250379171E+01  0.10068525891E+02  0.34805776285E+02  0.10566000000E+00 0. -1.
         23    2    1    0    0    0 -0.17273228186E+01 -0.36254365014E+02 -0.91079581845E+01  0.87579183214E+02  0.79182042178E+02 0.  0.
         13    1    3    3    0    0 -0.35000133480E+02 -0.34529327097E+02 -0.19176484076E+02  0.52773406929E+02  0.10566000000E+00 0.  1.
         22    1    1    0    0    0  0.17273228186E+01  0.36254365014E+02  0.91079581845E+01  0.37420816786E+02  0.00000000000E+00 0.  1.
</event>
<event>
 5    1  0.1724235E-003  0.9118800E+02  0.7818608E-02  0.1130116E+00
         25   -1    0    0    0    0  0.00000000000E+00  0.00000000000E+00  0.99999998245E-14  0.12500000000E+03  0.12500000000E+03 0.  0.
        -13    1    3    3    0    0 -0.22036755145E+02 -0.36027806028E+02 -0.32492695991E+02  0.53286094258E+02  0.10566000000E+00 0. -1.
         23    2    1    0    0    0 -0.15906887614E+02  0.50115354005E+01 -0.24213407505E+02  0.95598747244E+02  0.90965305534E+02 0.  0.
         13    1    3    3    0    0  0.61298675317E+01  0.41039341428E+02  0.82792884858E+01  0.42312652986E+02  0.10566000000E+00 0.  1.
         22    1    1    0    0    0  0.15906887614E+02 -0.50115354005E+01  0.24213407505E+02  0.29401252756E+02  0.00000000000E+00 0. -1.
</event>
<event>
 5    1  0.1724235E-003  0.9118800E+02  0.7818608E-02  0.1130116E+00
         25   -1    0    0    0    0  0.00000000000E+00  0.00000000000E+00  0.99999998245E-14  0.12500000000E+03  0.12500000000E+03 0.  0.
        -13    1    3    3    0    0 -0.52423233709E+02  0.12585859131E+02 -0.29064327826E+02  0.61248229351E+02  0.10566000000E+00 0. -1.
         23    2    1    0    0    0 -0.26877272235E+02 -0.25755659609E+01 -0.12734017295E+02  0.95147420559E+02  0.90342986113E+02 0.  0.
         13    1    3    3    0    0  0.25545961475E+02 -0.15161425092E+02  0.16330310532E+02  0.33899191208E+02  0.10566000000E+00 0.  1.
         22    1    1    0    0    0  0.26877272235E+02  0.25755659609E+01  0.12734017295E+02  0.29852579441E+02  0.00000000000E+00 0. -1.
</event>
<event>
 5    1  0.1724235E-003  0.9118800E+02  0.7818608E-02  0.1130116E+00
         25   -1    0    0    0    0  0.00000000000E+00  0.00000000000E+00  0.99999998245E-14  0.12500000000E+03  0.12500000000E+03 0.  0.
        -13    1    3    3    0    0  0.13095152840E+01 -0.10766530800E+02  0.54518925286E+02  0.55587385206E+02  0.10566000000E+00 0. -1.
         23    2    1    0    0    0  0.13731712185E+02 -0.18675145430E+02  0.15976466685E+02  0.96847407507E+02  0.92665267909E+02 0.  0.
         13    1    3    3    0    0  0.12422196901E+02 -0.79086146294E+01 -0.38542458601E+02  0.41260022300E+02  0.10566000000E+00 0.  1.
         22    1    1    0    0    0 -0.13731712185E+02  0.18675145430E+02 -0.15976466685E+02  0.28152592493E+02  0.00000000000E+00 0. -1.
</event>
<event>
 5    1  0.1724235E-003  0.9118800E+02  0.7818608E-02  0.1130116E+00
         25   -1    0    0    0    0  0.00000000000E+00  0.00000000000E+00  0.99999998245E-14  0.12500000000E+03  0.12500000000E+03 0.  0.
        -13    1    3    3    0    0 -0.44216756626E+02 -0.25178463389E+01 -0.18561637948E+02  0.48020898409E+02  0.10566000000E+00 0. -1.
         23    2    1    0    0    0 -0.77737987010E+01 -0.28114138957E+02 -0.13554426245E+02  0.92835435238E+02  0.87085353587E+02 0.  0.
         13    1    3    3    0    0  0.36442957925E+02 -0.25596292618E+02  0.50072117030E+01  0.44814536828E+02  0.10566000000E+00 0.  1.
         22    1    1    0    0    0  0.77737987010E+01  0.28114138957E+02  0.13554426245E+02  0.32164564762E+02  0.00000000000E+00 0. -1.
</event>
<event>
 5    1  0.1724235E-003  0.9118800E+02  0.7818608E-02  0.1130116E+00
         25   -1    0    0    0    0  0.00000000000E+00  0.00000000000E+00  0.99999998245E-14  0.12500000000E+03  0.12500000000E+03 0.  0.
        -13    1    3    3    0    0 -0.63358273478E+01  0.45392272578E+01  0.43592492285E+02  0.44283900460E+02  0.10566000000E+00 0.  1.
         23    2    1    0    0    0  0.23139419758E+02 -0.16751306270E+02  0.76133749487E+01  0.95436466947E+02  0.90742034013E+02 0.  0.
         13    1    3    3    0    0  0.29475247105E+02 -0.21290533528E+02 -0.35979117337E+02  0.51152566487E+02  0.10566000000E+00 0. -1.
         22    1    1    0    0    0 -0.23139419758E+02  0.16751306270E+02 -0.76133749487E+01  0.29563533053E+02  0.00000000000E+00 0. -1.
</event>
<event>
 5    1  0.1724235E-003  0.9118800E+02  0.7818608E-02  0.1130116E+00
         25   -1    0    0    0    0  0.00000000000E+00  0.00000000000E+00  0.99999998245E-14  0.12500000000E+03  0.12500000000E+03 0.  0.
        -13    1    3    3    0    0  0.33189748636E+02 -0.45358484274E+02  0.24687583628E+02  0.61387616500E+02  0.10566000000E+00 0.  1.
         23    2    1    0    0    0  0.13860736914E+02 -0.26302021461E+02  0.51618504436E+01  0.94824495684E+02  0.89895071728E+02 0.  0.
         13    1    3    3    0    0 -0.19329011723E+02  0.19056462812E+02 -0.19525733185E+02  0.33436879184E+02  0.10566000000E+00 0. -1.
         22    1    1    0    0    0 -0.13860736914E+02  0.26302021461E+02 -0.51618504436E+01  0.30175504316E+02  0.00000000000E+00 0.  1.
</event>
<event>
 5    1  0.1724235E-003  0.9118800E+02  0.7818608E-02  0.1130116E+00
         25   -1    0    0    0    0  0.00000000000E+00  0.00000000000E+00  0.99999998245E-14  0.12500000000E+03  0.12500000000E+03 0.  0.
        -13    1    3    3    0    0  0.12846031215E+02 -0.14788451575E+01 -0.85443966043E+01  0.15499205733E+02  0.10566000000E+00 0.  1.
         23    2    1    0    0    0 -0.36234288210E+02 -0.25894946562E+02  0.18679384405E+02  0.76705162789E+02  0.59592706745E+02 0.  0.
         13    1    3    3    0    0 -0.49080319425E+02 -0.24416101405E+02  0.27223781009E+02  0.61205957056E+02  0.10566000000E+00 0. -1.
         22    1    1    0    0    0  0.36234288210E+02  0.25894946562E+02 -0.18679384405E+02  0.48294837211E+02  0.00000000000E+00 0. -1.
</event>
<event>
 5    1  0.1724235E-003  0.9118800E+02  0.7818608E-02  0.1130116E+00
         25   -1    0    0    0    0  0.00000000000E+00  0.00000000000E+00  0.99999998245E-14  0.12500000000E+03  0.12500000000E+03 0.  0.
        -13    1    3    3    0    0 -0.31956612435E+02 -0.21056197005E+02  0.13511292303E+02  0.40585153620E+02  0.10566000000E+00 0. -1.
         23    2    1    0    0    0 -0.43841254211E+01  0.26921405102E+02  0.96924474731E+01  0.96053045991E+02  0.91587452731E+02 0.  0.
         13    1    3    3    0    0  0.27572487014E+02  0.47977602108E+02 -0.38188448297E+01  0.55467892370E+02  0.10566000000E+00 0.  1.
         22    1    1    0    0    0  0.43841254211E+01 -0.26921405102E+02 -0.96924474731E+01  0.28946954009E+02  0.00000000000E+00 0. -1.
</event>
<event>
 5    1  0.1724235E-003  0.9118800E+02  0.7818608E-02  0.1130116E+00
         25   -1    0    0    0    0  0.00000000000E+00  0.00000000000E+00  0.99999998245E-14  0.12500000000E+03  0.12500000000E+03 0.  0.
        -13    1    3    3    0    0  0.16239351894E+02 -0.38343027230E+02  0.17360807656E+02  0.45114444401E+02  0.10566000000E+00 0.  1.
         23    2    1    0    0    0  0.25123245933E+02  0.10904041325E+02  0.10694165477E+02  0.95598626245E+02  0.90965139264E+02 0.  0.
         13    1    3    3    0    0  0.88838940393E+01  0.49247068555E+02 -0.66666421785E+01  0.50484181844E+02  0.10566000000E+00 0. -1.
         22    1    1    0    0    0 -0.25123245933E+02 -0.10904041325E+02 -0.10694165477E+02  0.29401373755E+02  0.00000000000E+00 0. -1.
</event>
<event>
 5    1  0.1724235E-003  0.9118800E+02  0.7818608E-02  0.1130116E+00
         25   -1    0    0    0    0  0.00000000000E+00  0.00000000000E+00  0.99999998245E-14  0.12500000000E+03  0.12500000000E+03 0.  0.
        -13    1    3    3    0    0  0.40456349562E+02  0.28710440691E+02  0.25615563105E+02  0.55831656448E+02  0.10566000000E+00 0. -1.
         23    2    1    0    0    0  0.24066931120E+02  0.14286974721E+02 -0.79785103123E+01  0.95896882521E+02  0.91374069791E+02 0.  0.
         13    1    3    3    0    0 -0.16389418442E+02 -0.14423465971E+02 -0.33594073417E+02  0.40065226073E+02  0.10566000000E+00 0.  1.
         22    1    1    0    0    0 -0.24066931120E+02 -0.14286974721E+02  0.79785103123E+01  0.29103117479E+02  0.00000000000E+00 0.  1.
</event>
<event>
 5    1  0.1724235E-003  0.9118800E+02  0.7818608E-02  0.1130116E+00
         25   -1    0    0    0    0  0.00000000000E+00  0.00000000000E+00  0.99999998245E-14  0.12500000000E+03  0.12500000000E+03 0.  0.
        -13    1    3    3    0    0  0.25354318870E+02 -0.14378673066E+02 -0.29448304413E+02  0.41434303679E+02  0.10566000000E+00 0.  1.
         23    2    1    0    0    0 -0.23724534270E+02 -0.16479987235E+02 -0.80799139228E+01  0.95004525098E+02  0.90145056850E+02 0.  0.
         13    1    3    3    0    0 -0.49078853140E+02 -0.21013141687E+01  0.21368390490E+02  0.53570221420E+02  0.10566000000E+00 0. -1.
         22    1    1    0    0    0  0.23724534270E+02  0.16479987235E+02  0.80799139228E+01  0.29995474902E+02  0.00000000000E+00 0.  1.
</event>
<event>
 5    1  0.1724235E-003  0.9118800E+02  0.7818608E-02  0.1130116E+00
         25   -1    0    0    0    0  0.00000000000E+00  0.00000000000E+00  0.99999998245E-14  0.12500000000E+03  0.12500000000E+03 0.  0.
        -13    1    3    3    0    0 -0.16212463748E+01  0.47782254383E+02  0.10738069040E+02  0.49000913915E+02  0.10566000000E+00 0.  1.
         23    2    1    0    0    0  0.29853953946E+01 -0.13115924652E+01  0.24570601310E+02  0.10021396948E+03  0.97100424143E+02 0.  0.
         13    1    3    3    0    0  0.46066417694E+01 -0.49093846849E+02  0.13832532269E+02  0.51213055560E+02  0.10566000000E+00 0. -1.
         22    1    1    0    0    0 -0.29853953946E+01  0.13115924652E+01 -0.24570601310E+02  0.24786030525E+02  0.00000000000E+00 0. -1.
</event>
<event>
 5    1  0.1724235E-003  0.9118800E+02  0.7818608E-02  0.1130116E+00
         25   -1    0    0    0    0  0.00000000000E+00  0.00000000000E+00  0.99999998245E-14  0.12500000000E+03  0.12500000000E+03 0.  0.
        -13    1    3    3    0    0 -0.28659576214E+02 -0.41667038020E+02 -0.38370912954E+01  0.50717332341E+02  0.10566000000E+00 0.  1.
         23    2    1    0    0    0  0.76393438290E+01 -0.22349687273E+02 -0.19147660903E+02  0.94594391745E+02  0.89574538437E+02 0.  0.
         13    1    3    3    0    0  0.36298920043E+02  0.19317350747E+02 -0.15310569607E+02  0.43877059404E+02  0.10566000000E+00 0. -1.
         22    1    1    0    0    0 -0.76393438290E+01  0.22349687273E+02  0.19147660903E+02  0.30405608255E+02  0.00000000000E+00 0.  1.
</event>
<event>
 5    1  0.1724235E-003  0.9118800E+02  0.7818608E-02  0.1130116E+00
         25   -1    0    0    0    0  0.00000000000E+00  0.00000000000E+00  0.99999998245E-14  0.12500000000E+03  0.12500000000E+03 0.  0.
        -13    1    3    3    0    0 -0.36564274375E+02  0.15534820970E+02  0.47290952083E+02  0.61763436887E+02  0.10566000000E+00 0. -1.
         23    2    1    0    0    0 -0.11030468567E+02  0.33083674240E+01  0.23837000381E+02  0.98527011522E+02  0.94903913936E+02 0.  0.
         13    1    3    3    0    0  0.25533805809E+02 -0.12226453546E+02 -0.23453951702E+02  0.36763574634E+02  0.10566000000E+00 0.  1.
         22    1    1    0    0    0  0.11030468567E+02 -0.33083674240E+01 -0.23837000381E+02  0.26472988478E+02  0.00000000000E+00 0. -1.
</event>
<event>
 5    1  0.1724235E-003  0.9118800E+02  0.7818608E-02  0.1130116E+00
         25   -1    0    0    0    0  0.00000000000E+00  0.00000000000E+00  0.99999998245E-14  0.12500000000E+03  0.12500000000E+03 0.  0.
        -13    1    3    3    0    0  0.73182699133E+01  0.30030898181E+02  0.15751985285E+02  0.34692191117E+02  0.10566000000E+00 0. -1.
         23    2    1    0    0    0 -0.24016371919E+02 -0.15609529942E+02 -0.84841399080E+01  0.95126530581E+02  0.90314077780E+02 0.  0.
         13    1    3    3    0    0 -0.31334641832E+02 -0.45640428123E+02 -0.24236125193E+02  0.60434339464E+02  0.10566000000E+00 0.  1.
         22    1    1    0    0    0  0.24016371919E+02  0.15609529942E+02  0.84841399080E+01  0.29873469419E+02  0.00000000000E+00 0.  1.
</event>
<event>
 5    1  0.1724235E-003  0.9118800E+02  0.7818608E-02  0.1130116E+00
         25   -1    0    0    0    0  0.00000000000E+00  0.00000000000E+00  0.99999998245E-14  0.12500000000E+03  0.12500000000E+03 0.  0.
        -13    1    3    3    0    0 -0.29822990949E+02 -0.13097160239E+02 -0.69363971073E+01  0.33302720074E+02  0.10566000000E+00 0.  1.
         23    2    1    0    0    0  0.20462658214E+02  0.16775626604E+02  0.13544641708E+02  0.95274600959E+02  0.90518783906E+02 0.  0.
         13    1    3    3    0    0  0.50285649163E+02  0.29872786843E+02  0.20481038815E+02  0.61971880885E+02  0.10566000000E+00 0. -1.
         22    1    1    0    0    0 -0.20462658214E+02 -0.16775626604E+02 -0.13544641708E+02  0.29725399041E+02  0.00000000000E+00 0. -1.
</event>
<event>
 5    1  0.1724235E-003  0.9118800E+02  0.7818608E-02  0.1130116E+00
         25   -1    0    0    0    0  0.00000000000E+00  0.00000000000E+00  0.99999998245E-14  0.12500000000E+03  0.12500000000E+03 0.  0.
        -13    1    3    3    0    0  0.88528168583E+01  0.30965837280E+02  0.62469979590E+01  0.32806883307E+02  0.10566000000E+00 0. -1.
         23    2    1    0    0    0 -0.10655012028E+02 -0.27943907406E+02  0.29105390593E+01  0.94952329873E+02  0.90072651056E+02 0.  0.
         13    1    3    3    0    0 -0.19507828887E+02 -0.58909744686E+02 -0.33364588997E+01  0.62145446566E+02  0.10566000000E+00 0.  1.
         22    1    1    0    0    0  0.10655012028E+02  0.27943907406E+02 -0.29105390593E+01  0.30047670127E+02  0.00000000000E+00 0.  1.
</event>
<event>
 5    1  0.1724235E-003  0.9118800E+02  0.7818608E-02  0.1130116E+00
         25   -1    0    0    0    0  0.00000000000E+00  0.00000000000E+00  0.99999998245E-14  0.12500000000E+03  0.12500000000E+03 0.  0.
        -13    1    3    3    0    0  0.84286461377E+01  0.43558695208E+02  0.12252246021E+02  0.46027499395E+02  0.10566000000E+00 0.  1.
         23    2    1    0    0    0 -0.19099074325E+02  0.37355597596E+01  0.22228537771E+02  0.95456186126E+02  0.90769193736E+02 0.  0.
         13    1    3    3    0    0 -0.27527720462E+02 -0.39823135449E+02  0.99762917501E+01  0.49428686731E+02  0.10566000000E+00 0. -1.
         22    1    1    0    0    0  0.19099074325E+02 -0.37355597596E+01 -0.22228537771E+02  0.29543813874E+02  0.00000000000E+00 0. -1.
</event>
<event>
 5    1  0.1724235E-003  0.9118800E+02  0.7818608E-02  0.1130116E+00
         25   -1    0    0    0    0  0.00000000000E+00  0.00000000000E+00  0.99999998245E-14  0.12500000000E+03  0.12500000000E+03 0.  0.
        -13    1    3    3    0    0  0.24084659746E+02 -0.23465086874E+01 -0.44542982601E+02  0.50691867209E+02  0.10566000000E+00 0.  1.
         23    2    1    0    0    0  0.40931703603E+01  0.24573919361E+02 -0.12276289671E+02  0.97227012324E+02  0.93175925437E+02 0.  0.
         13    1    3    3    0    0 -0.19991489385E+02  0.26920428049E+02  0.32266692930E+02  0.46535145115E+02  0.10566000000E+00 0. -1.
         22    1    1    0    0    0 -0.40931703603E+01 -0.24573919361E+02  0.12276289671E+02  0.27772987676E+02  0.00000000000E+00 0.  1.
</event>
<event>
 5    1  0.1724235E-003  0.9118800E+02  0.7818608E-02  0.1130116E+00
         25   -1    0    0    0    0  0.00000000000E+00  0.00000000000E+00  0.99999998245E-14  0.12500000000E+03  0.12500000000E+03 0.  0.
        -13    1    3    3    0    0 -0.17964691818E+02  0.28781237531E+01  0.30186316041E+02  0.35245405213E+02  0.10566000000E+00 0.  1.
         23    2    1    0    0    0  0.40870417168E+01 -0.19060714270E+02 -0.21754992033E+02  0.95788796382E+02  0.91226087801E+02 0.  0.
         13    1    3    3    0    0  0.22051733535E+02 -0.21938838023E+02 -0.51941308074E+02  0.60543391169E+02  0.10566000000E+00 0. -1.
         22    1    1    0    0    0 -0.40870417168E+01  0.19060714270E+02  0.21754992033E+02  0.29211203618E+02  0.00000000000E+00 0. -1.
</event>
<event>
 5    1  0.1724235E-003  0.9118800E+02  0.7818608E-02  0.1130116E+00
         25   -1    0    0    0    0  0.00000000000E+00  0.00000000000E+00  0.99999998245E-14  0.12500000000E+03  0.12500000000E+03 0.  0.
        -13    1    3    3    0    0  0.36422521851E+01 -0.18455876066E+02  0.31343189848E+02  0.36555328972E+02  0.10566000000E+00 0.  1.
         23    2    1    0    0    0  0.13181135132E+02 -0.78897210100E+01 -0.25541771697E+02  0.95194427997E+02  0.90408002961E+02 0.  0.
         13    1    3    3    0    0  0.95388829474E+01  0.10566155056E+02 -0.56884961545E+02  0.58639099026E+02  0.10566000000E+00 0. -1.
         22    1    1    0    0    0 -0.13181135132E+02  0.78897210100E+01  0.25541771697E+02  0.29805572003E+02  0.00000000000E+00 0. -1.
</event>
<event>
 5    1  0.1724235E-003  0.9118800E+02  0.7818608E-02  0.1130116E+00
         25   -1    0    0    0    0  0.00000000000E+00  0.00000000000E+00  0.99999998245E-14  0.12500000000E+03  0.12500000000E+03 0.  0.
        -13    1    3    3    0    0 -0.51054318778E+02  0.30391449167E+02  0.41955509405E+01  0.59563390267E+02  0.10566000000E+00 0. -1.
         23    2    1    0    0    0 -0.20762887174E+02  0.12221952055E+02  0.15142250854E+02  0.96543693901E+02  0.92254666415E+02 0.  0.
         13    1    3    3    0    0  0.30291431604E+02 -0.18169497111E+02  0.10946699913E+02  0.36980303635E+02  0.10566000000E+00 0.  1.
         22    1    1    0    0    0  0.20762887174E+02 -0.12221952055E+02 -0.15142250854E+02  0.28456306099E+02  0.00000000000E+00 0. -1.
</event>
<event>
 5    1  0.1724235E-003  0.9118800E+02  0.7818608E-02  0.1130116E+00
         25   -1    0    0    0    0  0.00000000000E+00  0.00000000000E+00  0.99999998245E-14  0.12500000000E+03  0.12500000000E+03 0.  0.
        -13    1    3    3    0    0 -0.24741913745E+01  0.46567673433E+02  0.11398615899E+02  0.48006347918E+02  0.10566000000E+00 0. -1.
         23    2    1    0    0    0 -0.18181948675E+02  0.12488585144E+02 -0.18677388449E+02  0.96096836578E+02  0.91647199327E+02 0.  0.
         13    1    3    3    0    0 -0.15707757300E+02 -0.34079088289E+02 -0.30076004348E+02  0.48090488660E+02  0.10566000000E+00 0.  1.
         22    1    1    0    0    0  0.18181948675E+02 -0.12488585144E+02  0.18677388449E+02  0.28903163422E+02  0.00000000000E+00 0.  1.
</event>
<event>
 5    1  0.1724235E-003  0.9118800E+02  0.7818608E-02  0.1130116E+00
         25   -1    0    0    0    0  0.00000000000E+00  0.00000000000E+00  0.99999998245E-14  0.12500000000E+03  0.12500000000E+03 0.  0.
        -13    1    3    3    0    0  0.95909955197E+01  0.65104438993E+01 -0.34136034333E+02  0.36050701503E+02  0.10566000000E+00 0. -1.
         23    2    1    0    0    0  0.53759566359E+01 -0.24174027901E+02  0.16381772185E+02  0.95307458939E+02  0.90564147072E+02 0.  0.
         13    1    3    3    0    0 -0.42150388838E+01 -0.30684471800E+02  0.50517806518E+02  0.59256757437E+02  0.10566000000E+00 0.  1.
         22    1    1    0    0    0 -0.53759566359E+01  0.24174027901E+02 -0.16381772185E+02  0.29692541061E+02  0.00000000000E+00 0.  1.
</event>
<event>
 5    1  0.1724235E-003  0.9118800E+02  0.7818608E-02  0.1130116E+00
         25   -1    0    0    0    0  0.00000000000E+00  0.00000000000E+00  0.99999998245E-14  0.12500000000E+03  0.12500000000E+03 0.  0.
        -13    1    3    3    0    0  0.49779843375E+02  0.26697486172E+02  0.18572082582E+02  0.59461937320E+02  0.10566000000E+00 0.  1.
         23    2    1    0    0    0  0.99633681086E+01 -0.18298465172E+01 -0.48656819848E+01  0.11376203295E+03  0.11320560161E+03 0.  0.
         13    1    3    3    0    0 -0.39816475267E+02 -0.28527332689E+02 -0.23437764567E+02  0.54300095625E+02  0.10566000000E+00 0. -1.
         22    1    1    0    0    0 -0.99633681086E+01  0.18298465172E+01  0.48656819848E+01  0.11237967055E+02  0.00000000000E+00 0.  1.
</event>
<event>
 5    1  0.1724235E-003  0.9118800E+02  0.7818608E-02  0.1130116E+00
         25   -1    0    0    0    0  0.00000000000E+00  0.00000000000E+00  0.99999998245E-14  0.12500000000E+03  0.12500000000E+03 0.  0.
        -13    1    3    3    0    0  0.13422661569E+01 -0.40081040395E+02 -0.19267776820E+01  0.40149908018E+02  0.10566000000E+00 0. -1.
         23    2    1    0    0    0  0.20924203054E+02  0.90139640688E+01  0.17298374327E+02  0.96393924142E+02  0.92051512945E+02 0.  0.
         13    1    3    3    0    0  0.19581936897E+02  0.49095004464E+02  0.19225152009E+02  0.56244016124E+02  0.10566000000E+00 0.  1.
         22    1    1    0    0    0 -0.20924203054E+02 -0.90139640688E+01 -0.17298374327E+02  0.28606075858E+02  0.00000000000E+00 0.  1.
</event>
<event>
 5    1  0.1724235E-003  0.9118800E+02  0.7818608E-02  0.1130116E+00
         25   -1    0    0    0    0  0.00000000000E+00  0.00000000000E+00  0.99999998245E-14  0.12500000000E+03  0.12500000000E+03 0.  0.
        -13    1    3    3    0    0 -0.47022158109E+02 -0.66694075334E-01 -0.97744605125E+01  0.48027482171E+02  0.10566000000E+00 0.  1.
         23    2    1    0    0    0 -0.60225325639E+01 -0.25941840676E+02 -0.10118809945E+02  0.96510698309E+02  0.92209948364E+02 0.  0.
         13    1    3    3    0    0  0.40999625545E+02 -0.25875146601E+02 -0.34434943229E+00  0.48483216138E+02  0.10566000000E+00 0. -1.
         22    1    1    0    0    0  0.60225325639E+01  0.25941840676E+02  0.10118809945E+02  0.28489301691E+02  0.00000000000E+00 0.  1.
</event>
<event>
 5    1  0.1724235E-003  0.9118800E+02  0.7818608E-02  0.1130116E+00
         25   -1    0    0    0    0  0.00000000000E+00  0.00000000000E+00  0.99999998245E-14  0.12500000000E+03  0.12500000000E+03 0.  0.
        -13    1    3    3    0    0 -0.40224350940E+02 -0.48615939837E+01 -0.25018773261E+01  0.40594384572E+02  0.10566000000E+00 0.  1.
         23    2    1    0    0    0  0.63862211391E+01  0.33907362028E+01 -0.29185007726E+02  0.94932649129E+02  0.90045334595E+02 0.  0.
         13    1    3    3    0    0  0.46610572079E+02  0.82523301865E+01 -0.26683130400E+02  0.54338264557E+02  0.10566000000E+00 0. -1.
         22    1    1    0    0    0 -0.63862211391E+01 -0.33907362028E+01  0.29185007726E+02  0.30067350871E+02  0.00000000000E+00 0. -1.
</event>
<event>
 5    1  0.1724235E-003  0.9118800E+02  0.7818608E-02  0.1130116E+00
         25   -1    0    0    0    0  0.00000000000E+00  0.00000000000E+00  0.99999998245E-14  0.12500000000E+03  0.12500000000E+03 0.  0.
        -13    1    3    3    0    0  0.19061430747E+02 -0.15827727816E+02  0.48824151026E+02  0.54750926909E+02  0.10566000000E+00 0. -1.
         23    2    1    0    0    0  0.30242196208E+01 -0.26046789940E+02  0.12069235300E+02  0.96133971330E+02  0.91697834393E+02 0.  0.
         13    1    3    3    0    0 -0.16037211127E+02 -0.10219062123E+02 -0.36754915727E+02  0.41383044420E+02  0.10566000000E+00 0.  1.
         22    1    1    0    0    0 -0.30242196208E+01  0.26046789940E+02 -0.12069235300E+02  0.28866028670E+02  0.00000000000E+00 0. -1.
</event>
<event>
 5    1  0.1724235E-003  0.9118800E+02  0.7818608E-02  0.1130116E+00
         25   -1    0    0    0    0  0.00000000000E+00  0.00000000000E+00  0.99999998245E-14  0.12500000000E+03  0.12500000000E+03 0.  0.
        -13    1    3    3    0    0 -0.37373729801E+02  0.31646935573E+02  0.94228143325E+01  0.49871081845E+02  0.10566000000E+00 0. -1.
         23    2    1    0    0    0  0.22444070434E+01  0.10306976971E+02  0.25299299313E+02  0.97589679262E+02  0.93661196957E+02 0.  0.
         13    1    3    3    0    0  0.39618136844E+02 -0.21339958601E+02  0.15876484980E+02  0.47718597417E+02  0.10566000000E+00 0.  1.
         22    1    1    0    0    0 -0.22444070434E+01 -0.10306976971E+02 -0.25299299313E+02  0.27410320738E+02  0.00000000000E+00 0.  1.
</event>
<event>
 5    1  0.1724235E-003  0.9118800E+02  0.7818608E-02  0.1130116E+00
         25   -1    0    0    0    0  0.00000000000E+00  0.00000000000E+00  0.99999998245E-14  0.12500000000E+03  0.12500000000E+03 0.  0.
        -13    1    3    3    0    0 -0.22086341771E+02  0.18589618818E+02 -0.29832433219E+02  0.41513439468E+02  0.10566000000E+00 0. -1.
         23    2    1    0    0    0 -0.20169386942E+02 -0.86772393764E+01  0.18001903636E+02  0.96606916559E+02  0.92340289905E+02 0.  0.
         13    1    3    3    0    0  0.19169548296E+01 -0.27266858194E+02  0.47834336855E+02  0.55093477091E+02  0.10566000000E+00 0.  1.
         22    1    1    0    0    0  0.20169386942E+02  0.86772393764E+01 -0.18001903636E+02  0.28393083441E+02  0.00000000000E+00 0.  1.
</event>
<event>
 5    1  0.1724235E-003  0.9118800E+02  0.7818608E-02  0.1130116E+00
         25   -1    0    0    0    0  0.00000000000E+00  0.00000000000E+00  0.99999998245E-14  0.12500000000E+03  0.12500000000E+03 0.  0.
        -13    1    3    3    0    0  0.26745979997E+02 -0.22118124044E+02  0.98172409143E+01  0.36068660086E+02  0.10566000000E+00 0. -1.
         23    2    1    0    0    0 -0.24046266026E+02 -0.28229393371E+01 -0.15749110112E+02  0.96117022909E+02  0.91674727855E+02 0.  0.
         13    1    3    3    0    0 -0.50792246022E+02  0.19295184707E+02 -0.25566351027E+02  0.60048362823E+02  0.10566000000E+00 0.  1.
         22    1    1    0    0    0  0.24046266026E+02  0.28229393371E+01  0.15749110112E+02  0.28882977091E+02  0.00000000000E+00 0.  1.
</event>
<event>
 5    1  0.1724235E-003  0.9118800E+02  0.7818608E-02  0.1130116E+00
         25   -1    0    0    0    0  0.00000000000E+00  0.00000000000E+00  0.99999998245E-14  0.12500000000E+03  0.12500000000E+03 0.  0.
        -13    1    3    3    0    0 -0.51340140285E+02  0.15266986339E+02  0.29369638676E+02  0.61085822548E+02  0.10566000000E+00 0. -1.
         23    2    1    0    0    0 -0.23836365294E+02  0.88093880764E+00  0.20966822481E+02  0.93242229162E+02  0.87667310273E+02 0.  0.
         13    1    3    3    0    0  0.27503774990E+02 -0.14386047532E+02 -0.84028161950E+01  0.32156406614E+02  0.10566000000E+00 0.  1.
         22    1    1    0    0    0  0.23836365294E+02 -0.88093880764E+00 -0.20966822481E+02  0.31757770838E+02  0.00000000000E+00 0. -1.
</event>
<event>
 5    1  0.1724235E-003  0.9118800E+02  0.7818608E-02  0.1130116E+00
         25   -1    0    0    0    0  0.00000000000E+00  0.00000000000E+00  0.99999998245E-14  0.12500000000E+03  0.12500000000E+03 0.  0.
        -13    1    3    3    0    0  0.64024635603E+01  0.27382622029E+02  0.15412135101E+02  0.32067812542E+02  0.10566000000E+00 0. -1.
         23    2    1    0    0    0  0.81768129520E+01 -0.29658121158E+02 -0.71180093524E+01  0.93422627123E+02  0.87924153569E+02 0.  0.
         13    1    3    3    0    0  0.17743493917E+01 -0.57040743187E+02 -0.22530144453E+02  0.61354814581E+02  0.10566000000E+00 0.  1.
         22    1    1    0    0    0 -0.81768129520E+01  0.29658121158E+02  0.71180093524E+01  0.31577372877E+02  0.00000000000E+00 0.  1.
</event>
<event>
 5    1  0.1724235E-003  0.9118800E+02  0.7818608E-02  0.1130116E+00
         25   -1    0    0    0    0  0.00000000000E+00  0.00000000000E+00  0.99999998245E-14  0.12500000000E+03  0.12500000000E+03 0.  0.
        -13    1    3    3    0    0  0.40803961330E-01  0.41796996713E+02  0.90087604445E+01  0.42756982213E+02  0.10566000000E+00 0. -1.
         23    2    1    0    0    0 -0.15855073423E+02  0.12179081764E+01  0.29936008973E+02  0.91102635991E+02  0.84561569272E+02 0.  0.
         13    1    3    3    0    0 -0.15895877384E+02 -0.40579088536E+02  0.20927248528E+02  0.48345653778E+02  0.10566000000E+00 0.  1.
         22    1    1    0    0    0  0.15855073423E+02 -0.12179081764E+01 -0.29936008973E+02  0.33897364009E+02  0.00000000000E+00 0.  1.
</event>
<event>
 5    1  0.1724235E-003  0.9118800E+02  0.7818608E-02  0.1130116E+00
         25   -1    0    0    0    0  0.00000000000E+00  0.00000000000E+00  0.99999998245E-14  0.12500000000E+03  0.12500000000E+03 0.  0.
        -13    1    3    3    0    0  0.33158863258E+02  0.95579942664E+01  0.22765394179E+01  0.34584089733E+02  0.10566000000E+00 0. -1.
         23    2    1    0    0    0 -0.26045574857E+02  0.48007098669E+01 -0.12385983063E+02  0.95762500769E+02  0.91190049853E+02 0.  0.
         13    1    3    3    0    0 -0.59204438114E+02 -0.47572843995E+01 -0.14662522481E+02  0.61178411036E+02  0.10566000000E+00 0.  1.
         22    1    1    0    0    0  0.26045574857E+02 -0.48007098669E+01  0.12385983063E+02  0.29237499231E+02  0.00000000000E+00 0.  1.
</event>
<event>
 5    1  0.1724235E-003  0.9118800E+02  0.7818608E-02  0.1130116E+00
         25   -1    0    0    0    0  0.00000000000E+00  0.00000000000E+00  0.99999998245E-14  0.12500000000E+03  0.12500000000E+03 0.  0.
        -13    1    3    3    0    0  0.35565440873E+02 -0.19767961981E+02 -0.45365268121E+01  0.40942204935E+02  0.10566000000E+00 0. -1.
         23    2    1    0    0    0 -0.17964841816E+02 -0.88025874256E+01  0.16068798455E+02  0.99340160354E+02  0.95968953775E+02 0.  0.
         13    1    3    3    0    0 -0.53530282688E+02  0.10965374556E+02  0.20605325267E+02  0.58397955420E+02  0.10566000000E+00 0.  1.
         22    1    1    0    0    0  0.17964841816E+02  0.88025874256E+01 -0.16068798455E+02  0.25659839646E+02  0.00000000000E+00 0.  1.
</event>
<event>
 5    1  0.1724235E-003  0.9118800E+02  0.7818608E-02  0.1130116E+00
         25   -1    0    0    0    0  0.00000000000E+00  0.00000000000E+00  0.99999998245E-14  0.12500000000E+03  0.12500000000E+03 0.  0.
        -13    1    3    3    0    0  0.36774880108E+01 -0.53843326002E+02  0.51046957285E+01  0.54209747791E+02  0.10566000000E+00 0.  1.
         23    2    1    0    0    0  0.18623531521E+02 -0.96014755893E+01  0.11095191664E+02  0.10129077104E+03  0.98476864085E+02 0.  0.
         13    1    3    3    0    0  0.14946043510E+02  0.44241850413E+02  0.59904959358E+01  0.47081023249E+02  0.10566000000E+00 0. -1.
         22    1    1    0    0    0 -0.18623531521E+02  0.96014755893E+01 -0.11095191664E+02  0.23709228960E+02  0.00000000000E+00 0.  1.
</event>
<event>
 5    1  0.1724235E-003  0.9118800E+02  0.7818608E-02  0.1130116E+00
         25   -1    0    0    0    0  0.00000000000E+00  0.00000000000E+00  0.99999998245E-14  0.12500000000E+03  0.12500000000E+03 0.  0.
        -13    1    3    3    0    0 -0.35402250489E+02  0.35498462047E+02 -0.33931627973E+01  0.50249227508E+02  0.10566000000E+00 0.  1.
         23    2    1    0    0    0  0.71765122093E+01  0.27255720034E+02  0.91008149091E+01  0.95382413433E+02  0.90667543025E+02 0.  0.
         13    1    3    3    0    0  0.42578762698E+02 -0.82427420132E+01  0.12493977706E+02  0.45133185925E+02  0.10566000000E+00 0. -1.
         22    1    1    0    0    0 -0.71765122093E+01 -0.27255720034E+02 -0.91008149091E+01  0.29617586567E+02  0.00000000000E+00 0.  1.
</event>
<event>
 5    1  0.1724235E-003  0.9118800E+02  0.7818608E-02  0.1130116E+00
         25   -1    0    0    0    0  0.00000000000E+00  0.00000000000E+00  0.99999998245E-14  0.12500000000E+03  0.12500000000E+03 0.  0.
        -13    1    3    3    0    0 -0.35438116118E+02  0.76483132722E+01  0.13167176888E+01  0.36278115709E+02  0.10566000000E+00 0.  1.
         23    2    1    0    0    0  0.13167756259E+02  0.12594307873E+02  0.27731071467E+02  0.91818397863E+02  0.85613079992E+02 0.  0.
         13    1    3    3    0    0  0.48605872377E+02  0.49459946012E+01  0.26414353778E+02  0.55540282153E+02  0.10566000000E+00 0. -1.
         22    1    1    0    0    0 -0.13167756259E+02 -0.12594307873E+02 -0.27731071467E+02  0.33181602137E+02  0.00000000000E+00 0. -1.
</event>
<event>
 5    1  0.1724235E-003  0.9118800E+02  0.7818608E-02  0.1130116E+00
         25   -1    0    0    0    0  0.00000000000E+00  0.00000000000E+00  0.99999998245E-14  0.12500000000E+03  0.12500000000E+03 0.  0.
        -13    1    3    3    0    0 -0.54553343895E+01 -0.40935496152E+02  0.85352268347E+00  0.41306357664E+02  0.10566000000E+00 0.  1.
         23    2    1    0    0    0  0.87187416083E+01  0.76119626655E+01 -0.24517566791E+02  0.97887834609E+02  0.94058272641E+02 0.  0.
         13    1    3    3    0    0  0.14174075998E+02  0.48547458817E+02 -0.25371089475E+02  0.56581476944E+02  0.10566000000E+00 0. -1.
         22    1    1    0    0    0 -0.87187416083E+01 -0.76119626655E+01  0.24517566791E+02  0.27112165391E+02  0.00000000000E+00 0. -1.
</event>
<event>
 5    1  0.1724235E-003  0.9118800E+02  0.7818608E-02  0.1130116E+00
         25   -1    0    0    0    0  0.00000000000E+00  0.00000000000E+00  0.99999998245E-14  0.12500000000E+03  0.12500000000E+03 0.  0.
        -13    1    3    3    0    0  0.45948800440E+02 -0.75097296464E+00 -0.23968028791E+02  0.51829854239E+02  0.10566000000E+00 0. -1.
         23    2    1    0    0    0  0.17519340592E+02 -0.23023643374E+02  0.15127509532E+01  0.96029258476E+02  0.91554981399E+02 0.  0.
         13    1    3    3    0    0 -0.28429459848E+02 -0.22272670410E+02  0.25480779744E+02  0.44199404236E+02  0.10566000000E+00 0.  1.
         22    1    1    0    0    0 -0.17519340592E+02  0.23023643374E+02 -0.15127509532E+01  0.28970741524E+02  0.00000000000E+00 0.  1.
</event>
<event>
 5    1  0.1724235E-003  0.9118800E+02  0.7818608E-02  0.1130116E+00
         25   -1    0    0    0    0  0.00000000000E+00  0.00000000000E+00  0.99999998245E-14  0.12500000000E+03  0.12500000000E+03 0.  0.
        -13    1    3    3    0    0  0.30433085941E+02 -0.19540047160E+01  0.15482123742E+02  0.34200850486E+02  0.10566000000E+00 0. -1.
         23    2    1    0    0    0 -0.28283088262E+02  0.51413958029E-01 -0.47159253081E+01  0.96326394078E+02  0.91959765765E+02 0.  0.
         13    1    3    3    0    0 -0.58716174204E+02  0.20054186740E+01 -0.20198049051E+02  0.62125543592E+02  0.10566000000E+00 0.  1.
         22    1    1    0    0    0  0.28283088262E+02 -0.51413958029E-01  0.47159253081E+01  0.28673605922E+02  0.00000000000E+00 0.  1.
</event>
<event>
 5    1  0.1724235E-003  0.9118800E+02  0.7818608E-02  0.1130116E+00
         25   -1    0    0    0    0  0.00000000000E+00  0.00000000000E+00  0.99999998245E-14  0.12500000000E+03  0.12500000000E+03 0.  0.
        -13    1    3    3    0    0  0.34641635509E+02 -0.21016181787E+02  0.45311729741E+02  0.60785580722E+02  0.10566000000E+00 0. -1.
         23    2    1    0    0    0  0.12885722412E+02 -0.19153384872E+02  0.18158387436E+02  0.95629589237E+02  0.91007677199E+02 0.  0.
         13    1    3    3    0    0 -0.21755913097E+02  0.18627969147E+01 -0.27153342305E+02  0.34844008515E+02  0.10566000000E+00 0.  1.
         22    1    1    0    0    0 -0.12885722412E+02  0.19153384872E+02 -0.18158387436E+02  0.29370410763E+02  0.00000000000E+00 0. -1.
</event>
<event>
 5    1  0.1724235E-003  0.9118800E+02  0.7818608E-02  0.1130116E+00
         25   -1    0    0    0    0  0.00000000000E+00  0.00000000000E+00  0.99999998245E-14  0.12500000000E+03  0.12500000000E+03 0.  0.
        -13    1    3    3    0    0 -0.10502066206E+02  0.33988261975E+02  0.14414727582E+02  0.38383471469E+02  0.10566000000E+00 0.  1.
         23    2    1    0    0    0  0.27975215915E+01 -0.18545294969E+02  0.25149240099E+02  0.93627426466E+02  0.88214832180E+02 0.  0.
         13    1    3    3    0    0  0.13299587797E+02 -0.52533556944E+02  0.10734512518E+02  0.55243954998E+02  0.10566000000E+00 0. -1.
         22    1    1    0    0    0 -0.27975215915E+01  0.18545294969E+02 -0.25149240099E+02  0.31372573534E+02  0.00000000000E+00 0. -1.
</event>
<event>
 5    1  0.1724235E-003  0.9118800E+02  0.7818608E-02  0.1130116E+00
         25   -1    0    0    0    0  0.00000000000E+00  0.00000000000E+00  0.99999998245E-14  0.12500000000E+03  0.12500000000E+03 0.  0.
        -13    1    3    3    0    0  0.32534059422E+02  0.45231814814E+01 -0.85511203034E+01  0.33941965406E+02  0.10566000000E+00 0.  1.
         23    2    1    0    0    0 -0.28608497008E+02 -0.30780337175E+01  0.53359131660E+00  0.96221447008E+02  0.91817001432E+02 0.  0.
         13    1    3    3    0    0 -0.61142556430E+02 -0.76012151989E+01  0.90847116200E+01  0.62279481601E+02  0.10566000000E+00 0. -1.
         22    1    1    0    0    0  0.28608497008E+02  0.30780337175E+01 -0.53359131660E+00  0.28778552992E+02  0.00000000000E+00 0. -1.
</event>
<event>
 5    1  0.1724235E-003  0.9118800E+02  0.7818608E-02  0.1130116E+00
         25   -1    0    0    0    0  0.00000000000E+00  0.00000000000E+00  0.99999998245E-14  0.12500000000E+03  0.12500000000E+03 0.  0.
        -13    1    3    3    0    0  0.28552679397E+02  0.44868719073E+02 -0.18447133870E+02  0.56291787714E+02  0.10566000000E+00 0. -1.
         23    2    1    0    0    0  0.18718612586E+02  0.74581056215E+01 -0.22036953056E+02  0.95139707024E+02  0.90332312912E+02 0.  0.
         13    1    3    3    0    0 -0.98340668107E+01 -0.37410613452E+02 -0.35898191865E+01  0.38847919310E+02  0.10566000000E+00 0.  1.
         22    1    1    0    0    0 -0.18718612586E+02 -0.74581056215E+01  0.22036953056E+02  0.29860292976E+02  0.00000000000E+00 0. -1.
</event>
<event>
 5    1  0.1724235E-003  0.9118800E+02  0.7818608E-02  0.1130116E+00
         25   -1    0    0    0    0  0.00000000000E+00  0.00000000000E+00  0.99999998245E-14  0.12500000000E+03  0.12500000000E+03 0.  0.
        -13    1    3    3    0    0  0.30204941300E+02  0.18614493998E+01  0.39690003823E+02  0.49911031249E+02  0.10566000000E+00 0.  1.
         23    2    1    0    0    0  0.69648806527E+01 -0.25873460968E+02  0.11228553252E+02  0.95947875240E+02  0.91443801375E+02 0.  0.
         13    1    3    3    0    0 -0.23240060647E+02 -0.27734910367E+02 -0.28461450571E+02  0.46036843991E+02  0.10566000000E+00 0. -1.
         22    1    1    0    0    0 -0.69648806527E+01  0.25873460968E+02 -0.11228553252E+02  0.29052124760E+02  0.00000000000E+00 0.  1.
</event>
<event>
 5    1  0.1724235E-003  0.9118800E+02  0.7818608E-02  0.1130116E+00
         25   -1    0    0    0    0  0.00000000000E+00  0.00000000000E+00  0.99999998245E-14  0.12500000000E+03  0.12500000000E+03 0.  0.
        -13    1    3    3    0    0  0.26955940600E+02  0.24328182057E+01 -0.25798128088E+02  0.37391120803E+02  0.10566000000E+00 0.  1.
         23    2    1    0    0    0 -0.72971141997E+01  0.10862554813E+02  0.23554626877E+02  0.98054435986E+02  0.94279419793E+02 0.  0.
         13    1    3    3    0    0 -0.34253054800E+02  0.84297366075E+01  0.49352754965E+02  0.60663315183E+02  0.10566000000E+00 0. -1.
         22    1    1    0    0    0  0.72971141997E+01 -0.10862554813E+02 -0.23554626877E+02  0.26945564014E+02  0.00000000000E+00 0. -1.
</event>
<event>
 5    1  0.1724235E-003  0.9118800E+02  0.7818608E-02  0.1130116E+00
         25   -1    0    0    0    0  0.00000000000E+00  0.00000000000E+00  0.99999998245E-14  0.12500000000E+03  0.12500000000E+03 0.  0.
        -13    1    3    3    0    0 -0.40350359893E+01 -0.31277571164E+02 -0.17972829779E+02  0.36298784383E+02  0.10566000000E+00 0.  1.
         23    2    1    0    0    0 -0.13508362034E+02  0.14526885718E+02  0.20211925419E+02  0.96679897905E+02  0.92439031131E+02 0.  0.
         13    1    3    3    0    0 -0.94733260446E+01  0.45804456882E+02  0.38184755198E+02  0.60381113523E+02  0.10566000000E+00 0. -1.
         22    1    1    0    0    0  0.13508362034E+02 -0.14526885718E+02 -0.20211925419E+02  0.28320102095E+02  0.00000000000E+00 0. -1.
</event>
<event>
 5    1  0.1724235E-003  0.9118800E+02  0.7818608E-02  0.1130116E+00
         25   -1    0    0    0    0  0.00000000000E+00  0.00000000000E+00  0.99999998245E-14  0.12500000000E+03  0.12500000000E+03 0.  0.
        -13    1    3    3    0    0 -0.17402227175E+02 -0.29398321341E+02  0.14154309700E+02  0.36979108365E+02  0.10566000000E+00 0. -1.
         23    2    1    0    0    0  0.11407049829E+02  0.14257667291E+01 -0.26837143663E+02  0.95804351753E+02  0.91247399625E+02 0.  0.
         13    1    3    3    0    0  0.28809277004E+02  0.30824088070E+02 -0.40991453363E+02  0.58825243388E+02  0.10566000000E+00 0.  1.
         22    1    1    0    0    0 -0.11407049829E+02 -0.14257667291E+01  0.26837143663E+02  0.29195648247E+02  0.00000000000E+00 0.  1.
</event>
<event>
 5    1  0.1724235E-003  0.9118800E+02  0.7818608E-02  0.1130116E+00
         25   -1    0    0    0    0  0.00000000000E+00  0.00000000000E+00  0.99999998245E-14  0.12500000000E+03  0.12500000000E+03 0.  0.
        -13    1    3    3    0    0  0.32791200209E+02 -0.12612746227E+02 -0.11770849115E+02  0.37052776299E+02  0.10566000000E+00 0.  1.
         23    2    1    0    0    0 -0.26360208950E+02  0.18316169042E+00 -0.67995939416E+01  0.97776322037E+02  0.93909959585E+02 0.  0.
         13    1    3    3    0    0 -0.59151409159E+02  0.12795907918E+02  0.49712551734E+01  0.60723545738E+02  0.10566000000E+00 0. -1.
         22    1    1    0    0    0  0.26360208950E+02 -0.18316169042E+00  0.67995939416E+01  0.27223677963E+02  0.00000000000E+00 0. -1.
</event>
<event>
 5    1  0.1724235E-003  0.9118800E+02  0.7818608E-02  0.1130116E+00
         25   -1    0    0    0    0  0.00000000000E+00  0.00000000000E+00  0.99999998245E-14  0.12500000000E+03  0.12500000000E+03 0.  0.
        -13    1    3    3    0    0 -0.42632964448E+02 -0.41422138019E+01 -0.19272411889E+02  0.46969826664E+02  0.10566000000E+00 0.  1.
         23    2    1    0    0    0 -0.40849257964E+02 -0.27196061824E+02 -0.19048957332E+01  0.75888735684E+02  0.57854852182E+02 0.  0.
         13    1    3    3    0    0  0.17837064843E+01 -0.23053848023E+02  0.17367516155E+02  0.28918909020E+02  0.10566000000E+00 0. -1.
         22    1    1    0    0    0  0.40849257964E+02  0.27196061824E+02  0.19048957332E+01  0.49111264316E+02  0.00000000000E+00 0.  1.
</event>
<event>
 5    1  0.1724235E-003  0.9118800E+02  0.7818608E-02  0.1130116E+00
         25   -1    0    0    0    0  0.00000000000E+00  0.00000000000E+00  0.99999998245E-14  0.12500000000E+03  0.12500000000E+03 0.  0.
        -13    1    3    3    0    0 -0.84030942909E+01  0.38023327877E+02 -0.41815317341E+02  0.57139455588E+02  0.10566000000E+00 0.  1.
         23    2    1    0    0    0 -0.16381899921E+02  0.24421480303E+02 -0.78868224702E+01  0.94553697862E+02  0.89517732687E+02 0.  0.
         13    1    3    3    0    0 -0.79788056299E+01 -0.13601847573E+02  0.33928494871E+02  0.37414242274E+02  0.10566000000E+00 0. -1.
         22    1    1    0    0    0  0.16381899921E+02 -0.24421480303E+02  0.78868224702E+01  0.30446302138E+02  0.00000000000E+00 0.  1.
</event>
<event>
 5    1  0.1724235E-003  0.9118800E+02  0.7818608E-02  0.1130116E+00
         25   -1    0    0    0    0  0.00000000000E+00  0.00000000000E+00  0.99999998245E-14  0.12500000000E+03  0.12500000000E+03 0.  0.
        -13    1    3    3    0    0 -0.38337208505E+02 -0.29930203307E+02  0.24290489199E+02  0.54365408630E+02  0.10566000000E+00 0. -1.
         23    2    1    0    0    0 -0.25975155177E+02  0.72664192124E+01  0.12299117272E+02  0.95355813044E+02  0.90630862629E+02 0.  0.
         13    1    3    3    0    0  0.12362053328E+02  0.37196622519E+02 -0.11991371926E+02  0.40990404414E+02  0.10566000000E+00 0.  1.
         22    1    1    0    0    0  0.25975155177E+02 -0.72664192124E+01 -0.12299117272E+02  0.29644186956E+02  0.00000000000E+00 0. -1.
</event>
<event>
 5    1  0.1724235E-003  0.9118800E+02  0.7818608E-02  0.1130116E+00
         25   -1    0    0    0    0  0.00000000000E+00  0.00000000000E+00  0.99999998245E-14  0.12500000000E+03  0.12500000000E+03 0.  0.
        -13    1    3    3    0    0  0.20812711695E+02  0.32454638519E+02 -0.19248562460E+02  0.43092816690E+02  0.10566000000E+00 0.  1.
         23    2    1    0    0    0 -0.94871074370E+01 -0.15040308749E+02 -0.18364707373E+02  0.99436773058E+02  0.96094709868E+02 0.  0.
         13    1    3    3    0    0 -0.30299819132E+02 -0.47494947268E+02  0.88385508655E+00  0.56343956368E+02  0.10566000000E+00 0. -1.
         22    1    1    0    0    0  0.94871074370E+01  0.15040308749E+02  0.18364707373E+02  0.25563226942E+02  0.00000000000E+00 0. -1.
</event>
<event>
 5    1  0.1724235E-003  0.9118800E+02  0.7818608E-02  0.1130116E+00
         25   -1    0    0    0    0  0.00000000000E+00  0.00000000000E+00  0.99999998245E-14  0.12500000000E+03  0.12500000000E+03 0.  0.
        -13    1    3    3    0    0  0.25442636610E+02  0.36301923323E+02  0.50923308630E+01  0.44621747974E+02  0.10566000000E+00 0. -1.
         23    2    1    0    0    0 -0.19094400610E+02  0.15742653521E+02 -0.13172563000E+02  0.96965312727E+02  0.92824178864E+02 0.  0.
         13    1    3    3    0    0 -0.44537037220E+02 -0.20559269802E+02 -0.18264893863E+02  0.52343564752E+02  0.10566000000E+00 0.  1.
         22    1    1    0    0    0  0.19094400610E+02 -0.15742653521E+02  0.13172563000E+02  0.28034687273E+02  0.00000000000E+00 0.  1.
</event>
<event>
 5    1  0.1724235E-003  0.9118800E+02  0.7818608E-02  0.1130116E+00
         25   -1    0    0    0    0  0.00000000000E+00  0.00000000000E+00  0.99999998245E-14  0.12500000000E+03  0.12500000000E+03 0.  0.
        -13    1    3    3    0    0  0.16718207853E+02  0.20466460245E+02  0.31668682293E+02  0.41246709820E+02  0.10566000000E+00 0.  1.
         23    2    1    0    0    0 -0.27220701647E+02 -0.30204169445E+01  0.76053360184E+01  0.96575879035E+02  0.92298265199E+02 0.  0.
         13    1    3    3    0    0 -0.43938909500E+02 -0.23486877190E+02 -0.24063346274E+02  0.55329169215E+02  0.10566000000E+00 0. -1.
         22    1    1    0    0    0  0.27220701647E+02  0.30204169445E+01 -0.76053360184E+01  0.28424120965E+02  0.00000000000E+00 0. -1.
</event>
<event>
 5    1  0.1724235E-003  0.9118800E+02  0.7818608E-02  0.1130116E+00
         25   -1    0    0    0    0  0.00000000000E+00  0.00000000000E+00  0.99999998245E-14  0.12500000000E+03  0.12500000000E+03 0.  0.
        -13    1    3    3    0    0 -0.48588301096E+02  0.22164874877E+02 -0.19268663192E+02  0.56774970074E+02  0.10566000000E+00 0.  1.
         23    2    1    0    0    0 -0.12729842981E+02  0.13619791988E+02 -0.24719730985E+02  0.94038528199E+02  0.88795450613E+02 0.  0.
         13    1    3    3    0    0  0.35858458115E+02 -0.85450828890E+01 -0.54510677936E+01  0.37263558124E+02  0.10566000000E+00 0. -1.
         22    1    1    0    0    0  0.12729842981E+02 -0.13619791988E+02  0.24719730985E+02  0.30961471801E+02  0.00000000000E+00 0.  1.
</event>
<event>
 5    1  0.1724235E-003  0.9118800E+02  0.7818608E-02  0.1130116E+00
         25   -1    0    0    0    0  0.00000000000E+00  0.00000000000E+00  0.99999998245E-14  0.12500000000E+03  0.12500000000E+03 0.  0.
        -13    1    3    3    0    0 -0.85870882119E+01 -0.47442483494E+02  0.95000575209E+01  0.49140508554E+02  0.10566000000E+00 0.  1.
         23    2    1    0    0    0  0.24476641980E+02 -0.15016605210E+02  0.72550285840E+00  0.96274910112E+02  0.91889757470E+02 0.  0.
         13    1    3    3    0    0  0.33063730192E+02  0.32425878283E+02 -0.87745546625E+01  0.47134401558E+02  0.10566000000E+00 0. -1.
         22    1    1    0    0    0 -0.24476641980E+02  0.15016605210E+02 -0.72550285840E+00  0.28725089888E+02  0.00000000000E+00 0.  1.
</event>
<event>
 5    1  0.1724235E-003  0.9118800E+02  0.7818608E-02  0.1130116E+00
         25   -1    0    0    0    0  0.00000000000E+00  0.00000000000E+00  0.99999998245E-14  0.12500000000E+03  0.12500000000E+03 0.  0.
        -13    1    3    3    0    0 -0.76232139982E+01  0.74568643549E+01  0.49667359269E+02  0.50799369666E+02  0.10566000000E+00 0. -1.
         23    2    1    0    0    0 -0.16877546835E+02 -0.19063438348E+02  0.14885374413E+02  0.95506939118E+02  0.90839059768E+02 0.  0.
         13    1    3    3    0    0 -0.92543328363E+01 -0.26520302703E+02 -0.34781984857E+02  0.44707569452E+02  0.10566000000E+00 0.  1.
         22    1    1    0    0    0  0.16877546835E+02  0.19063438348E+02 -0.14885374413E+02  0.29493060882E+02  0.00000000000E+00 0. -1.
</event>
<event>
 5    1  0.1724235E-003  0.9118800E+02  0.7818608E-02  0.1130116E+00
         25   -1    0    0    0    0  0.00000000000E+00  0.00000000000E+00  0.99999998245E-14  0.12500000000E+03  0.12500000000E+03 0.  0.
        -13    1    3    3    0    0 -0.20422281776E+02 -0.24050640077E+02  0.18975629986E+02  0.36818318517E+02  0.10566000000E+00 0. -1.
         23    2    1    0    0    0  0.18037980107E+02  0.20332862613E+02  0.88564803773E+01  0.96412742820E+02  0.92077063947E+02 0.  0.
         13    1    3    3    0    0  0.38460261883E+02  0.44383502690E+02 -0.10119149609E+02  0.59594424303E+02  0.10566000000E+00 0.  1.
         22    1    1    0    0    0 -0.18037980107E+02 -0.20332862613E+02 -0.88564803773E+01  0.28587257180E+02  0.00000000000E+00 0.  1.
</event>
<event>
 5    1  0.1724235E-003  0.9118800E+02  0.7818608E-02  0.1130116E+00
         25   -1    0    0    0    0  0.00000000000E+00  0.00000000000E+00  0.99999998245E-14  0.12500000000E+03  0.12500000000E+03 0.  0.
        -13    1    3    3    0    0 -0.41878248650E+02 -0.20296293209E+02  0.25915687105E+02  0.53266886808E+02  0.10566000000E+00 0.  1.
         23    2    1    0    0    0  0.14265807945E+01 -0.23147008791E+02  0.12286970291E+02  0.98755214086E+02  0.95204010007E+02 0.  0.
         13    1    3    3    0    0  0.43304829445E+02 -0.28507155824E+01 -0.13628716814E+02  0.45488327278E+02  0.10566000000E+00 0. -1.
         22    1    1    0    0    0 -0.14265807945E+01  0.23147008791E+02 -0.12286970291E+02  0.26244785914E+02  0.00000000000E+00 0. -1.
</event>
<event>
 5    1  0.1724235E-003  0.9118800E+02  0.7818608E-02  0.1130116E+00
         25   -1    0    0    0    0  0.00000000000E+00  0.00000000000E+00  0.99999998245E-14  0.12500000000E+03  0.12500000000E+03 0.  0.
        -13    1    3    3    0    0  0.45923178587E+01  0.22944274259E+02  0.30183423207E+02  0.38191351182E+02  0.10566000000E+00 0.  1.
         23    2    1    0    0    0 -0.23836748089E+02  0.16910801645E+02 -0.15180669319E+02  0.92066453384E+02  0.85974492415E+02 0.  0.
         13    1    3    3    0    0 -0.28429065947E+02 -0.60334726135E+01 -0.45364092527E+02  0.53875102202E+02  0.10566000000E+00 0. -1.
         22    1    1    0    0    0  0.23836748089E+02 -0.16910801645E+02  0.15180669319E+02  0.32933546616E+02  0.00000000000E+00 0. -1.
</event>
<event>
 5    1  0.1724235E-003  0.9118800E+02  0.7818608E-02  0.1130116E+00
         25   -1    0    0    0    0  0.00000000000E+00  0.00000000000E+00  0.99999998245E-14  0.12500000000E+03  0.12500000000E+03 0.  0.
        -13    1    3    3    0    0 -0.13053222783E+02  0.32053704913E+02 -0.17711128129E+02  0.38878295324E+02  0.10566000000E+00 0.  1.
         23    2    1    0    0    0  0.11848954375E+01 -0.22898324858E+02 -0.18324390072E+02  0.95648330031E+02  0.91033414237E+02 0.  0.
         13    1    3    3    0    0  0.14238118221E+02 -0.54952029770E+02 -0.61326194281E+00  0.56770034707E+02  0.10566000000E+00 0. -1.
         22    1    1    0    0    0 -0.11848954375E+01  0.22898324858E+02  0.18324390072E+02  0.29351669969E+02  0.00000000000E+00 0. -1.
</event>
<event>
 5    1  0.1724235E-003  0.9118800E+02  0.7818608E-02  0.1130116E+00
         25   -1    0    0    0    0  0.00000000000E+00  0.00000000000E+00  0.99999998245E-14  0.12500000000E+03  0.12500000000E+03 0.  0.
        -13    1    3    3    0    0  0.16764616352E+02 -0.33285062998E+02  0.14109343100E+02  0.39850125557E+02  0.10566000000E+00 0. -1.
         23    2    1    0    0    0 -0.26588788334E+02 -0.25404472383E+01 -0.75515930630E+01  0.97243125266E+02  0.93197539218E+02 0.  0.
         13    1    3    3    0    0 -0.43353404686E+02  0.30744615759E+02 -0.21660936163E+02  0.57392999708E+02  0.10566000000E+00 0.  1.
         22    1    1    0    0    0  0.26588788334E+02  0.25404472383E+01  0.75515930630E+01  0.27756874734E+02  0.00000000000E+00 0. -1.
</event>
<event>
 5    1  0.1724235E-003  0.9118800E+02  0.7818608E-02  0.1130116E+00
         25   -1    0    0    0    0  0.00000000000E+00  0.00000000000E+00  0.99999998245E-14  0.12500000000E+03  0.12500000000E+03 0.  0.
        -13    1    3    3    0    0 -0.25943277615E+02  0.22655393176E+02 -0.16215915359E+01  0.34481316919E+02  0.10566000000E+00 0.  1.
         23    2    1    0    0    0  0.21979768254E+02 -0.13107228646E+02 -0.14411226188E+02  0.95630064768E+02  0.91008330344E+02 0.  0.
         13    1    3    3    0    0  0.47923045869E+02 -0.35762621822E+02 -0.12789634652E+02  0.61148747849E+02  0.10566000000E+00 0. -1.
         22    1    1    0    0    0 -0.21979768254E+02  0.13107228646E+02  0.14411226188E+02  0.29369935232E+02  0.00000000000E+00 0. -1.
</event>
<event>
 5    1  0.1724235E-003  0.9118800E+02  0.7818608E-02  0.1130116E+00
         25   -1    0    0    0    0  0.00000000000E+00  0.00000000000E+00  0.99999998245E-14  0.12500000000E+03  0.12500000000E+03 0.  0.
        -13    1    3    3    0    0 -0.47146775522E+02  0.28040561197E+02  0.12124128449E+02  0.56179152442E+02  0.10566000000E+00 0.  1.
         23    2    1    0    0    0 -0.21987699287E+02  0.32498011348E+02  0.17079653921E+02  0.82206376181E+02  0.70189700421E+02 0.  0.
         13    1    3    3    0    0  0.25159076235E+02  0.44574501505E+01  0.49555254723E+01  0.26027223739E+02  0.10566000000E+00 0. -1.
         22    1    1    0    0    0  0.21987699287E+02 -0.32498011348E+02 -0.17079653921E+02  0.42793623819E+02  0.00000000000E+00 0.  1.
</event>
<event>
 5    1  0.1724235E-003  0.9118800E+02  0.7818608E-02  0.1130116E+00
         25   -1    0    0    0    0  0.00000000000E+00  0.00000000000E+00  0.99999998245E-14  0.12500000000E+03  0.12500000000E+03 0.  0.
        -13    1    3    3    0    0 -0.26892990959E+02 -0.38940898783E+02  0.25046246531E+02  0.53543927668E+02  0.10566000000E+00 0. -1.
         23    2    1    0    0    0  0.91174099595E+01 -0.17424298081E+02  0.21833338816E+02  0.95615854414E+02  0.90988810320E+02 0.  0.
         13    1    3    3    0    0  0.36010400919E+02  0.21516600702E+02 -0.32129077156E+01  0.42071926746E+02  0.10566000000E+00 0.  1.
         22    1    1    0    0    0 -0.91174099595E+01  0.17424298081E+02 -0.21833338816E+02  0.29384145586E+02  0.00000000000E+00 0.  1.
</event>
<event>
 5    1  0.1724235E-003  0.9118800E+02  0.7818608E-02  0.1130116E+00
         25   -1    0    0    0    0  0.00000000000E+00  0.00000000000E+00  0.99999998245E-14  0.12500000000E+03  0.12500000000E+03 0.  0.
        -13    1    3    3    0    0 -0.24833821448E+02  0.21176190437E+02 -0.43757163953E+01  0.32928829119E+02  0.10566000000E+00 0.  1.
         23    2    1    0    0    0  0.15878299215E+02 -0.23296477286E+02  0.10302934389E+02  0.94983392981E+02  0.90115749152E+02 0.  0.
         13    1    3    3    0    0  0.40712120663E+02 -0.44472667723E+02  0.14678650784E+02  0.62054563862E+02  0.10566000000E+00 0. -1.
         22    1    1    0    0    0 -0.15878299215E+02  0.23296477286E+02 -0.10302934389E+02  0.30016607019E+02  0.00000000000E+00 0. -1.
</event>
<event>
 5    1  0.1724235E-003  0.9118800E+02  0.7818608E-02  0.1130116E+00
         25   -1    0    0    0    0  0.00000000000E+00  0.00000000000E+00  0.99999998245E-14  0.12500000000E+03  0.12500000000E+03 0.  0.
        -13    1    3    3    0    0 -0.32523615766E+02 -0.70508385508E+01 -0.15901230103E+02  0.36883061011E+02  0.10566000000E+00 0.  1.
         23    2    1    0    0    0  0.18669127295E+02 -0.20430673356E+02  0.97130305199E+01  0.95669270557E+02  0.91062163599E+02 0.  0.
         13    1    3    3    0    0  0.51192743061E+02 -0.13379834806E+02  0.25614260622E+02  0.58786209546E+02  0.10566000000E+00 0. -1.
         22    1    1    0    0    0 -0.18669127295E+02  0.20430673356E+02 -0.97130305199E+01  0.29330729443E+02  0.00000000000E+00 0. -1.
</event>
<event>
 5    1  0.1724235E-003  0.9118800E+02  0.7818608E-02  0.1130116E+00
         25   -1    0    0    0    0  0.00000000000E+00  0.00000000000E+00  0.99999998245E-14  0.12500000000E+03  0.12500000000E+03 0.  0.
        -13    1    3    3    0    0 -0.34989029078E+02  0.45817359601E+01 -0.40437949209E+02  0.53669948393E+02  0.10566000000E+00 0. -1.
         23    2    1    0    0    0 -0.16805855112E+02  0.21734166682E+02 -0.49405653332E+01  0.97085488483E+02  0.92985870543E+02 0.  0.
         13    1    3    3    0    0  0.18183173966E+02  0.17152430722E+02  0.35497383876E+02  0.43415540089E+02  0.10566000000E+00 0.  1.
         22    1    1    0    0    0  0.16805855112E+02 -0.21734166682E+02  0.49405653332E+01  0.27914511517E+02  0.00000000000E+00 0. -1.
</event>
<event>
 5    1  0.1724235E-003  0.9118800E+02  0.7818608E-02  0.1130116E+00
         25   -1    0    0    0    0  0.00000000000E+00  0.00000000000E+00  0.99999998245E-14  0.12500000000E+03  0.12500000000E+03 0.  0.
        -13    1    3    3    0    0  0.14044808168E+01 -0.33555321977E+02  0.20084321934E+02  0.39132126839E+02  0.10566000000E+00 0.  1.
         23    2    1    0    0    0  0.21023695034E+02  0.18290569974E+02  0.94341909553E+01  0.95579859588E+02  0.90939347354E+02 0.  0.
         13    1    3    3    0    0  0.19619214217E+02  0.51845891951E+02 -0.10650130978E+02  0.56447732750E+02  0.10566000000E+00 0. -1.
         22    1    1    0    0    0 -0.21023695034E+02 -0.18290569974E+02 -0.94341909553E+01  0.29420140412E+02  0.00000000000E+00 0. -1.
</event>
<event>
 5    1  0.1724235E-003  0.9118800E+02  0.7818608E-02  0.1130116E+00
         25   -1    0    0    0    0  0.00000000000E+00  0.00000000000E+00  0.99999998245E-14  0.12500000000E+03  0.12500000000E+03 0.  0.
        -13    1    3    3    0    0  0.52533938369E+01  0.29299966676E+02 -0.15513743732E+02  0.33567448557E+02  0.10566000000E+00 0.  1.
         23    2    1    0    0    0 -0.25833437906E+02 -0.16698234099E+02  0.69608876903E+01  0.93461904092E+02  0.87979975126E+02 0.  0.
         13    1    3    3    0    0 -0.31086831742E+02 -0.45998200775E+02  0.22474631423E+02  0.59894455535E+02  0.10566000000E+00 0. -1.
         22    1    1    0    0    0  0.25833437906E+02  0.16698234099E+02 -0.69608876903E+01  0.31538095908E+02  0.00000000000E+00 0. -1.
</event>
<event>
 5    1  0.1724235E-003  0.9118800E+02  0.7818608E-02  0.1130116E+00
         25   -1    0    0    0    0  0.00000000000E+00  0.00000000000E+00  0.99999998245E-14  0.12500000000E+03  0.12500000000E+03 0.  0.
        -13    1    3    3    0    0 -0.70625177820E+00  0.46328921072E+02 -0.94314742295E+01  0.47284580885E+02  0.10566000000E+00 0. -1.
         23    2    1    0    0    0 -0.20312098249E+02  0.49556705417E+01 -0.21886207047E+02  0.94732095139E+02  0.89766495892E+02 0.  0.
         13    1    3    3    0    0 -0.19605846470E+02 -0.41373250530E+02 -0.12454732818E+02  0.47447514254E+02  0.10566000000E+00 0.  1.
         22    1    1    0    0    0  0.20312098249E+02 -0.49556705417E+01  0.21886207047E+02  0.30267904861E+02  0.00000000000E+00 0. -1.
</event>
<event>
 5    1  0.1724235E-003  0.9118800E+02  0.7818608E-02  0.1130116E+00
         25   -1    0    0    0    0  0.00000000000E+00  0.00000000000E+00  0.99999998245E-14  0.12500000000E+03  0.12500000000E+03 0.  0.
        -13    1    3    3    0    0  0.30446281342E+02  0.45255680722E+02 -0.16557827522E+02  0.57001978049E+02  0.10566000000E+00 0.  1.
         23    2    1    0    0    0  0.25494061342E+02  0.62984762015E+01 -0.10411034080E+02  0.96750971755E+02  0.92535090310E+02 0.  0.
         13    1    3    3    0    0 -0.49522199991E+01 -0.38957204521E+02  0.61467934420E+01  0.39748993706E+02  0.10566000000E+00 0. -1.
         22    1    1    0    0    0 -0.25494061342E+02 -0.62984762015E+01  0.10411034080E+02  0.28249028245E+02  0.00000000000E+00 0.  1.
</event>
<event>
 5    1  0.1724235E-003  0.9118800E+02  0.7818608E-02  0.1130116E+00
         25   -1    0    0    0    0  0.00000000000E+00  0.00000000000E+00  0.99999998245E-14  0.12500000000E+03  0.12500000000E+03 0.  0.
        -13    1    3    3    0    0  0.54208413657E+02 -0.25720463356E+02  0.26232588791E+01  0.60058196756E+02  0.10566000000E+00 0. -1.
         23    2    1    0    0    0  0.21527350900E+02 -0.18354534571E+02 -0.86698160768E+01  0.95411463590E+02  0.90707584564E+02 0.  0.
         13    1    3    3    0    0 -0.32681062757E+02  0.73659287842E+01 -0.11293074956E+02  0.35353266833E+02  0.10566000000E+00 0.  1.
         22    1    1    0    0    0 -0.21527350900E+02  0.18354534571E+02  0.86698160768E+01  0.29588536410E+02  0.00000000000E+00 0. -1.
</event>
<event>
 5    1  0.1724235E-003  0.9118800E+02  0.7818608E-02  0.1130116E+00
         25   -1    0    0    0    0  0.00000000000E+00  0.00000000000E+00  0.99999998245E-14  0.12500000000E+03  0.12500000000E+03 0.  0.
        -13    1    3    3    0    0 -0.26831734004E+02  0.83809540280E+01 -0.28663472958E+02  0.40147081913E+02  0.10566000000E+00 0. -1.
         23    2    1    0    0    0 -0.15177283313E+01  0.19216288496E+02  0.20727133358E+02  0.96694818494E+02  0.92459205186E+02 0.  0.
         13    1    3    3    0    0  0.25314005672E+02  0.10835334468E+02  0.49390606316E+02  0.56547736581E+02  0.10566000000E+00 0.  1.
         22    1    1    0    0    0  0.15177283313E+01 -0.19216288496E+02 -0.20727133358E+02  0.28305181506E+02  0.00000000000E+00 0.  1.
</event>
<event>
 5    1  0.1724235E-003  0.9118800E+02  0.7818608E-02  0.1130116E+00
         25   -1    0    0    0    0  0.00000000000E+00  0.00000000000E+00  0.99999998245E-14  0.12500000000E+03  0.12500000000E+03 0.  0.
        -13    1    3    3    0    0 -0.38428133345E+02  0.10565233718E+02  0.33572353204E+01  0.39995347091E+02  0.10566000000E+00 0. -1.
         23    2    1    0    0    0  0.88776169115E+01 -0.44718101146E+01  0.27909051264E+02  0.95373587625E+02  0.90655374393E+02 0.  0.
         13    1    3    3    0    0  0.47305750256E+02 -0.15037043833E+02  0.24551815944E+02  0.55378240535E+02  0.10566000000E+00 0.  1.
         22    1    1    0    0    0 -0.88776169115E+01  0.44718101146E+01 -0.27909051264E+02  0.29626412375E+02  0.00000000000E+00 0. -1.
</event>
<event>
 5    1  0.1724235E-003  0.9118800E+02  0.7818608E-02  0.1130116E+00
         25   -1    0    0    0    0  0.00000000000E+00  0.00000000000E+00  0.99999998245E-14  0.12500000000E+03  0.12500000000E+03 0.  0.
        -13    1    3    3    0    0  0.12457397646E+02  0.66725828760E+01 -0.30528166338E+02  0.33640603775E+02  0.10566000000E+00 0. -1.
         23    2    1    0    0    0 -0.15942581125E+02  0.11688506430E+01  0.24463329503E+02  0.95776950961E+02  0.91209855500E+02 0.  0.
         13    1    3    3    0    0 -0.28399978771E+02 -0.55037322331E+01  0.54991495842E+02  0.62136347186E+02  0.10566000000E+00 0.  1.
         22    1    1    0    0    0  0.15942581125E+02 -0.11688506430E+01 -0.24463329503E+02  0.29223049039E+02  0.00000000000E+00 0.  1.
</event>
<event>
 5    1  0.1724235E-003  0.9118800E+02  0.7818608E-02  0.1130116E+00
         25   -1    0    0    0    0  0.00000000000E+00  0.00000000000E+00  0.99999998245E-14  0.12500000000E+03  0.12500000000E+03 0.  0.
        -13    1    3    3    0    0 -0.32902938612E+02 -0.49676534934E+02  0.12065668530E+02  0.60794350178E+02  0.10566000000E+00 0. -1.
         23    2    1    0    0    0 -0.21093079935E+02 -0.19491925472E+02 -0.21747649988E+01  0.96197521243E+02  0.91784423029E+02 0.  0.
         13    1    3    3    0    0  0.11809858677E+02  0.30184609462E+02 -0.14240433529E+02  0.35403171066E+02  0.10566000000E+00 0.  1.
         22    1    1    0    0    0  0.21093079935E+02  0.19491925472E+02  0.21747649988E+01  0.28802478757E+02  0.00000000000E+00 0. -1.
</event>
<event>
 5    1  0.1724235E-003  0.9118800E+02  0.7818608E-02  0.1130116E+00
         25   -1    0    0    0    0  0.00000000000E+00  0.00000000000E+00  0.99999998245E-14  0.12500000000E+03  0.12500000000E+03 0.  0.
        -13    1    3    3    0    0  0.97050611505E+01  0.50515075211E+02 -0.32403119811E+01  0.51540972258E+02  0.10566000000E+00 0. -1.
         23    2    1    0    0    0 -0.18907020306E+02  0.88706142080E+01 -0.87289592246E+01  0.10236467490E+03  0.99830700312E+02 0.  0.
         13    1    3    3    0    0 -0.28612081457E+02 -0.41644461003E+02 -0.54886472435E+01  0.50823702641E+02  0.10566000000E+00 0.  1.
         22    1    1    0    0    0  0.18907020306E+02 -0.88706142080E+01  0.87289592246E+01  0.22635325101E+02  0.00000000000E+00 0.  1.
</event>
<event>
 5    1  0.1724235E-003  0.9118800E+02  0.7818608E-02  0.1130116E+00
         25   -1    0    0    0    0  0.00000000000E+00  0.00000000000E+00  0.99999998245E-14  0.12500000000E+03  0.12500000000E+03 0.  0.
        -13    1    3    3    0    0  0.20629444214E+02  0.29115494817E+02  0.49577967817E+02  0.61084139218E+02  0.10566000000E+00 0. -1.
         23    2    1    0    0    0  0.20324961198E+01  0.19098762568E+02  0.22920091356E+02  0.95096415602E+02  0.90272387253E+02 0.  0.
         13    1    3    3    0    0 -0.18596948095E+02 -0.10016732249E+02 -0.26657876461E+02  0.34012276384E+02  0.10566000000E+00 0.  1.
         22    1    1    0    0    0 -0.20324961198E+01 -0.19098762568E+02 -0.22920091356E+02  0.29903584398E+02  0.00000000000E+00 0. -1.
</event>
<event>
 5    1  0.1724235E-003  0.9118800E+02  0.7818608E-02  0.1130116E+00
         25   -1    0    0    0    0  0.00000000000E+00  0.00000000000E+00  0.99999998245E-14  0.12500000000E+03  0.12500000000E+03 0.  0.
        -13    1    3    3    0    0 -0.42225243260E+02 -0.12034880745E+02  0.28367008957E+02  0.52273395567E+02  0.10566000000E+00 0.  1.
         23    2    1    0    0    0 -0.23863951672E+02  0.14470555944E+02 -0.25886234311E+01  0.96971690205E+02  0.92832766581E+02 0.  0.
         13    1    3    3    0    0  0.18361291588E+02  0.26505436689E+02 -0.30955632389E+02  0.44698294637E+02  0.10566000000E+00 0. -1.
         22    1    1    0    0    0  0.23863951672E+02 -0.14470555944E+02  0.25886234311E+01  0.28028309795E+02  0.00000000000E+00 0.  1.
</event>
<event>
 5    1  0.1724235E-003  0.9118800E+02  0.7818608E-02  0.1130116E+00
         25   -1    0    0    0    0  0.00000000000E+00  0.00000000000E+00  0.99999998245E-14  0.12500000000E+03  0.12500000000E+03 0.  0.
        -13    1    3    3    0    0  0.18621153430E+02 -0.15414551988E+02  0.25558085052E+02  0.35179292825E+02  0.10566000000E+00 0. -1.
         23    2    1    0    0    0 -0.10408123167E+02  0.22084533493E+02 -0.13931199686E+02  0.96890678199E+02  0.92723619158E+02 0.  0.
         13    1    3    3    0    0 -0.29029276598E+02  0.37499085481E+02 -0.39489284737E+02  0.61711385374E+02  0.10566000000E+00 0.  1.
         22    1    1    0    0    0  0.10408123167E+02 -0.22084533493E+02  0.13931199686E+02  0.28109321801E+02  0.00000000000E+00 0.  1.
</event>
<event>
 5    1  0.1724235E-003  0.9118800E+02  0.7818608E-02  0.1130116E+00
         25   -1    0    0    0    0  0.00000000000E+00  0.00000000000E+00  0.99999998245E-14  0.12500000000E+03  0.12500000000E+03 0.  0.
        -13    1    3    3    0    0  0.14458620945E+01 -0.27601086690E+02  0.30148080095E+02  0.40900224952E+02  0.10566000000E+00 0.  1.
         23    2    1    0    0    0  0.20456611582E+02 -0.11582010068E+02 -0.18203283361E+02  0.95268275533E+02  0.90510048521E+02 0.  0.
         13    1    3    3    0    0  0.19010749488E+02  0.16019076621E+02 -0.48351363456E+02  0.54368050581E+02  0.10566000000E+00 0. -1.
         22    1    1    0    0    0 -0.20456611582E+02  0.11582010068E+02  0.18203283361E+02  0.29731724467E+02  0.00000000000E+00 0. -1.
</event>
<event>
 5    1  0.1724235E-003  0.9118800E+02  0.7818608E-02  0.1130116E+00
         25   -1    0    0    0    0  0.00000000000E+00  0.00000000000E+00  0.99999998245E-14  0.12500000000E+03  0.12500000000E+03 0.  0.
        -13    1    3    3    0    0 -0.47274339464E+02  0.18600418782E+02  0.89658362821E+00  0.50809977139E+02  0.10566000000E+00 0.  1.
         23    2    1    0    0    0 -0.47718331232E+01  0.29453680973E+02 -0.37746630072E+01  0.94924465175E+02  0.90033972997E+02 0.  0.
         13    1    3    3    0    0  0.42502506341E+02  0.10853262191E+02 -0.46712466354E+01  0.44114488036E+02  0.10566000000E+00 0. -1.
         22    1    1    0    0    0  0.47718331232E+01 -0.29453680973E+02  0.37746630072E+01  0.30075534825E+02  0.00000000000E+00 0. -1.
</event>
<event>
 5    1  0.1724235E-003  0.9118800E+02  0.7818608E-02  0.1130116E+00
         25   -1    0    0    0    0  0.00000000000E+00  0.00000000000E+00  0.99999998245E-14  0.12500000000E+03  0.12500000000E+03 0.  0.
        -13    1    3    3    0    0  0.18589000036E+02  0.37440684492E+02  0.15647381773E+02  0.44634151700E+02  0.10566000000E+00 0. -1.
         23    2    1    0    0    0 -0.24566294690E+02  0.10035688478E+02  0.11970764156E+02  0.95887853523E+02  0.91361717260E+02 0.  0.
         13    1    3    3    0    0 -0.43155294726E+02 -0.27404996014E+02 -0.36766176165E+01  0.51253701823E+02  0.10566000000E+00 0.  1.
         22    1    1    0    0    0  0.24566294690E+02 -0.10035688478E+02 -0.11970764156E+02  0.29112146477E+02  0.00000000000E+00 0. -1.
</event>
<event>
 5    1  0.1724235E-003  0.9118800E+02  0.7818608E-02  0.1130116E+00
         25   -1    0    0    0    0  0.00000000000E+00  0.00000000000E+00  0.99999998245E-14  0.12500000000E+03  0.12500000000E+03 0.  0.
        -13    1    3    3    0    0  0.30711683270E+02  0.41051833897E+02  0.35445858466E+02  0.62328810369E+02  0.10566000000E+00 0.  1.
         23    2    1    0    0    0  0.11817331738E+02  0.19835506432E+02  0.18541180521E+02  0.95387975079E+02  0.90675210337E+02 0.  0.
         13    1    3    3    0    0 -0.18894351532E+02 -0.21216327465E+02 -0.16904677945E+02  0.33059164710E+02  0.10566000000E+00 0. -1.
         22    1    1    0    0    0 -0.11817331738E+02 -0.19835506432E+02 -0.18541180521E+02  0.29612024921E+02  0.00000000000E+00 0.  1.
</event>
<event>
 5    1  0.1724235E-003  0.9118800E+02  0.7818608E-02  0.1130116E+00
         25   -1    0    0    0    0  0.00000000000E+00  0.00000000000E+00  0.99999998245E-14  0.12500000000E+03  0.12500000000E+03 0.  0.
        -13    1    3    3    0    0  0.13166698851E+01 -0.55256591426E+01 -0.58916322724E+02  0.59189617129E+02  0.10566000000E+00 0. -1.
         23    2    1    0    0    0 -0.13376170995E+01  0.11660959564E+02 -0.27538738841E+02  0.95064246554E+02  0.90227831839E+02 0.  0.
         13    1    3    3    0    0 -0.26542869846E+01  0.17186618707E+02  0.31377583883E+02  0.35874629425E+02  0.10566000000E+00 0.  1.
         22    1    1    0    0    0  0.13376170995E+01 -0.11660959564E+02  0.27538738841E+02  0.29935753446E+02  0.00000000000E+00 0. -1.
</event>
<event>
 5    1  0.1724235E-003  0.9118800E+02  0.7818608E-02  0.1130116E+00
         25   -1    0    0    0    0  0.00000000000E+00  0.00000000000E+00  0.99999998245E-14  0.12500000000E+03  0.12500000000E+03 0.  0.
        -13    1    3    3    0    0 -0.43952084984E+02 -0.32543507853E+02 -0.55001420427E+01  0.54964792407E+02  0.10566000000E+00 0. -1.
         23    2    1    0    0    0 -0.14086845291E+02 -0.28825433190E+02  0.13100633837E+02  0.90344965506E+02  0.83434054058E+02 0.  0.
         13    1    3    3    0    0  0.29865239693E+02  0.37180746631E+01  0.18600775880E+02  0.35380173099E+02  0.10566000000E+00 0.  1.
         22    1    1    0    0    0  0.14086845291E+02  0.28825433190E+02 -0.13100633837E+02  0.34655034494E+02  0.00000000000E+00 0. -1.
</event>
<event>
 5    1  0.1724235E-003  0.9118800E+02  0.7818608E-02  0.1130116E+00
         25   -1    0    0    0    0  0.00000000000E+00  0.00000000000E+00  0.99999998245E-14  0.12500000000E+03  0.12500000000E+03 0.  0.
        -13    1    3    3    0    0 -0.66382355165E+01 -0.38791782964E+02  0.42365921980E+02  0.57825177090E+02  0.10566000000E+00 0.  1.
         23    2    1    0    0    0  0.14077372830E+02 -0.16758172960E+02  0.18029212721E+02  0.96644025354E+02  0.92390510003E+02 0.  0.
         13    1    3    3    0    0  0.20715608346E+02  0.22033610004E+02 -0.24336709259E+02  0.38818848264E+02  0.10566000000E+00 0. -1.
         22    1    1    0    0    0 -0.14077372830E+02  0.16758172960E+02 -0.18029212721E+02  0.28355974646E+02  0.00000000000E+00 0.  1.
</event>
<event>
 4    1  0.1724235E-003  0.9118800E+02  0.7818608E-02  0.1130116E+00
         25   -1    0    0    0    0  0.00000000000E+00  0.00000000000E+00  0.99999998245E-14  0.12500000000E+03  0.12500000000E+03 0.  0.
        -13    1    1    0    0    0  0.19810235166E+02  0.17738621968E-01  0.29757501931E+02  0.35748647768E+02  0.10566000000E+00 0.  1.
         13    1    1    0    0    0  0.29489385342E+02  0.14137092819E+02 -0.14194958951E+02  0.35650936381E+02  0.10566000000E+00 0. -1.
         22    1    1    0    0    0 -0.49299620508E+02 -0.14154831441E+02 -0.15562542980E+02  0.53600415851E+02  0.00000000000E+00 0. -1.
</event>
<event>
 5    1  0.1724235E-003  0.9118800E+02  0.7818608E-02  0.1130116E+00
         25   -1    0    0    0    0  0.00000000000E+00  0.00000000000E+00  0.99999998245E-14  0.12500000000E+03  0.12500000000E+03 0.  0.
        -13    1    3    3    0    0  0.34939294329E+02  0.19158180598E+01 -0.28770051898E+02  0.45300680981E+02  0.10566000000E+00 0. -1.
         23    2    1    0    0    0 -0.13374134308E+02 -0.12361636152E+02 -0.22476517446E+02  0.96071271142E+02  0.91612323328E+02 0.  0.
         13    1    3    3    0    0 -0.48313428637E+02 -0.14277454212E+02  0.62935344523E+01  0.50770590162E+02  0.10566000000E+00 0.  1.
         22    1    1    0    0    0  0.13374134308E+02  0.12361636152E+02  0.22476517446E+02  0.28928728858E+02  0.00000000000E+00 0.  1.
</event>
<event>
 5    1  0.1724235E-003  0.9118800E+02  0.7818608E-02  0.1130116E+00
         25   -1    0    0    0    0  0.00000000000E+00  0.00000000000E+00  0.99999998245E-14  0.12500000000E+03  0.12500000000E+03 0.  0.
        -13    1    3    3    0    0  0.54921691987E+02  0.19358406689E+02 -0.16939362518E+02  0.60647286228E+02  0.10566000000E+00 0.  1.
         23    2    1    0    0    0  0.29419945084E+02  0.24483083335E+01 -0.30223342057E+00  0.95476810344E+02  0.90797591301E+02 0.  0.
         13    1    3    3    0    0 -0.25501746903E+02 -0.16910098355E+02  0.16637129097E+02  0.34829524116E+02  0.10566000000E+00 0. -1.
         22    1    1    0    0    0 -0.29419945084E+02 -0.24483083335E+01  0.30223342057E+00  0.29523189656E+02  0.00000000000E+00 0.  1.
</event>
<event>
 5    1  0.1724235E-003  0.9118800E+02  0.7818608E-02  0.1130116E+00
         25   -1    0    0    0    0  0.00000000000E+00  0.00000000000E+00  0.99999998245E-14  0.12500000000E+03  0.12500000000E+03 0.  0.
        -13    1    3    3    0    0  0.32449392240E+02  0.42908519469E+02  0.20023507417E+02  0.57402579324E+02  0.10566000000E+00 0.  1.
         23    2    1    0    0    0  0.28097259651E+02  0.84537844880E+01  0.50262220918E+01  0.95231134040E+02  0.90458739268E+02 0.  0.
         13    1    3    3    0    0 -0.43521325898E+01 -0.34454734981E+02 -0.14997285325E+02  0.37828554715E+02  0.10566000000E+00 0. -1.
         22    1    1    0    0    0 -0.28097259651E+02 -0.84537844880E+01 -0.50262220918E+01  0.29768865960E+02  0.00000000000E+00 0. -1.
</event>
<event>
 5    1  0.1724235E-003  0.9118800E+02  0.7818608E-02  0.1130116E+00
         25   -1    0    0    0    0  0.00000000000E+00  0.00000000000E+00  0.99999998245E-14  0.12500000000E+03  0.12500000000E+03 0.  0.
        -13    1    3    3    0    0  0.78010120574E+01  0.37681297405E+02  0.17975488424E+01  0.38522439033E+02  0.10566000000E+00 0.  1.
         23    2    1    0    0    0 -0.20609045645E+02 -0.11214659653E+02  0.15715357513E+02  0.96760421120E+02  0.92547854000E+02 0.  0.
         13    1    3    3    0    0 -0.28410057703E+02 -0.48895957058E+02  0.13917808670E+02  0.58237982087E+02  0.10566000000E+00 0. -1.
         22    1    1    0    0    0  0.20609045645E+02  0.11214659653E+02 -0.15715357513E+02  0.28239578880E+02  0.00000000000E+00 0. -1.
</event>
<event>
 5    1  0.1724235E-003  0.9118800E+02  0.7818608E-02  0.1130116E+00
         25   -1    0    0    0    0  0.00000000000E+00  0.00000000000E+00  0.99999998245E-14  0.12500000000E+03  0.12500000000E+03 0.  0.
        -13    1    3    3    0    0 -0.33676989346E+02  0.17781163900E+02 -0.83269634918E+01  0.38982802440E+02  0.10566000000E+00 0.  1.
         23    2    1    0    0    0  0.34403362441E+01 -0.29847029696E+01  0.29044582586E+02  0.95600473764E+02  0.90967678001E+02 0.  0.
         13    1    3    3    0    0  0.37117325590E+02 -0.20765866870E+02  0.37371546078E+02  0.56617671324E+02  0.10566000000E+00 0. -1.
         22    1    1    0    0    0 -0.34403362441E+01  0.29847029696E+01 -0.29044582586E+02  0.29399526236E+02  0.00000000000E+00 0. -1.
</event>
<event>
 5    1  0.1724235E-003  0.9118800E+02  0.7818608E-02  0.1130116E+00
         25   -1    0    0    0    0  0.00000000000E+00  0.00000000000E+00  0.99999998245E-14  0.12500000000E+03  0.12500000000E+03 0.  0.
        -13    1    3    3    0    0 -0.22442703677E+02 -0.18272728813E+02 -0.29634743164E+02  0.41422176826E+02  0.10566000000E+00 0.  1.
         23    2    1    0    0    0  0.26140167948E+02 -0.29614561721E+01 -0.16207604133E+02  0.94100727601E+02  0.88882967437E+02 0.  0.
         13    1    3    3    0    0  0.48582871625E+02  0.15311272640E+02  0.13427139031E+02  0.52678550775E+02  0.10566000000E+00 0. -1.
         22    1    1    0    0    0 -0.26140167948E+02  0.29614561721E+01  0.16207604133E+02  0.30899272399E+02  0.00000000000E+00 0. -1.
</event>
<event>
 5    1  0.1724235E-003  0.9118800E+02  0.7818608E-02  0.1130116E+00
         25   -1    0    0    0    0  0.00000000000E+00  0.00000000000E+00  0.99999998245E-14  0.12500000000E+03  0.12500000000E+03 0.  0.
        -13    1    3    3    0    0  0.13866149907E+02 -0.48323630234E+02 -0.26996892032E+02  0.57063882585E+02  0.10566000000E+00 0.  1.
         23    2    1    0    0    0  0.15543540443E+02 -0.24951479651E+02  0.33590185221E+01  0.95411809929E+02  0.90708061837E+02 0.  0.
         13    1    3    3    0    0  0.16773905362E+01  0.23372150584E+02  0.30355910554E+02  0.38347927343E+02  0.10566000000E+00 0. -1.
         22    1    1    0    0    0 -0.15543540443E+02  0.24951479651E+02 -0.33590185221E+01  0.29588190071E+02  0.00000000000E+00 0.  1.
</event>
<event>
 5    1  0.1724235E-003  0.9118800E+02  0.7818608E-02  0.1130116E+00
         25   -1    0    0    0    0  0.00000000000E+00  0.00000000000E+00  0.99999998245E-14  0.12500000000E+03  0.12500000000E+03 0.  0.
        -13    1    3    3    0    0 -0.39433395094E+01 -0.34860105553E+02 -0.62910339444E+01  0.35642182282E+02  0.10566000000E+00 0. -1.
         23    2    1    0    0    0 -0.18739488748E+02  0.21317490616E+02  0.80844447143E+01  0.95487933128E+02  0.90812902619E+02 0.  0.
         13    1    3    3    0    0 -0.14796149239E+02  0.56177596169E+02  0.14375478659E+02  0.59845750846E+02  0.10566000000E+00 0.  1.
         22    1    1    0    0    0  0.18739488748E+02 -0.21317490616E+02 -0.80844447143E+01  0.29512066872E+02  0.00000000000E+00 0.  1.
</event>
<event>
 4    1  0.1724235E-003  0.9118800E+02  0.7818608E-02  0.1130116E+00
         25   -1    0    0    0    0  0.00000000000E+00  0.00000000000E+00  0.99999998245E-14  0.12500000000E+03  0.12500000000E+03 0.  0.
        -13    1    1    0    0    0  0.49474446484E+00  0.44449250292E+02 -0.27283941786E+02  0.52157504417E+02  0.10566000000E+00 0.  1.
         13    1    1    0    0    0 -0.45183131757E+01 -0.14097056313E+02 -0.14711608132E+02  0.20870666701E+02  0.10566000000E+00 0. -1.
         22    1    1    0    0    0  0.40235687108E+01 -0.30352193979E+02  0.41995549918E+02  0.51971828882E+02  0.00000000000E+00 0.  1.
</event>
<event>
 5    1  0.1724235E-003  0.9118800E+02  0.7818608E-02  0.1130116E+00
         25   -1    0    0    0    0  0.00000000000E+00  0.00000000000E+00  0.99999998245E-14  0.12500000000E+03  0.12500000000E+03 0.  0.
        -13    1    3    3    0    0  0.28215423498E+02  0.14388086135E+02 -0.28956272783E+02  0.42913914332E+02  0.10566000000E+00 0. -1.
         23    2    1    0    0    0 -0.10905898610E+02  0.18720469615E+02  0.12424652871E+02  0.10002468006E+03  0.96856440236E+02 0.  0.
         13    1    3    3    0    0 -0.39121322108E+02  0.43323834795E+01  0.41380925654E+02  0.57110765729E+02  0.10566000000E+00 0.  1.
         22    1    1    0    0    0  0.10905898610E+02 -0.18720469615E+02 -0.12424652871E+02  0.24975319939E+02  0.00000000000E+00 0.  1.
</event>
<event>
 5    1  0.1724235E-003  0.9118800E+02  0.7818608E-02  0.1130116E+00
         25   -1    0    0    0    0  0.00000000000E+00  0.00000000000E+00  0.99999998245E-14  0.12500000000E+03  0.12500000000E+03 0.  0.
        -13    1    3    3    0    0 -0.26719360681E+02  0.42847654367E+02 -0.20396221792E+02  0.54459735102E+02  0.10566000000E+00 0. -1.
         23    2    1    0    0    0 -0.14629667940E+02  0.23225854916E+02  0.12671643499E+02  0.94766937476E+02  0.89815000801E+02 0.  0.
         13    1    3    3    0    0  0.12089692741E+02 -0.19621799451E+02  0.33067865291E+02  0.40307202374E+02  0.10566000000E+00 0.  1.
         22    1    1    0    0    0  0.14629667940E+02 -0.23225854916E+02 -0.12671643499E+02  0.30233062524E+02  0.00000000000E+00 0. -1.
</event>
<event>
 5    1  0.1724235E-003  0.9118800E+02  0.7818608E-02  0.1130116E+00
         25   -1    0    0    0    0  0.00000000000E+00  0.00000000000E+00  0.99999998245E-14  0.12500000000E+03  0.12500000000E+03 0.  0.
        -13    1    3    3    0    0 -0.14121220230E+02  0.59555788579E+02  0.97232476323E+01  0.61974619988E+02  0.10566000000E+00 0.  1.
         23    2    1    0    0    0 -0.16545851714E+01  0.30666966590E+02  0.30619219407E+01  0.94136172339E+02  0.88932800950E+02 0.  0.
         13    1    3    3    0    0  0.12466635059E+02 -0.28888821990E+02 -0.66613256916E+01  0.32161552351E+02  0.10566000000E+00 0. -1.
         22    1    1    0    0    0  0.16545851714E+01 -0.30666966590E+02 -0.30619219407E+01  0.30863827661E+02  0.00000000000E+00 0.  1.
</event>
<event>
 5    1  0.1724235E-003  0.9118800E+02  0.7818608E-02  0.1130116E+00
         25   -1    0    0    0    0  0.00000000000E+00  0.00000000000E+00  0.99999998245E-14  0.12500000000E+03  0.12500000000E+03 0.  0.
        -13    1    3    3    0    0 -0.37059187413E+02 -0.27262068239E+02 -0.33030930748E+02  0.56636183544E+02  0.10566000000E+00 0. -1.
         23    2    1    0    0    0 -0.19311207508E+02 -0.19412687538E+02  0.28917016699E+01  0.97465710262E+02  0.93495601851E+02 0.  0.
         13    1    3    3    0    0  0.17747979905E+02  0.78493807007E+01  0.35922632418E+02  0.40829526718E+02  0.10566000000E+00 0.  1.
         22    1    1    0    0    0  0.19311207508E+02  0.19412687538E+02 -0.28917016699E+01  0.27534289738E+02  0.00000000000E+00 0.  1.
</event>
<event>
 5    1  0.1724235E-003  0.9118800E+02  0.7818608E-02  0.1130116E+00
         25   -1    0    0    0    0  0.00000000000E+00  0.00000000000E+00  0.99999998245E-14  0.12500000000E+03  0.12500000000E+03 0.  0.
        -13    1    3    3    0    0 -0.14218637545E+02  0.20243453871E+02 -0.34671662958E+02  0.42592281631E+02  0.10566000000E+00 0. -1.
         23    2    1    0    0    0  0.13976465140E+02  0.23395405459E+02  0.10384128094E+02  0.95836380700E+02  0.91291265600E+02 0.  0.
         13    1    3    3    0    0  0.28195102685E+02  0.31519515878E+01  0.45055791052E+02  0.53244099068E+02  0.10566000000E+00 0.  1.
         22    1    1    0    0    0 -0.13976465140E+02 -0.23395405459E+02 -0.10384128094E+02  0.29163619300E+02  0.00000000000E+00 0. -1.
</event>
<event>
 5    1  0.1724235E-003  0.9118800E+02  0.7818608E-02  0.1130116E+00
         25   -1    0    0    0    0  0.00000000000E+00  0.00000000000E+00  0.99999998245E-14  0.12500000000E+03  0.12500000000E+03 0.  0.
        -13    1    3    3    0    0  0.27576915651E+01 -0.32651621417E+02  0.98309634575E+01  0.34210996046E+02  0.10566000000E+00 0. -1.
         23    2    1    0    0    0 -0.76231551076E+01  0.21781824135E+02 -0.17537049818E+02  0.96015375235E+02  0.91536024650E+02 0.  0.
         13    1    3    3    0    0 -0.10380846673E+02  0.54433445552E+02 -0.27368013275E+02  0.61804379189E+02  0.10566000000E+00 0.  1.
         22    1    1    0    0    0  0.76231551076E+01 -0.21781824135E+02  0.17537049818E+02  0.28984624765E+02  0.00000000000E+00 0.  1.
</event>
<event>
 5    1  0.1724235E-003  0.9118800E+02  0.7818608E-02  0.1130116E+00
         25   -1    0    0    0    0  0.00000000000E+00  0.00000000000E+00  0.99999998245E-14  0.12500000000E+03  0.12500000000E+03 0.  0.
        -13    1    3    3    0    0  0.98156491948E+01  0.12957073297E+02 -0.40274096447E+02  0.43430942036E+02  0.10566000000E+00 0.  1.
         23    2    1    0    0    0  0.28595746423E+02 -0.50487812778E+01  0.48901054014E+01  0.95553098011E+02  0.90902554985E+02 0.  0.
         13    1    3    3    0    0  0.18780097228E+02 -0.18005854575E+02  0.45164201848E+02  0.52122155975E+02  0.10566000000E+00 0. -1.
         22    1    1    0    0    0 -0.28595746423E+02  0.50487812778E+01 -0.48901054014E+01  0.29446901989E+02  0.00000000000E+00 0. -1.
</event>
<event>
 5    1  0.1724235E-003  0.9118800E+02  0.7818608E-02  0.1130116E+00
         25   -1    0    0    0    0  0.00000000000E+00  0.00000000000E+00  0.99999998245E-14  0.12500000000E+03  0.12500000000E+03 0.  0.
        -13    1    3    3    0    0 -0.12333475843E+02 -0.35081140857E+02  0.43200370111E+02  0.57000738696E+02  0.10566000000E+00 0.  1.
         23    2    1    0    0    0 -0.59511795627E+01 -0.26969268871E+02  0.45451266322E+01  0.97010427340E+02  0.92884911772E+02 0.  0.
         13    1    3    3    0    0  0.63822962800E+01  0.81118719860E+01 -0.38655243479E+02  0.40009688644E+02  0.10566000000E+00 0. -1.
         22    1    1    0    0    0  0.59511795627E+01  0.26969268871E+02 -0.45451266322E+01  0.27989572660E+02  0.00000000000E+00 0.  1.
</event>
<event>
 5    1  0.1724235E-003  0.9118800E+02  0.7818608E-02  0.1130116E+00
         25   -1    0    0    0    0  0.00000000000E+00  0.00000000000E+00  0.99999998245E-14  0.12500000000E+03  0.12500000000E+03 0.  0.
        -13    1    3    3    0    0  0.48607027690E+02  0.68686246456E+01  0.17829972297E+02  0.52227772512E+02  0.10566000000E+00 0.  1.
         23    2    1    0    0    0  0.13918303219E+02 -0.17728553828E+02  0.20082259894E+02  0.94811956874E+02  0.89877634695E+02 0.  0.
         13    1    3    3    0    0 -0.34688724471E+02 -0.24597178474E+02  0.22522875971E+01  0.42584184362E+02  0.10566000000E+00 0. -1.
         22    1    1    0    0    0 -0.13918303219E+02  0.17728553828E+02 -0.20082259894E+02  0.30188043126E+02  0.00000000000E+00 0. -1.
</event>
<event>
 5    1  0.1724235E-003  0.9118800E+02  0.7818608E-02  0.1130116E+00
         25   -1    0    0    0    0  0.00000000000E+00  0.00000000000E+00  0.99999998245E-14  0.12500000000E+03  0.12500000000E+03 0.  0.
        -13    1    3    3    0    0  0.43899139354E+01  0.35566691280E+02  0.35535604969E+02  0.50468319345E+02  0.10566000000E+00 0. -1.
         23    2    1    0    0    0  0.12203802140E+02 -0.73207663487E+01  0.26399531502E+02  0.95008973507E+02  0.90151225043E+02 0.  0.
         13    1    3    3    0    0  0.78138882044E+01 -0.42887457629E+02 -0.91360734669E+01  0.44540654162E+02  0.10566000000E+00 0.  1.
         22    1    1    0    0    0 -0.12203802140E+02  0.73207663487E+01 -0.26399531502E+02  0.29991026493E+02  0.00000000000E+00 0.  1.
</event>
<event>
 5    1  0.1724235E-003  0.9118800E+02  0.7818608E-02  0.1130116E+00
         25   -1    0    0    0    0  0.00000000000E+00  0.00000000000E+00  0.99999998245E-14  0.12500000000E+03  0.12500000000E+03 0.  0.
        -13    1    3    3    0    0 -0.23404425638E+00 -0.29507945928E+02  0.40744524239E+02  0.50308061671E+02  0.10566000000E+00 0. -1.
         23    2    1    0    0    0 -0.19531069856E+02 -0.20838554015E+02 -0.24883384932E+00  0.96438313399E+02  0.92111770962E+02 0.  0.
         13    1    3    3    0    0 -0.19297025600E+02  0.86693919124E+01 -0.40993358088E+02  0.46130251728E+02  0.10566000000E+00 0.  1.
         22    1    1    0    0    0  0.19531069856E+02  0.20838554015E+02  0.24883384932E+00  0.28561686601E+02  0.00000000000E+00 0. -1.
</event>
<event>
 5    1  0.1724235E-003  0.9118800E+02  0.7818608E-02  0.1130116E+00
         25   -1    0    0    0    0  0.00000000000E+00  0.00000000000E+00  0.99999998245E-14  0.12500000000E+03  0.12500000000E+03 0.  0.
        -13    1    3    3    0    0  0.36108328790E+02  0.26485553658E+02  0.13957623190E+02  0.46905462046E+02  0.10566000000E+00 0. -1.
         23    2    1    0    0    0  0.20200261814E+02 -0.28487997207E+01 -0.21338332715E+02  0.95478979011E+02  0.90800576830E+02 0.  0.
         13    1    3    3    0    0 -0.15908066976E+02 -0.29334353378E+02 -0.35295955905E+02  0.48573516965E+02  0.10566000000E+00 0.  1.
         22    1    1    0    0    0 -0.20200261814E+02  0.28487997207E+01  0.21338332715E+02  0.29521020989E+02  0.00000000000E+00 0.  1.
</event>
<event>
 5    1  0.1724235E-003  0.9118800E+02  0.7818608E-02  0.1130116E+00
         25   -1    0    0    0    0  0.00000000000E+00  0.00000000000E+00  0.99999998245E-14  0.12500000000E+03  0.12500000000E+03 0.  0.
        -13    1    3    3    0    0  0.30296338075E+02  0.95581749044E+01 -0.47760866632E+02  0.57361470986E+02  0.10566000000E+00 0. -1.
         23    2    1    0    0    0  0.25475188810E+02 -0.33023205526E+01 -0.10189629305E+02  0.97364531643E+02  0.93360231955E+02 0.  0.
         13    1    3    3    0    0 -0.48211492653E+01 -0.12860495457E+02  0.37571237327E+02  0.40003060657E+02  0.10566000000E+00 0.  1.
         22    1    1    0    0    0 -0.25475188810E+02  0.33023205526E+01  0.10189629305E+02  0.27635468357E+02  0.00000000000E+00 0. -1.
</event>
<event>
 5    1  0.1724235E-003  0.9118800E+02  0.7818608E-02  0.1130116E+00
         25   -1    0    0    0    0  0.00000000000E+00  0.00000000000E+00  0.99999998245E-14  0.12500000000E+03  0.12500000000E+03 0.  0.
        -13    1    3    3    0    0 -0.34453846272E+01  0.19623157933E+02  0.53702575356E+02  0.57279287412E+02  0.10566000000E+00 0.  1.
         23    2    1    0    0    0 -0.57786155657E+01 -0.86151900034E+01  0.26431137740E+02  0.96606005233E+02  0.92339056245E+02 0.  0.
         13    1    3    3    0    0 -0.23332309385E+01 -0.28238347937E+02 -0.27271437617E+02  0.39326717820E+02  0.10566000000E+00 0. -1.
         22    1    1    0    0    0  0.57786155657E+01  0.86151900034E+01 -0.26431137740E+02  0.28393994767E+02  0.00000000000E+00 0.  1.
</event>
<event>
 5    1  0.1724235E-003  0.9118800E+02  0.7818608E-02  0.1130116E+00
         25   -1    0    0    0    0  0.00000000000E+00  0.00000000000E+00  0.99999998245E-14  0.12500000000E+03  0.12500000000E+03 0.  0.
        -13    1    3    3    0    0 -0.35969631709E+02 -0.21724386899E+02 -0.31870867829E+02  0.52740181756E+02  0.10566000000E+00 0. -1.
         23    2    1    0    0    0 -0.20610601634E+01  0.10445971537E+02 -0.22067240788E+02  0.10049837952E+03  0.97465865199E+02 0.  0.
         13    1    3    3    0    0  0.33908571545E+02  0.32170358435E+02  0.98036270409E+01  0.47758197760E+02  0.10566000000E+00 0.  1.
         22    1    1    0    0    0  0.20610601634E+01 -0.10445971537E+02  0.22067240788E+02  0.24501620484E+02  0.00000000000E+00 0. -1.
</event>
<event>
 5    1  0.1724235E-003  0.9118800E+02  0.7818608E-02  0.1130116E+00
         25   -1    0    0    0    0  0.00000000000E+00  0.00000000000E+00  0.99999998245E-14  0.12500000000E+03  0.12500000000E+03 0.  0.
        -13    1    3    3    0    0  0.36328893911E+02 -0.30844836883E+01  0.14604854475E+02  0.39276144295E+02  0.10566000000E+00 0.  1.
         23    2    1    0    0    0  0.51105863611E+01  0.19977318291E+02 -0.23546885040E+02  0.93700365272E+02  0.88318125648E+02 0.  0.
         13    1    3    3    0    0 -0.31218307550E+02  0.23061801979E+02 -0.38151739515E+02  0.54424220976E+02  0.10566000000E+00 0. -1.
         22    1    1    0    0    0 -0.51105863611E+01 -0.19977318291E+02  0.23546885040E+02  0.31299634728E+02  0.00000000000E+00 0. -1.
</event>
<event>
 5    1  0.1724235E-003  0.9118800E+02  0.7818608E-02  0.1130116E+00
         25   -1    0    0    0    0  0.00000000000E+00  0.00000000000E+00  0.99999998245E-14  0.12500000000E+03  0.12500000000E+03 0.  0.
        -13    1    3    3    0    0  0.28856230483E+02 -0.16288017010E+02  0.98308508456E+01  0.34563540446E+02  0.10566000000E+00 0.  1.
         23    2    1    0    0    0 -0.27790624225E+02  0.64496860627E+01  0.67604617636E+01  0.95680704504E+02  0.91077857496E+02 0.  0.
         13    1    3    3    0    0 -0.56646854708E+02  0.22737703073E+02 -0.30703890820E+01  0.61117164058E+02  0.10566000000E+00 0. -1.
         22    1    1    0    0    0  0.27790624225E+02 -0.64496860627E+01 -0.67604617636E+01  0.29319295496E+02  0.00000000000E+00 0. -1.
</event>
<event>
 5    1  0.1724235E-003  0.9118800E+02  0.7818608E-02  0.1130116E+00
         25   -1    0    0    0    0  0.00000000000E+00  0.00000000000E+00  0.99999998245E-14  0.12500000000E+03  0.12500000000E+03 0.  0.
        -13    1    3    3    0    0  0.11549278371E+01  0.16685323728E+02  0.42897174686E+02  0.46042509122E+02  0.10566000000E+00 0.  1.
         23    2    1    0    0    0 -0.28249101098E+01  0.36592109139E+02  0.64865550599E+01  0.87730200364E+02  0.79420086193E+02 0.  0.
         13    1    3    3    0    0 -0.39798379469E+01  0.19906785411E+02 -0.36410619626E+02  0.41687691241E+02  0.10566000000E+00 0. -1.
         22    1    1    0    0    0  0.28249101098E+01 -0.36592109139E+02 -0.64865550599E+01  0.37269799636E+02  0.00000000000E+00 0.  1.
</event>
<event>
 5    1  0.1724235E-003  0.9118800E+02  0.7818608E-02  0.1130116E+00
         25   -1    0    0    0    0  0.00000000000E+00  0.00000000000E+00  0.99999998245E-14  0.12500000000E+03  0.12500000000E+03 0.  0.
        -13    1    3    3    0    0 -0.34182670602E+02 -0.32562102122E+02  0.39351054236E+02  0.61459434569E+02  0.10566000000E+00 0. -1.
         23    2    1    0    0    0 -0.89290372399E+01 -0.19458634208E+02  0.15839052102E+02  0.98368407431E+02  0.94694782632E+02 0.  0.
         13    1    3    3    0    0  0.25253633362E+02  0.13103467914E+02 -0.23512002134E+02  0.36908972862E+02  0.10566000000E+00 0.  1.
         22    1    1    0    0    0  0.89290372399E+01  0.19458634208E+02 -0.15839052102E+02  0.26631592569E+02  0.00000000000E+00 0. -1.
</event>
<event>
 5    1  0.1724235E-003  0.9118800E+02  0.7818608E-02  0.1130116E+00
         25   -1    0    0    0    0  0.00000000000E+00  0.00000000000E+00  0.99999998245E-14  0.12500000000E+03  0.12500000000E+03 0.  0.
        -13    1    3    3    0    0 -0.31578714900E+02 -0.15958010280E+02  0.31976589511E+02  0.47690531216E+02  0.10566000000E+00 0. -1.
         23    2    1    0    0    0 -0.93713492059E+01  0.23168882230E+02  0.15437863956E+02  0.95624041577E+02  0.91000057112E+02 0.  0.
         13    1    3    3    0    0  0.22207365695E+02  0.39126892510E+02 -0.16538725555E+02  0.47933510361E+02  0.10566000000E+00 0.  1.
         22    1    1    0    0    0  0.93713492059E+01 -0.23168882230E+02 -0.15437863956E+02  0.29375958423E+02  0.00000000000E+00 0. -1.
</event>
<event>
 5    1  0.1724235E-003  0.9118800E+02  0.7818608E-02  0.1130116E+00
         25   -1    0    0    0    0  0.00000000000E+00  0.00000000000E+00  0.99999998245E-14  0.12500000000E+03  0.12500000000E+03 0.  0.
        -13    1    3    3    0    0  0.33954464523E+02 -0.36308290684E+01  0.23435122926E+02  0.41416237533E+02  0.10566000000E+00 0.  1.
         23    2    1    0    0    0 -0.19862648842E+02 -0.94855518109E+01  0.19328980047E+02  0.95706485669E+02  0.91113234040E+02 0.  0.
         13    1    3    3    0    0 -0.53817113365E+02 -0.58547227425E+01 -0.41061428793E+01  0.54290248137E+02  0.10566000000E+00 0. -1.
         22    1    1    0    0    0  0.19862648842E+02  0.94855518109E+01 -0.19328980047E+02  0.29293514331E+02  0.00000000000E+00 0. -1.
</event>
<event>
 5    1  0.1724235E-003  0.9118800E+02  0.7818608E-02  0.1130116E+00
         25   -1    0    0    0    0  0.00000000000E+00  0.00000000000E+00  0.99999998245E-14  0.12500000000E+03  0.12500000000E+03 0.  0.
        -13    1    3    3    0    0  0.66145059816E+00 -0.28326075678E+02  0.15620773385E+02  0.32354656626E+02  0.10566000000E+00 0.  1.
         23    2    1    0    0    0 -0.28379815661E+01  0.26724189658E+02 -0.13711247866E+02  0.94829902714E+02  0.89902589943E+02 0.  0.
         13    1    3    3    0    0 -0.34994321643E+01  0.55050265336E+02 -0.29332021251E+02  0.62475246088E+02  0.10566000000E+00 0. -1.
         22    1    1    0    0    0  0.28379815661E+01 -0.26724189658E+02  0.13711247866E+02  0.30170097286E+02  0.00000000000E+00 0. -1.
</event>
<event>
 5    1  0.1724235E-003  0.9118800E+02  0.7818608E-02  0.1130116E+00
         25   -1    0    0    0    0  0.00000000000E+00  0.00000000000E+00  0.99999998245E-14  0.12500000000E+03  0.12500000000E+03 0.  0.
        -13    1    3    3    0    0 -0.48125507124E+02 -0.51848328429E-01  0.10393328497E+01  0.48136872571E+02  0.10566000000E+00 0. -1.
         23    2    1    0    0    0 -0.83956252471E+01 -0.19884899123E+01  0.27676895753E+02  0.96009464062E+02  0.91527952099E+02 0.  0.
         13    1    3    3    0    0  0.39729881876E+02 -0.19366415839E+01  0.26637562904E+02  0.47872591491E+02  0.10566000000E+00 0.  1.
         22    1    1    0    0    0  0.83956252471E+01  0.19884899123E+01 -0.27676895753E+02  0.28990535938E+02  0.00000000000E+00 0. -1.
</event>
<event>
 5    1  0.1724235E-003  0.9118800E+02  0.7818608E-02  0.1130116E+00
         25   -1    0    0    0    0  0.00000000000E+00  0.00000000000E+00  0.99999998245E-14  0.12500000000E+03  0.12500000000E+03 0.  0.
        -13    1    3    3    0    0  0.86058671408E+01 -0.23657008835E+01  0.53690404366E+02  0.54427274183E+02  0.10566000000E+00 0.  1.
         23    2    1    0    0    0 -0.32629645563E+01 -0.21666764415E+02  0.18288803811E+02  0.96459222808E+02  0.92140141642E+02 0.  0.
         13    1    3    3    0    0 -0.11868831697E+02 -0.19301063531E+02 -0.35401600555E+02  0.42031948625E+02  0.10566000000E+00 0. -1.
         22    1    1    0    0    0  0.32629645563E+01  0.21666764415E+02 -0.18288803811E+02  0.28540777192E+02  0.00000000000E+00 0. -1.
</event>
<event>
 5    1  0.1724235E-003  0.9118800E+02  0.7818608E-02  0.1130116E+00
         25   -1    0    0    0    0  0.00000000000E+00  0.00000000000E+00  0.99999998245E-14  0.12500000000E+03  0.12500000000E+03 0.  0.
        -13    1    3    3    0    0 -0.26975259384E+02  0.32054792564E+02 -0.13578689356E+02  0.44040507647E+02  0.10566000000E+00 0.  1.
         23    2    1    0    0    0 -0.17262501875E+02  0.16936792010E+02  0.27200512927E+02  0.88603340839E+02  0.80782641760E+02 0.  0.
         13    1    3    3    0    0  0.97127575089E+01 -0.15118000554E+02  0.40779202283E+02  0.44562833192E+02  0.10566000000E+00 0. -1.
         22    1    1    0    0    0  0.17262501875E+02 -0.16936792010E+02 -0.27200512927E+02  0.36396659161E+02  0.00000000000E+00 0.  1.
</event>
<event>
 5    1  0.1724235E-003  0.9118800E+02  0.7818608E-02  0.1130116E+00
         25   -1    0    0    0    0  0.00000000000E+00  0.00000000000E+00  0.99999998245E-14  0.12500000000E+03  0.12500000000E+03 0.  0.
        -13    1    3    3    0    0 -0.51674876168E+01  0.46772291209E+01 -0.34879863937E+02  0.35569586346E+02  0.10566000000E+00 0. -1.
         23    2    1    0    0    0  0.13286094505E+02 -0.14327207088E+02  0.20328129054E+02  0.96803865496E+02  0.92606513669E+02 0.  0.
         13    1    3    3    0    0  0.18453582122E+02 -0.19004436209E+02  0.55207992992E+02  0.61234279149E+02  0.10566000000E+00 0.  1.
         22    1    1    0    0    0 -0.13286094505E+02  0.14327207088E+02 -0.20328129054E+02  0.28196134504E+02  0.00000000000E+00 0.  1.
</event>
<event>
 5    1  0.1724235E-003  0.9118800E+02  0.7818608E-02  0.1130116E+00
         25   -1    0    0    0    0  0.00000000000E+00  0.00000000000E+00  0.99999998245E-14  0.12500000000E+03  0.12500000000E+03 0.  0.
        -13    1    3    3    0    0 -0.80122188082E+01 -0.29466285148E+02  0.18263375406E+02  0.35581169963E+02  0.10566000000E+00 0.  1.
         23    2    1    0    0    0  0.22581150035E+02  0.19109444847E+02  0.15236125221E+01  0.95379051089E+02  0.90662907367E+02 0.  0.
         13    1    3    3    0    0  0.30593368843E+02  0.48575729996E+02 -0.16739762884E+02  0.59797881126E+02  0.10566000000E+00 0. -1.
         22    1    1    0    0    0 -0.22581150035E+02 -0.19109444847E+02 -0.15236125221E+01  0.29620948911E+02  0.00000000000E+00 0. -1.
</event>
<event>
 5    1  0.1724235E-003  0.9118800E+02  0.7818608E-02  0.1130116E+00
         25   -1    0    0    0    0  0.00000000000E+00  0.00000000000E+00  0.99999998245E-14  0.12500000000E+03  0.12500000000E+03 0.  0.
        -13    1    3    3    0    0 -0.24089037943E+02 -0.19583425035E+02  0.30577690995E+02  0.43575206663E+02  0.10566000000E+00 0. -1.
         23    2    1    0    0    0 -0.23584954603E+02  0.19871111170E+02 -0.10465239523E+01  0.94142158936E+02  0.88941215047E+02 0.  0.
         13    1    3    3    0    0  0.50408333954E+00  0.39454536204E+02 -0.31624214947E+02  0.50566952273E+02  0.10566000000E+00 0.  1.
         22    1    1    0    0    0  0.23584954603E+02 -0.19871111170E+02  0.10465239523E+01  0.30857841064E+02  0.00000000000E+00 0.  1.
</event>
<event>
 5    1  0.1724235E-003  0.9118800E+02  0.7818608E-02  0.1130116E+00
         25   -1    0    0    0    0  0.00000000000E+00  0.00000000000E+00  0.99999998245E-14  0.12500000000E+03  0.12500000000E+03 0.  0.
        -13    1    3    3    0    0  0.94101654066E+01 -0.42174363444E+02  0.88399808245E+01  0.44106513917E+02  0.10566000000E+00 0.  1.
         23    2    1    0    0    0 -0.29676492817E+00 -0.66774108961E+01 -0.28020910946E+02  0.96192929063E+02  0.91778168787E+02 0.  0.
         13    1    3    3    0    0 -0.97069303348E+01  0.35496952548E+02 -0.36860891770E+02  0.52086415147E+02  0.10566000000E+00 0. -1.
         22    1    1    0    0    0  0.29676492817E+00  0.66774108961E+01  0.28020910946E+02  0.28807070937E+02  0.00000000000E+00 0.  1.
</event>
<event>
 5    1  0.1724235E-003  0.9118800E+02  0.7818608E-02  0.1130116E+00
         25   -1    0    0    0    0  0.00000000000E+00  0.00000000000E+00  0.99999998245E-14  0.12500000000E+03  0.12500000000E+03 0.  0.
        -13    1    3    3    0    0  0.13926736567E+02 -0.24899834034E+02  0.23428875064E+02  0.36917192162E+02  0.10566000000E+00 0.  1.
         23    2    1    0    0    0 -0.68228093565E+01 -0.54242121788E+01 -0.27989127179E+02  0.95685088342E+02  0.91083873905E+02 0.  0.
         13    1    3    3    0    0 -0.20749545924E+02  0.19475621855E+02 -0.51418002243E+02  0.58767896180E+02  0.10566000000E+00 0. -1.
         22    1    1    0    0    0  0.68228093565E+01  0.54242121788E+01  0.27989127179E+02  0.29314911658E+02  0.00000000000E+00 0. -1.
</event>
<event>
 5    1  0.1724235E-003  0.9118800E+02  0.7818608E-02  0.1130116E+00
         25   -1    0    0    0    0  0.00000000000E+00  0.00000000000E+00  0.99999998245E-14  0.12500000000E+03  0.12500000000E+03 0.  0.
        -13    1    3    3    0    0  0.35189556700E+02 -0.23210054276E+02  0.30124672696E+02  0.51812340126E+02  0.10566000000E+00 0. -1.
         23    2    1    0    0    0 -0.53866699135E+01 -0.51470248900E+01  0.27723939652E+02  0.96292424209E+02  0.91913579259E+02 0.  0.
         13    1    3    3    0    0 -0.40576226614E+02  0.18063029386E+02 -0.24007330442E+01  0.44480084083E+02  0.10566000000E+00 0.  1.
         22    1    1    0    0    0  0.53866699135E+01  0.51470248900E+01 -0.27723939652E+02  0.28707575791E+02  0.00000000000E+00 0. -1.
</event>
<event>
 5    1  0.1724235E-003  0.9118800E+02  0.7818608E-02  0.1130116E+00
         25   -1    0    0    0    0  0.00000000000E+00  0.00000000000E+00  0.99999998245E-14  0.12500000000E+03  0.12500000000E+03 0.  0.
        -13    1    3    3    0    0 -0.28710581082E+02  0.41325132024E+02  0.17920199965E+02  0.53415435350E+02  0.10566000000E+00 0.  1.
         23    2    1    0    0    0  0.42185818397E+01  0.16824018323E+02  0.24497790949E+02  0.94983574719E+02  0.90116001241E+02 0.  0.
         13    1    3    3    0    0  0.32929162922E+02 -0.24501113701E+02  0.65775909847E+01  0.41568139368E+02  0.10566000000E+00 0. -1.
         22    1    1    0    0    0 -0.42185818397E+01 -0.16824018323E+02 -0.24497790949E+02  0.30016425281E+02  0.00000000000E+00 0.  1.
</event>
<event>
 5    1  0.1724235E-003  0.9118800E+02  0.7818608E-02  0.1130116E+00
         25   -1    0    0    0    0  0.00000000000E+00  0.00000000000E+00  0.99999998245E-14  0.12500000000E+03  0.12500000000E+03 0.  0.
        -13    1    3    3    0    0  0.43496790752E+02 -0.17120631447E+02  0.16580110853E+02  0.49598367582E+02  0.10566000000E+00 0.  1.
         23    2    1    0    0    0  0.20650486775E+02  0.15903549539E+02 -0.92471567404E+01  0.97343619185E+02  0.93332228069E+02 0.  0.
         13    1    3    3    0    0 -0.22846303977E+02  0.33024180987E+02 -0.25827267593E+02  0.47745251603E+02  0.10566000000E+00 0. -1.
         22    1    1    0    0    0 -0.20650486775E+02 -0.15903549539E+02  0.92471567404E+01  0.27656380815E+02  0.00000000000E+00 0.  1.
</event>
<event>
 5    1  0.1724235E-003  0.9118800E+02  0.7818608E-02  0.1130116E+00
         25   -1    0    0    0    0  0.00000000000E+00  0.00000000000E+00  0.99999998245E-14  0.12500000000E+03  0.12500000000E+03 0.  0.
        -13    1    3    3    0    0  0.47457821601E+02  0.15098542177E+02  0.25623448071E+02  0.56006991190E+02  0.10566000000E+00 0.  1.
         23    2    1    0    0    0  0.21471268707E+02  0.21695667954E+02 -0.18823518954E+01  0.94417968732E+02  0.89328003352E+02 0.  0.
         13    1    3    3    0    0 -0.25986552895E+02  0.65971257770E+01 -0.27505799967E+02  0.38410977542E+02  0.10566000000E+00 0. -1.
         22    1    1    0    0    0 -0.21471268707E+02 -0.21695667954E+02  0.18823518954E+01  0.30582031268E+02  0.00000000000E+00 0.  1.
</event>
<event>
 5    1  0.1724235E-003  0.9118800E+02  0.7818608E-02  0.1130116E+00
         25   -1    0    0    0    0  0.00000000000E+00  0.00000000000E+00  0.99999998245E-14  0.12500000000E+03  0.12500000000E+03 0.  0.
        -13    1    3    3    0    0 -0.54505404380E+02  0.52465980839E+01 -0.15293822130E+02  0.56853127068E+02  0.10566000000E+00 0.  1.
         23    2    1    0    0    0 -0.18203524312E+02 -0.83966437081E+01 -0.20903034009E+02  0.96037804749E+02  0.91566648881E+02 0.  0.
         13    1    3    3    0    0  0.36301880068E+02 -0.13643241792E+02 -0.56092118796E+01  0.39184677681E+02  0.10566000000E+00 0. -1.
         22    1    1    0    0    0  0.18203524312E+02  0.83966437081E+01  0.20903034009E+02  0.28962195251E+02  0.00000000000E+00 0.  1.
</event>
<event>
 5    1  0.1724235E-003  0.9118800E+02  0.7818608E-02  0.1130116E+00
         25   -1    0    0    0    0  0.00000000000E+00  0.00000000000E+00  0.99999998245E-14  0.12500000000E+03  0.12500000000E+03 0.  0.
        -13    1    3    3    0    0  0.11071847512E+01 -0.17640631530E+02  0.34712386061E+02  0.38953544755E+02  0.10566000000E+00 0. -1.
         23    2    1    0    0    0  0.23385806021E+02  0.11347408004E+02 -0.10384870551E+02  0.97008838395E+02  0.92882773423E+02 0.  0.
         13    1    3    3    0    0  0.22278621269E+02  0.28988039534E+02 -0.45097256612E+02  0.58055293640E+02  0.10566000000E+00 0.  1.
         22    1    1    0    0    0 -0.23385806021E+02 -0.11347408004E+02  0.10384870551E+02  0.27991161605E+02  0.00000000000E+00 0.  1.
</event>
<event>
 5    1  0.1724235E-003  0.9118800E+02  0.7818608E-02  0.1130116E+00
         25   -1    0    0    0    0  0.00000000000E+00  0.00000000000E+00  0.99999998245E-14  0.12500000000E+03  0.12500000000E+03 0.  0.
        -13    1    3    3    0    0 -0.29334452346E+02  0.17660512253E+02 -0.14473286901E+02  0.37173794335E+02  0.10566000000E+00 0. -1.
         23    2    1    0    0    0 -0.22362752301E+01 -0.25086644677E+02  0.14943570706E+02  0.95714321358E+02  0.91123983339E+02 0.  0.
         13    1    3    3    0    0  0.27098177116E+02 -0.42747156930E+02  0.29416857607E+02  0.58540527023E+02  0.10566000000E+00 0.  1.
         22    1    1    0    0    0  0.22362752301E+01  0.25086644677E+02 -0.14943570706E+02  0.29285678642E+02  0.00000000000E+00 0.  1.
</event>
<event>
 5    1  0.1724235E-003  0.9118800E+02  0.7818608E-02  0.1130116E+00
         25   -1    0    0    0    0  0.00000000000E+00  0.00000000000E+00  0.99999998245E-14  0.12500000000E+03  0.12500000000E+03 0.  0.
        -13    1    3    3    0    0 -0.30332278050E+02  0.35852037663E+02  0.27379276483E+02  0.54360386690E+02  0.10566000000E+00 0.  1.
         23    2    1    0    0    0 -0.13570949159E+02  0.23589029931E+02 -0.90723530328E+01  0.96313407597E+02  0.91942111675E+02 0.  0.
         13    1    3    3    0    0  0.16761328892E+02 -0.12263007732E+02 -0.36451629516E+02  0.41953020907E+02  0.10566000000E+00 0. -1.
         22    1    1    0    0    0  0.13570949159E+02 -0.23589029931E+02  0.90723530328E+01  0.28686592403E+02  0.00000000000E+00 0.  1.
</event>
<event>
 5    1  0.1724235E-003  0.9118800E+02  0.7818608E-02  0.1130116E+00
         25   -1    0    0    0    0  0.00000000000E+00  0.00000000000E+00  0.99999998245E-14  0.12500000000E+03  0.12500000000E+03 0.  0.
        -13    1    3    3    0    0 -0.37604109381E+02 -0.20645856189E+01 -0.10349141141E+02  0.39056976874E+02  0.10566000000E+00 0.  1.
         23    2    1    0    0    0  0.44921022880E+01  0.21570332117E+02  0.19297735043E+02  0.95710739368E+02  0.91119069585E+02 0.  0.
         13    1    3    3    0    0  0.42096211669E+02  0.23634917736E+02  0.29646876184E+02  0.56653762494E+02  0.10566000000E+00 0. -1.
         22    1    1    0    0    0 -0.44921022880E+01 -0.21570332117E+02 -0.19297735043E+02  0.29289260632E+02  0.00000000000E+00 0. -1.
</event>
<event>
 5    1  0.1724235E-003  0.9118800E+02  0.7818608E-02  0.1130116E+00
         25   -1    0    0    0    0  0.00000000000E+00  0.00000000000E+00  0.99999998245E-14  0.12500000000E+03  0.12500000000E+03 0.  0.
        -13    1    3    3    0    0  0.18382796413E+02  0.38700154867E+02  0.44786088016E+02  0.61979303275E+02  0.10566000000E+00 0. -1.
         23    2    1    0    0    0  0.98333958650E+01  0.16311365750E+02  0.27582597133E+02  0.91480513258E+02  0.85118319500E+02 0.  0.
         13    1    3    3    0    0 -0.85494005479E+01 -0.22388789116E+02 -0.17203490883E+02  0.29501209982E+02  0.10566000000E+00 0.  1.
         22    1    1    0    0    0 -0.98333958650E+01 -0.16311365750E+02 -0.27582597133E+02  0.33519486742E+02  0.00000000000E+00 0. -1.
</event>
<event>
 5    1  0.1724235E-003  0.9118800E+02  0.7818608E-02  0.1130116E+00
         25   -1    0    0    0    0  0.00000000000E+00  0.00000000000E+00  0.99999998245E-14  0.12500000000E+03  0.12500000000E+03 0.  0.
        -13    1    3    3    0    0 -0.50517253151E+01  0.25685588140E+02  0.66062968015E+01  0.26998586782E+02  0.10566000000E+00 0.  1.
         23    2    1    0    0    0 -0.21776983243E+02 -0.31146101254E+02  0.75749687569E+01  0.86248267469E+02  0.77052364449E+02 0.  0.
         13    1    3    3    0    0 -0.16725257928E+02 -0.56831689394E+02  0.96867195540E+00  0.59249680687E+02  0.10566000000E+00 0. -1.
         22    1    1    0    0    0  0.21776983243E+02  0.31146101254E+02 -0.75749687569E+01  0.38751732531E+02  0.00000000000E+00 0. -1.
</event>
<event>
 5    1  0.1724235E-003  0.9118800E+02  0.7818608E-02  0.1130116E+00
         25   -1    0    0    0    0  0.00000000000E+00  0.00000000000E+00  0.99999998245E-14  0.12500000000E+03  0.12500000000E+03 0.  0.
        -13    1    3    3    0    0  0.17549681273E+02 -0.30978871379E+02 -0.10603049156E+02  0.37149934053E+02  0.10566000000E+00 0.  1.
         23    2    1    0    0    0 -0.20215991753E+02  0.62671345177E+01  0.17823681141E+02  0.97329674612E+02  0.93313550212E+02 0.  0.
         13    1    3    3    0    0 -0.37765673026E+02  0.37246005897E+02  0.28426730297E+02  0.60179740559E+02  0.10566000000E+00 0. -1.
         22    1    1    0    0    0  0.20215991753E+02 -0.62671345177E+01 -0.17823681141E+02  0.27670325388E+02  0.00000000000E+00 0. -1.
</event>
<event>
 5    1  0.1724235E-003  0.9118800E+02  0.7818608E-02  0.1130116E+00
         25   -1    0    0    0    0  0.00000000000E+00  0.00000000000E+00  0.99999998245E-14  0.12500000000E+03  0.12500000000E+03 0.  0.
        -13    1    3    3    0    0 -0.85495976365E+01  0.18546571848E+02  0.53017505143E+02  0.56814944889E+02  0.10566000000E+00 0.  1.
         23    2    1    0    0    0 -0.18898304697E+02 -0.27505075404E+01  0.21369256984E+02  0.96340684653E+02  0.91979188750E+02 0.  0.
         13    1    3    3    0    0 -0.10348707060E+02 -0.21297079389E+02 -0.31648248159E+02  0.39525739764E+02  0.10566000000E+00 0. -1.
         22    1    1    0    0    0  0.18898304697E+02  0.27505075404E+01 -0.21369256984E+02  0.28659315347E+02  0.00000000000E+00 0.  1.
</event>
<event>
 5    1  0.1724235E-003  0.9118800E+02  0.7818608E-02  0.1130116E+00
         25   -1    0    0    0    0  0.00000000000E+00  0.00000000000E+00  0.99999998245E-14  0.12500000000E+03  0.12500000000E+03 0.  0.
        -13    1    3    3    0    0 -0.28172398564E+02  0.30047855678E+02 -0.69469266234E+01  0.41771145845E+02  0.10566000000E+00 0.  1.
         23    2    1    0    0    0  0.10623597528E+01  0.24857754367E+01  0.29114770180E+02  0.95760001190E+02  0.91186623457E+02 0.  0.
         13    1    3    3    0    0  0.29234758317E+02 -0.27562080241E+02  0.36061696804E+02  0.53988855345E+02  0.10566000000E+00 0. -1.
         22    1    1    0    0    0 -0.10623597528E+01 -0.24857754367E+01 -0.29114770180E+02  0.29239998810E+02  0.00000000000E+00 0. -1.
</event>
<event>
 5    1  0.1724235E-003  0.9118800E+02  0.7818608E-02  0.1130116E+00
         25   -1    0    0    0    0  0.00000000000E+00  0.00000000000E+00  0.99999998245E-14  0.12500000000E+03  0.12500000000E+03 0.  0.
        -13    1    3    3    0    0 -0.33887496589E+01 -0.55327393225E+02 -0.68766589031E+01  0.55856097850E+02  0.10566000000E+00 0. -1.
         23    2    1    0    0    0  0.18064435905E+02 -0.25584129924E+02 -0.84445636669E+01  0.92562641845E+02  0.86692908945E+02 0.  0.
         13    1    3    3    0    0  0.21453185564E+02  0.29743263301E+02 -0.15679047638E+01  0.36706543995E+02  0.10566000000E+00 0.  1.
         22    1    1    0    0    0 -0.18064435905E+02  0.25584129924E+02  0.84445636669E+01  0.32437358155E+02  0.00000000000E+00 0. -1.
</event>
<event>
 5    1  0.1724235E-003  0.9118800E+02  0.7818608E-02  0.1130116E+00
         25   -1    0    0    0    0  0.00000000000E+00  0.00000000000E+00  0.99999998245E-14  0.12500000000E+03  0.12500000000E+03 0.  0.
        -13    1    3    3    0    0 -0.42248828632E+02  0.16969564173E+02 -0.38254183054E+02  0.59466993485E+02  0.10566000000E+00 0.  1.
         23    2    1    0    0    0 -0.10991582593E+02  0.57834059198E+00 -0.25895006917E+02  0.96862822654E+02  0.92686059705E+02 0.  0.
         13    1    3    3    0    0  0.31257246039E+02 -0.16391223581E+02  0.12359176137E+02  0.37395829169E+02  0.10566000000E+00 0. -1.
         22    1    1    0    0    0  0.10991582593E+02 -0.57834059198E+00  0.25895006917E+02  0.28137177346E+02  0.00000000000E+00 0.  1.
</event>
<event>
 5    1  0.1724235E-003  0.9118800E+02  0.7818608E-02  0.1130116E+00
         25   -1    0    0    0    0  0.00000000000E+00  0.00000000000E+00  0.99999998245E-14  0.12500000000E+03  0.12500000000E+03 0.  0.
        -13    1    3    3    0    0  0.24332923736E+02 -0.44063950517E+02  0.16629626321E+02  0.53012060405E+02  0.10566000000E+00 0.  1.
         23    2    1    0    0    0 -0.11283826919E+02 -0.26376587073E+02  0.14547842611E+02  0.92833420757E+02  0.87082462007E+02 0.  0.
         13    1    3    3    0    0 -0.35616750655E+02  0.17687363444E+02 -0.20817837104E+01  0.39821360352E+02  0.10566000000E+00 0. -1.
         22    1    1    0    0    0  0.11283826919E+02  0.26376587073E+02 -0.14547842611E+02  0.32166579243E+02  0.00000000000E+00 0. -1.
</event>
<event>
 5    1  0.1724235E-003  0.9118800E+02  0.7818608E-02  0.1130116E+00
         25   -1    0    0    0    0  0.00000000000E+00  0.00000000000E+00  0.99999998245E-14  0.12500000000E+03  0.12500000000E+03 0.  0.
        -13    1    3    3    0    0 -0.35104030653E+02 -0.21318671031E+02  0.26507349127E+02  0.48881790315E+02  0.10566000000E+00 0.  1.
         23    2    1    0    0    0 -0.17359093462E+02  0.19528865193E+02  0.14966417917E+02  0.94888401457E+02  0.89983889470E+02 0.  0.
         13    1    3    3    0    0  0.17744937191E+02  0.40847536224E+02 -0.11540931209E+02  0.46006611141E+02  0.10566000000E+00 0. -1.
         22    1    1    0    0    0  0.17359093462E+02 -0.19528865193E+02 -0.14966417917E+02  0.30111598543E+02  0.00000000000E+00 0.  1.
</event>
<event>
 4    1  0.1724235E-003  0.9118800E+02  0.7818608E-02  0.1130116E+00
         25   -1    0    0    0    0  0.00000000000E+00  0.00000000000E+00  0.99999998245E-14  0.12500000000E+03  0.12500000000E+03 0.  0.
        -13    1    1    0    0    0  0.32201736550E+02 -0.21260588685E+02 -0.47443210223E+02  0.61154180792E+02  0.10566000000E+00 0.  1.
         13    1    1    0    0    0  0.19973145761E+01  0.17785902510E+01  0.66124925144E+01  0.71336435350E+01  0.10566000000E+00 0. -1.
         22    1    1    0    0    0 -0.34199051126E+02  0.19481998435E+02  0.40830717708E+02  0.56712175673E+02  0.00000000000E+00 0.  1.
</event>
<event>
 5    1  0.1724235E-003  0.9118800E+02  0.7818608E-02  0.1130116E+00
         25   -1    0    0    0    0  0.00000000000E+00  0.00000000000E+00  0.99999998245E-14  0.12500000000E+03  0.12500000000E+03 0.  0.
        -13    1    3    3    0    0 -0.30815051898E+02  0.25712387344E+02 -0.24068818174E+02  0.46797579625E+02  0.10566000000E+00 0. -1.
         23    2    1    0    0    0 -0.14677762261E+02  0.15505061103E+02  0.20572252053E+02  0.95351034093E+02  0.90624271160E+02 0.  0.
         13    1    3    3    0    0  0.16137289637E+02 -0.10207326241E+02  0.44641070227E+02  0.48553454468E+02  0.10566000000E+00 0.  1.
         22    1    1    0    0    0  0.14677762261E+02 -0.15505061103E+02 -0.20572252053E+02  0.29648965907E+02  0.00000000000E+00 0. -1.
</event>
<event>
 5    1  0.1724235E-003  0.9118800E+02  0.7818608E-02  0.1130116E+00
         25   -1    0    0    0    0  0.00000000000E+00  0.00000000000E+00  0.99999998245E-14  0.12500000000E+03  0.12500000000E+03 0.  0.
        -13    1    3    3    0    0 -0.21412016895E+02 -0.26725577888E+02 -0.76894623618E+01  0.35098005306E+02  0.10566000000E+00 0. -1.
         23    2    1    0    0    0  0.18501546415E+02  0.18718345640E+02 -0.12677703885E+02  0.95786854687E+02  0.91223427210E+02 0.  0.
         13    1    3    3    0    0  0.39913563311E+02  0.45443923528E+02 -0.49882415234E+01  0.60688849382E+02  0.10566000000E+00 0.  1.
         22    1    1    0    0    0 -0.18501546415E+02 -0.18718345640E+02  0.12677703885E+02  0.29213145313E+02  0.00000000000E+00 0.  1.
</event>
<event>
 5    1  0.1724235E-003  0.9118800E+02  0.7818608E-02  0.1130116E+00
         25   -1    0    0    0    0  0.00000000000E+00  0.00000000000E+00  0.99999998245E-14  0.12500000000E+03  0.12500000000E+03 0.  0.
        -13    1    3    3    0    0  0.15964663846E+02 -0.10283366204E+02  0.58944848897E+02  0.61928381924E+02  0.10566000000E+00 0.  1.
         23    2    1    0    0    0  0.77732744261E+01 -0.10235696038E+02  0.24507737654E+02  0.97326502324E+02  0.93309300614E+02 0.  0.
         13    1    3    3    0    0 -0.81913894203E+01  0.47670165900E-01 -0.34437111243E+02  0.35398120400E+02  0.10566000000E+00 0. -1.
         22    1    1    0    0    0 -0.77732744261E+01  0.10235696038E+02 -0.24507737654E+02  0.27673497676E+02  0.00000000000E+00 0.  1.
</event>
<event>
 5    1  0.1724235E-003  0.9118800E+02  0.7818608E-02  0.1130116E+00
         25   -1    0    0    0    0  0.00000000000E+00  0.00000000000E+00  0.99999998245E-14  0.12500000000E+03  0.12500000000E+03 0.  0.
        -13    1    3    3    0    0 -0.45152712304E+02 -0.22427344797E+02 -0.99168861901E+01  0.51381991192E+02  0.10566000000E+00 0.  1.
         23    2    1    0    0    0 -0.26130341590E+02  0.15298040900E+02 -0.26857031637E+00  0.94719693909E+02  0.89749225496E+02 0.  0.
         13    1    3    3    0    0  0.19022370714E+02  0.37725385697E+02  0.96483158737E+01  0.43337702717E+02  0.10566000000E+00 0. -1.
         22    1    1    0    0    0  0.26130341590E+02 -0.15298040900E+02  0.26857031637E+00  0.30280306091E+02  0.00000000000E+00 0.  1.
</event>
<event>
 5    1  0.1724235E-003  0.9118800E+02  0.7818608E-02  0.1130116E+00
         25   -1    0    0    0    0  0.00000000000E+00  0.00000000000E+00  0.99999998245E-14  0.12500000000E+03  0.12500000000E+03 0.  0.
        -13    1    3    3    0    0  0.71473181803E+01 -0.22373802518E+02 -0.27103874871E+02  0.35865058112E+02  0.10566000000E+00 0. -1.
         23    2    1    0    0    0 -0.28159672662E+02  0.53421503446E+01  0.10554838923E+02  0.94456418687E+02  0.89381791612E+02 0.  0.
         13    1    3    3    0    0 -0.35306990842E+02  0.27715952862E+02  0.37658713794E+02  0.58591360575E+02  0.10566000000E+00 0.  1.
         22    1    1    0    0    0  0.28159672662E+02 -0.53421503446E+01 -0.10554838923E+02  0.30543581313E+02  0.00000000000E+00 0.  1.
</event>
<event>
 5    1  0.1724235E-003  0.9118800E+02  0.7818608E-02  0.1130116E+00
         25   -1    0    0    0    0  0.00000000000E+00  0.00000000000E+00  0.99999998245E-14  0.12500000000E+03  0.12500000000E+03 0.  0.
        -13    1    3    3    0    0  0.29769211075E+02 -0.44161203016E+02 -0.75883406997E+01  0.53796020843E+02  0.10566000000E+00 0. -1.
         23    2    1    0    0    0 -0.72669134146E+01 -0.26189580421E+02 -0.12177934925E+02  0.95217383389E+02  0.90439735997E+02 0.  0.
         13    1    3    3    0    0 -0.37036124490E+02  0.17971622596E+02 -0.45895942248E+01  0.41421362546E+02  0.10566000000E+00 0.  1.
         22    1    1    0    0    0  0.72669134146E+01  0.26189580421E+02  0.12177934925E+02  0.29782616611E+02  0.00000000000E+00 0. -1.
</event>
<event>
 5    1  0.1724235E-003  0.9118800E+02  0.7818608E-02  0.1130116E+00
         25   -1    0    0    0    0  0.00000000000E+00  0.00000000000E+00  0.99999998245E-14  0.12500000000E+03  0.12500000000E+03 0.  0.
        -13    1    3    3    0    0 -0.25892700513E+02  0.19930122631E+02 -0.53112738482E+02  0.62358767475E+02  0.10566000000E+00 0.  1.
         23    2    1    0    0    0 -0.87733220388E+01  0.91582152430E+01 -0.24680978993E+02  0.97251219665E+02  0.93208395095E+02 0.  0.
         13    1    3    3    0    0  0.17119378474E+02 -0.10771907388E+02  0.28431759489E+02  0.34892452189E+02  0.10566000000E+00 0. -1.
         22    1    1    0    0    0  0.87733220388E+01 -0.91582152430E+01  0.24680978993E+02  0.27748780335E+02  0.00000000000E+00 0.  1.
</event>
<event>
 5    1  0.1724235E-003  0.9118800E+02  0.7818608E-02  0.1130116E+00
         25   -1    0    0    0    0  0.00000000000E+00  0.00000000000E+00  0.99999998245E-14  0.12500000000E+03  0.12500000000E+03 0.  0.
        -13    1    3    3    0    0 -0.24011770421E+02  0.37051640271E+02 -0.20155325764E+02  0.48534909974E+02  0.10566000000E+00 0.  1.
         23    2    1    0    0    0  0.86141282511E+01  0.26009631340E+02  0.11471514078E+02  0.95296468843E+02  0.90548976861E+02 0.  0.
         13    1    3    3    0    0  0.32625898672E+02 -0.11042008931E+02  0.31626839842E+02  0.46761558868E+02  0.10566000000E+00 0. -1.
         22    1    1    0    0    0 -0.86141282511E+01 -0.26009631340E+02 -0.11471514078E+02  0.29703531157E+02  0.00000000000E+00 0.  1.
</event>
<event>
 5    1  0.1724235E-003  0.9118800E+02  0.7818608E-02  0.1130116E+00
         25   -1    0    0    0    0  0.00000000000E+00  0.00000000000E+00  0.99999998245E-14  0.12500000000E+03  0.12500000000E+03 0.  0.
        -13    1    3    3    0    0  0.42138469815E+02 -0.16976760270E+02  0.25107445883E+02  0.51906223427E+02  0.10566000000E+00 0.  1.
         23    2    1    0    0    0  0.11919680321E+01 -0.35303631953E+01  0.29534893556E+02  0.95230986086E+02  0.90458534818E+02 0.  0.
         13    1    3    3    0    0 -0.40946501783E+02  0.13446397074E+02  0.44274476726E+01  0.43324762659E+02  0.10566000000E+00 0. -1.
         22    1    1    0    0    0 -0.11919680321E+01  0.35303631953E+01 -0.29534893556E+02  0.29769013914E+02  0.00000000000E+00 0.  1.
</event>
<event>
 5    1  0.1724235E-003  0.9118800E+02  0.7818608E-02  0.1130116E+00
         25   -1    0    0    0    0  0.00000000000E+00  0.00000000000E+00  0.99999998245E-14  0.12500000000E+03  0.12500000000E+03 0.  0.
        -13    1    3    3    0    0  0.17813401957E+02 -0.74316072138E+01 -0.26785104055E+02  0.33015133474E+02  0.10566000000E+00 0. -1.
         23    2    1    0    0    0 -0.20757729007E+02 -0.14735838372E+02  0.18932940450E+02  0.93274860439E+02  0.87713825078E+02 0.  0.
         13    1    3    3    0    0 -0.38571130963E+02 -0.73042311585E+01  0.45718044505E+02  0.60259726966E+02  0.10566000000E+00 0.  1.
         22    1    1    0    0    0  0.20757729007E+02  0.14735838372E+02 -0.18932940450E+02  0.31725139561E+02  0.00000000000E+00 0.  1.
</event>
<event>
 5    1  0.1724235E-003  0.9118800E+02  0.7818608E-02  0.1130116E+00
         25   -1    0    0    0    0  0.00000000000E+00  0.00000000000E+00  0.99999998245E-14  0.12500000000E+03  0.12500000000E+03 0.  0.
        -13    1    3    3    0    0  0.27694240662E+02  0.16239229479E+01 -0.40161794768E+02  0.48811771271E+02  0.10566000000E+00 0. -1.
         23    2    1    0    0    0  0.34769991325E+02  0.55963255471E+01 -0.28039038357E-02  0.89782516214E+02  0.82587099800E+02 0.  0.
         13    1    3    3    0    0  0.70757506631E+01  0.39724025992E+01  0.40158990864E+02  0.40970744942E+02  0.10566000000E+00 0.  1.
         22    1    1    0    0    0 -0.34769991325E+02 -0.55963255471E+01  0.28039038357E-02  0.35217483786E+02  0.00000000000E+00 0. -1.
</event>
<event>
 5    1  0.1724235E-003  0.9118800E+02  0.7818608E-02  0.1130116E+00
         25   -1    0    0    0    0  0.00000000000E+00  0.00000000000E+00  0.99999998245E-14  0.12500000000E+03  0.12500000000E+03 0.  0.
        -13    1    3    3    0    0  0.16378578710E+02  0.46306434470E+02  0.37441777038E+02  0.61761165353E+02  0.10566000000E+00 0. -1.
         23    2    1    0    0    0  0.94873908610E+01  0.10084259869E+02  0.13069459560E+02  0.10596020862E+03  0.10423556090E+03 0.  0.
         13    1    3    3    0    0 -0.68911878488E+01 -0.36222174601E+02 -0.24372317478E+02  0.44199043271E+02  0.10566000000E+00 0.  1.
         22    1    1    0    0    0 -0.94873908610E+01 -0.10084259869E+02 -0.13069459560E+02  0.19039791376E+02  0.00000000000E+00 0. -1.
</event>
<event>
 5    1  0.1724235E-003  0.9118800E+02  0.7818608E-02  0.1130116E+00
         25   -1    0    0    0    0  0.00000000000E+00  0.00000000000E+00  0.99999998245E-14  0.12500000000E+03  0.12500000000E+03 0.  0.
        -13    1    3    3    0    0 -0.52402947732E+02  0.27387792696E+01 -0.20425596114E+02  0.56309732582E+02  0.10566000000E+00 0.  1.
         23    2    1    0    0    0 -0.17133453922E+02 -0.15694529247E+02 -0.16914000791E+02  0.96260533854E+02  0.91870198996E+02 0.  0.
         13    1    3    3    0    0  0.35269493810E+02 -0.18433308517E+02  0.35115953222E+01  0.39950801272E+02  0.10566000000E+00 0. -1.
         22    1    1    0    0    0  0.17133453922E+02  0.15694529247E+02  0.16914000791E+02  0.28739466146E+02  0.00000000000E+00 0.  1.
</event>
<event>
 5    1  0.1724235E-003  0.9118800E+02  0.7818608E-02  0.1130116E+00
         25   -1    0    0    0    0  0.00000000000E+00  0.00000000000E+00  0.99999998245E-14  0.12500000000E+03  0.12500000000E+03 0.  0.
        -13    1    3    3    0    0 -0.38783040128E+02  0.26768920367E+02 -0.42126111108E+01  0.47312329847E+02  0.10566000000E+00 0.  1.
         23    2    1    0    0    0  0.10566560523E+02  0.21263137736E+02 -0.13287980476E+02  0.97790743252E+02  0.93929153158E+02 0.  0.
         13    1    3    3    0    0  0.49349600650E+02 -0.55057826306E+01 -0.90753693650E+01  0.50478413405E+02  0.10566000000E+00 0. -1.
         22    1    1    0    0    0 -0.10566560523E+02 -0.21263137736E+02  0.13287980476E+02  0.27209256748E+02  0.00000000000E+00 0. -1.
</event>
<event>
 5    1  0.1724235E-003  0.9118800E+02  0.7818608E-02  0.1130116E+00
         25   -1    0    0    0    0  0.00000000000E+00  0.00000000000E+00  0.99999998245E-14  0.12500000000E+03  0.12500000000E+03 0.  0.
        -13    1    3    3    0    0 -0.21269534766E+02  0.69341263485E+01 -0.28540641354E+02  0.36263681423E+02  0.10566000000E+00 0.  1.
         23    2    1    0    0    0  0.29201149402E+02 -0.36953101739E+01  0.70770678580E+00  0.95557457776E+02  0.90908549895E+02 0.  0.
         13    1    3    3    0    0  0.50470684169E+02 -0.10629436522E+02  0.29248348140E+02  0.59293776353E+02  0.10566000000E+00 0. -1.
         22    1    1    0    0    0 -0.29201149402E+02  0.36953101739E+01 -0.70770678580E+00  0.29442542224E+02  0.00000000000E+00 0. -1.
</event>
<event>
 5    1  0.1724235E-003  0.9118800E+02  0.7818608E-02  0.1130116E+00
         25   -1    0    0    0    0  0.00000000000E+00  0.00000000000E+00  0.99999998245E-14  0.12500000000E+03  0.12500000000E+03 0.  0.
        -13    1    3    3    0    0  0.94086765152E+01  0.35890023701E+02 -0.46145942493E+02  0.59212128552E+02  0.10566000000E+00 0.  1.
         23    2    1    0    0    0 -0.35001443090E+01  0.71661522850E+01 -0.28698744758E+02  0.95213716253E+02  0.90434667375E+02 0.  0.
         13    1    3    3    0    0 -0.12908820824E+02 -0.28723871416E+02  0.17447197735E+02  0.36001587701E+02  0.10566000000E+00 0. -1.
         22    1    1    0    0    0  0.35001443090E+01 -0.71661522850E+01  0.28698744758E+02  0.29786283747E+02  0.00000000000E+00 0.  1.
</event>
<event>
 5    1  0.1724235E-003  0.9118800E+02  0.7818608E-02  0.1130116E+00
         25   -1    0    0    0    0  0.00000000000E+00  0.00000000000E+00  0.99999998245E-14  0.12500000000E+03  0.12500000000E+03 0.  0.
        -13    1    3    3    0    0 -0.13450967264E+01 -0.52711086424E+02 -0.24157569472E+02  0.57998855541E+02  0.10566000000E+00 0.  1.
         23    2    1    0    0    0  0.19521439230E+01 -0.18882286920E+02 -0.26875297568E+02  0.92096607399E+02  0.86018322757E+02 0.  0.
         13    1    3    3    0    0  0.32972406494E+01  0.33828799504E+02 -0.27177280969E+01  0.34097751859E+02  0.10566000000E+00 0. -1.
         22    1    1    0    0    0 -0.19521439230E+01  0.18882286920E+02  0.26875297568E+02  0.32903392601E+02  0.00000000000E+00 0.  1.
</event>
<event>
 5    1  0.1724235E-003  0.9118800E+02  0.7818608E-02  0.1130116E+00
         25   -1    0    0    0    0  0.00000000000E+00  0.00000000000E+00  0.99999998245E-14  0.12500000000E+03  0.12500000000E+03 0.  0.
        -13    1    3    3    0    0  0.43226178970E+02  0.39572996862E+02  0.11364835032E+02  0.59696693948E+02  0.10566000000E+00 0.  1.
         23    2    1    0    0    0  0.12855167116E+02  0.20627590938E+02  0.16160694167E+02  0.95812316545E+02  0.91258309958E+02 0.  0.
         13    1    3    3    0    0 -0.30371011855E+02 -0.18945405924E+02  0.47958591353E+01  0.36115622597E+02  0.10566000000E+00 0. -1.
         22    1    1    0    0    0 -0.12855167116E+02 -0.20627590938E+02 -0.16160694167E+02  0.29187683455E+02  0.00000000000E+00 0.  1.
</event>
<event>
 5    1  0.1724235E-003  0.9118800E+02  0.7818608E-02  0.1130116E+00
         25   -1    0    0    0    0  0.00000000000E+00  0.00000000000E+00  0.99999998245E-14  0.12500000000E+03  0.12500000000E+03 0.  0.
        -13    1    3    3    0    0 -0.25854776307E+02  0.22702714015E+01  0.39302432473E+02  0.47099001608E+02  0.10566000000E+00 0. -1.
         23    2    1    0    0    0 -0.23369731208E+02 -0.18078395292E+02 -0.41685593345E+01  0.95161273486E+02  0.90362151211E+02 0.  0.
         13    1    3    3    0    0  0.24850450989E+01 -0.20348666693E+02 -0.43470991808E+02  0.48062271878E+02  0.10566000000E+00 0.  1.
         22    1    1    0    0    0  0.23369731208E+02  0.18078395292E+02  0.41685593345E+01  0.29838726514E+02  0.00000000000E+00 0.  1.
</event>
<event>
 5    1  0.1724235E-003  0.9118800E+02  0.7818608E-02  0.1130116E+00
         25   -1    0    0    0    0  0.00000000000E+00  0.00000000000E+00  0.99999998245E-14  0.12500000000E+03  0.12500000000E+03 0.  0.
        -13    1    3    3    0    0  0.10239936082E+02  0.23521080430E+02  0.21433147111E+02  0.33428856915E+02  0.10566000000E+00 0.  1.
         23    2    1    0    0    0 -0.15373465574E+02 -0.22785924625E+02 -0.10885340544E+02  0.95435960297E+02  0.90741336084E+02 0.  0.
         13    1    3    3    0    0 -0.25613401656E+02 -0.46307005055E+02 -0.32318487655E+02  0.62007103382E+02  0.10566000000E+00 0. -1.
         22    1    1    0    0    0  0.15373465574E+02  0.22785924625E+02  0.10885340544E+02  0.29564039703E+02  0.00000000000E+00 0. -1.
</event>
<event>
 5    1  0.1724235E-003  0.9118800E+02  0.7818608E-02  0.1130116E+00
         25   -1    0    0    0    0  0.00000000000E+00  0.00000000000E+00  0.99999998245E-14  0.12500000000E+03  0.12500000000E+03 0.  0.
        -13    1    3    3    0    0  0.41633528565E+02 -0.92263548306E+01  0.15928054020E+02  0.45521318008E+02  0.10566000000E+00 0. -1.
         23    2    1    0    0    0  0.20324408711E+02  0.14094530369E+02 -0.19876404257E+02  0.93269749103E+02  0.87706540667E+02 0.  0.
         13    1    3    3    0    0 -0.21309119854E+02  0.23320885200E+02 -0.35804458277E+02  0.47748431095E+02  0.10566000000E+00 0.  1.
         22    1    1    0    0    0 -0.20324408711E+02 -0.14094530369E+02  0.19876404257E+02  0.31730250897E+02  0.00000000000E+00 0. -1.
</event>
<event>
 5    1  0.1724235E-003  0.9118800E+02  0.7818608E-02  0.1130116E+00
         25   -1    0    0    0    0  0.00000000000E+00  0.00000000000E+00  0.99999998245E-14  0.12500000000E+03  0.12500000000E+03 0.  0.
        -13    1    3    3    0    0 -0.13304575714E+02  0.52635764056E+02 -0.25299109728E+02  0.59896506658E+02  0.10566000000E+00 0.  1.
         23    2    1    0    0    0  0.65698908507E+01  0.25432444231E+02 -0.12095381377E+02  0.96081650531E+02  0.91626484342E+02 0.  0.
         13    1    3    3    0    0  0.19874466565E+02 -0.27203319826E+02  0.13203728351E+02  0.36185143874E+02  0.10566000000E+00 0. -1.
         22    1    1    0    0    0 -0.65698908507E+01 -0.25432444231E+02  0.12095381377E+02  0.28918349469E+02  0.00000000000E+00 0.  1.
</event>
<event>
 5    1  0.1724235E-003  0.9118800E+02  0.7818608E-02  0.1130116E+00
         25   -1    0    0    0    0  0.00000000000E+00  0.00000000000E+00  0.99999998245E-14  0.12500000000E+03  0.12500000000E+03 0.  0.
        -13    1    3    3    0    0 -0.49751231239E+01  0.30677785467E+02  0.19089220582E+02  0.36473111709E+02  0.10566000000E+00 0.  1.
         23    2    1    0    0    0 -0.22761896130E+02 -0.18059767719E+02 -0.78084454250E+01  0.94912943889E+02  0.90017975828E+02 0.  0.
         13    1    3    3    0    0 -0.17786773006E+02 -0.48737553186E+02 -0.26897666008E+02  0.58439832180E+02  0.10566000000E+00 0. -1.
         22    1    1    0    0    0  0.22761896130E+02  0.18059767719E+02  0.78084454250E+01  0.30087056111E+02  0.00000000000E+00 0. -1.
</event>
<event>
 5    1  0.1724235E-003  0.9118800E+02  0.7818608E-02  0.1130116E+00
         25   -1    0    0    0    0  0.00000000000E+00  0.00000000000E+00  0.99999998245E-14  0.12500000000E+03  0.12500000000E+03 0.  0.
        -13    1    3    3    0    0  0.24153458324E+00  0.33876005755E+02  0.39437237866E+02  0.51989893243E+02  0.10566000000E+00 0. -1.
         23    2    1    0    0    0 -0.24399693827E+02  0.88115420133E+01  0.12924007084E+02  0.96016930967E+02  0.91538149106E+02 0.  0.
         13    1    3    3    0    0 -0.24641228410E+02 -0.25064463741E+02 -0.26513230782E+02  0.44027037724E+02  0.10566000000E+00 0.  1.
         22    1    1    0    0    0  0.24399693827E+02 -0.88115420133E+01 -0.12924007084E+02  0.28983069033E+02  0.00000000000E+00 0. -1.
</event>
<event>
 5    1  0.1724235E-003  0.9118800E+02  0.7818608E-02  0.1130116E+00
         25   -1    0    0    0    0  0.00000000000E+00  0.00000000000E+00  0.99999998245E-14  0.12500000000E+03  0.12500000000E+03 0.  0.
        -13    1    3    3    0    0  0.98518806936E+01 -0.22174562717E+02 -0.32389668267E+02  0.40470638238E+02  0.10566000000E+00 0. -1.
         23    2    1    0    0    0 -0.28045158911E+02 -0.21438422778E+01  0.38610794040E+01  0.96609245656E+02  0.92343442723E+02 0.  0.
         13    1    3    3    0    0 -0.37897039605E+02  0.20030720439E+02  0.36250747671E+02  0.56138607418E+02  0.10566000000E+00 0.  1.
         22    1    1    0    0    0  0.28045158911E+02  0.21438422778E+01 -0.38610794040E+01  0.28390754344E+02  0.00000000000E+00 0.  1.
</event>
<event>
 5    1  0.1724235E-003  0.9118800E+02  0.7818608E-02  0.1130116E+00
         25   -1    0    0    0    0  0.00000000000E+00  0.00000000000E+00  0.99999998245E-14  0.12500000000E+03  0.12500000000E+03 0.  0.
        -13    1    3    3    0    0 -0.28325553847E+02 -0.14473252192E+02  0.19741327993E+02  0.37437190396E+02  0.10566000000E+00 0. -1.
         23    2    1    0    0    0  0.10200035942E+02 -0.11161580952E+02 -0.24509194207E+02  0.96202044808E+02  0.91790583405E+02 0.  0.
         13    1    3    3    0    0  0.38525589790E+02  0.33116712400E+01 -0.44250522200E+02  0.58764854412E+02  0.10566000000E+00 0.  1.
         22    1    1    0    0    0 -0.10200035942E+02  0.11161580952E+02  0.24509194207E+02  0.28797955192E+02  0.00000000000E+00 0.  1.
</event>
<event>
 5    1  0.1724235E-003  0.9118800E+02  0.7818608E-02  0.1130116E+00
         25   -1    0    0    0    0  0.00000000000E+00  0.00000000000E+00  0.99999998245E-14  0.12500000000E+03  0.12500000000E+03 0.  0.
        -13    1    3    3    0    0  0.14068368272E+01  0.26294541029E+02 -0.50828233405E+02  0.57244235980E+02  0.10566000000E+00 0. -1.
         23    2    1    0    0    0 -0.82961917717E+01  0.23813171673E+02 -0.12508734220E+02  0.96851067963E+02  0.92670205518E+02 0.  0.
         13    1    3    3    0    0 -0.97030285990E+01 -0.24813693560E+01  0.38319499185E+02  0.39606831983E+02  0.10566000000E+00 0.  1.
         22    1    1    0    0    0  0.82961917717E+01 -0.23813171673E+02  0.12508734220E+02  0.28148932037E+02  0.00000000000E+00 0. -1.
</event>
<event>
 5    1  0.1724235E-003  0.9118800E+02  0.7818608E-02  0.1130116E+00
         25   -1    0    0    0    0  0.00000000000E+00  0.00000000000E+00  0.99999998245E-14  0.12500000000E+03  0.12500000000E+03 0.  0.
        -13    1    3    3    0    0  0.43083439691E+02  0.38063918539E+02  0.20941838419E+02  0.61185099743E+02  0.10566000000E+00 0. -1.
         23    2    1    0    0    0  0.18305896611E+02  0.24346288092E+02  0.37670706620E+01  0.94307355670E+02  0.89173084042E+02 0.  0.
         13    1    3    3    0    0 -0.24777543080E+02 -0.13717630448E+02 -0.17174767757E+02  0.33122255927E+02  0.10566000000E+00 0.  1.
         22    1    1    0    0    0 -0.18305896611E+02 -0.24346288092E+02 -0.37670706620E+01  0.30692644330E+02  0.00000000000E+00 0. -1.
</event>
<event>
 5    1  0.1724235E-003  0.9118800E+02  0.7818608E-02  0.1130116E+00
         25   -1    0    0    0    0  0.00000000000E+00  0.00000000000E+00  0.99999998245E-14  0.12500000000E+03  0.12500000000E+03 0.  0.
        -13    1    3    3    0    0 -0.59826670969E+02  0.69184310563E+01  0.16255744091E+02  0.62380731220E+02  0.10566000000E+00 0.  1.
         23    2    1    0    0    0 -0.26718586336E+02  0.52818183266E+01  0.90163636424E+01  0.96310711512E+02  0.91938446136E+02 0.  0.
         13    1    3    3    0    0  0.33108084633E+02 -0.16366127297E+01 -0.72393804484E+01  0.33929980292E+02  0.10566000000E+00 0. -1.
         22    1    1    0    0    0  0.26718586336E+02 -0.52818183266E+01 -0.90163636424E+01  0.28689288488E+02  0.00000000000E+00 0.  1.
</event>
<event>
 5    1  0.1724235E-003  0.9118800E+02  0.7818608E-02  0.1130116E+00
         25   -1    0    0    0    0  0.00000000000E+00  0.00000000000E+00  0.99999998245E-14  0.12500000000E+03  0.12500000000E+03 0.  0.
        -13    1    3    3    0    0 -0.14566387718E+02  0.24535350333E+02 -0.53594041269E+02  0.60716517446E+02  0.10566000000E+00 0. -1.
         23    2    1    0    0    0 -0.41237405738E+01  0.19387674310E+02 -0.17790294558E+02  0.98365778931E+02  0.94691312868E+02 0.  0.
         13    1    3    3    0    0  0.10442647144E+02 -0.51476760224E+01  0.35803746711E+02  0.37649261485E+02  0.10566000000E+00 0.  1.
         22    1    1    0    0    0  0.41237405738E+01 -0.19387674310E+02  0.17790294558E+02  0.26634221069E+02  0.00000000000E+00 0. -1.
</event>
<event>
 5    1  0.1724235E-003  0.9118800E+02  0.7818608E-02  0.1130116E+00
         25   -1    0    0    0    0  0.00000000000E+00  0.00000000000E+00  0.99999998245E-14  0.12500000000E+03  0.12500000000E+03 0.  0.
        -13    1    3    3    0    0  0.79813482088E+01 -0.40645813990E+02  0.76875417904E+01  0.42129485838E+02  0.10566000000E+00 0.  1.
         23    2    1    0    0    0 -0.10082474800E+02  0.55775328854E+01  0.27203706379E+02  0.95456695988E+02  0.90769895874E+02 0.  0.
         13    1    3    3    0    0 -0.18063823009E+02  0.46223346876E+02  0.19516164589E+02  0.53327210150E+02  0.10566000000E+00 0. -1.
         22    1    1    0    0    0  0.10082474800E+02 -0.55775328854E+01 -0.27203706379E+02  0.29543304012E+02  0.00000000000E+00 0. -1.
</event>
<event>
 5    1  0.1724235E-003  0.9118800E+02  0.7818608E-02  0.1130116E+00
         25   -1    0    0    0    0  0.00000000000E+00  0.00000000000E+00  0.99999998245E-14  0.12500000000E+03  0.12500000000E+03 0.  0.
        -13    1    3    3    0    0  0.32766975417E+01  0.19661757176E+02  0.50711319711E+02  0.54488260689E+02  0.10566000000E+00 0. -1.
         23    2    1    0    0    0  0.13685203406E+02  0.22963133237E+02  0.10294263204E+02  0.96354544248E+02  0.91998022054E+02 0.  0.
         13    1    3    3    0    0  0.10408505865E+02  0.33013760617E+01 -0.40417056508E+02  0.41866283559E+02  0.10566000000E+00 0.  1.
         22    1    1    0    0    0 -0.13685203406E+02 -0.22963133237E+02 -0.10294263204E+02  0.28645455752E+02  0.00000000000E+00 0. -1.
</event>
<event>
 5    1  0.1724235E-003  0.9118800E+02  0.7818608E-02  0.1130116E+00
         25   -1    0    0    0    0  0.00000000000E+00  0.00000000000E+00  0.99999998245E-14  0.12500000000E+03  0.12500000000E+03 0.  0.
        -13    1    3    3    0    0 -0.48631690000E+02  0.24687380197E+02 -0.25492355212E+02  0.60202818468E+02  0.10566000000E+00 0.  1.
         23    2    1    0    0    0 -0.14267498410E+02  0.17273682257E+02 -0.18267482126E+02  0.96092518047E+02  0.91641308982E+02 0.  0.
         13    1    3    3    0    0  0.34364191589E+02 -0.74136979400E+01  0.72248730857E+01  0.35889699579E+02  0.10566000000E+00 0. -1.
         22    1    1    0    0    0  0.14267498410E+02 -0.17273682257E+02  0.18267482126E+02  0.28907481953E+02  0.00000000000E+00 0.  1.
</event>
<event>
 4    1  0.1724235E-003  0.9118800E+02  0.7818608E-02  0.1130116E+00
         25   -1    0    0    0    0  0.00000000000E+00  0.00000000000E+00  0.99999998245E-14  0.12500000000E+03  0.12500000000E+03 0.  0.
        -13    1    1    0    0    0 -0.34050876493E+02  0.36416760307E+02 -0.37661407336E+02  0.62482280590E+02  0.10566000000E+00 0.  1.
         13    1    1    0    0    0  0.56489773107E+01 -0.72265535866E+01  0.69681721197E+01  0.11519574997E+02  0.10566000000E+00 0. -1.
         22    1    1    0    0    0  0.28401899182E+02 -0.29190206720E+02  0.30693235216E+02  0.50998144413E+02  0.00000000000E+00 0.  1.
</event>
<event>
 5    1  0.1724235E-003  0.9118800E+02  0.7818608E-02  0.1130116E+00
         25   -1    0    0    0    0  0.00000000000E+00  0.00000000000E+00  0.99999998245E-14  0.12500000000E+03  0.12500000000E+03 0.  0.
        -13    1    3    3    0    0  0.38228774643E+02  0.33763283715E+01 -0.81793579014E+01  0.39239672064E+02  0.10566000000E+00 0. -1.
         23    2    1    0    0    0 -0.17785786267E+02 -0.15750991142E+02 -0.11665959721E+02  0.98532613819E+02  0.94911292556E+02 0.  0.
         13    1    3    3    0    0 -0.56014560910E+02 -0.19127319513E+02 -0.34866018191E+01  0.59292941755E+02  0.10566000000E+00 0.  1.
         22    1    1    0    0    0  0.17785786267E+02  0.15750991142E+02  0.11665959721E+02  0.26467386181E+02  0.00000000000E+00 0.  1.
</event>
<event>
 5    1  0.1724235E-003  0.9118800E+02  0.7818608E-02  0.1130116E+00
         25   -1    0    0    0    0  0.00000000000E+00  0.00000000000E+00  0.99999998245E-14  0.12500000000E+03  0.12500000000E+03 0.  0.
        -13    1    3    3    0    0 -0.12437074796E+02  0.29701335502E+02  0.38616651813E+02  0.50280285613E+02  0.10566000000E+00 0.  1.
         23    2    1    0    0    0 -0.19965795248E+01  0.32045233646E+02 -0.25275687928E+01  0.92793293661E+02  0.87024843667E+02 0.  0.
         13    1    3    3    0    0  0.10440495271E+02  0.23438981432E+01 -0.41144220605E+02  0.42513008048E+02  0.10566000000E+00 0. -1.
         22    1    1    0    0    0  0.19965795248E+01 -0.32045233646E+02  0.25275687928E+01  0.32206706339E+02  0.00000000000E+00 0. -1.
</event>
<event>
 5    1  0.1724235E-003  0.9118800E+02  0.7818608E-02  0.1130116E+00
         25   -1    0    0    0    0  0.00000000000E+00  0.00000000000E+00  0.99999998245E-14  0.12500000000E+03  0.12500000000E+03 0.  0.
        -13    1    3    3    0    0 -0.36316639014E+02 -0.77006131948E+00  0.10272786791E+02  0.37749603656E+02  0.10566000000E+00 0.  1.
         23    2    1    0    0    0  0.23440043515E+02 -0.93338524784E+01  0.92566047332E+01  0.98125454920E+02  0.94373532995E+02 0.  0.
         13    1    3    3    0    0  0.59756682529E+02 -0.85637911589E+01 -0.10161820582E+01  0.60375851264E+02  0.10566000000E+00 0. -1.
         22    1    1    0    0    0 -0.23440043515E+02  0.93338524784E+01 -0.92566047332E+01  0.26874545080E+02  0.00000000000E+00 0. -1.
</event>
<event>
 5    1  0.1724235E-003  0.9118800E+02  0.7818608E-02  0.1130116E+00
         25   -1    0    0    0    0  0.00000000000E+00  0.00000000000E+00  0.99999998245E-14  0.12500000000E+03  0.12500000000E+03 0.  0.
        -13    1    3    3    0    0 -0.81342499252E+01 -0.44960751481E+02 -0.28044048887E+02  0.53610773522E+02  0.10566000000E+00 0. -1.
         23    2    1    0    0    0  0.11832286049E+02 -0.26279494996E+02  0.41861532133E+01  0.95877178552E+02  0.91347110726E+02 0.  0.
         13    1    3    3    0    0  0.19966535974E+02  0.18681256485E+02  0.32230202101E+02  0.42266405030E+02  0.10566000000E+00 0.  1.
         22    1    1    0    0    0 -0.11832286049E+02  0.26279494996E+02 -0.41861532133E+01  0.29122821448E+02  0.00000000000E+00 0. -1.
</event>
<event>
 5    1  0.1724235E-003  0.9118800E+02  0.7818608E-02  0.1130116E+00
         25   -1    0    0    0    0  0.00000000000E+00  0.00000000000E+00  0.99999998245E-14  0.12500000000E+03  0.12500000000E+03 0.  0.
        -13    1    3    3    0    0  0.11055938252E+02  0.20491214631E+02 -0.23851312400E+02  0.33331965363E+02  0.10566000000E+00 0. -1.
         23    2    1    0    0    0  0.11563424384E+01 -0.16231171447E+02  0.24955441611E+02  0.95208019193E+02  0.90426792481E+02 0.  0.
         13    1    3    3    0    0 -0.98995958139E+01 -0.36722386078E+02  0.48806754011E+02  0.61876053831E+02  0.10566000000E+00 0.  1.
         22    1    1    0    0    0 -0.11563424384E+01  0.16231171447E+02 -0.24955441611E+02  0.29791980807E+02  0.00000000000E+00 0.  1.
</event>
<event>
 5    1  0.1724235E-003  0.9118800E+02  0.7818608E-02  0.1130116E+00
         25   -1    0    0    0    0  0.00000000000E+00  0.00000000000E+00  0.99999998245E-14  0.12500000000E+03  0.12500000000E+03 0.  0.
        -13    1    3    3    0    0 -0.12685850868E+02 -0.31186754380E+02  0.52475119410E+02  0.62347363875E+02  0.10566000000E+00 0.  1.
         23    2    1    0    0    0 -0.19522831338E+01 -0.12402155803E+02  0.20749882355E+02  0.10074752599E+03  0.97784873559E+02 0.  0.
         13    1    3    3    0    0  0.10733567734E+02  0.18784598577E+02 -0.31725237055E+02  0.38400162112E+02  0.10566000000E+00 0. -1.
         22    1    1    0    0    0  0.19522831338E+01  0.12402155803E+02 -0.20749882355E+02  0.24252474013E+02  0.00000000000E+00 0.  1.
</event>
<event>
 5    1  0.1724235E-003  0.9118800E+02  0.7818608E-02  0.1130116E+00
         25   -1    0    0    0    0  0.00000000000E+00  0.00000000000E+00  0.99999998245E-14  0.12500000000E+03  0.12500000000E+03 0.  0.
        -13    1    3    3    0    0 -0.27775092541E+02 -0.40887739294E+02  0.35344007331E+02  0.60765722315E+02  0.10566000000E+00 0.  1.
         23    2    1    0    0    0 -0.38880773190E+01 -0.18064557445E+02  0.21669526028E+02  0.96521697044E+02  0.92224857067E+02 0.  0.
         13    1    3    3    0    0  0.23887015222E+02  0.22823181849E+02 -0.13674481302E+02  0.35755974729E+02  0.10566000000E+00 0. -1.
         22    1    1    0    0    0  0.38880773190E+01  0.18064557445E+02 -0.21669526028E+02  0.28478302956E+02  0.00000000000E+00 0.  1.
</event>
<event>
 5    1  0.1724235E-003  0.9118800E+02  0.7818608E-02  0.1130116E+00
         25   -1    0    0    0    0  0.00000000000E+00  0.00000000000E+00  0.99999998245E-14  0.12500000000E+03  0.12500000000E+03 0.  0.
        -13    1    3    3    0    0 -0.28588912710E+01  0.30217532075E+02 -0.47399725843E+02  0.56285146158E+02  0.10566000000E+00 0. -1.
         23    2    1    0    0    0  0.16516340147E+02  0.18938289738E+02 -0.14841450372E+02  0.95815809773E+02  0.91263094640E+02 0.  0.
         13    1    3    3    0    0  0.19375231418E+02 -0.11279242336E+02  0.32558275471E+02  0.39530663615E+02  0.10566000000E+00 0.  1.
         22    1    1    0    0    0 -0.16516340147E+02 -0.18938289738E+02  0.14841450372E+02  0.29184190227E+02  0.00000000000E+00 0. -1.
</event>
<event>
 5    1  0.1724235E-003  0.9118800E+02  0.7818608E-02  0.1130116E+00
         25   -1    0    0    0    0  0.00000000000E+00  0.00000000000E+00  0.99999998245E-14  0.12500000000E+03  0.12500000000E+03 0.  0.
        -13    1    3    3    0    0 -0.65416671286E+01 -0.43137876314E+02  0.25001074352E+02  0.50286525675E+02  0.10566000000E+00 0.  1.
         23    2    1    0    0    0 -0.26438532021E+02 -0.13391183033E+02 -0.22642184389E+01  0.95277173022E+02  0.90522335671E+02 0.  0.
         13    1    3    3    0    0 -0.19896864892E+02  0.29746693280E+02 -0.27265292791E+02  0.44990647347E+02  0.10566000000E+00 0. -1.
         22    1    1    0    0    0  0.26438532021E+02  0.13391183033E+02  0.22642184389E+01  0.29722826978E+02  0.00000000000E+00 0.  1.
</event>
<event>
 5    1  0.1724235E-003  0.9118800E+02  0.7818608E-02  0.1130116E+00
         25   -1    0    0    0    0  0.00000000000E+00  0.00000000000E+00  0.99999998245E-14  0.12500000000E+03  0.12500000000E+03 0.  0.
        -13    1    3    3    0    0  0.13578527387E+02  0.37442687626E+02  0.10156875912E+02  0.41103583238E+02  0.10566000000E+00 0.  1.
         23    2    1    0    0    0 -0.10790441199E+02 -0.50281411012E+01  0.29063825954E+02  0.93592647305E+02  0.88165536500E+02 0.  0.
         13    1    3    3    0    0 -0.24368968586E+02 -0.42470828727E+02  0.18906950042E+02  0.52489064067E+02  0.10566000000E+00 0. -1.
         22    1    1    0    0    0  0.10790441199E+02  0.50281411012E+01 -0.29063825954E+02  0.31407352695E+02  0.00000000000E+00 0. -1.
</event>
<event>
 5    1  0.1724235E-003  0.9118800E+02  0.7818608E-02  0.1130116E+00
         25   -1    0    0    0    0  0.00000000000E+00  0.00000000000E+00  0.99999998245E-14  0.12500000000E+03  0.12500000000E+03 0.  0.
        -13    1    3    3    0    0 -0.16163128011E+02  0.15904100495E+02  0.25155583597E+02  0.33867413095E+02  0.10566000000E+00 0. -1.
         23    2    1    0    0    0  0.66963834228E+01 -0.11474959650E+02 -0.25749743149E+02  0.96024742933E+02  0.91548816121E+02 0.  0.
         13    1    3    3    0    0  0.22859511433E+02 -0.27379060145E+02 -0.50905326745E+02  0.62157329837E+02  0.10566000000E+00 0.  1.
         22    1    1    0    0    0 -0.66963834228E+01  0.11474959650E+02  0.25749743149E+02  0.28975257067E+02  0.00000000000E+00 0.  1.
</event>
<event>
 5    1  0.1724235E-003  0.9118800E+02  0.7818608E-02  0.1130116E+00
         25   -1    0    0    0    0  0.00000000000E+00  0.00000000000E+00  0.99999998245E-14  0.12500000000E+03  0.12500000000E+03 0.  0.
        -13    1    3    3    0    0  0.20877596745E+02 -0.30356211320E+02  0.47260992890E+02  0.59924838127E+02  0.10566000000E+00 0.  1.
         23    2    1    0    0    0 -0.14742737002E+01 -0.20078748346E+02  0.21272523319E+02  0.95710925818E+02  0.91119325363E+02 0.  0.
         13    1    3    3    0    0 -0.22351870445E+02  0.10277462975E+02 -0.25988469571E+02  0.35786087692E+02  0.10566000000E+00 0. -1.
         22    1    1    0    0    0  0.14742737002E+01  0.20078748346E+02 -0.21272523319E+02  0.29289074182E+02  0.00000000000E+00 0.  1.
</event>
<event>
 5    1  0.1724235E-003  0.9118800E+02  0.7818608E-02  0.1130116E+00
         25   -1    0    0    0    0  0.00000000000E+00  0.00000000000E+00  0.99999998245E-14  0.12500000000E+03  0.12500000000E+03 0.  0.
        -13    1    3    3    0    0 -0.23901214312E+02  0.34227005574E+02  0.25913676853E+01  0.41826813250E+02  0.10566000000E+00 0. -1.
         23    2    1    0    0    0  0.24285009895E+02  0.78423120680E+01 -0.89372366910E+01  0.97960440761E+02  0.94154714116E+02 0.  0.
         13    1    3    3    0    0  0.48186224207E+02 -0.26384693506E+02 -0.11528604376E+02  0.56133627511E+02  0.10566000000E+00 0.  1.
         22    1    1    0    0    0 -0.24285009895E+02 -0.78423120680E+01  0.89372366910E+01  0.27039559239E+02  0.00000000000E+00 0.  1.
</event>
<event>
 5    1  0.1724235E-003  0.9118800E+02  0.7818608E-02  0.1130116E+00
         25   -1    0    0    0    0  0.00000000000E+00  0.00000000000E+00  0.99999998245E-14  0.12500000000E+03  0.12500000000E+03 0.  0.
        -13    1    3    3    0    0 -0.62654884553E+01 -0.26662156344E+00  0.44138434979E+02  0.44581835304E+02  0.10566000000E+00 0.  1.
         23    2    1    0    0    0 -0.33510893986E+02 -0.58602276706E+01  0.82357357266E+01  0.89997862536E+02  0.82912397347E+02 0.  0.
         13    1    3    3    0    0 -0.27245405531E+02 -0.55936061072E+01 -0.35902699253E+02  0.45416027231E+02  0.10566000000E+00 0. -1.
         22    1    1    0    0    0  0.33510893986E+02  0.58602276706E+01 -0.82357357266E+01  0.35002137464E+02  0.00000000000E+00 0.  1.
</event>
<event>
 5    1  0.1724235E-003  0.9118800E+02  0.7818608E-02  0.1130116E+00
         25   -1    0    0    0    0  0.00000000000E+00  0.00000000000E+00  0.99999998245E-14  0.12500000000E+03  0.12500000000E+03 0.  0.
        -13    1    3    3    0    0 -0.17216509512E+02  0.28350679909E+02 -0.17557597587E+02  0.37529317182E+02  0.10566000000E+00 0. -1.
         23    2    1    0    0    0  0.25369004833E+02 -0.11003001448E+02 -0.42323629525E+01  0.97025630601E+02  0.92905369330E+02 0.  0.
         13    1    3    3    0    0  0.42585514345E+02 -0.39353681358E+02  0.13325234634E+02  0.59496313419E+02  0.10566000000E+00 0.  1.
         22    1    1    0    0    0 -0.25369004833E+02  0.11003001448E+02  0.42323629525E+01  0.27974369399E+02  0.00000000000E+00 0.  1.
</event>
<event>
 5    1  0.1724235E-003  0.9118800E+02  0.7818608E-02  0.1130116E+00
         25   -1    0    0    0    0  0.00000000000E+00  0.00000000000E+00  0.99999998245E-14  0.12500000000E+03  0.12500000000E+03 0.  0.
        -13    1    3    3    0    0 -0.76473507727E+01 -0.46295396266E+02 -0.18225246465E+02  0.50338022031E+02  0.10566000000E+00 0. -1.
         23    2    1    0    0    0 -0.15114686573E+02 -0.95805282459E+00 -0.23972306431E+02  0.96644346401E+02  0.92390944363E+02 0.  0.
         13    1    3    3    0    0 -0.74673358004E+01  0.45337343442E+02 -0.57470599660E+01  0.46306324369E+02  0.10566000000E+00 0.  1.
         22    1    1    0    0    0  0.15114686573E+02  0.95805282459E+00  0.23972306431E+02  0.28355653599E+02  0.00000000000E+00 0. -1.
</event>
<event>
 5    1  0.1724235E-003  0.9118800E+02  0.7818608E-02  0.1130116E+00
         25   -1    0    0    0    0  0.00000000000E+00  0.00000000000E+00  0.99999998245E-14  0.12500000000E+03  0.12500000000E+03 0.  0.
        -13    1    3    3    0    0  0.29261109670E+02 -0.38352937008E+02  0.44784738567E+01  0.48448201292E+02  0.10566000000E+00 0.  1.
         23    2    1    0    0    0  0.18409490165E+02  0.19415484307E+01 -0.20734931497E+02  0.97204023265E+02  0.93145079399E+02 0.  0.
         13    1    3    3    0    0 -0.10851619505E+02  0.40294485439E+02 -0.25213405354E+02  0.48755821973E+02  0.10566000000E+00 0. -1.
         22    1    1    0    0    0 -0.18409490165E+02 -0.19415484307E+01  0.20734931497E+02  0.27795976735E+02  0.00000000000E+00 0. -1.
</event>
<event>
 5    1  0.1724235E-003  0.9118800E+02  0.7818608E-02  0.1130116E+00
         25   -1    0    0    0    0  0.00000000000E+00  0.00000000000E+00  0.99999998245E-14  0.12500000000E+03  0.12500000000E+03 0.  0.
        -13    1    3    3    0    0  0.14101366793E+01  0.33618702384E+02  0.17998388244E+02  0.38159648568E+02  0.10566000000E+00 0. -1.
         23    2    1    0    0    0 -0.28949969760E+02 -0.45904350525E+01 -0.95139572636E+01  0.94182988044E+02  0.88998578702E+02 0.  0.
         13    1    3    3    0    0 -0.30360106440E+02 -0.38209137436E+02 -0.27512345507E+02  0.56023339476E+02  0.10566000000E+00 0.  1.
         22    1    1    0    0    0  0.28949969760E+02  0.45904350525E+01  0.95139572636E+01  0.30817011956E+02  0.00000000000E+00 0.  1.
</event>
<event>
 5    1  0.1724235E-003  0.9118800E+02  0.7818608E-02  0.1130116E+00
         25   -1    0    0    0    0  0.00000000000E+00  0.00000000000E+00  0.99999998245E-14  0.12500000000E+03  0.12500000000E+03 0.  0.
        -13    1    3    3    0    0  0.31431868174E+02  0.35949587314E+02 -0.24128838959E+02  0.53502777484E+02  0.10566000000E+00 0.  1.
         23    2    1    0    0    0 -0.13012459443E+01  0.27744666772E+02  0.33527772172E+01  0.97023208004E+02  0.92902109777E+02 0.  0.
         13    1    3    3    0    0 -0.32733114118E+02 -0.82049205419E+01  0.27481616176E+02  0.43520430520E+02  0.10566000000E+00 0. -1.
         22    1    1    0    0    0  0.13012459443E+01 -0.27744666772E+02 -0.33527772172E+01  0.27976791996E+02  0.00000000000E+00 0. -1.
</event>
<event>
 5    1  0.1724235E-003  0.9118800E+02  0.7818608E-02  0.1130116E+00
         25   -1    0    0    0    0  0.00000000000E+00  0.00000000000E+00  0.99999998245E-14  0.12500000000E+03  0.12500000000E+03 0.  0.
        -13    1    3    3    0    0  0.43330567026E+02  0.36158899511E+02 -0.14743128316E+02  0.58329881272E+02  0.10566000000E+00 0.  1.
         23    2    1    0    0    0  0.16793930056E+02  0.21161811192E+02  0.85180504881E+01  0.96673060106E+02  0.92429784305E+02 0.  0.
         13    1    3    3    0    0 -0.26536636970E+02 -0.14997088319E+02  0.23261178804E+02  0.38343178834E+02  0.10566000000E+00 0. -1.
         22    1    1    0    0    0 -0.16793930056E+02 -0.21161811192E+02 -0.85180504881E+01  0.28326939894E+02  0.00000000000E+00 0.  1.
</event>
<event>
 5    1  0.1724235E-003  0.9118800E+02  0.7818608E-02  0.1130116E+00
         25   -1    0    0    0    0  0.00000000000E+00  0.00000000000E+00  0.99999998245E-14  0.12500000000E+03  0.12500000000E+03 0.  0.
        -13    1    3    3    0    0 -0.31620829344E+02 -0.36143427719E+02 -0.30212092598E+02  0.56736283971E+02  0.10566000000E+00 0. -1.
         23    2    1    0    0    0  0.24393414043E+01 -0.18846554207E+02 -0.22216085512E+02  0.95764790963E+02  0.91193189114E+02 0.  0.
         13    1    3    3    0    0  0.34060170748E+02  0.17296873512E+02  0.79960070854E+01  0.39028506992E+02  0.10566000000E+00 0.  1.
         22    1    1    0    0    0 -0.24393414043E+01  0.18846554207E+02  0.22216085512E+02  0.29235209037E+02  0.00000000000E+00 0. -1.
</event>
<event>
 5    1  0.1724235E-003  0.9118800E+02  0.7818608E-02  0.1130116E+00
         25   -1    0    0    0    0  0.00000000000E+00  0.00000000000E+00  0.99999998245E-14  0.12500000000E+03  0.12500000000E+03 0.  0.
        -13    1    3    3    0    0 -0.27273970956E+02 -0.27900348723E+02  0.13088424766E+02  0.41153577943E+02  0.10566000000E+00 0. -1.
         23    2    1    0    0    0 -0.14725876682E+02  0.24689674572E+02  0.49570910396E+01  0.95828023274E+02  0.91279821530E+02 0.  0.
         13    1    3    3    0    0  0.12548094275E+02  0.52590023295E+02 -0.81313337268E+01  0.54674445332E+02  0.10566000000E+00 0.  1.
         22    1    1    0    0    0  0.14725876682E+02 -0.24689674572E+02 -0.49570910396E+01  0.29171976726E+02  0.00000000000E+00 0. -1.
</event>
<event>
 5    1  0.1724235E-003  0.9118800E+02  0.7818608E-02  0.1130116E+00
         25   -1    0    0    0    0  0.00000000000E+00  0.00000000000E+00  0.99999998245E-14  0.12500000000E+03  0.12500000000E+03 0.  0.
        -13    1    3    3    0    0 -0.28569944140E+02  0.33858398985E+02 -0.40755277432E+02  0.60196650177E+02  0.10566000000E+00 0.  1.
         23    2    1    0    0    0 -0.19869281185E+02  0.58969634695E+01 -0.20822329659E+02  0.95620893046E+02  0.90995732106E+02 0.  0.
         13    1    3    3    0    0  0.87006629548E+01 -0.27961435515E+02  0.19932947773E+02  0.35424242869E+02  0.10566000000E+00 0. -1.
         22    1    1    0    0    0  0.19869281185E+02 -0.58969634695E+01  0.20822329659E+02  0.29379106954E+02  0.00000000000E+00 0.  1.
</event>
<event>
 5    1  0.1724235E-003  0.9118800E+02  0.7818608E-02  0.1130116E+00
         25   -1    0    0    0    0  0.00000000000E+00  0.00000000000E+00  0.99999998245E-14  0.12500000000E+03  0.12500000000E+03 0.  0.
        -13    1    3    3    0    0 -0.18523926725E+02 -0.26028571062E+02 -0.83097531973E+01  0.33010385261E+02  0.10566000000E+00 0.  1.
         23    2    1    0    0    0  0.20401174664E+02  0.61537988920E+01  0.23951907442E+02  0.92941131670E+02  0.87236935512E+02 0.  0.
         13    1    3    3    0    0  0.38925101389E+02  0.32182369954E+02  0.32261660639E+02  0.59930746410E+02  0.10566000000E+00 0. -1.
         22    1    1    0    0    0 -0.20401174664E+02 -0.61537988920E+01 -0.23951907442E+02  0.32058868330E+02  0.00000000000E+00 0. -1.
</event>
<event>
 5    1  0.1724235E-003  0.9118800E+02  0.7818608E-02  0.1130116E+00
         25   -1    0    0    0    0  0.00000000000E+00  0.00000000000E+00  0.99999998245E-14  0.12500000000E+03  0.12500000000E+03 0.  0.
        -13    1    3    3    0    0  0.40774070000E+02 -0.29657527032E+02  0.13478951450E+02  0.52189912725E+02  0.10566000000E+00 0.  1.
         23    2    1    0    0    0 -0.34442722853E+01 -0.19705356388E+02  0.18450448561E+02  0.97786342876E+02  0.93923296999E+02 0.  0.
         13    1    3    3    0    0 -0.44218342285E+02  0.99521706438E+01  0.49714971102E+01  0.45596430151E+02  0.10566000000E+00 0. -1.
         22    1    1    0    0    0  0.34442722853E+01  0.19705356388E+02 -0.18450448561E+02  0.27213657124E+02  0.00000000000E+00 0.  1.
</event>
<event>
 5    1  0.1724235E-003  0.9118800E+02  0.7818608E-02  0.1130116E+00
         25   -1    0    0    0    0  0.00000000000E+00  0.00000000000E+00  0.99999998245E-14  0.12500000000E+03  0.12500000000E+03 0.  0.
        -13    1    3    3    0    0  0.45251158534E+00 -0.40665723874E+01 -0.52310196550E+02  0.52470082950E+02  0.10566000000E+00 0. -1.
         23    2    1    0    0    0 -0.69237331656E+01  0.17896820643E+02 -0.49676987905E+01  0.10517798443E+03  0.10329325296E+03 0.  0.
         13    1    3    3    0    0 -0.73762447509E+01  0.21963393030E+02  0.47342497759E+02  0.52707901477E+02  0.10566000000E+00 0.  1.
         22    1    1    0    0    0  0.69237331656E+01 -0.17896820643E+02  0.49676987905E+01  0.19822015572E+02  0.00000000000E+00 0.  1.
</event>
<event>
 5    1  0.1724235E-003  0.9118800E+02  0.7818608E-02  0.1130116E+00
         25   -1    0    0    0    0  0.00000000000E+00  0.00000000000E+00  0.99999998245E-14  0.12500000000E+03  0.12500000000E+03 0.  0.
        -13    1    3    3    0    0  0.38327431939E+02  0.44885822064E+02 -0.10932310285E+02  0.60027124149E+02  0.10566000000E+00 0. -1.
         23    2    1    0    0    0  0.25107814643E+02  0.14301389991E+02  0.25966939335E+01  0.95988365589E+02  0.91499133314E+02 0.  0.
         13    1    3    3    0    0 -0.13219617296E+02 -0.30584432074E+02  0.13529004218E+02  0.35961241440E+02  0.10566000000E+00 0.  1.
         22    1    1    0    0    0 -0.25107814643E+02 -0.14301389991E+02 -0.25966939335E+01  0.29011634411E+02  0.00000000000E+00 0. -1.
</event>
<event>
 5    1  0.1724235E-003  0.9118800E+02  0.7818608E-02  0.1130116E+00
         25   -1    0    0    0    0  0.00000000000E+00  0.00000000000E+00  0.99999998245E-14  0.12500000000E+03  0.12500000000E+03 0.  0.
        -13    1    3    3    0    0  0.11854466657E+02 -0.34004671516E+02  0.16576180897E+02  0.39643751106E+02  0.10566000000E+00 0.  1.
         23    2    1    0    0    0  0.28373157372E+01  0.20871944220E+02  0.20775084081E+02  0.95414656759E+02  0.90711984819E+02 0.  0.
         13    1    3    3    0    0 -0.90171509203E+01  0.54876615736E+02  0.41989031835E+01  0.55770905653E+02  0.10566000000E+00 0. -1.
         22    1    1    0    0    0 -0.28373157372E+01 -0.20871944220E+02 -0.20775084081E+02  0.29585343241E+02  0.00000000000E+00 0. -1.
</event>
<event>
 5    1  0.1724235E-003  0.9118800E+02  0.7818608E-02  0.1130116E+00
         25   -1    0    0    0    0  0.00000000000E+00  0.00000000000E+00  0.99999998245E-14  0.12500000000E+03  0.12500000000E+03 0.  0.
        -13    1    3    3    0    0 -0.55458052736E+02  0.89447809183E+01  0.80492908855E+01  0.56748629646E+02  0.10566000000E+00 0.  1.
         23    2    1    0    0    0 -0.10780902727E+02  0.19006162682E+02  0.45663134011E+01  0.10267706781E+03  0.10022109036E+03 0.  0.
         13    1    3    3    0    0  0.44677150009E+02  0.10061381764E+02 -0.34829774843E+01  0.45928438163E+02  0.10566000000E+00 0. -1.
         22    1    1    0    0    0  0.10780902727E+02 -0.19006162682E+02 -0.45663134011E+01  0.22322932190E+02  0.00000000000E+00 0.  1.
</event>
<event>
 5    1  0.1724235E-003  0.9118800E+02  0.7818608E-02  0.1130116E+00
         25   -1    0    0    0    0  0.00000000000E+00  0.00000000000E+00  0.99999998245E-14  0.12500000000E+03  0.12500000000E+03 0.  0.
        -13    1    3    3    0    0 -0.41370750206E+01 -0.35049201450E+02 -0.34413948127E+01  0.35460065909E+02  0.10566000000E+00 0. -1.
         23    2    1    0    0    0  0.12131225352E+02  0.20327491705E+02 -0.18323348490E+02  0.95064759105E+02  0.90228541916E+02 0.  0.
         13    1    3    3    0    0  0.16268300373E+02  0.55376693154E+02 -0.14881953678E+02  0.59604693196E+02  0.10566000000E+00 0.  1.
         22    1    1    0    0    0 -0.12131225352E+02 -0.20327491705E+02  0.18323348490E+02  0.29935240895E+02  0.00000000000E+00 0.  1.
</event>
<event>
 5    1  0.1724235E-003  0.9118800E+02  0.7818608E-02  0.1130116E+00
         25   -1    0    0    0    0  0.00000000000E+00  0.00000000000E+00  0.99999998245E-14  0.12500000000E+03  0.12500000000E+03 0.  0.
        -13    1    3    3    0    0  0.27613566284E+02  0.33449592934E+01  0.28494215011E+02  0.39819960430E+02  0.10566000000E+00 0. -1.
         23    2    1    0    0    0 -0.10060230713E+02 -0.28019725382E+02  0.29887318571E+01  0.95079342076E+02  0.90248742479E+02 0.  0.
         13    1    3    3    0    0 -0.37673796996E+02 -0.31364684676E+02 -0.25505483154E+02  0.55259381646E+02  0.10566000000E+00 0.  1.
         22    1    1    0    0    0  0.10060230713E+02  0.28019725382E+02 -0.29887318571E+01  0.29920657924E+02  0.00000000000E+00 0.  1.
</event>
<event>
 5    1  0.1724235E-003  0.9118800E+02  0.7818608E-02  0.1130116E+00
         25   -1    0    0    0    0  0.00000000000E+00  0.00000000000E+00  0.99999998245E-14  0.12500000000E+03  0.12500000000E+03 0.  0.
        -13    1    3    3    0    0  0.42203570374E+02  0.18884234696E+00  0.34649493232E+02  0.54605636696E+02  0.10566000000E+00 0. -1.
         23    2    1    0    0    0  0.23397609509E+02  0.21995142042E+02  0.14412267623E+02  0.89801308800E+02  0.82615538490E+02 0.  0.
         13    1    3    3    0    0 -0.18805960865E+02  0.21806299695E+02 -0.20237225609E+02  0.35195672104E+02  0.10566000000E+00 0.  1.
         22    1    1    0    0    0 -0.23397609509E+02 -0.21995142042E+02 -0.14412267623E+02  0.35198691200E+02  0.00000000000E+00 0. -1.
</event>
<event>
 5    1  0.1724235E-003  0.9118800E+02  0.7818608E-02  0.1130116E+00
         25   -1    0    0    0    0  0.00000000000E+00  0.00000000000E+00  0.99999998245E-14  0.12500000000E+03  0.12500000000E+03 0.  0.
        -13    1    3    3    0    0 -0.29914713350E+02 -0.30396473807E+01 -0.20314493350E+02  0.36288005389E+02  0.10566000000E+00 0. -1.
         23    2    1    0    0    0  0.18470356930E+01  0.87586874789E+01  0.28172045781E+02  0.95440055638E+02  0.90746977412E+02 0.  0.
         13    1    3    3    0    0  0.31761749043E+02  0.11798334860E+02  0.48486539131E+02  0.59152050249E+02  0.10566000000E+00 0.  1.
         22    1    1    0    0    0 -0.18470356930E+01 -0.87586874789E+01 -0.28172045781E+02  0.29559944362E+02  0.00000000000E+00 0.  1.
</event>
<event>
 5    1  0.1724235E-003  0.9118800E+02  0.7818608E-02  0.1130116E+00
         25   -1    0    0    0    0  0.00000000000E+00  0.00000000000E+00  0.99999998245E-14  0.12500000000E+03  0.12500000000E+03 0.  0.
        -13    1    3    3    0    0  0.21427086041E+02  0.38952138615E+02  0.22303381079E+01  0.44512635184E+02  0.10566000000E+00 0.  1.
         23    2    1    0    0    0  0.23284389119E+01  0.15569784196E+00  0.29350998332E+02  0.95556376366E+02  0.90907062935E+02 0.  0.
         13    1    3    3    0    0 -0.19098647129E+02 -0.38796440773E+02  0.27120660224E+02  0.51043741182E+02  0.10566000000E+00 0. -1.
         22    1    1    0    0    0 -0.23284389119E+01 -0.15569784196E+00 -0.29350998332E+02  0.29443623634E+02  0.00000000000E+00 0. -1.
</event>
<event>
 5    1  0.1724235E-003  0.9118800E+02  0.7818608E-02  0.1130116E+00
         25   -1    0    0    0    0  0.00000000000E+00  0.00000000000E+00  0.99999998245E-14  0.12500000000E+03  0.12500000000E+03 0.  0.
        -13    1    3    3    0    0  0.48582247250E+02 -0.13425937427E+02 -0.24202940617E+02  0.55913183080E+02  0.10566000000E+00 0. -1.
         23    2    1    0    0    0  0.15359839576E+02  0.79491765454E+01 -0.23998877332E+02  0.95418583659E+02  0.90717395877E+02 0.  0.
         13    1    3    3    0    0 -0.33222407674E+02  0.21375113973E+02  0.20406328424E+00  0.39505400579E+02  0.10566000000E+00 0.  1.
         22    1    1    0    0    0 -0.15359839576E+02 -0.79491765454E+01  0.23998877332E+02  0.29581416341E+02  0.00000000000E+00 0. -1.
</event>
<event>
 5    1  0.1724235E-003  0.9118800E+02  0.7818608E-02  0.1130116E+00
         25   -1    0    0    0    0  0.00000000000E+00  0.00000000000E+00  0.99999998245E-14  0.12500000000E+03  0.12500000000E+03 0.  0.
        -13    1    3    3    0    0 -0.35293293053E+02  0.26368907208E+02 -0.11796665713E+02  0.45608204173E+02  0.10566000000E+00 0.  1.
         23    2    1    0    0    0 -0.81359280689E+01 -0.13510079933E+02 -0.24829467816E+02  0.95585410807E+02  0.90946977420E+02 0.  0.
         13    1    3    3    0    0  0.27157364984E+02 -0.39878987141E+02 -0.13032802103E+02  0.49977206635E+02  0.10566000000E+00 0. -1.
         22    1    1    0    0    0  0.81359280689E+01  0.13510079933E+02  0.24829467816E+02  0.29414589193E+02  0.00000000000E+00 0. -1.
</event>
<event>
 5    1  0.1724235E-003  0.9118800E+02  0.7818608E-02  0.1130116E+00
         25   -1    0    0    0    0  0.00000000000E+00  0.00000000000E+00  0.99999998245E-14  0.12500000000E+03  0.12500000000E+03 0.  0.
        -13    1    3    3    0    0 -0.47666539816E+02  0.11266795897E+02 -0.13742128267E+02  0.50871376639E+02  0.10566000000E+00 0. -1.
         23    2    1    0    0    0 -0.11041873972E+02 -0.18623505883E+02 -0.15811302526E+02  0.98190389041E+02  0.94459500635E+02 0.  0.
         13    1    3    3    0    0  0.36624665843E+02 -0.29890301779E+02 -0.20691742595E+01  0.47319012403E+02  0.10566000000E+00 0.  1.
         22    1    1    0    0    0  0.11041873972E+02  0.18623505883E+02  0.15811302526E+02  0.26809610959E+02  0.00000000000E+00 0.  1.
</event>
<event>
 5    1  0.1724235E-003  0.9118800E+02  0.7818608E-02  0.1130116E+00
         25   -1    0    0    0    0  0.00000000000E+00  0.00000000000E+00  0.99999998245E-14  0.12500000000E+03  0.12500000000E+03 0.  0.
        -13    1    3    3    0    0 -0.96581260284E+01 -0.13550006762E+02 -0.43275878963E+02  0.46364802876E+02  0.10566000000E+00 0. -1.
         23    2    1    0    0    0  0.16747222744E+02  0.17947956675E+02 -0.15669720177E+02  0.95877178212E+02  0.91347110261E+02 0.  0.
         13    1    3    3    0    0  0.26405348773E+02  0.31497963437E+02  0.27606158786E+02  0.49512375336E+02  0.10566000000E+00 0.  1.
         22    1    1    0    0    0 -0.16747222744E+02 -0.17947956675E+02  0.15669720177E+02  0.29122821788E+02  0.00000000000E+00 0. -1.
</event>
<event>
 5    1  0.1724235E-003  0.9118800E+02  0.7818608E-02  0.1130116E+00
         25   -1    0    0    0    0  0.00000000000E+00  0.00000000000E+00  0.99999998245E-14  0.12500000000E+03  0.12500000000E+03 0.  0.
        -13    1    3    3    0    0  0.13696984479E+02 -0.16932858973E+00 -0.47763182684E+02  0.49688719446E+02  0.10566000000E+00 0.  1.
         23    2    1    0    0    0  0.77648378511E+01 -0.26343590136E+02 -0.10530094722E+02  0.95586391875E+02  0.90948325815E+02 0.  0.
         13    1    3    3    0    0 -0.59321466283E+01 -0.26174261546E+02  0.37233087963E+02  0.45897672429E+02  0.10566000000E+00 0. -1.
         22    1    1    0    0    0 -0.77648378511E+01  0.26343590136E+02  0.10530094722E+02  0.29413608125E+02  0.00000000000E+00 0.  1.
</event>
<event>
 5    1  0.1724235E-003  0.9118800E+02  0.7818608E-02  0.1130116E+00
         25   -1    0    0    0    0  0.00000000000E+00  0.00000000000E+00  0.99999998245E-14  0.12500000000E+03  0.12500000000E+03 0.  0.
        -13    1    3    3    0    0 -0.22805503865E+02  0.19952827025E+02  0.25968061916E+02  0.39906863025E+02  0.10566000000E+00 0.  1.
         23    2    1    0    0    0  0.23046989246E+02  0.24344428790E+02  0.30995877079E+01  0.91333661168E+02  0.84902386845E+02 0.  0.
         13    1    3    3    0    0  0.45852493111E+02  0.43916017652E+01 -0.22868474208E+02  0.51426798142E+02  0.10566000000E+00 0. -1.
         22    1    1    0    0    0 -0.23046989246E+02 -0.24344428790E+02 -0.30995877079E+01  0.33666338832E+02  0.00000000000E+00 0. -1.
</event>
<event>
 5    1  0.1724235E-003  0.9118800E+02  0.7818608E-02  0.1130116E+00
         25   -1    0    0    0    0  0.00000000000E+00  0.00000000000E+00  0.99999998245E-14  0.12500000000E+03  0.12500000000E+03 0.  0.
        -13    1    3    3    0    0  0.31648229821E+02  0.38536060080E+02 -0.35389999871E+02  0.61148194022E+02  0.10566000000E+00 0. -1.
         23    2    1    0    0    0  0.20793221170E+02  0.17833966277E+02 -0.95573173860E+01  0.95987059518E+02  0.91497349030E+02 0.  0.
         13    1    3    3    0    0 -0.10855008650E+02 -0.20702093803E+02  0.25832682485E+02  0.34838865496E+02  0.10566000000E+00 0.  1.
         22    1    1    0    0    0 -0.20793221170E+02 -0.17833966277E+02  0.95573173860E+01  0.29012940482E+02  0.00000000000E+00 0. -1.
</event>
<event>
 5    1  0.1724235E-003  0.9118800E+02  0.7818608E-02  0.1130116E+00
         25   -1    0    0    0    0  0.00000000000E+00  0.00000000000E+00  0.99999998245E-14  0.12500000000E+03  0.12500000000E+03 0.  0.
        -13    1    3    3    0    0 -0.54806069649E+02  0.14943184066E+02  0.15815282100E+02  0.58967264921E+02  0.10566000000E+00 0.  1.
         23    2    1    0    0    0 -0.22019033759E+02 -0.34273261830E+01  0.17616850579E+02  0.96593348723E+02  0.92321921453E+02 0.  0.
         13    1    3    3    0    0  0.32787035890E+02 -0.18370510249E+02  0.18015684799E+01  0.37626083802E+02  0.10566000000E+00 0. -1.
         22    1    1    0    0    0  0.22019033759E+02  0.34273261830E+01 -0.17616850579E+02  0.28406651277E+02  0.00000000000E+00 0.  1.
</event>
<event>
 5    1  0.1724235E-003  0.9118800E+02  0.7818608E-02  0.1130116E+00
         25   -1    0    0    0    0  0.00000000000E+00  0.00000000000E+00  0.99999998245E-14  0.12500000000E+03  0.12500000000E+03 0.  0.
        -13    1    3    3    0    0  0.12204018813E+02 -0.97643183332E+01  0.42749439558E+02  0.45517092770E+02  0.10566000000E+00 0.  1.
         23    2    1    0    0    0  0.16702014686E+02  0.22023379440E+02  0.21501377420E+01  0.97276190218E+02  0.93241876614E+02 0.  0.
         13    1    3    3    0    0  0.44979958727E+01  0.31787697773E+02 -0.40599301816E+02  0.51759097447E+02  0.10566000000E+00 0. -1.
         22    1    1    0    0    0 -0.16702014686E+02 -0.22023379440E+02 -0.21501377420E+01  0.27723809782E+02  0.00000000000E+00 0. -1.
</event>
<event>
 5    1  0.1724235E-003  0.9118800E+02  0.7818608E-02  0.1130116E+00
         25   -1    0    0    0    0  0.00000000000E+00  0.00000000000E+00  0.99999998245E-14  0.12500000000E+03  0.12500000000E+03 0.  0.
        -13    1    3    3    0    0  0.38111302048E+02 -0.21768327680E+02 -0.43490984430E+02  0.61788415780E+02  0.10566000000E+00 0.  1.
         23    2    1    0    0    0  0.20865792143E+02 -0.43117858564E+01 -0.21287858045E+02  0.94881140805E+02  0.89973802861E+02 0.  0.
         13    1    3    3    0    0 -0.17245509905E+02  0.17456541824E+02  0.22203126385E+02  0.33092725026E+02  0.10566000000E+00 0. -1.
         22    1    1    0    0    0 -0.20865792143E+02  0.43117858564E+01  0.21287858045E+02  0.30118859195E+02  0.00000000000E+00 0.  1.
</event>
<event>
 5    1  0.1724235E-003  0.9118800E+02  0.7818608E-02  0.1130116E+00
         25   -1    0    0    0    0  0.00000000000E+00  0.00000000000E+00  0.99999998245E-14  0.12500000000E+03  0.12500000000E+03 0.  0.
        -13    1    3    3    0    0  0.33406150610E+02 -0.21548212849E+02 -0.18216955274E+02  0.43728308897E+02  0.10566000000E+00 0.  1.
         23    2    1    0    0    0  0.19159631773E+02  0.23898015411E+02 -0.10595856041E+01  0.94351519582E+02  0.89234970138E+02 0.  0.
         13    1    3    3    0    0 -0.14246518837E+02  0.45446228260E+02  0.17157369670E+02  0.50623210685E+02  0.10566000000E+00 0. -1.
         22    1    1    0    0    0 -0.19159631773E+02 -0.23898015411E+02  0.10595856041E+01  0.30648480418E+02  0.00000000000E+00 0. -1.
</event>
<event>
 5    1  0.1724235E-003  0.9118800E+02  0.7818608E-02  0.1130116E+00
         25   -1    0    0    0    0  0.00000000000E+00  0.00000000000E+00  0.99999998245E-14  0.12500000000E+03  0.12500000000E+03 0.  0.
        -13    1    3    3    0    0  0.59370614730E+02  0.61663274742E+01 -0.35412824947E+01  0.59795027667E+02  0.10566000000E+00 0.  1.
         23    2    1    0    0    0  0.21655793173E+02 -0.92646419391E+01 -0.62374691408E+01  0.10063377359E+03  0.97639353733E+02 0.  0.
         13    1    3    3    0    0 -0.37714821557E+02 -0.15430969413E+02 -0.26961866461E+01  0.40838745923E+02  0.10566000000E+00 0. -1.
         22    1    1    0    0    0 -0.21655793173E+02  0.92646419391E+01  0.62374691408E+01  0.24366226411E+02  0.00000000000E+00 0.  1.
</event>
<event>
 5    1  0.1724235E-003  0.9118800E+02  0.7818608E-02  0.1130116E+00
         25   -1    0    0    0    0  0.00000000000E+00  0.00000000000E+00  0.99999998245E-14  0.12500000000E+03  0.12500000000E+03 0.  0.
        -13    1    3    3    0    0  0.22845722566E+02 -0.19974728677E+01  0.37581243110E+02  0.44025878016E+02  0.10566000000E+00 0.  1.
         23    2    1    0    0    0  0.43604036726E+02 -0.12877862353E+02  0.13633625288E+02  0.77533937428E+02  0.61306478915E+02 0.  0.
         13    1    3    3    0    0  0.20758314161E+02 -0.10880389486E+02 -0.23947617822E+02  0.33508059411E+02  0.10566000000E+00 0. -1.
         22    1    1    0    0    0 -0.43604036726E+02  0.12877862353E+02 -0.13633625288E+02  0.47466062572E+02  0.00000000000E+00 0.  1.
</event>
<event>
 5    1  0.1724235E-003  0.9118800E+02  0.7818608E-02  0.1130116E+00
         25   -1    0    0    0    0  0.00000000000E+00  0.00000000000E+00  0.99999998245E-14  0.12500000000E+03  0.12500000000E+03 0.  0.
        -13    1    3    3    0    0 -0.31935283532E+02  0.41416572675E+02  0.15266310195E+02  0.54481797120E+02  0.10566000000E+00 0.  1.
         23    2    1    0    0    0 -0.18913493851E+02  0.15798250541E+02 -0.14945437532E+02  0.96178635133E+02  0.91758698678E+02 0.  0.
         13    1    3    3    0    0  0.13021789682E+02 -0.25618322134E+02 -0.30211747727E+02  0.41696838012E+02  0.10566000000E+00 0. -1.
         22    1    1    0    0    0  0.18913493851E+02 -0.15798250541E+02  0.14945437532E+02  0.28821364867E+02  0.00000000000E+00 0.  1.
</event>
<event>
 5    1  0.1724235E-003  0.9118800E+02  0.7818608E-02  0.1130116E+00
         25   -1    0    0    0    0  0.00000000000E+00  0.00000000000E+00  0.99999998245E-14  0.12500000000E+03  0.12500000000E+03 0.  0.
        -13    1    3    3    0    0 -0.59210552665E+02  0.57077001873E+01  0.15021493858E+02  0.61352455779E+02  0.10566000000E+00 0. -1.
         23    2    1    0    0    0 -0.30737502696E+02 -0.29757641616E+01  0.14048797553E+01  0.94086848568E+02  0.88863446602E+02 0.  0.
         13    1    3    3    0    0  0.28473049969E+02 -0.86834643489E+01 -0.13616614103E+02  0.32734392789E+02  0.10566000000E+00 0.  1.
         22    1    1    0    0    0  0.30737502696E+02  0.29757641616E+01 -0.14048797553E+01  0.30913151432E+02  0.00000000000E+00 0. -1.
</event>
<event>
 5    1  0.1724235E-003  0.9118800E+02  0.7818608E-02  0.1130116E+00
         25   -1    0    0    0    0  0.00000000000E+00  0.00000000000E+00  0.99999998245E-14  0.12500000000E+03  0.12500000000E+03 0.  0.
        -13    1    3    3    0    0 -0.28743412762E+02  0.12530201995E+02  0.40897463733E+02  0.51534487899E+02  0.10566000000E+00 0. -1.
         23    2    1    0    0    0 -0.27848762027E+02  0.11588825286E+02 -0.22972550880E+01  0.94748854585E+02  0.89789830417E+02 0.  0.
         13    1    3    3    0    0  0.89465073500E+00 -0.94137670852E+00 -0.43194718821E+02  0.43214366686E+02  0.10566000000E+00 0.  1.
         22    1    1    0    0    0  0.27848762027E+02 -0.11588825286E+02  0.22972550880E+01  0.30251145415E+02  0.00000000000E+00 0. -1.
</event>
<event>
 5    1  0.1724235E-003  0.9118800E+02  0.7818608E-02  0.1130116E+00
         25   -1    0    0    0    0  0.00000000000E+00  0.00000000000E+00  0.99999998245E-14  0.12500000000E+03  0.12500000000E+03 0.  0.
        -13    1    3    3    0    0 -0.21698100146E+02  0.14839338560E+02 -0.55166412596E+02  0.61109391763E+02  0.10566000000E+00 0.  1.
         23    2    1    0    0    0 -0.16729349178E+02  0.10332355456E+01 -0.36358125827E+02  0.84964365707E+02  0.74940585978E+02 0.  0.
         13    1    3    3    0    0  0.49687509685E+01 -0.13806103015E+02  0.18808286769E+02  0.23854973944E+02  0.10566000000E+00 0. -1.
         22    1    1    0    0    0  0.16729349178E+02 -0.10332355456E+01  0.36358125827E+02  0.40035634293E+02  0.00000000000E+00 0.  1.
</event>
<event>
 5    1  0.1724235E-003  0.9118800E+02  0.7818608E-02  0.1130116E+00
         25   -1    0    0    0    0  0.00000000000E+00  0.00000000000E+00  0.99999998245E-14  0.12500000000E+03  0.12500000000E+03 0.  0.
        -13    1    3    3    0    0 -0.76459504343E+00 -0.39566610839E+02  0.25856343173E+02  0.47272221708E+02  0.10566000000E+00 0.  1.
         23    2    1    0    0    0 -0.27633387122E+02 -0.11900865542E+02 -0.19999631560E+01  0.94846483835E+02  0.89925641275E+02 0.  0.
         13    1    3    3    0    0 -0.26868792079E+02  0.27665745297E+02 -0.27856306329E+02  0.47574262127E+02  0.10566000000E+00 0. -1.
         22    1    1    0    0    0  0.27633387122E+02  0.11900865542E+02  0.19999631560E+01  0.30153516165E+02  0.00000000000E+00 0. -1.
</event>
<event>
 5    1  0.1724235E-003  0.9118800E+02  0.7818608E-02  0.1130116E+00
         25   -1    0    0    0    0  0.00000000000E+00  0.00000000000E+00  0.99999998245E-14  0.12500000000E+03  0.12500000000E+03 0.  0.
        -13    1    3    3    0    0  0.12148856791E+02 -0.31481447437E+02  0.48464550582E+02  0.59055059743E+02  0.10566000000E+00 0. -1.
         23    2    1    0    0    0 -0.81166287646E+01 -0.11765867430E+02  0.26622428335E+02  0.94782968555E+02  0.89837309280E+02 0.  0.
         13    1    3    3    0    0 -0.20265485556E+02  0.19715580007E+02 -0.21842122247E+02  0.35727908812E+02  0.10566000000E+00 0.  1.
         22    1    1    0    0    0  0.81166287646E+01  0.11765867430E+02 -0.26622428335E+02  0.30217031445E+02  0.00000000000E+00 0. -1.
</event>
<event>
 5    1  0.1724235E-003  0.9118800E+02  0.7818608E-02  0.1130116E+00
         25   -1    0    0    0    0  0.00000000000E+00  0.00000000000E+00  0.99999998245E-14  0.12500000000E+03  0.12500000000E+03 0.  0.
        -13    1    3    3    0    0  0.61176274382E+01  0.38235009625E+02 -0.27899601980E+02  0.47725677378E+02  0.10566000000E+00 0.  1.
         23    2    1    0    0    0  0.24656866513E+02  0.96918089921E+01  0.81280384124E+01  0.97287958642E+02  0.93257652022E+02 0.  0.
         13    1    3    3    0    0  0.18539239075E+02 -0.28543200633E+02  0.36027640392E+02  0.49562281264E+02  0.10566000000E+00 0. -1.
         22    1    1    0    0    0 -0.24656866513E+02 -0.96918089921E+01 -0.81280384124E+01  0.27712041358E+02  0.00000000000E+00 0. -1.
</event>
<event>
 5    1  0.1724235E-003  0.9118800E+02  0.7818608E-02  0.1130116E+00
         25   -1    0    0    0    0  0.00000000000E+00  0.00000000000E+00  0.99999998245E-14  0.12500000000E+03  0.12500000000E+03 0.  0.
        -13    1    3    3    0    0 -0.66183532584E+01 -0.60893011840E+02 -0.10323885086E+02  0.62115660329E+02  0.10566000000E+00 0. -1.
         23    2    1    0    0    0 -0.19563803934E+01 -0.29339376657E+02 -0.15065081858E+00  0.95595083022E+02  0.90960270203E+02 0.  0.
         13    1    3    3    0    0  0.46619728650E+01  0.31553635184E+02  0.10173234267E+02  0.33479422692E+02  0.10566000000E+00 0.  1.
         22    1    1    0    0    0  0.19563803934E+01  0.29339376657E+02  0.15065081858E+00  0.29404916978E+02  0.00000000000E+00 0. -1.
</event>
<event>
 5    1  0.1724235E-003  0.9118800E+02  0.7818608E-02  0.1130116E+00
         25   -1    0    0    0    0  0.00000000000E+00  0.00000000000E+00  0.99999998245E-14  0.12500000000E+03  0.12500000000E+03 0.  0.
        -13    1    3    3    0    0  0.37619831621E+02 -0.28860903001E+02  0.28840676947E+02  0.55497741071E+02  0.10566000000E+00 0. -1.
         23    2    1    0    0    0  0.72354512519E+01 -0.28247359515E+02  0.24672075796E+01  0.95736504180E+02  0.91154407710E+02 0.  0.
         13    1    3    3    0    0 -0.30384380369E+02  0.61354348624E+00 -0.26373469368E+02  0.40238763109E+02  0.10566000000E+00 0.  1.
         22    1    1    0    0    0 -0.72354512519E+01  0.28247359515E+02 -0.24672075796E+01  0.29263495820E+02  0.00000000000E+00 0. -1.
</event>
<event>
 5    1  0.1724235E-003  0.9118800E+02  0.7818608E-02  0.1130116E+00
         25   -1    0    0    0    0  0.00000000000E+00  0.00000000000E+00  0.99999998245E-14  0.12500000000E+03  0.12500000000E+03 0.  0.
        -13    1    3    3    0    0  0.19729169967E+02  0.20066411955E+02 -0.23541394960E+02  0.36689364631E+02  0.10566000000E+00 0.  1.
         23    2    1    0    0    0 -0.90159582242E+01 -0.26417485362E+02  0.19958093966E+01  0.97015106026E+02  0.92891207908E+02 0.  0.
         13    1    3    3    0    0 -0.28745128191E+02 -0.46483897317E+02  0.25537204356E+02  0.60325741395E+02  0.10566000000E+00 0. -1.
         22    1    1    0    0    0  0.90159582242E+01  0.26417485362E+02 -0.19958093966E+01  0.27984893974E+02  0.00000000000E+00 0. -1.
</event>
<event>
 5    1  0.1724235E-003  0.9118800E+02  0.7818608E-02  0.1130116E+00
         25   -1    0    0    0    0  0.00000000000E+00  0.00000000000E+00  0.99999998245E-14  0.12500000000E+03  0.12500000000E+03 0.  0.
        -13    1    3    3    0    0 -0.41956570505E+02  0.27776090361E+02 -0.28571996802E+02  0.57863936693E+02  0.10566000000E+00 0.  1.
         23    2    1    0    0    0 -0.12217205114E+02  0.26160974960E+02 -0.53385843211E+01  0.95637486582E+02  0.91018523640E+02 0.  0.
         13    1    3    3    0    0  0.29739365392E+02 -0.16151154008E+01  0.23233412481E+02  0.37773549889E+02  0.10566000000E+00 0. -1.
         22    1    1    0    0    0  0.12217205114E+02 -0.26160974960E+02  0.53385843211E+01  0.29362513418E+02  0.00000000000E+00 0.  1.
</event>
<event>
 5    1  0.1724235E-003  0.9118800E+02  0.7818608E-02  0.1130116E+00
         25   -1    0    0    0    0  0.00000000000E+00  0.00000000000E+00  0.99999998245E-14  0.12500000000E+03  0.12500000000E+03 0.  0.
        -13    1    3    3    0    0 -0.28588773841E+02 -0.13297154609E+02  0.50437470619E+02  0.59481778025E+02  0.10566000000E+00 0.  1.
         23    2    1    0    0    0 -0.11129833087E+02  0.69812782257E+01  0.26659833255E+02  0.95278658519E+02  0.90524386934E+02 0.  0.
         13    1    3    3    0    0  0.17458940754E+02  0.20278432835E+02 -0.23777637364E+02  0.35796880495E+02  0.10566000000E+00 0. -1.
         22    1    1    0    0    0  0.11129833087E+02 -0.69812782257E+01 -0.26659833255E+02  0.29721341481E+02  0.00000000000E+00 0.  1.
</event>
<event>
 5    1  0.1724235E-003  0.9118800E+02  0.7818608E-02  0.1130116E+00
         25   -1    0    0    0    0  0.00000000000E+00  0.00000000000E+00  0.99999998245E-14  0.12500000000E+03  0.12500000000E+03 0.  0.
        -13    1    3    3    0    0 -0.23398797896E+02  0.24236106092E+02 -0.48889049231E+02  0.59372071550E+02  0.10566000000E+00 0. -1.
         23    2    1    0    0    0 -0.20657217257E+02  0.14001167119E+01 -0.21217116633E+02  0.95354646404E+02  0.90629253561E+02 0.  0.
         13    1    3    3    0    0  0.27415806391E+01 -0.22835989380E+02  0.27671932598E+02  0.35982574854E+02  0.10566000000E+00 0.  1.
         22    1    1    0    0    0  0.20657217257E+02 -0.14001167119E+01  0.21217116633E+02  0.29645353596E+02  0.00000000000E+00 0. -1.
</event>
<event>
 5    1  0.1724235E-003  0.9118800E+02  0.7818608E-02  0.1130116E+00
         25   -1    0    0    0    0  0.00000000000E+00  0.00000000000E+00  0.99999998245E-14  0.12500000000E+03  0.12500000000E+03 0.  0.
        -13    1    3    3    0    0 -0.28611726010E+02 -0.19008023960E+02  0.21755413546E+01  0.34419180471E+02  0.10566000000E+00 0. -1.
         23    2    1    0    0    0  0.18697261057E+02  0.21330688132E+02 -0.14242185762E+00  0.96634420309E+02  0.92377513915E+02 0.  0.
         13    1    3    3    0    0  0.47308987067E+02  0.40338712092E+02 -0.23179632122E+01  0.62215239837E+02  0.10566000000E+00 0.  1.
         22    1    1    0    0    0 -0.18697261057E+02 -0.21330688132E+02  0.14242185762E+00  0.28365579691E+02  0.00000000000E+00 0.  1.
</event>
<event>
 5    1  0.1724235E-003  0.9118800E+02  0.7818608E-02  0.1130116E+00
         25   -1    0    0    0    0  0.00000000000E+00  0.00000000000E+00  0.99999998245E-14  0.12500000000E+03  0.12500000000E+03 0.  0.
        -13    1    3    3    0    0  0.13080091329E+02 -0.41735222209E+02  0.88105171143E+01  0.44615624369E+02  0.10566000000E+00 0. -1.
         23    2    1    0    0    0 -0.79794989361E+01  0.33518971959E+01  0.26260859643E+02  0.97349676905E+02  0.93340340829E+02 0.  0.
         13    1    3    3    0    0 -0.21059590265E+02  0.45087119405E+02  0.17450342529E+02  0.52734052535E+02  0.10566000000E+00 0.  1.
         22    1    1    0    0    0  0.79794989361E+01 -0.33518971959E+01 -0.26260859643E+02  0.27650323095E+02  0.00000000000E+00 0.  1.
</event>
<event>
 5    1  0.1724235E-003  0.9118800E+02  0.7818608E-02  0.1130116E+00
         25   -1    0    0    0    0  0.00000000000E+00  0.00000000000E+00  0.99999998245E-14  0.12500000000E+03  0.12500000000E+03 0.  0.
        -13    1    3    3    0    0  0.80300292983E+01 -0.38004244178E+02 -0.53989980169E+01  0.39216887813E+02  0.10566000000E+00 0.  1.
         23    2    1    0    0    0 -0.33929465870E+02 -0.20175751469E+02  0.23245898368E+01  0.85456690585E+02  0.75757327344E+02 0.  0.
         13    1    3    3    0    0 -0.41959495168E+02  0.17828492710E+02  0.77235878536E+01  0.46239802772E+02  0.10566000000E+00 0. -1.
         22    1    1    0    0    0  0.33929465870E+02  0.20175751469E+02 -0.23245898368E+01  0.39543309415E+02  0.00000000000E+00 0. -1.
</event>
<event>
 5    1  0.1724235E-003  0.9118800E+02  0.7818608E-02  0.1130116E+00
         25   -1    0    0    0    0  0.00000000000E+00  0.00000000000E+00  0.99999998245E-14  0.12500000000E+03  0.12500000000E+03 0.  0.
        -13    1    3    3    0    0 -0.17772906645E+02 -0.28603809777E+02 -0.36023603854E+02  0.49312932818E+02  0.10566000000E+00 0.  1.
         23    2    1    0    0    0 -0.74306389747E+01  0.16838714602E+02 -0.17924486639E+02  0.99308679942E+02  0.95927941631E+02 0.  0.
         13    1    3    3    0    0  0.10342267671E+02  0.45442524379E+02  0.18099117215E+02  0.49995747125E+02  0.10566000000E+00 0. -1.
         22    1    1    0    0    0  0.74306389747E+01 -0.16838714602E+02  0.17924486639E+02  0.25691320058E+02  0.00000000000E+00 0. -1.
</event>
<event>
 5    1  0.1724235E-003  0.9118800E+02  0.7818608E-02  0.1130116E+00
         25   -1    0    0    0    0  0.00000000000E+00  0.00000000000E+00  0.99999998245E-14  0.12500000000E+03  0.12500000000E+03 0.  0.
        -13    1    3    3    0    0  0.41328056983E+02  0.25063534618E+02  0.14218937549E+02  0.50382322402E+02  0.10566000000E+00 0. -1.
         23    2    1    0    0    0  0.25908506784E+02 -0.10725870029E+02 -0.87599240232E+01  0.95622605960E+02  0.90998085090E+02 0.  0.
         13    1    3    3    0    0 -0.15419550199E+02 -0.35789404647E+02 -0.22978861572E+02  0.45240283559E+02  0.10566000000E+00 0.  1.
         22    1    1    0    0    0 -0.25908506784E+02  0.10725870029E+02  0.87599240232E+01  0.29377394040E+02  0.00000000000E+00 0. -1.
</event>
<event>
 5    1  0.1724235E-003  0.9118800E+02  0.7818608E-02  0.1130116E+00
         25   -1    0    0    0    0  0.00000000000E+00  0.00000000000E+00  0.99999998245E-14  0.12500000000E+03  0.12500000000E+03 0.  0.
        -13    1    3    3    0    0 -0.15340651218E+02 -0.26932509121E+02 -0.52755165461E+02  0.61186716485E+02  0.10566000000E+00 0.  1.
         23    2    1    0    0    0 -0.81547262561E+00 -0.18572296328E+02 -0.22129487493E+02  0.96098280272E+02  0.91649168398E+02 0.  0.
         13    1    3    3    0    0  0.14525178592E+02  0.83602127924E+01  0.30625677968E+02  0.34911563788E+02  0.10566000000E+00 0. -1.
         22    1    1    0    0    0  0.81547262561E+00  0.18572296328E+02  0.22129487493E+02  0.28901719728E+02  0.00000000000E+00 0.  1.
</event>
<event>
 5    1  0.1724235E-003  0.9118800E+02  0.7818608E-02  0.1130116E+00
         25   -1    0    0    0    0  0.00000000000E+00  0.00000000000E+00  0.99999998245E-14  0.12500000000E+03  0.12500000000E+03 0.  0.
        -13    1    3    3    0    0 -0.40513519414E+02 -0.10763625519E+02 -0.44503712703E+01  0.42154689633E+02  0.10566000000E+00 0. -1.
         23    2    1    0    0    0 -0.46184261552E+01  0.18202122330E+02  0.22592137705E+02  0.95622256664E+02  0.90997605276E+02 0.  0.
         13    1    3    3    0    0  0.35895093259E+02  0.28965747849E+02  0.27042508975E+02  0.53467567031E+02  0.10566000000E+00 0.  1.
         22    1    1    0    0    0  0.46184261552E+01 -0.18202122330E+02 -0.22592137705E+02  0.29377743336E+02  0.00000000000E+00 0.  1.
</event>
<event>
 5    1  0.1724235E-003  0.9118800E+02  0.7818608E-02  0.1130116E+00
         25   -1    0    0    0    0  0.00000000000E+00  0.00000000000E+00  0.99999998245E-14  0.12500000000E+03  0.12500000000E+03 0.  0.
        -13    1    3    3    0    0  0.31676918839E+02  0.42404032919E+02 -0.33015891397E+02  0.62382605298E+02  0.10566000000E+00 0. -1.
         23    2    1    0    0    0  0.15834399317E+02  0.20957860001E+02 -0.13202908205E+02  0.95601413595E+02  0.90968969427E+02 0.  0.
         13    1    3    3    0    0 -0.15842519522E+02 -0.21446172918E+02  0.19812983192E+02  0.33218808297E+02  0.10566000000E+00 0.  1.
         22    1    1    0    0    0 -0.15834399317E+02 -0.20957860001E+02  0.13202908205E+02  0.29398586405E+02  0.00000000000E+00 0. -1.
</event>
<event>
 5    1  0.1724235E-003  0.9118800E+02  0.7818608E-02  0.1130116E+00
         25   -1    0    0    0    0  0.00000000000E+00  0.00000000000E+00  0.99999998245E-14  0.12500000000E+03  0.12500000000E+03 0.  0.
        -13    1    3    3    0    0 -0.79766845792E+01  0.30828596946E+02 -0.11053573384E+02  0.33707900188E+02  0.10566000000E+00 0. -1.
         23    2    1    0    0    0  0.27964743708E+02 -0.88076456160E+01  0.13671831427E+02  0.92650031120E+02  0.86818821577E+02 0.  0.
         13    1    3    3    0    0  0.35941428287E+02 -0.39636242562E+02  0.24725404810E+02  0.58942130932E+02  0.10566000000E+00 0.  1.
         22    1    1    0    0    0 -0.27964743708E+02  0.88076456160E+01 -0.13671831427E+02  0.32349968880E+02  0.00000000000E+00 0.  1.
</event>
<event>
 5    1  0.1724235E-003  0.9118800E+02  0.7818608E-02  0.1130116E+00
         25   -1    0    0    0    0  0.00000000000E+00  0.00000000000E+00  0.99999998245E-14  0.12500000000E+03  0.12500000000E+03 0.  0.
        -13    1    3    3    0    0 -0.23899395685E+02  0.18083370665E+02  0.13614978724E+02  0.32917597398E+02  0.10566000000E+00 0. -1.
         23    2    1    0    0    0  0.31829460108E+02  0.15044354854E+02  0.67945734868E+01  0.89144548914E+02  0.81615790313E+02 0.  0.
         13    1    3    3    0    0  0.55728855794E+02 -0.30390158115E+01 -0.68204052370E+01  0.56226951516E+02  0.10566000000E+00 0.  1.
         22    1    1    0    0    0 -0.31829460108E+02 -0.15044354854E+02 -0.67945734868E+01  0.35855451086E+02  0.00000000000E+00 0.  1.
</event>
<event>
 5    1  0.1724235E-003  0.9118800E+02  0.7818608E-02  0.1130116E+00
         25   -1    0    0    0    0  0.00000000000E+00  0.00000000000E+00  0.99999998245E-14  0.12500000000E+03  0.12500000000E+03 0.  0.
        -13    1    3    3    0    0 -0.36190754574E+02  0.20187784582E+02 -0.13283899859E+01  0.41461948181E+02  0.10566000000E+00 0.  1.
         23    2    1    0    0    0 -0.80177378217E+01 -0.23530472799E+02  0.14989548687E+02  0.95971499526E+02  0.91476089125E+02 0.  0.
         13    1    3    3    0    0  0.28173016752E+02 -0.43718257381E+02  0.16317938673E+02  0.54509551346E+02  0.10566000000E+00 0. -1.
         22    1    1    0    0    0  0.80177378217E+01  0.23530472799E+02 -0.14989548687E+02  0.29028500474E+02  0.00000000000E+00 0. -1.
</event>
<event>
 5    1  0.1724235E-003  0.9118800E+02  0.7818608E-02  0.1130116E+00
         25   -1    0    0    0    0  0.00000000000E+00  0.00000000000E+00  0.99999998245E-14  0.12500000000E+03  0.12500000000E+03 0.  0.
        -13    1    3    3    0    0  0.19667909979E+02  0.24628755305E+02 -0.14224073650E+02  0.34579440511E+02  0.10566000000E+00 0. -1.
         23    2    1    0    0    0 -0.16399848190E+02 -0.12664242601E+02  0.19571937601E+02  0.96497389545E+02  0.92191905210E+02 0.  0.
         13    1    3    3    0    0 -0.36067758169E+02 -0.37292997906E+02  0.33796011251E+02  0.61917949034E+02  0.10566000000E+00 0.  1.
         22    1    1    0    0    0  0.16399848190E+02  0.12664242601E+02 -0.19571937601E+02  0.28502610455E+02  0.00000000000E+00 0.  1.
</event>
<event>
 5    1  0.1724235E-003  0.9118800E+02  0.7818608E-02  0.1130116E+00
         25   -1    0    0    0    0  0.00000000000E+00  0.00000000000E+00  0.99999998245E-14  0.12500000000E+03  0.12500000000E+03 0.  0.
        -13    1    3    3    0    0 -0.11178409465E+02  0.53202747884E+02 -0.17644587510E+02  0.57156205726E+02  0.10566000000E+00 0. -1.
         23    2    1    0    0    0 -0.67578718477E+01  0.30252896493E+02  0.91186419857E+01  0.92688141344E+02  0.86873674585E+02 0.  0.
         13    1    3    3    0    0  0.44205376176E+01 -0.22949851390E+02  0.26763229496E+02  0.35531935618E+02  0.10566000000E+00 0.  1.
         22    1    1    0    0    0  0.67578718477E+01 -0.30252896493E+02 -0.91186419857E+01  0.32311858656E+02  0.00000000000E+00 0. -1.
</event>
<event>
 5    1  0.1724235E-003  0.9118800E+02  0.7818608E-02  0.1130116E+00
         25   -1    0    0    0    0  0.00000000000E+00  0.00000000000E+00  0.99999998245E-14  0.12500000000E+03  0.12500000000E+03 0.  0.
        -13    1    3    3    0    0  0.42447040938E+02  0.13142133499E+02 -0.17026379077E+02  0.47585456872E+02  0.10566000000E+00 0.  1.
         23    2    1    0    0    0  0.43838654832E+01  0.28179063399E+02  0.77767184713E+01  0.95440648843E+02  0.90747794523E+02 0.  0.
         13    1    3    3    0    0 -0.38063175454E+02  0.15036929901E+02  0.24803097548E+02  0.47855191971E+02  0.10566000000E+00 0. -1.
         22    1    1    0    0    0 -0.43838654832E+01 -0.28179063399E+02 -0.77767184713E+01  0.29559351157E+02  0.00000000000E+00 0.  1.
</event>
<event>
 5    1  0.1724235E-003  0.9118800E+02  0.7818608E-02  0.1130116E+00
         25   -1    0    0    0    0  0.00000000000E+00  0.00000000000E+00  0.99999998245E-14  0.12500000000E+03  0.12500000000E+03 0.  0.
        -13    1    3    3    0    0 -0.26278796582E+01 -0.24796909498E+02 -0.54274700303E+02  0.59728943814E+02  0.10566000000E+00 0. -1.
         23    2    1    0    0    0 -0.98808999956E+00 -0.32174770505E+01 -0.38110806099E+02  0.86740857015E+02  0.77847377950E+02 0.  0.
         13    1    3    3    0    0  0.16397896587E+01  0.21579432447E+02  0.16163894204E+02  0.27011913200E+02  0.10566000000E+00 0.  1.
         22    1    1    0    0    0  0.98808999956E+00  0.32174770505E+01  0.38110806099E+02  0.38259142985E+02  0.00000000000E+00 0. -1.
</event>
<event>
 5    1  0.1724235E-003  0.9118800E+02  0.7818608E-02  0.1130116E+00
         25   -1    0    0    0    0  0.00000000000E+00  0.00000000000E+00  0.99999998245E-14  0.12500000000E+03  0.12500000000E+03 0.  0.
        -13    1    3    3    0    0  0.14639319035E+02  0.47938307075E+02 -0.54108557714E+01  0.50415071866E+02  0.10566000000E+00 0. -1.
         23    2    1    0    0    0  0.12057587351E+02  0.18601641716E+02  0.24202688192E+02  0.92179631279E+02  0.86138886804E+02 0.  0.
         13    1    3    3    0    0 -0.25817316836E+01 -0.29336665359E+02  0.29613543963E+02  0.41764559413E+02  0.10566000000E+00 0.  1.
         22    1    1    0    0    0 -0.12057587351E+02 -0.18601641716E+02 -0.24202688192E+02  0.32820368721E+02  0.00000000000E+00 0. -1.
</event>
<event>
 5    1  0.1724235E-003  0.9118800E+02  0.7818608E-02  0.1130116E+00
         25   -1    0    0    0    0  0.00000000000E+00  0.00000000000E+00  0.99999998245E-14  0.12500000000E+03  0.12500000000E+03 0.  0.
        -13    1    3    3    0    0 -0.32030410465E+02  0.22656541496E+02  0.37040384257E+02  0.53956160881E+02  0.10566000000E+00 0.  1.
         23    2    1    0    0    0  0.39815229227E+01  0.26343270925E+01  0.28585530360E+02  0.96018544722E+02  0.91540352745E+02 0.  0.
         13    1    3    3    0    0  0.36011933388E+02 -0.20022214404E+02 -0.84548538962E+01  0.42062383841E+02  0.10566000000E+00 0. -1.
         22    1    1    0    0    0 -0.39815229227E+01 -0.26343270925E+01 -0.28585530360E+02  0.28981455278E+02  0.00000000000E+00 0. -1.
</event>
<event>
 5    1  0.1724235E-003  0.9118800E+02  0.7818608E-02  0.1130116E+00
         25   -1    0    0    0    0  0.00000000000E+00  0.00000000000E+00  0.99999998245E-14  0.12500000000E+03  0.12500000000E+03 0.  0.
        -13    1    3    3    0    0  0.13574961550E+02 -0.40146381478E+02  0.20118870096E+02  0.46912595588E+02  0.10566000000E+00 0.  1.
         23    2    1    0    0    0  0.28362462461E+02 -0.20581510503E+02 -0.12562940707E+02  0.87772922078E+02  0.79487297850E+02 0.  0.
         13    1    3    3    0    0  0.14787500910E+02  0.19564870975E+02 -0.32681810803E+02  0.40860326489E+02  0.10566000000E+00 0. -1.
         22    1    1    0    0    0 -0.28362462461E+02  0.20581510503E+02  0.12562940707E+02  0.37227077922E+02  0.00000000000E+00 0. -1.
</event>
<event>
 5    1  0.1724235E-003  0.9118800E+02  0.7818608E-02  0.1130116E+00
         25   -1    0    0    0    0  0.00000000000E+00  0.00000000000E+00  0.99999998245E-14  0.12500000000E+03  0.12500000000E+03 0.  0.
        -13    1    3    3    0    0  0.65080583188E+01  0.18132455729E+02  0.34551114401E+02  0.39559214404E+02  0.10566000000E+00 0.  1.
         23    2    1    0    0    0 -0.45176257851E+01  0.23948494279E+01 -0.23625662729E+02  0.10082736701E+03  0.97886882428E+02 0.  0.
         13    1    3    3    0    0 -0.11025684104E+02 -0.15737606302E+02 -0.58176777129E+02  0.61268152602E+02  0.10566000000E+00 0. -1.
         22    1    1    0    0    0  0.45176257851E+01 -0.23948494279E+01  0.23625662729E+02  0.24172632994E+02  0.00000000000E+00 0. -1.
</event>
<event>
 5    1  0.1724235E-003  0.9118800E+02  0.7818608E-02  0.1130116E+00
         25   -1    0    0    0    0  0.00000000000E+00  0.00000000000E+00  0.99999998245E-14  0.12500000000E+03  0.12500000000E+03 0.  0.
        -13    1    3    3    0    0  0.15254390614E+02  0.44841219062E+02 -0.32193426011E+02  0.57270055023E+02  0.10566000000E+00 0. -1.
         23    2    1    0    0    0 -0.35831513849E+01  0.12714424881E+02 -0.27090587442E+02  0.94860399772E+02  0.89944982868E+02 0.  0.
         13    1    3    3    0    0 -0.18837541998E+02 -0.32126794181E+02  0.51028385684E+01  0.37590344749E+02  0.10566000000E+00 0.  1.
         22    1    1    0    0    0  0.35831513849E+01 -0.12714424881E+02  0.27090587442E+02  0.30139600228E+02  0.00000000000E+00 0. -1.
</event>
<event>
 5    1  0.1724235E-003  0.9118800E+02  0.7818608E-02  0.1130116E+00
         25   -1    0    0    0    0  0.00000000000E+00  0.00000000000E+00  0.99999998245E-14  0.12500000000E+03  0.12500000000E+03 0.  0.
        -13    1    3    3    0    0  0.10936451799E+02 -0.45065312923E+02  0.39950978241E+02  0.61209314922E+02  0.10566000000E+00 0.  1.
         23    2    1    0    0    0 -0.15180199950E+01 -0.18191661814E+02  0.23986137583E+02  0.94857409859E+02  0.89940827574E+02 0.  0.
         13    1    3    3    0    0 -0.12454471794E+02  0.26873651110E+02 -0.15964840657E+02  0.33648094937E+02  0.10566000000E+00 0. -1.
         22    1    1    0    0    0  0.15180199950E+01  0.18191661814E+02 -0.23986137583E+02  0.30142590141E+02  0.00000000000E+00 0.  1.
</event>
<event>
 5    1  0.1724235E-003  0.9118800E+02  0.7818608E-02  0.1130116E+00
         25   -1    0    0    0    0  0.00000000000E+00  0.00000000000E+00  0.99999998245E-14  0.12500000000E+03  0.12500000000E+03 0.  0.
        -13    1    3    3    0    0  0.32755501131E+02 -0.20587381679E+02  0.25383417930E+01  0.38771348724E+02  0.10566000000E+00 0. -1.
         23    2    1    0    0    0 -0.83430118990E+01 -0.11406471309E+02 -0.29900309009E+02  0.91928230860E+02  0.85773292550E+02 0.  0.
         13    1    3    3    0    0 -0.41098513030E+02  0.91809103706E+01 -0.32438650802E+02  0.53156882136E+02  0.10566000000E+00 0.  1.
         22    1    1    0    0    0  0.83430118990E+01  0.11406471309E+02  0.29900309009E+02  0.33071769140E+02  0.00000000000E+00 0.  1.
</event>
<event>
 5    1  0.1724235E-003  0.9118800E+02  0.7818608E-02  0.1130116E+00
         25   -1    0    0    0    0  0.00000000000E+00  0.00000000000E+00  0.99999998245E-14  0.12500000000E+03  0.12500000000E+03 0.  0.
        -13    1    3    3    0    0  0.51281369851E+02 -0.96223221207E+01 -0.19194834360E+02  0.55595150930E+02  0.10566000000E+00 0.  1.
         23    2    1    0    0    0  0.81733720838E+01 -0.84467717288E+01 -0.23288821847E+02  0.98913198991E+02  0.95411213952E+02 0.  0.
         13    1    3    3    0    0 -0.43107997767E+02  0.11755503919E+01 -0.40939874876E+01  0.43318048061E+02  0.10566000000E+00 0. -1.
         22    1    1    0    0    0 -0.81733720838E+01  0.84467717288E+01  0.23288821847E+02  0.26086801009E+02  0.00000000000E+00 0.  1.
</event>
<event>
 5    1  0.1724235E-003  0.9118800E+02  0.7818608E-02  0.1130116E+00
         25   -1    0    0    0    0  0.00000000000E+00  0.00000000000E+00  0.99999998245E-14  0.12500000000E+03  0.12500000000E+03 0.  0.
        -13    1    3    3    0    0 -0.39073747457E+02 -0.16847679986E+02 -0.82725668316E+01  0.43347994040E+02  0.10566000000E+00 0. -1.
         23    2    1    0    0    0 -0.10507035615E+02  0.26928502029E+02 -0.43665902817E+01  0.95766301472E+02  0.91195259570E+02 0.  0.
         13    1    3    3    0    0  0.28566711842E+02  0.43776182015E+02  0.39059765498E+01  0.52418307432E+02  0.10566000000E+00 0.  1.
         22    1    1    0    0    0  0.10507035615E+02 -0.26928502029E+02  0.43665902817E+01  0.29233698528E+02  0.00000000000E+00 0. -1.
</event>
<event>
 5    1  0.1724235E-003  0.9118800E+02  0.7818608E-02  0.1130116E+00
         25   -1    0    0    0    0  0.00000000000E+00  0.00000000000E+00  0.99999998245E-14  0.12500000000E+03  0.12500000000E+03 0.  0.
        -13    1    3    3    0    0  0.15620921383E+02  0.39066290127E+01 -0.48796787509E+02  0.51384944977E+02  0.10566000000E+00 0. -1.
         23    2    1    0    0    0 -0.18731007855E+02 -0.54616777911E+01 -0.17469257829E+02  0.98811156027E+02  0.95277431781E+02 0.  0.
         13    1    3    3    0    0 -0.34351929237E+02 -0.93683068038E+01  0.31327529680E+02  0.47426211050E+02  0.10566000000E+00 0.  1.
         22    1    1    0    0    0  0.18731007855E+02  0.54616777911E+01  0.17469257829E+02  0.26188843973E+02  0.00000000000E+00 0.  1.
</event>
<event>
 5    1  0.1724235E-003  0.9118800E+02  0.7818608E-02  0.1130116E+00
         25   -1    0    0    0    0  0.00000000000E+00  0.00000000000E+00  0.99999998245E-14  0.12500000000E+03  0.12500000000E+03 0.  0.
        -13    1    3    3    0    0 -0.57399735165E+01  0.52278237902E+02  0.30529112791E+02  0.60811177804E+02  0.10566000000E+00 0. -1.
         23    2    1    0    0    0  0.14782572776E+01  0.28619912457E+02  0.58528708281E+01  0.95750372130E+02  0.91173422841E+02 0.  0.
         13    1    3    3    0    0  0.72182307941E+01 -0.23658325445E+02 -0.24676241963E+02  0.34939194326E+02  0.10566000000E+00 0.  1.
         22    1    1    0    0    0 -0.14782572776E+01 -0.28619912457E+02 -0.58528708281E+01  0.29249627870E+02  0.00000000000E+00 0. -1.
</event>
<event>
 5    1  0.1724235E-003  0.9118800E+02  0.7818608E-02  0.1130116E+00
         25   -1    0    0    0    0  0.00000000000E+00  0.00000000000E+00  0.99999998245E-14  0.12500000000E+03  0.12500000000E+03 0.  0.
        -13    1    3    3    0    0  0.65173180419E+01 -0.37382116038E+02 -0.63752150828E+01  0.38477949079E+02  0.10566000000E+00 0.  1.
         23    2    1    0    0    0  0.21142687971E+01  0.17317172827E+02 -0.23288676088E+02  0.95901597275E+02  0.91380519361E+02 0.  0.
         13    1    3    3    0    0 -0.44030492449E+01  0.54699288864E+02 -0.16913461005E+02  0.57423648196E+02  0.10566000000E+00 0. -1.
         22    1    1    0    0    0 -0.21142687971E+01 -0.17317172827E+02  0.23288676088E+02  0.29098402725E+02  0.00000000000E+00 0. -1.
</event>
<event>
 4    1  0.1724235E-003  0.9118800E+02  0.7818608E-02  0.1130116E+00
         25   -1    0    0    0    0  0.00000000000E+00  0.00000000000E+00  0.99999998245E-14  0.12500000000E+03  0.12500000000E+03 0.  0.
        -13    1    1    0    0    0  0.16053091831E+01  0.69268479621E+01 -0.14124704660E+02  0.15813813140E+02  0.10566000000E+00 0.  1.
         13    1    1    0    0    0  0.35764440027E+02  0.34730019277E+02  0.18211240858E+02  0.53074757344E+02  0.10566000000E+00 0. -1.
         22    1    1    0    0    0 -0.37369749210E+02 -0.41656867239E+02 -0.40865361981E+01  0.56111429516E+02  0.00000000000E+00 0. -1.
</event>
<event>
 5    1  0.1724235E-003  0.9118800E+02  0.7818608E-02  0.1130116E+00
         25   -1    0    0    0    0  0.00000000000E+00  0.00000000000E+00  0.99999998245E-14  0.12500000000E+03  0.12500000000E+03 0.  0.
        -13    1    3    3    0    0  0.30756668367E+02  0.38558479038E+02  0.20923914638E+02  0.53577516950E+02  0.10566000000E+00 0.  1.
         23    2    1    0    0    0  0.25139779787E+02 -0.38758485575E+01  0.90898619001E+01  0.97987848676E+02  0.94191093894E+02 0.  0.
         13    1    3    3    0    0 -0.56168885798E+01 -0.42434327595E+02 -0.11834052738E+02  0.44410331726E+02  0.10566000000E+00 0. -1.
         22    1    1    0    0    0 -0.25139779787E+02  0.38758485575E+01 -0.90898619001E+01  0.27012151324E+02  0.00000000000E+00 0.  1.
</event>
<event>
 4    1  0.1724235E-003  0.9118800E+02  0.7818608E-02  0.1130116E+00
         25   -1    0    0    0    0  0.00000000000E+00  0.00000000000E+00  0.99999998245E-14  0.12500000000E+03  0.12500000000E+03 0.  0.
        -13    1    1    0    0    0  0.11678056850E+02  0.15723955726E+02 -0.20924464972E+02  0.28661196658E+02  0.10566000000E+00 0.  1.
         13    1    1    0    0    0 -0.36535671367E+02 -0.62650088651E+01 -0.23979759435E+02  0.44149129605E+02  0.10566000000E+00 0. -1.
         22    1    1    0    0    0  0.24857614517E+02 -0.94589468605E+01  0.44904224407E+02  0.52189673737E+02  0.00000000000E+00 0. -1.
</event>
<event>
 5    1  0.1724235E-003  0.9118800E+02  0.7818608E-02  0.1130116E+00
         25   -1    0    0    0    0  0.00000000000E+00  0.00000000000E+00  0.99999998245E-14  0.12500000000E+03  0.12500000000E+03 0.  0.
        -13    1    3    3    0    0  0.17930871122E+02  0.46131525425E+02  0.13170005385E+02  0.51216149631E+02  0.10566000000E+00 0.  1.
         23    2    1    0    0    0 -0.11763376827E+02  0.18573594997E+02  0.23289443330E+02  0.92972611157E+02  0.87282030162E+02 0.  0.
         13    1    3    3    0    0 -0.29694247949E+02 -0.27557930428E+02  0.10119437945E+02  0.41756461525E+02  0.10566000000E+00 0. -1.
         22    1    1    0    0    0  0.11763376827E+02 -0.18573594997E+02 -0.23289443330E+02  0.32027388843E+02  0.00000000000E+00 0.  1.
</event>
<event>
 5    1  0.1724235E-003  0.9118800E+02  0.7818608E-02  0.1130116E+00
         25   -1    0    0    0    0  0.00000000000E+00  0.00000000000E+00  0.99999998245E-14  0.12500000000E+03  0.12500000000E+03 0.  0.
        -13    1    3    3    0    0  0.21566048680E+02 -0.27535018940E+02 -0.47700842190E+02  0.59149414480E+02  0.10566000000E+00 0.  1.
         23    2    1    0    0    0 -0.19202878303E+01 -0.20888230001E+02 -0.21287847434E+02  0.95113914503E+02  0.90296614697E+02 0.  0.
         13    1    3    3    0    0 -0.23486336510E+02  0.66467889383E+01  0.26412994756E+02  0.35964500023E+02  0.10566000000E+00 0. -1.
         22    1    1    0    0    0  0.19202878303E+01  0.20888230001E+02  0.21287847434E+02  0.29886085497E+02  0.00000000000E+00 0.  1.
</event>
<event>
 5    1  0.1724235E-003  0.9118800E+02  0.7818608E-02  0.1130116E+00
         25   -1    0    0    0    0  0.00000000000E+00  0.00000000000E+00  0.99999998245E-14  0.12500000000E+03  0.12500000000E+03 0.  0.
        -13    1    3    3    0    0  0.33947130582E+02 -0.11456166845E+02  0.55213098437E+01  0.36251171843E+02  0.10566000000E+00 0. -1.
         23    2    1    0    0    0 -0.17447312091E+02  0.17881862735E+01 -0.22662153310E+02  0.96343770276E+02  0.91983382027E+02 0.  0.
         13    1    3    3    0    0 -0.51394442673E+02  0.13244353119E+02 -0.28183463153E+02  0.60092598434E+02  0.10566000000E+00 0.  1.
         22    1    1    0    0    0  0.17447312091E+02 -0.17881862735E+01  0.22662153310E+02  0.28656229724E+02  0.00000000000E+00 0.  1.
</event>
<event>
 5    1  0.1724235E-003  0.9118800E+02  0.7818608E-02  0.1130116E+00
         25   -1    0    0    0    0  0.00000000000E+00  0.00000000000E+00  0.99999998245E-14  0.12500000000E+03  0.12500000000E+03 0.  0.
        -13    1    3    3    0    0 -0.54939679503E+02  0.24949684774E+01 -0.23028703671E+01  0.55044596716E+02  0.10566000000E+00 0.  1.
         23    2    1    0    0    0 -0.19168495952E+02  0.18469511696E+02  0.10683924864E+02  0.96317246474E+02  0.91947330676E+02 0.  0.
         13    1    3    3    0    0  0.35771183551E+02  0.15974543218E+02  0.12986795231E+02  0.41272649758E+02  0.10566000000E+00 0. -1.
         22    1    1    0    0    0  0.19168495952E+02 -0.18469511696E+02 -0.10683924864E+02  0.28682753526E+02  0.00000000000E+00 0.  1.
</event>
<event>
 5    1  0.1724235E-003  0.9118800E+02  0.7818608E-02  0.1130116E+00
         25   -1    0    0    0    0  0.00000000000E+00  0.00000000000E+00  0.99999998245E-14  0.12500000000E+03  0.12500000000E+03 0.  0.
        -13    1    3    3    0    0  0.24247892070E+02  0.45868360699E+02  0.31555125817E+02  0.60725644603E+02  0.10566000000E+00 0. -1.
         23    2    1    0    0    0  0.12932749077E+02  0.13769184469E+02  0.21847283637E+02  0.96118340734E+02  0.91676524713E+02 0.  0.
         13    1    3    3    0    0 -0.11315142993E+02 -0.32099176230E+02 -0.97078421797E+01  0.35392696131E+02  0.10566000000E+00 0.  1.
         22    1    1    0    0    0 -0.12932749077E+02 -0.13769184469E+02 -0.21847283637E+02  0.28881659266E+02  0.00000000000E+00 0. -1.
</event>
<event>
 5    1  0.1724235E-003  0.9118800E+02  0.7818608E-02  0.1130116E+00
         25   -1    0    0    0    0  0.00000000000E+00  0.00000000000E+00  0.99999998245E-14  0.12500000000E+03  0.12500000000E+03 0.  0.
        -13    1    3    3    0    0 -0.21499838260E+02 -0.21474415146E+02  0.20943640559E+02  0.36905836869E+02  0.10566000000E+00 0. -1.
         23    2    1    0    0    0 -0.49136152415E+01  0.17536555441E+02 -0.21452765934E+02  0.96859361100E+02  0.92681391201E+02 0.  0.
         13    1    3    3    0    0  0.16586223018E+02  0.39010970587E+02 -0.42396406493E+02  0.59953524231E+02  0.10566000000E+00 0.  1.
         22    1    1    0    0    0  0.49136152415E+01 -0.17536555441E+02  0.21452765934E+02  0.28140638900E+02  0.00000000000E+00 0.  1.
</event>
<event>
 5    1  0.1724235E-003  0.9118800E+02  0.7818608E-02  0.1130116E+00
         25   -1    0    0    0    0  0.00000000000E+00  0.00000000000E+00  0.99999998245E-14  0.12500000000E+03  0.12500000000E+03 0.  0.
        -13    1    3    3    0    0 -0.57269255014E+01 -0.27682148184E+02  0.25211192927E+02  0.37877624221E+02  0.10566000000E+00 0.  1.
         23    2    1    0    0    0 -0.67632713415E+01  0.26108767680E+02  0.18941260256E+02  0.92042740874E+02  0.85940009416E+02 0.  0.
         13    1    3    3    0    0 -0.10363458400E+01  0.53790915865E+02 -0.62699326710E+01  0.54165116653E+02  0.10566000000E+00 0. -1.
         22    1    1    0    0    0  0.67632713415E+01 -0.26108767680E+02 -0.18941260256E+02  0.32957259126E+02  0.00000000000E+00 0. -1.
</event>
<event>
 5    1  0.1724235E-003  0.9118800E+02  0.7818608E-02  0.1130116E+00
         25   -1    0    0    0    0  0.00000000000E+00  0.00000000000E+00  0.99999998245E-14  0.12500000000E+03  0.12500000000E+03 0.  0.
        -13    1    3    3    0    0  0.17634630758E+01  0.42050543422E+02 -0.27687390384E+02  0.50378177363E+02  0.10566000000E+00 0.  1.
         23    2    1    0    0    0  0.65879620151E+01  0.36908746086E-01 -0.31480240701E+02  0.92837783653E+02  0.87088724375E+02 0.  0.
         13    1    3    3    0    0  0.48244989393E+01 -0.42013634676E+02 -0.37928503164E+01  0.42459606290E+02  0.10566000000E+00 0. -1.
         22    1    1    0    0    0 -0.65879620151E+01 -0.36908746086E-01  0.31480240701E+02  0.32162216347E+02  0.00000000000E+00 0.  1.
</event>
<event>
 5    1  0.1724235E-003  0.9118800E+02  0.7818608E-02  0.1130116E+00
         25   -1    0    0    0    0  0.00000000000E+00  0.00000000000E+00  0.99999998245E-14  0.12500000000E+03  0.12500000000E+03 0.  0.
        -13    1    3    3    0    0  0.40534647279E+02 -0.16858816797E+02  0.11712706889E+02  0.45436505153E+02  0.10566000000E+00 0.  1.
         23    2    1    0    0    0 -0.74931164512E+01 -0.96594529062E+01  0.26176856311E+02  0.96109177393E+02  0.91664029740E+02 0.  0.
         13    1    3    3    0    0 -0.48027763730E+02  0.71993638908E+01  0.14464149423E+02  0.50672672240E+02  0.10566000000E+00 0. -1.
         22    1    1    0    0    0  0.74931164512E+01  0.96594529062E+01 -0.26176856311E+02  0.28890822607E+02  0.00000000000E+00 0. -1.
</event>
<event>
 5    1  0.1724235E-003  0.9118800E+02  0.7818608E-02  0.1130116E+00
         25   -1    0    0    0    0  0.00000000000E+00  0.00000000000E+00  0.99999998245E-14  0.12500000000E+03  0.12500000000E+03 0.  0.
        -13    1    3    3    0    0 -0.23180160949E+02 -0.39540416419E+02 -0.35985260714E+02  0.58272759888E+02  0.10566000000E+00 0. -1.
         23    2    1    0    0    0  0.97841578162E+00 -0.26747328202E+02 -0.88018310673E+01  0.96824672255E+02  0.92634594314E+02 0.  0.
         13    1    3    3    0    0  0.24158576730E+02  0.12793088217E+02  0.27183429647E+02  0.38551912367E+02  0.10566000000E+00 0.  1.
         22    1    1    0    0    0 -0.97841578162E+00  0.26747328202E+02  0.88018310673E+01  0.28175327745E+02  0.00000000000E+00 0. -1.
</event>
<event>
 5    1  0.1724235E-003  0.9118800E+02  0.7818608E-02  0.1130116E+00
         25   -1    0    0    0    0  0.00000000000E+00  0.00000000000E+00  0.99999998245E-14  0.12500000000E+03  0.12500000000E+03 0.  0.
        -13    1    3    3    0    0  0.17472873510E+02 -0.20209154290E+02 -0.20937787945E+02  0.33942795316E+02  0.10566000000E+00 0. -1.
         23    2    1    0    0    0 -0.24566094777E+02  0.12592528955E+02  0.10058099763E+02  0.95619221097E+02  0.90993435336E+02 0.  0.
         13    1    3    3    0    0 -0.42038968287E+02  0.32801683244E+02  0.30995887708E+02  0.61676425781E+02  0.10566000000E+00 0.  1.
         22    1    1    0    0    0  0.24566094777E+02 -0.12592528955E+02 -0.10058099763E+02  0.29380778903E+02  0.00000000000E+00 0.  1.
</event>
<event>
 5    1  0.1724235E-003  0.9118800E+02  0.7818608E-02  0.1130116E+00
         25   -1    0    0    0    0  0.00000000000E+00  0.00000000000E+00  0.99999998245E-14  0.12500000000E+03  0.12500000000E+03 0.  0.
        -13    1    3    3    0    0  0.47581311349E+01 -0.38688558180E+02 -0.71249689686E+00  0.38986704936E+02  0.10566000000E+00 0.  1.
         23    2    1    0    0    0  0.52175781403E+01  0.12178552175E+02  0.25537919851E+02  0.96229779197E+02  0.91828344204E+02 0.  0.
         13    1    3    3    0    0  0.45944700535E+00  0.50867110355E+02  0.26250416748E+02  0.57243074261E+02  0.10566000000E+00 0. -1.
         22    1    1    0    0    0 -0.52175781403E+01 -0.12178552175E+02 -0.25537919851E+02  0.28770220803E+02  0.00000000000E+00 0. -1.
</event>
<event>
 5    1  0.1724235E-003  0.9118800E+02  0.7818608E-02  0.1130116E+00
         25   -1    0    0    0    0  0.00000000000E+00  0.00000000000E+00  0.99999998245E-14  0.12500000000E+03  0.12500000000E+03 0.  0.
        -13    1    3    3    0    0 -0.26761984293E+02 -0.58304564875E+01  0.21510548843E+02  0.34826899112E+02  0.10566000000E+00 0. -1.
         23    2    1    0    0    0  0.23753472476E+02 -0.86351125562E+01 -0.13493687261E+02  0.96349132309E+02  0.91990668425E+02 0.  0.
         13    1    3    3    0    0  0.50515456770E+02 -0.28046560686E+01 -0.35004236104E+02  0.61522233197E+02  0.10566000000E+00 0.  1.
         22    1    1    0    0    0 -0.23753472476E+02  0.86351125562E+01  0.13493687261E+02  0.28650867691E+02  0.00000000000E+00 0.  1.
</event>
<event>
 5    1  0.1724235E-003  0.9118800E+02  0.7818608E-02  0.1130116E+00
         25   -1    0    0    0    0  0.00000000000E+00  0.00000000000E+00  0.99999998245E-14  0.12500000000E+03  0.12500000000E+03 0.  0.
        -13    1    3    3    0    0  0.21444034278E+01  0.22960552644E+02  0.24641295076E+02  0.33748926366E+02  0.10566000000E+00 0.  1.
         23    2    1    0    0    0  0.24770714040E+01 -0.14426925701E+02 -0.25080761378E+02  0.95960085068E+02  0.91460490197E+02 0.  0.
         13    1    3    3    0    0  0.33266797621E+00 -0.37387478345E+02 -0.49722056454E+02  0.62211158702E+02  0.10566000000E+00 0. -1.
         22    1    1    0    0    0 -0.24770714040E+01  0.14426925701E+02  0.25080761378E+02  0.29039914932E+02  0.00000000000E+00 0. -1.
</event>
<event>
 5    1  0.1724235E-003  0.9118800E+02  0.7818608E-02  0.1130116E+00
         25   -1    0    0    0    0  0.00000000000E+00  0.00000000000E+00  0.99999998245E-14  0.12500000000E+03  0.12500000000E+03 0.  0.
        -13    1    3    3    0    0  0.10059978283E+02 -0.26930450278E+02 -0.36308186277E+02  0.46311422673E+02  0.10566000000E+00 0.  1.
         23    2    1    0    0    0 -0.16180988599E+02  0.84364379539E+01 -0.28681126587E+02  0.91005810795E+02  0.84418319687E+02 0.  0.
         13    1    3    3    0    0 -0.26240966882E+02  0.35366888232E+02  0.76270596896E+01  0.44694388123E+02  0.10566000000E+00 0. -1.
         22    1    1    0    0    0  0.16180988599E+02 -0.84364379539E+01  0.28681126587E+02  0.33994189205E+02  0.00000000000E+00 0. -1.
</event>
<event>
 5    1  0.1724235E-003  0.9118800E+02  0.7818608E-02  0.1130116E+00
         25   -1    0    0    0    0  0.00000000000E+00  0.00000000000E+00  0.99999998245E-14  0.12500000000E+03  0.12500000000E+03 0.  0.
        -13    1    3    3    0    0  0.84549533270E+01 -0.60896764011E+02 -0.37855695252E+01  0.61597433416E+02  0.10566000000E+00 0. -1.
         23    2    1    0    0    0  0.10802107635E+02 -0.25233811251E+02 -0.34155915224E+01  0.97339612710E+02  0.93326862036E+02 0.  0.
         13    1    3    3    0    0  0.23471543077E+01  0.35662952760E+02  0.36997800277E+00  0.35742179294E+02  0.10566000000E+00 0.  1.
         22    1    1    0    0    0 -0.10802107635E+02  0.25233811251E+02  0.34155915224E+01  0.27660387290E+02  0.00000000000E+00 0. -1.
</event>
<event>
 5    1  0.1724235E-003  0.9118800E+02  0.7818608E-02  0.1130116E+00
         25   -1    0    0    0    0  0.00000000000E+00  0.00000000000E+00  0.99999998245E-14  0.12500000000E+03  0.12500000000E+03 0.  0.
        -13    1    3    3    0    0  0.38960703768E+02  0.23173748185E+02 -0.30296655682E+02  0.54523917253E+02  0.10566000000E+00 0. -1.
         23    2    1    0    0    0  0.26779804374E+02 -0.93317551583E+01 -0.90094409844E+01  0.95244166899E+02  0.90476746873E+02 0.  0.
         13    1    3    3    0    0 -0.12180899394E+02 -0.32505503344E+02  0.21287214698E+02  0.40720249646E+02  0.10566000000E+00 0.  1.
         22    1    1    0    0    0 -0.26779804374E+02  0.93317551583E+01  0.90094409844E+01  0.29755833101E+02  0.00000000000E+00 0. -1.
</event>
<event>
 5    1  0.1724235E-003  0.9118800E+02  0.7818608E-02  0.1130116E+00
         25   -1    0    0    0    0  0.00000000000E+00  0.00000000000E+00  0.99999998245E-14  0.12500000000E+03  0.12500000000E+03 0.  0.
        -13    1    3    3    0    0 -0.13376932431E+02 -0.18568018248E+02  0.47600796350E+02  0.52816291049E+02  0.10566000000E+00 0. -1.
         23    2    1    0    0    0  0.70670719211E+01  0.10728793818E+02  0.29411098853E+02  0.92905401419E+02  0.87185723342E+02 0.  0.
         13    1    3    3    0    0  0.20444004352E+02  0.29296812066E+02 -0.18189697497E+02  0.40089110370E+02  0.10566000000E+00 0.  1.
         22    1    1    0    0    0 -0.70670719211E+01 -0.10728793818E+02 -0.29411098853E+02  0.32094598581E+02  0.00000000000E+00 0.  1.
</event>
<event>
 5    1  0.1724235E-003  0.9118800E+02  0.7818608E-02  0.1130116E+00
         25   -1    0    0    0    0  0.00000000000E+00  0.00000000000E+00  0.99999998245E-14  0.12500000000E+03  0.12500000000E+03 0.  0.
        -13    1    3    3    0    0 -0.33684000450E+02 -0.99869603774E+01  0.42564732739E+02  0.55191656082E+02  0.10566000000E+00 0.  1.
         23    2    1    0    0    0 -0.27556272472E+02  0.66424621745E+01  0.57117354475E+01  0.96084703389E+02  0.91630649060E+02 0.  0.
         13    1    3    3    0    0  0.61277279777E+01  0.16629422552E+02 -0.36852997292E+02  0.40893047306E+02  0.10566000000E+00 0. -1.
         22    1    1    0    0    0  0.27556272472E+02 -0.66424621745E+01 -0.57117354475E+01  0.28915296611E+02  0.00000000000E+00 0.  1.
</event>
<event>
 5    1  0.1724235E-003  0.9118800E+02  0.7818608E-02  0.1130116E+00
         25   -1    0    0    0    0  0.00000000000E+00  0.00000000000E+00  0.99999998245E-14  0.12500000000E+03  0.12500000000E+03 0.  0.
        -13    1    3    3    0    0  0.42100107342E+02  0.55472562264E+01  0.39427244839E+02  0.57945749538E+02  0.10566000000E+00 0.  1.
         23    2    1    0    0    0  0.79090833327E+01  0.13502266143E+02  0.24134325536E+02  0.96236647288E+02  0.91837692817E+02 0.  0.
         13    1    3    3    0    0 -0.34191024010E+02  0.79550099167E+01 -0.15292919303E+02  0.38290897749E+02  0.10566000000E+00 0. -1.
         22    1    1    0    0    0 -0.79090833327E+01 -0.13502266143E+02 -0.24134325536E+02  0.28763352712E+02  0.00000000000E+00 0.  1.
</event>
<event>
 5    1  0.1724235E-003  0.9118800E+02  0.7818608E-02  0.1130116E+00
         25   -1    0    0    0    0  0.00000000000E+00  0.00000000000E+00  0.99999998245E-14  0.12500000000E+03  0.12500000000E+03 0.  0.
        -13    1    3    3    0    0  0.32249935274E+01  0.89398433298E+01 -0.37919879045E+02  0.39092835313E+02  0.10566000000E+00 0.  1.
         23    2    1    0    0    0  0.31950301528E+02  0.74510905399E+00  0.62698896467E+01  0.92431787409E+02  0.86504027953E+02 0.  0.
         13    1    3    3    0    0  0.28725308000E+02 -0.81947342758E+01  0.44189768692E+02  0.53338952095E+02  0.10566000000E+00 0. -1.
         22    1    1    0    0    0 -0.31950301528E+02 -0.74510905399E+00 -0.62698896467E+01  0.32568212591E+02  0.00000000000E+00 0. -1.
</event>
<event>
 5    1  0.1724235E-003  0.9118800E+02  0.7818608E-02  0.1130116E+00
         25   -1    0    0    0    0  0.00000000000E+00  0.00000000000E+00  0.99999998245E-14  0.12500000000E+03  0.12500000000E+03 0.  0.
        -13    1    3    3    0    0  0.88561953340E+01  0.48066067306E+02  0.24151971629E+02  0.54517042470E+02  0.10566000000E+00 0.  1.
         23    2    1    0    0    0 -0.14854717930E+02  0.24353653494E+02 -0.10328694779E+01  0.96454774433E+02  0.92134106651E+02 0.  0.
         13    1    3    3    0    0 -0.23710913265E+02 -0.23712413812E+02 -0.25184841107E+02  0.41937731963E+02  0.10566000000E+00 0. -1.
         22    1    1    0    0    0  0.14854717930E+02 -0.24353653494E+02  0.10328694779E+01  0.28545225567E+02  0.00000000000E+00 0.  1.
</event>
<event>
 5    1  0.1724235E-003  0.9118800E+02  0.7818608E-02  0.1130116E+00
         25   -1    0    0    0    0  0.00000000000E+00  0.00000000000E+00  0.99999998245E-14  0.12500000000E+03  0.12500000000E+03 0.  0.
        -13    1    3    3    0    0  0.24223509050E+02  0.10036235540E+01  0.47558722590E+02  0.53381915564E+02  0.10566000000E+00 0.  1.
         23    2    1    0    0    0  0.92539743670E+01 -0.21560882410E+02  0.10462168444E+02  0.99310222648E+02  0.95929951850E+02 0.  0.
         13    1    3    3    0    0 -0.14969534683E+02 -0.22564505964E+02 -0.37096554146E+02  0.45928307083E+02  0.10566000000E+00 0. -1.
         22    1    1    0    0    0 -0.92539743670E+01  0.21560882410E+02 -0.10462168444E+02  0.25689777352E+02  0.00000000000E+00 0.  1.
</event>
<event>
 5    1  0.1724235E-003  0.9118800E+02  0.7818608E-02  0.1130116E+00
         25   -1    0    0    0    0  0.00000000000E+00  0.00000000000E+00  0.99999998245E-14  0.12500000000E+03  0.12500000000E+03 0.  0.
        -13    1    3    3    0    0  0.87987996539E+01 -0.44097298097E+02 -0.39466833920E+01  0.45139539748E+02  0.10566000000E+00 0.  1.
         23    2    1    0    0    0  0.25102348242E+02  0.14773338537E+01  0.13337369096E+02  0.96536061113E+02  0.92244323827E+02 0.  0.
         13    1    3    3    0    0  0.16303548588E+02  0.45574631951E+02  0.17284052488E+02  0.51396521365E+02  0.10566000000E+00 0. -1.
         22    1    1    0    0    0 -0.25102348242E+02 -0.14773338537E+01 -0.13337369096E+02  0.28463938887E+02  0.00000000000E+00 0. -1.
</event>
<event>
 5    1  0.1724235E-003  0.9118800E+02  0.7818608E-02  0.1130116E+00
         25   -1    0    0    0    0  0.00000000000E+00  0.00000000000E+00  0.99999998245E-14  0.12500000000E+03  0.12500000000E+03 0.  0.
        -13    1    3    3    0    0  0.45462168794E+02  0.39935690427E+01  0.24577809154E+02  0.51834710880E+02  0.10566000000E+00 0.  1.
         23    2    1    0    0    0  0.11621045364E+02 -0.22089530637E+02  0.15817806006E+02  0.95450058444E+02  0.90760754795E+02 0.  0.
         13    1    3    3    0    0 -0.33841123430E+02 -0.26083099680E+02 -0.87600031480E+01  0.43615347564E+02  0.10566000000E+00 0. -1.
         22    1    1    0    0    0 -0.11621045364E+02  0.22089530637E+02 -0.15817806006E+02  0.29549941556E+02  0.00000000000E+00 0.  1.
</event>
<event>
 5    1  0.1724235E-003  0.9118800E+02  0.7818608E-02  0.1130116E+00
         25   -1    0    0    0    0  0.00000000000E+00  0.00000000000E+00  0.99999998245E-14  0.12500000000E+03  0.12500000000E+03 0.  0.
        -13    1    3    3    0    0 -0.89208310541E+01  0.39287115093E+02  0.45711913200E+02  0.60931509184E+02  0.10566000000E+00 0.  1.
         23    2    1    0    0    0 -0.10981724411E+02  0.11980812612E+02  0.24631662318E+02  0.95489714836E+02  0.90815355029E+02 0.  0.
         13    1    3    3    0    0 -0.20608933567E+01 -0.27306302481E+02 -0.21080250881E+02  0.34558205652E+02  0.10566000000E+00 0. -1.
         22    1    1    0    0    0  0.10981724411E+02 -0.11980812612E+02 -0.24631662318E+02  0.29510285164E+02  0.00000000000E+00 0.  1.
</event>
<event>
 5    1  0.1724235E-003  0.9118800E+02  0.7818608E-02  0.1130116E+00
         25   -1    0    0    0    0  0.00000000000E+00  0.00000000000E+00  0.99999998245E-14  0.12500000000E+03  0.12500000000E+03 0.  0.
        -13    1    3    3    0    0  0.33477879683E+01  0.47089396964E+02 -0.28593362696E+02  0.55192486309E+02  0.10566000000E+00 0. -1.
         23    2    1    0    0    0 -0.15984908274E+02  0.91743607540E+01 -0.18402405459E+02  0.98955140345E+02  0.95466146284E+02 0.  0.
         13    1    3    3    0    0 -0.19332696242E+02 -0.37915036210E+02  0.10190957237E+02  0.43762654036E+02  0.10566000000E+00 0.  1.
         22    1    1    0    0    0  0.15984908274E+02 -0.91743607540E+01  0.18402405459E+02  0.26044859655E+02  0.00000000000E+00 0. -1.
</event>
<event>
 5    1  0.1724235E-003  0.9118800E+02  0.7818608E-02  0.1130116E+00
         25   -1    0    0    0    0  0.00000000000E+00  0.00000000000E+00  0.99999998245E-14  0.12500000000E+03  0.12500000000E+03 0.  0.
        -13    1    3    3    0    0  0.33313074494E+02  0.41027875136E+02  0.88429594177E+01  0.53584107399E+02  0.10566000000E+00 0.  1.
         23    2    1    0    0    0  0.23971472678E+02  0.76412591565E+01 -0.15043936368E+02  0.95685492239E+02  0.91084428195E+02 0.  0.
         13    1    3    3    0    0 -0.93416018166E+01 -0.33386615980E+02 -0.23886895786E+02  0.42101384839E+02  0.10566000000E+00 0. -1.
         22    1    1    0    0    0 -0.23971472678E+02 -0.76412591565E+01  0.15043936368E+02  0.29314507761E+02  0.00000000000E+00 0.  1.
</event>
<event>
 5    1  0.1724235E-003  0.9118800E+02  0.7818608E-02  0.1130116E+00
         25   -1    0    0    0    0  0.00000000000E+00  0.00000000000E+00  0.99999998245E-14  0.12500000000E+03  0.12500000000E+03 0.  0.
        -13    1    3    3    0    0 -0.37176248552E+02 -0.29158144955E+02  0.33293445571E+02  0.57799096495E+02  0.10566000000E+00 0.  1.
         23    2    1    0    0    0 -0.17674304188E+02  0.11452512817E+01  0.24281353222E+02  0.94945437230E+02  0.90063085154E+02 0.  0.
         13    1    3    3    0    0  0.19501944365E+02  0.30303396236E+02 -0.90120923493E+01  0.37146340735E+02  0.10566000000E+00 0. -1.
         22    1    1    0    0    0  0.17674304188E+02 -0.11452512817E+01 -0.24281353222E+02  0.30054562770E+02  0.00000000000E+00 0.  1.
</event>
<event>
 5    1  0.1724235E-003  0.9118800E+02  0.7818608E-02  0.1130116E+00
         25   -1    0    0    0    0  0.00000000000E+00  0.00000000000E+00  0.99999998245E-14  0.12500000000E+03  0.12500000000E+03 0.  0.
        -13    1    3    3    0    0  0.46672039075E+00 -0.36748203669E+02  0.62204263174E+01  0.37274028068E+02  0.10566000000E+00 0.  1.
         23    2    1    0    0    0  0.18823558707E+02  0.19553326183E+02  0.85653598267E+01  0.96539073870E+02  0.92248406314E+02 0.  0.
         13    1    3    3    0    0  0.18356838316E+02  0.56301529852E+02  0.23449335093E+01  0.59265045802E+02  0.10566000000E+00 0. -1.
         22    1    1    0    0    0 -0.18823558707E+02 -0.19553326183E+02 -0.85653598267E+01  0.28460926130E+02  0.00000000000E+00 0. -1.
</event>
<event>
 5    1  0.1724235E-003  0.9118800E+02  0.7818608E-02  0.1130116E+00
         25   -1    0    0    0    0  0.00000000000E+00  0.00000000000E+00  0.99999998245E-14  0.12500000000E+03  0.12500000000E+03 0.  0.
        -13    1    3    3    0    0 -0.12123841738E+02  0.10662761812E+02 -0.26907786590E+02  0.31380283159E+02  0.10566000000E+00 0.  1.
         23    2    1    0    0    0  0.26841229582E+02  0.30662855014E+01  0.18924576987E+02  0.92015256157E+02  0.85900023511E+02 0.  0.
         13    1    3    3    0    0  0.38965071320E+02 -0.75964763103E+01  0.45832363577E+02  0.60634972998E+02  0.10566000000E+00 0. -1.
         22    1    1    0    0    0 -0.26841229582E+02 -0.30662855014E+01 -0.18924576987E+02  0.32984743843E+02  0.00000000000E+00 0. -1.
</event>
<event>
 5    1  0.1724235E-003  0.9118800E+02  0.7818608E-02  0.1130116E+00
         25   -1    0    0    0    0  0.00000000000E+00  0.00000000000E+00  0.99999998245E-14  0.12500000000E+03  0.12500000000E+03 0.  0.
        -13    1    3    3    0    0 -0.12709830573E+02  0.85869388750E+01  0.34244573083E+02  0.37523023094E+02  0.10566000000E+00 0.  1.
         23    2    1    0    0    0  0.26886034277E+02 -0.82490667830E+01 -0.57818658829E+01  0.96288749330E+02  0.91908581387E+02 0.  0.
         13    1    3    3    0    0  0.39595864850E+02 -0.16836005658E+02 -0.40026438966E+02  0.58765726236E+02  0.10566000000E+00 0. -1.
         22    1    1    0    0    0 -0.26886034277E+02  0.82490667830E+01  0.57818658829E+01  0.28711250670E+02  0.00000000000E+00 0. -1.
</event>
<event>
 5    1  0.1724235E-003  0.9118800E+02  0.7818608E-02  0.1130116E+00
         25   -1    0    0    0    0  0.00000000000E+00  0.00000000000E+00  0.99999998245E-14  0.12500000000E+03  0.12500000000E+03 0.  0.
        -13    1    3    3    0    0  0.33746210950E+02  0.22159023989E+02  0.19183761224E+02  0.44697393171E+02  0.10566000000E+00 0.  1.
         23    2    1    0    0    0  0.11342633394E+02  0.20472910860E+02 -0.22806698563E+02  0.92320634787E+02  0.86343260864E+02 0.  0.
         13    1    3    3    0    0 -0.22403577555E+02 -0.16861131288E+01 -0.41990459787E+02  0.47623241615E+02  0.10566000000E+00 0. -1.
         22    1    1    0    0    0 -0.11342633394E+02 -0.20472910860E+02  0.22806698563E+02  0.32679365213E+02  0.00000000000E+00 0. -1.
</event>
<event>
 5    1  0.1724235E-003  0.9118800E+02  0.7818608E-02  0.1130116E+00
         25   -1    0    0    0    0  0.00000000000E+00  0.00000000000E+00  0.99999998245E-14  0.12500000000E+03  0.12500000000E+03 0.  0.
        -13    1    3    3    0    0  0.37182740915E+02 -0.43806862392E+02 -0.20745673980E+02  0.61090028380E+02  0.10566000000E+00 0. -1.
         23    2    1    0    0    0  0.99646188784E+01 -0.26005091123E+02 -0.11183466286E+02  0.94989529963E+02  0.90124261388E+02 0.  0.
         13    1    3    3    0    0 -0.27218122037E+02  0.17801771269E+02  0.95622076946E+01  0.33899501583E+02  0.10566000000E+00 0.  1.
         22    1    1    0    0    0 -0.99646188784E+01  0.26005091123E+02  0.11183466286E+02  0.30010470037E+02  0.00000000000E+00 0. -1.
</event>
<event>
 5    1  0.1724235E-003  0.9118800E+02  0.7818608E-02  0.1130116E+00
         25   -1    0    0    0    0  0.00000000000E+00  0.00000000000E+00  0.99999998245E-14  0.12500000000E+03  0.12500000000E+03 0.  0.
        -13    1    3    3    0    0  0.42602113813E+02 -0.35326068750E+02 -0.24027787276E+00  0.55343835539E+02  0.10566000000E+00 0.  1.
         23    2    1    0    0    0  0.54747969575E+01 -0.24419651267E+02 -0.13891197616E+02  0.96377314226E+02  0.92028954990E+02 0.  0.
         13    1    3    3    0    0 -0.37127316856E+02  0.10906417484E+02 -0.13650919743E+02  0.41033478687E+02  0.10566000000E+00 0. -1.
         22    1    1    0    0    0 -0.54747969575E+01  0.24419651267E+02  0.13891197616E+02  0.28622685774E+02  0.00000000000E+00 0.  1.
</event>
<event>
 5    1  0.1724235E-003  0.9118800E+02  0.7818608E-02  0.1130116E+00
         25   -1    0    0    0    0  0.00000000000E+00  0.00000000000E+00  0.99999998245E-14  0.12500000000E+03  0.12500000000E+03 0.  0.
        -13    1    3    3    0    0  0.23655709307E+02  0.40644762299E+01 -0.56309319658E+02  0.61211626299E+02  0.10566000000E+00 0.  1.
         23    2    1    0    0    0  0.17006013853E+02 -0.37874742450E+01 -0.22555133708E+02  0.96499411849E+02  0.92194647146E+02 0.  0.
         13    1    3    3    0    0 -0.66496954540E+01 -0.78519504750E+01  0.33754185950E+02  0.35287785550E+02  0.10566000000E+00 0. -1.
         22    1    1    0    0    0 -0.17006013853E+02  0.37874742450E+01  0.22555133708E+02  0.28500588151E+02  0.00000000000E+00 0.  1.
</event>
<event>
 5    1  0.1724235E-003  0.9118800E+02  0.7818608E-02  0.1130116E+00
         25   -1    0    0    0    0  0.00000000000E+00  0.00000000000E+00  0.99999998245E-14  0.12500000000E+03  0.12500000000E+03 0.  0.
        -13    1    3    3    0    0  0.30509767316E+02  0.16934735577E+02 -0.14006534382E+02  0.37600868875E+02  0.10566000000E+00 0. -1.
         23    2    1    0    0    0 -0.70051873442E+01 -0.27294620036E+02 -0.64944774850E+01  0.96082061442E+02  0.91627044918E+02 0.  0.
         13    1    3    3    0    0 -0.37514954661E+02 -0.44229355613E+02  0.75120568972E+01  0.58481192566E+02  0.10566000000E+00 0.  1.
         22    1    1    0    0    0  0.70051873442E+01  0.27294620036E+02  0.64944774850E+01  0.28917938558E+02  0.00000000000E+00 0.  1.
</event>
<event>
 5    1  0.1724235E-003  0.9118800E+02  0.7818608E-02  0.1130116E+00
         25   -1    0    0    0    0  0.00000000000E+00  0.00000000000E+00  0.99999998245E-14  0.12500000000E+03  0.12500000000E+03 0.  0.
        -13    1    3    3    0    0  0.21460017106E+02  0.38005922276E+01 -0.26434791676E+02  0.34260563487E+02  0.10566000000E+00 0. -1.
         23    2    1    0    0    0 -0.46935198302E+00 -0.67000309155E+01  0.29232367321E+02  0.95005967181E+02  0.90147056498E+02 0.  0.
         13    1    3    3    0    0 -0.21929369089E+02 -0.10500623143E+02  0.55667158997E+02  0.60745403694E+02  0.10566000000E+00 0.  1.
         22    1    1    0    0    0  0.46935198302E+00  0.67000309155E+01 -0.29232367321E+02  0.29994032819E+02  0.00000000000E+00 0.  1.
</event>
<event>
 5    1  0.1724235E-003  0.9118800E+02  0.7818608E-02  0.1130116E+00
         25   -1    0    0    0    0  0.00000000000E+00  0.00000000000E+00  0.99999998245E-14  0.12500000000E+03  0.12500000000E+03 0.  0.
        -13    1    3    3    0    0  0.31305835506E+02  0.45405886211E+01 -0.25504154819E+02  0.40634287970E+02  0.10566000000E+00 0.  1.
         23    2    1    0    0    0  0.15387431879E+02  0.66463958893E+01  0.25711138318E+02  0.94307814158E+02  0.89173726733E+02 0.  0.
         13    1    3    3    0    0 -0.15918403626E+02  0.21058072682E+01  0.51215293137E+02  0.53673526188E+02  0.10566000000E+00 0. -1.
         22    1    1    0    0    0 -0.15387431879E+02 -0.66463958893E+01 -0.25711138318E+02  0.30692185842E+02  0.00000000000E+00 0. -1.
</event>
<event>
 5    1  0.1724235E-003  0.9118800E+02  0.7818608E-02  0.1130116E+00
         25   -1    0    0    0    0  0.00000000000E+00  0.00000000000E+00  0.99999998245E-14  0.12500000000E+03  0.12500000000E+03 0.  0.
        -13    1    3    3    0    0  0.28441613561E+02 -0.45390713122E+02 -0.13564709288E+02  0.55256264095E+02  0.10566000000E+00 0.  1.
         23    2    1    0    0    0  0.24646185225E+02 -0.55535711776E+01 -0.15568667564E+02  0.95324083693E+02  0.90587090268E+02 0.  0.
         13    1    3    3    0    0 -0.37954283361E+01  0.39837141944E+02 -0.20039582759E+01  0.40067819598E+02  0.10566000000E+00 0. -1.
         22    1    1    0    0    0 -0.24646185225E+02  0.55535711776E+01  0.15568667564E+02  0.29675916307E+02  0.00000000000E+00 0. -1.
</event>
<event>
 5    1  0.1724235E-003  0.9118800E+02  0.7818608E-02  0.1130116E+00
         25   -1    0    0    0    0  0.00000000000E+00  0.00000000000E+00  0.99999998245E-14  0.12500000000E+03  0.12500000000E+03 0.  0.
        -13    1    3    3    0    0 -0.68562058617E+01  0.86161710481E+01  0.49368907110E+02  0.50582073066E+02  0.10566000000E+00 0.  1.
         23    2    1    0    0    0 -0.44522843490E+01  0.28169260258E+02  0.96947189040E+01  0.94878286336E+02  0.89969837079E+02 0.  0.
         13    1    3    3    0    0  0.24039215127E+01  0.19553089210E+02 -0.39674188206E+02  0.44296213271E+02  0.10566000000E+00 0. -1.
         22    1    1    0    0    0  0.44522843490E+01 -0.28169260258E+02 -0.96947189040E+01  0.30121713664E+02  0.00000000000E+00 0. -1.
</event>
<event>
 5    1  0.1724235E-003  0.9118800E+02  0.7818608E-02  0.1130116E+00
         25   -1    0    0    0    0  0.00000000000E+00  0.00000000000E+00  0.99999998245E-14  0.12500000000E+03  0.12500000000E+03 0.  0.
        -13    1    3    3    0    0 -0.30837206381E+02  0.49823947696E+01  0.12619924687E+02  0.33690224371E+02  0.10566000000E+00 0. -1.
         23    2    1    0    0    0  0.24682434954E+02 -0.17755891863E+02  0.54004058859E+01  0.94118635476E+02  0.88908148497E+02 0.  0.
         13    1    3    3    0    0  0.55519641335E+02 -0.22738286632E+02 -0.72195188014E+01  0.60428411105E+02  0.10566000000E+00 0.  1.
         22    1    1    0    0    0 -0.24682434954E+02  0.17755891863E+02 -0.54004058859E+01  0.30881364524E+02  0.00000000000E+00 0.  1.
</event>
<event>
 5    1  0.1724235E-003  0.9118800E+02  0.7818608E-02  0.1130116E+00
         25   -1    0    0    0    0  0.00000000000E+00  0.00000000000E+00  0.99999998245E-14  0.12500000000E+03  0.12500000000E+03 0.  0.
        -13    1    3    3    0    0 -0.17577034044E-02  0.20115212864E+02  0.29067055554E+02  0.35348644589E+02  0.10566000000E+00 0.  1.
         23    2    1    0    0    0  0.44726142501E+01 -0.30732361073E+02  0.29677481865E+00  0.93942466765E+02  0.88660118945E+02 0.  0.
         13    1    3    3    0    0  0.44743719535E+01 -0.50847573937E+02 -0.28770280735E+02  0.58593822176E+02  0.10566000000E+00 0. -1.
         22    1    1    0    0    0 -0.44726142501E+01  0.30732361073E+02 -0.29677481865E+00  0.31057533235E+02  0.00000000000E+00 0. -1.
</event>
<event>
 5    1  0.1724235E-003  0.9118800E+02  0.7818608E-02  0.1130116E+00
         25   -1    0    0    0    0  0.00000000000E+00  0.00000000000E+00  0.99999998245E-14  0.12500000000E+03  0.12500000000E+03 0.  0.
        -13    1    3    3    0    0  0.25718758458E+02  0.58303382834E+01 -0.20640612384E+02  0.33488705928E+02  0.10566000000E+00 0. -1.
         23    2    1    0    0    0 -0.27290387047E+02 -0.30364820897E+01  0.10497534628E+02  0.95602998760E+02  0.90971147569E+02 0.  0.
         13    1    3    3    0    0 -0.53009145505E+02 -0.88668203731E+01  0.31138147012E+02  0.62114292832E+02  0.10566000000E+00 0.  1.
         22    1    1    0    0    0  0.27290387047E+02  0.30364820897E+01 -0.10497534628E+02  0.29397001240E+02  0.00000000000E+00 0.  1.
</event>
<event>
 5    1  0.1724235E-003  0.9118800E+02  0.7818608E-02  0.1130116E+00
         25   -1    0    0    0    0  0.00000000000E+00  0.00000000000E+00  0.99999998245E-14  0.12500000000E+03  0.12500000000E+03 0.  0.
        -13    1    3    3    0    0 -0.20405630818E+02 -0.37205691308E+02 -0.42133728271E+02  0.59798958660E+02  0.10566000000E+00 0. -1.
         23    2    1    0    0    0 -0.20473012361E+02 -0.10880612346E+02 -0.16495907548E+02  0.96545704612E+02  0.92257390778E+02 0.  0.
         13    1    3    3    0    0 -0.67381543476E-01  0.26325078963E+02  0.25637820722E+02  0.36746745952E+02  0.10566000000E+00 0.  1.
         22    1    1    0    0    0  0.20473012361E+02  0.10880612346E+02  0.16495907548E+02  0.28454295388E+02  0.00000000000E+00 0. -1.
</event>
<event>
 5    1  0.1724235E-003  0.9118800E+02  0.7818608E-02  0.1130116E+00
         25   -1    0    0    0    0  0.00000000000E+00  0.00000000000E+00  0.99999998245E-14  0.12500000000E+03  0.12500000000E+03 0.  0.
        -13    1    3    3    0    0  0.53400130540E+02 -0.20281274330E+02 -0.14944417291E+02  0.59044481556E+02  0.10566000000E+00 0.  1.
         23    2    1    0    0    0  0.27632553449E+02  0.50665266836E+01 -0.67616864749E+01  0.96104531380E+02  0.91657693868E+02 0.  0.
         13    1    3    3    0    0 -0.25767577090E+02  0.25347801013E+02  0.81827308159E+01  0.37060049824E+02  0.10566000000E+00 0. -1.
         22    1    1    0    0    0 -0.27632553449E+02 -0.50665266836E+01  0.67616864749E+01  0.28895468620E+02  0.00000000000E+00 0.  1.
</event>
<event>
 5    1  0.1724235E-003  0.9118800E+02  0.7818608E-02  0.1130116E+00
         25   -1    0    0    0    0  0.00000000000E+00  0.00000000000E+00  0.99999998245E-14  0.12500000000E+03  0.12500000000E+03 0.  0.
        -13    1    3    3    0    0  0.26493726975E+02 -0.22842887041E+02  0.20022921552E+02  0.40306868012E+02  0.10566000000E+00 0. -1.
         23    2    1    0    0    0 -0.18790982014E+02 -0.18930130281E+02 -0.11841142828E+02  0.95816725664E+02  0.91264349096E+02 0.  0.
         13    1    3    3    0    0 -0.45284708990E+02  0.39127567603E+01 -0.31864064380E+02  0.55509857652E+02  0.10566000000E+00 0.  1.
         22    1    1    0    0    0  0.18790982014E+02  0.18930130281E+02  0.11841142828E+02  0.29183274336E+02  0.00000000000E+00 0.  1.
</event>
<event>
 5    1  0.1724235E-003  0.9118800E+02  0.7818608E-02  0.1130116E+00
         25   -1    0    0    0    0  0.00000000000E+00  0.00000000000E+00  0.99999998245E-14  0.12500000000E+03  0.12500000000E+03 0.  0.
        -13    1    3    3    0    0 -0.30831610303E+02 -0.12853624737E+02  0.72864395913E+01  0.34189285291E+02  0.10566000000E+00 0.  1.
         23    2    1    0    0    0  0.25535251796E+02  0.11210001254E+02  0.95581798822E+01  0.95519972607E+02  0.90856992862E+02 0.  0.
         13    1    3    3    0    0  0.56366862099E+02  0.24063625991E+02  0.22717402909E+01  0.61330687316E+02  0.10566000000E+00 0. -1.
         22    1    1    0    0    0 -0.25535251796E+02 -0.11210001254E+02 -0.95581798822E+01  0.29480027393E+02  0.00000000000E+00 0. -1.
</event>
<event>
 5    1  0.1724235E-003  0.9118800E+02  0.7818608E-02  0.1130116E+00
         25   -1    0    0    0    0  0.00000000000E+00  0.00000000000E+00  0.99999998245E-14  0.12500000000E+03  0.12500000000E+03 0.  0.
        -13    1    3    3    0    0 -0.16311241555E+02  0.16850742379E+02 -0.23859849769E+02  0.33456056474E+02  0.10566000000E+00 0.  1.
         23    2    1    0    0    0  0.22355356760E+02 -0.95359236996E+01  0.16794809889E+02  0.95457463618E+02  0.90770952978E+02 0.  0.
         13    1    3    3    0    0  0.38666598315E+02 -0.26386666078E+02  0.40654659657E+02  0.62001407144E+02  0.10566000000E+00 0. -1.
         22    1    1    0    0    0 -0.22355356760E+02  0.95359236996E+01 -0.16794809889E+02  0.29542536382E+02  0.00000000000E+00 0. -1.
</event>
<event>
 5    1  0.1724235E-003  0.9118800E+02  0.7818608E-02  0.1130116E+00
         25   -1    0    0    0    0  0.00000000000E+00  0.00000000000E+00  0.99999998245E-14  0.12500000000E+03  0.12500000000E+03 0.  0.
        -13    1    3    3    0    0 -0.74732572672E+01 -0.32464907365E+02  0.18811620260E+02  0.38258437047E+02  0.10566000000E+00 0.  1.
         23    2    1    0    0    0  0.34733594220E+02 -0.21185389487E+02  0.54021101267E+01  0.83958239695E+02  0.73243156156E+02 0.  0.
         13    1    3    3    0    0  0.42206851487E+02  0.11279517879E+02 -0.13409510134E+02  0.45699802648E+02  0.10566000000E+00 0. -1.
         22    1    1    0    0    0 -0.34733594220E+02  0.21185389487E+02 -0.54021101267E+01  0.41041760305E+02  0.00000000000E+00 0.  1.
</event>
<event>
 5    1  0.1724235E-003  0.9118800E+02  0.7818608E-02  0.1130116E+00
         25   -1    0    0    0    0  0.00000000000E+00  0.00000000000E+00  0.99999998245E-14  0.12500000000E+03  0.12500000000E+03 0.  0.
        -13    1    3    3    0    0  0.24454400682E+02 -0.99054360117E+01 -0.48334137180E+02  0.55066644680E+02  0.10566000000E+00 0.  1.
         23    2    1    0    0    0  0.67076701807E+01 -0.24662671903E+02 -0.15815559547E+02  0.94943850073E+02  0.90060882287E+02 0.  0.
         13    1    3    3    0    0 -0.17746730501E+02 -0.14757235891E+02  0.32518577634E+02  0.39877205393E+02  0.10566000000E+00 0. -1.
         22    1    1    0    0    0 -0.67076701807E+01  0.24662671903E+02  0.15815559547E+02  0.30056149927E+02  0.00000000000E+00 0.  1.
</event>
<event>
 5    1  0.1724235E-003  0.9118800E+02  0.7818608E-02  0.1130116E+00
         25   -1    0    0    0    0  0.00000000000E+00  0.00000000000E+00  0.99999998245E-14  0.12500000000E+03  0.12500000000E+03 0.  0.
        -13    1    3    3    0    0 -0.12201667833E+02 -0.35207595423E+02  0.89684925824E+01  0.38326237705E+02  0.10566000000E+00 0. -1.
         23    2    1    0    0    0 -0.21406404033E+02  0.19928082899E+02 -0.33374217928E+01  0.95563610855E+02  0.90917010035E+02 0.  0.
         13    1    3    3    0    0 -0.92047362000E+01  0.55135678322E+02 -0.12305914375E+02  0.57237373150E+02  0.10566000000E+00 0.  1.
         22    1    1    0    0    0  0.21406404033E+02 -0.19928082899E+02  0.33374217928E+01  0.29436389145E+02  0.00000000000E+00 0.  1.
</event>
<event>
 5    1  0.1724235E-003  0.9118800E+02  0.7818608E-02  0.1130116E+00
         25   -1    0    0    0    0  0.00000000000E+00  0.00000000000E+00  0.99999998245E-14  0.12500000000E+03  0.12500000000E+03 0.  0.
        -13    1    3    3    0    0 -0.50304582126E+00 -0.54975709776E+02 -0.60616030352E+01  0.55311263915E+02  0.10566000000E+00 0. -1.
         23    2    1    0    0    0  0.18655804645E+02 -0.21701631295E+02  0.63928704540E+01  0.95676483150E+02  0.91072063705E+02 0.  0.
         13    1    3    3    0    0  0.19158850466E+02  0.33274078481E+02  0.12454473489E+02  0.40365219235E+02  0.10566000000E+00 0.  1.
         22    1    1    0    0    0 -0.18655804645E+02  0.21701631295E+02 -0.63928704540E+01  0.29323516850E+02  0.00000000000E+00 0. -1.
</event>
<event>
 5    1  0.1724235E-003  0.9118800E+02  0.7818608E-02  0.1130116E+00
         25   -1    0    0    0    0  0.00000000000E+00  0.00000000000E+00  0.99999998245E-14  0.12500000000E+03  0.12500000000E+03 0.  0.
        -13    1    3    3    0    0  0.97793040528E+01 -0.12622621710E+02  0.37042301774E+02  0.40337434863E+02  0.10566000000E+00 0. -1.
         23    2    1    0    0    0  0.27233458334E+01 -0.24783724118E+02 -0.16108239676E+02  0.95316250589E+02  0.90576280820E+02 0.  0.
         13    1    3    3    0    0 -0.70559582194E+01 -0.12161102408E+02 -0.53150541450E+02  0.54978815726E+02  0.10566000000E+00 0.  1.
         22    1    1    0    0    0 -0.27233458334E+01  0.24783724118E+02  0.16108239676E+02  0.29683749411E+02  0.00000000000E+00 0.  1.
</event>
<event>
 5    1  0.1724235E-003  0.9118800E+02  0.7818608E-02  0.1130116E+00
         25   -1    0    0    0    0  0.00000000000E+00  0.00000000000E+00  0.99999998245E-14  0.12500000000E+03  0.12500000000E+03 0.  0.
        -13    1    3    3    0    0  0.18281652120E+02  0.53157651787E+02 -0.50538450289E+01  0.56440298204E+02  0.10566000000E+00 0. -1.
         23    2    1    0    0    0  0.10080924009E+02  0.18396005400E+02 -0.20786957256E+02  0.95468057370E+02  0.90785540382E+02 0.  0.
         13    1    3    3    0    0 -0.82007281113E+01 -0.34761646387E+02 -0.15733112227E+02  0.39027759166E+02  0.10566000000E+00 0.  1.
         22    1    1    0    0    0 -0.10080924009E+02 -0.18396005400E+02  0.20786957256E+02  0.29531942630E+02  0.00000000000E+00 0. -1.
</event>
<event>
 5    1  0.1724235E-003  0.9118800E+02  0.7818608E-02  0.1130116E+00
         25   -1    0    0    0    0  0.00000000000E+00  0.00000000000E+00  0.99999998245E-14  0.12500000000E+03  0.12500000000E+03 0.  0.
        -13    1    3    3    0    0 -0.14749098798E+02  0.29998929237E+02  0.19964260136E+02  0.38936544756E+02  0.10566000000E+00 0. -1.
         23    2    1    0    0    0 -0.16087944449E+02 -0.23556591998E+02 -0.97908930858E+00  0.96457162036E+02  0.92137345898E+02 0.  0.
         13    1    3    3    0    0 -0.13388456508E+01 -0.53555521234E+02 -0.20943349445E+02  0.57520617281E+02  0.10566000000E+00 0.  1.
         22    1    1    0    0    0  0.16087944449E+02  0.23556591998E+02  0.97908930858E+00  0.28542837964E+02  0.00000000000E+00 0.  1.
</event>
<event>
 5    1  0.1724235E-003  0.9118800E+02  0.7818608E-02  0.1130116E+00
         25   -1    0    0    0    0  0.00000000000E+00  0.00000000000E+00  0.99999998245E-14  0.12500000000E+03  0.12500000000E+03 0.  0.
        -13    1    3    3    0    0 -0.36885836202E+02  0.19614003044E+02  0.11803960688E+02  0.43412195057E+02  0.10566000000E+00 0.  1.
         23    2    1    0    0    0  0.14452108371E+02  0.25133883295E+02  0.62239931265E+01  0.95346777303E+02  0.90618399488E+02 0.  0.
         13    1    3    3    0    0  0.51337944573E+02  0.55198802518E+01 -0.55799675611E+01  0.51934582246E+02  0.10566000000E+00 0. -1.
         22    1    1    0    0    0 -0.14452108371E+02 -0.25133883295E+02 -0.62239931265E+01  0.29653222697E+02  0.00000000000E+00 0. -1.
</event>
<event>
 5    1  0.1724235E-003  0.9118800E+02  0.7818608E-02  0.1130116E+00
         25   -1    0    0    0    0  0.00000000000E+00  0.00000000000E+00  0.99999998245E-14  0.12500000000E+03  0.12500000000E+03 0.  0.
        -13    1    3    3    0    0  0.48293787064E+02  0.12581900450E+02 -0.15542309041E+02  0.52270150395E+02  0.10566000000E+00 0. -1.
         23    2    1    0    0    0  0.10743185502E+02 -0.93795986507E+01 -0.24469232293E+02  0.96677990280E+02  0.92436451521E+02 0.  0.
         13    1    3    3    0    0 -0.37550601562E+02 -0.21961499101E+02 -0.89269232518E+01  0.44407839884E+02  0.10566000000E+00 0.  1.
         22    1    1    0    0    0 -0.10743185502E+02  0.93795986507E+01  0.24469232293E+02  0.28322009720E+02  0.00000000000E+00 0.  1.
</event>
<event>
 5    1  0.1724235E-003  0.9118800E+02  0.7818608E-02  0.1130116E+00
         25   -1    0    0    0    0  0.00000000000E+00  0.00000000000E+00  0.99999998245E-14  0.12500000000E+03  0.12500000000E+03 0.  0.
        -13    1    3    3    0    0 -0.19086059147E+02 -0.31389735296E+02  0.55226734344E+01  0.37149753991E+02  0.10566000000E+00 0. -1.
         23    2    1    0    0    0  0.18681208366E+02 -0.47983657104E+00 -0.24300960843E+02  0.94344584703E+02  0.89225255257E+02 0.  0.
         13    1    3    3    0    0  0.37767267513E+02  0.30909898725E+02 -0.29823634277E+02  0.57194830712E+02  0.10566000000E+00 0.  1.
         22    1    1    0    0    0 -0.18681208366E+02  0.47983657104E+00  0.24300960843E+02  0.30655415297E+02  0.00000000000E+00 0.  1.
</event>
<event>
 5    1  0.1724235E-003  0.9118800E+02  0.7818608E-02  0.1130116E+00
         25   -1    0    0    0    0  0.00000000000E+00  0.00000000000E+00  0.99999998245E-14  0.12500000000E+03  0.12500000000E+03 0.  0.
        -13    1    3    3    0    0  0.65044825724E+01 -0.49048381189E+02  0.70560712504E+01  0.49978508344E+02  0.10566000000E+00 0.  1.
         23    2    1    0    0    0 -0.23062062152E+02 -0.12041906168E+02  0.92268688807E+01  0.97395628531E+02  0.93401858294E+02 0.  0.
         13    1    3    3    0    0 -0.29566544724E+02  0.37006475021E+02  0.21707976303E+01  0.47417120187E+02  0.10566000000E+00 0. -1.
         22    1    1    0    0    0  0.23062062152E+02  0.12041906168E+02 -0.92268688807E+01  0.27604371469E+02  0.00000000000E+00 0. -1.
</event>
<event>
 5    1  0.1724235E-003  0.9118800E+02  0.7818608E-02  0.1130116E+00
         25   -1    0    0    0    0  0.00000000000E+00  0.00000000000E+00  0.99999998245E-14  0.12500000000E+03  0.12500000000E+03 0.  0.
        -13    1    3    3    0    0 -0.30585387555E+02 -0.32677409025E+02 -0.16021196515E+02  0.47539130138E+02  0.10566000000E+00 0.  1.
         23    2    1    0    0    0  0.13029536733E+02 -0.10442159905E+02 -0.22563364556E+02  0.96930212843E+02  0.92776900201E+02 0.  0.
         13    1    3    3    0    0  0.43614924288E+02  0.22235249120E+02 -0.65421680406E+01  0.49391082705E+02  0.10566000000E+00 0. -1.
         22    1    1    0    0    0 -0.13029536733E+02  0.10442159905E+02  0.22563364556E+02  0.28069787157E+02  0.00000000000E+00 0.  1.
</event>
<event>
 5    1  0.1724235E-003  0.9118800E+02  0.7818608E-02  0.1130116E+00
         25   -1    0    0    0    0  0.00000000000E+00  0.00000000000E+00  0.99999998245E-14  0.12500000000E+03  0.12500000000E+03 0.  0.
        -13    1    3    3    0    0 -0.35621579452E+00 -0.29765268523E+02  0.50073608817E+02  0.58253545505E+02  0.10566000000E+00 0. -1.
         23    2    1    0    0    0  0.15636530775E+02 -0.15167037731E+02  0.19208994870E+02  0.95956487608E+02  0.91455573378E+02 0.  0.
         13    1    3    3    0    0  0.15992746569E+02  0.14598230792E+02 -0.30864613947E+02  0.37702942103E+02  0.10566000000E+00 0.  1.
         22    1    1    0    0    0 -0.15636530775E+02  0.15167037731E+02 -0.19208994870E+02  0.29043512392E+02  0.00000000000E+00 0. -1.
</event>
<event>
 5    1  0.1724235E-003  0.9118800E+02  0.7818608E-02  0.1130116E+00
         25   -1    0    0    0    0  0.00000000000E+00  0.00000000000E+00  0.99999998245E-14  0.12500000000E+03  0.12500000000E+03 0.  0.
        -13    1    3    3    0    0  0.35787583395E+02 -0.39715285333E+01  0.10801709280E+02  0.37592715406E+02  0.10566000000E+00 0.  1.
         23    2    1    0    0    0 -0.18599833295E+02  0.15753743062E+02  0.16253525864E+02  0.95703049270E+02  0.91108519456E+02 0.  0.
         13    1    3    3    0    0 -0.54387416690E+02  0.19725271595E+02  0.54518165843E+01  0.58110333864E+02  0.10566000000E+00 0. -1.
         22    1    1    0    0    0  0.18599833295E+02 -0.15753743062E+02 -0.16253525864E+02  0.29296950730E+02  0.00000000000E+00 0. -1.
</event>
<event>
 5    1  0.1724235E-003  0.9118800E+02  0.7818608E-02  0.1130116E+00
         25   -1    0    0    0    0  0.00000000000E+00  0.00000000000E+00  0.99999998245E-14  0.12500000000E+03  0.12500000000E+03 0.  0.
        -13    1    3    3    0    0 -0.15801456035E-01 -0.25211720768E+02  0.25781218559E+02  0.36059860069E+02  0.10566000000E+00 0. -1.
         23    2    1    0    0    0 -0.15038209069E+02  0.25213575484E+02 -0.20278875223E+01  0.95572386293E+02  0.90929074412E+02 0.  0.
         13    1    3    3    0    0 -0.15022407613E+02  0.50425296252E+02 -0.27809106081E+02  0.59512526225E+02  0.10566000000E+00 0.  1.
         22    1    1    0    0    0  0.15038209069E+02 -0.25213575484E+02  0.20278875223E+01  0.29427613707E+02  0.00000000000E+00 0.  1.
</event>
<event>
 5    1  0.1724235E-003  0.9118800E+02  0.7818608E-02  0.1130116E+00
         25   -1    0    0    0    0  0.00000000000E+00  0.00000000000E+00  0.99999998245E-14  0.12500000000E+03  0.12500000000E+03 0.  0.
        -13    1    3    3    0    0 -0.43783762568E+02 -0.15108026186E+02  0.28219062817E+02  0.54236491315E+02  0.10566000000E+00 0.  1.
         23    2    1    0    0    0 -0.26559360441E+02  0.12501717982E+02  0.28334789926E+01  0.95508964367E+02  0.90841846589E+02 0.  0.
         13    1    3    3    0    0  0.17224402127E+02  0.27609744168E+02 -0.25385583824E+02  0.41272473052E+02  0.10566000000E+00 0. -1.
         22    1    1    0    0    0  0.26559360441E+02 -0.12501717982E+02 -0.28334789926E+01  0.29491035633E+02  0.00000000000E+00 0.  1.
</event>
<event>
 5    1  0.1724235E-003  0.9118800E+02  0.7818608E-02  0.1130116E+00
         25   -1    0    0    0    0  0.00000000000E+00  0.00000000000E+00  0.99999998245E-14  0.12500000000E+03  0.12500000000E+03 0.  0.
        -13    1    3    3    0    0 -0.39398914930E+02  0.27386714852E+02  0.16052781703E+02  0.50596537554E+02  0.10566000000E+00 0.  1.
         23    2    1    0    0    0 -0.63837664046E+01 -0.19141245001E+01  0.27911324001E+02  0.96304035936E+02  0.91929369539E+02 0.  0.
         13    1    3    3    0    0  0.33015148525E+02 -0.29300839352E+02  0.11858542298E+02  0.45707498382E+02  0.10566000000E+00 0. -1.
         22    1    1    0    0    0  0.63837664046E+01  0.19141245001E+01 -0.27911324001E+02  0.28695964064E+02  0.00000000000E+00 0.  1.
</event>
<event>
 5    1  0.1724235E-003  0.9118800E+02  0.7818608E-02  0.1130116E+00
         25   -1    0    0    0    0  0.00000000000E+00  0.00000000000E+00  0.99999998245E-14  0.12500000000E+03  0.12500000000E+03 0.  0.
        -13    1    3    3    0    0  0.17667318276E+02 -0.33740462091E+02 -0.21835702297E+02  0.43901730901E+02  0.10566000000E+00 0.  1.
         23    2    1    0    0    0 -0.20197208595E+02 -0.20391046274E+02  0.94313425518E+01  0.94789534503E+02  0.89846444703E+02 0.  0.
         13    1    3    3    0    0 -0.37864526872E+02  0.13349415817E+02  0.31267044849E+02  0.50887803603E+02  0.10566000000E+00 0. -1.
         22    1    1    0    0    0  0.20197208595E+02  0.20391046274E+02 -0.94313425518E+01  0.30210465497E+02  0.00000000000E+00 0. -1.
</event>
<event>
 5    1  0.1724235E-003  0.9118800E+02  0.7818608E-02  0.1130116E+00
         25   -1    0    0    0    0  0.00000000000E+00  0.00000000000E+00  0.99999998245E-14  0.12500000000E+03  0.12500000000E+03 0.  0.
        -13    1    3    3    0    0 -0.70490688187E+01 -0.36740449144E+02  0.48521263189E+02  0.61268867461E+02  0.10566000000E+00 0.  1.
         23    2    1    0    0    0 -0.97176634731E+01 -0.10373364073E+02  0.22334119926E+02  0.98526379574E+02  0.94903081581E+02 0.  0.
         13    1    3    3    0    0 -0.26685946544E+01  0.26367085071E+02 -0.26187143262E+02  0.37257512113E+02  0.10566000000E+00 0. -1.
         22    1    1    0    0    0  0.97176634731E+01  0.10373364073E+02 -0.22334119926E+02  0.26473620426E+02  0.00000000000E+00 0.  1.
</event>
<event>
 5    1  0.1724235E-003  0.9118800E+02  0.7818608E-02  0.1130116E+00
         25   -1    0    0    0    0  0.00000000000E+00  0.00000000000E+00  0.99999998245E-14  0.12500000000E+03  0.12500000000E+03 0.  0.
        -13    1    3    3    0    0  0.32749085840E+02 -0.25184868079E+02  0.16568679816E+02  0.44511936808E+02  0.10566000000E+00 0. -1.
         23    2    1    0    0    0  0.19486469853E+02 -0.20165086869E+02 -0.24376897643E+02  0.87843757261E+02  0.79598613777E+02 0.  0.
         13    1    3    3    0    0 -0.13262615987E+02  0.50197812097E+01 -0.40945577460E+02  0.43331820453E+02  0.10566000000E+00 0.  1.
         22    1    1    0    0    0 -0.19486469853E+02  0.20165086869E+02  0.24376897643E+02  0.37156242739E+02  0.00000000000E+00 0.  1.
</event>
<event>
 5    1  0.1724235E-003  0.9118800E+02  0.7818608E-02  0.1130116E+00
         25   -1    0    0    0    0  0.00000000000E+00  0.00000000000E+00  0.99999998245E-14  0.12500000000E+03  0.12500000000E+03 0.  0.
        -13    1    3    3    0    0 -0.49064280851E+01 -0.58256395443E+00 -0.35414312712E+02  0.35757476508E+02  0.10566000000E+00 0. -1.
         23    2    1    0    0    0 -0.23564695546E+02  0.15374983391E+02  0.15927621972E+02  0.92667753989E+02  0.86844334860E+02 0.  0.
         13    1    3    3    0    0 -0.18658267461E+02  0.15957547345E+02  0.51341934684E+02  0.56910277481E+02  0.10566000000E+00 0.  1.
         22    1    1    0    0    0  0.23564695546E+02 -0.15374983391E+02 -0.15927621972E+02  0.32332246011E+02  0.00000000000E+00 0.  1.
</event>
<event>
 5    1  0.1724235E-003  0.9118800E+02  0.7818608E-02  0.1130116E+00
         25   -1    0    0    0    0  0.00000000000E+00  0.00000000000E+00  0.99999998245E-14  0.12500000000E+03  0.12500000000E+03 0.  0.
        -13    1    3    3    0    0 -0.45062648451E+02  0.37360869339E+01  0.36610341582E+02  0.58180141851E+02  0.10566000000E+00 0.  1.
         23    2    1    0    0    0 -0.10386431240E+02  0.14447927107E+02  0.44835261241E+01  0.10664999842E+03  0.10505950506E+03 0.  0.
         13    1    3    3    0    0  0.34676217211E+02  0.10711840173E+02 -0.32126815458E+02  0.48469856566E+02  0.10566000000E+00 0. -1.
         22    1    1    0    0    0  0.10386431240E+02 -0.14447927107E+02 -0.44835261241E+01  0.18350001583E+02  0.00000000000E+00 0.  1.
</event>
<event>
 5    1  0.1724235E-003  0.9118800E+02  0.7818608E-02  0.1130116E+00
         25   -1    0    0    0    0  0.00000000000E+00  0.00000000000E+00  0.99999998245E-14  0.12500000000E+03  0.12500000000E+03 0.  0.
        -13    1    3    3    0    0 -0.19869575544E+02  0.25618149740E+02 -0.20833517001E+02  0.38537465187E+02  0.10566000000E+00 0. -1.
         23    2    1    0    0    0 -0.39395697846E+01 -0.20659038503E+02 -0.30031435824E+02  0.88336622910E+02  0.80368872877E+02 0.  0.
         13    1    3    3    0    0  0.15930005759E+02 -0.46277188243E+02 -0.91979188233E+01  0.49799157723E+02  0.10566000000E+00 0.  1.
         22    1    1    0    0    0  0.39395697846E+01  0.20659038503E+02  0.30031435824E+02  0.36663377090E+02  0.00000000000E+00 0.  1.
</event>
<event>
 5    1  0.1724235E-003  0.9118800E+02  0.7818608E-02  0.1130116E+00
         25   -1    0    0    0    0  0.00000000000E+00  0.00000000000E+00  0.99999998245E-14  0.12500000000E+03  0.12500000000E+03 0.  0.
        -13    1    3    3    0    0 -0.28471864371E+01  0.40632305182E+02  0.40864858085E+02  0.57697820456E+02  0.10566000000E+00 0.  1.
         23    2    1    0    0    0 -0.18173156844E+02  0.16648269630E+02  0.15059456159E+02  0.96117207006E+02  0.91674978873E+02 0.  0.
         13    1    3    3    0    0 -0.15325970407E+02 -0.23984035552E+02 -0.25805401926E+02  0.38419386550E+02  0.10566000000E+00 0. -1.
         22    1    1    0    0    0  0.18173156844E+02 -0.16648269630E+02 -0.15059456159E+02  0.28882792994E+02  0.00000000000E+00 0.  1.
</event>
<event>
 5    1  0.1724235E-003  0.9118800E+02  0.7818608E-02  0.1130116E+00
         25   -1    0    0    0    0  0.00000000000E+00  0.00000000000E+00  0.99999998245E-14  0.12500000000E+03  0.12500000000E+03 0.  0.
        -13    1    3    3    0    0 -0.22469113184E+02 -0.46063504563E+02  0.11325592383E+02  0.52487976783E+02  0.10566000000E+00 0.  1.
         23    2    1    0    0    0 -0.16914408791E+01 -0.12008976071E+02  0.27040508323E+02  0.95364454301E+02  0.90642780050E+02 0.  0.
         13    1    3    3    0    0  0.20777672305E+02  0.34054528492E+02  0.15714915940E+02  0.42876477517E+02  0.10566000000E+00 0. -1.
         22    1    1    0    0    0  0.16914408791E+01  0.12008976071E+02 -0.27040508323E+02  0.29635545699E+02  0.00000000000E+00 0.  1.
</event>
<event>
 4    1  0.1724235E-003  0.9118800E+02  0.7818608E-02  0.1130116E+00
         25   -1    0    0    0    0  0.00000000000E+00  0.00000000000E+00  0.99999998245E-14  0.12500000000E+03  0.12500000000E+03 0.  0.
        -13    1    1    0    0    0  0.15291349589E+01  0.18873117197E+01 -0.24840929948E+00  0.24439865928E+01  0.10566000000E+00 0. -1.
         13    1    1    0    0    0 -0.31223108174E+02 -0.38519286430E+02  0.37739607014E+02  0.62312976278E+02  0.10566000000E+00 0.  1.
         22    1    1    0    0    0  0.29693973215E+02  0.36631974710E+02 -0.37491197714E+02  0.60243037129E+02  0.00000000000E+00 0.  1.
</event>
<event>
 5    1  0.1724235E-003  0.9118800E+02  0.7818608E-02  0.1130116E+00
         25   -1    0    0    0    0  0.00000000000E+00  0.00000000000E+00  0.99999998245E-14  0.12500000000E+03  0.12500000000E+03 0.  0.
        -13    1    3    3    0    0  0.19795243807E+02  0.39749970317E+02 -0.22097313550E+01  0.44461285342E+02  0.10566000000E+00 0. -1.
         23    2    1    0    0    0  0.60533515911E+01 -0.32958204301E+01 -0.27777949696E+02  0.96379727690E+02  0.92032233063E+02 0.  0.
         13    1    3    3    0    0 -0.13741892216E+02 -0.43045790747E+02 -0.25568218341E+02  0.51918442348E+02  0.10566000000E+00 0.  1.
         22    1    1    0    0    0 -0.60533515911E+01  0.32958204301E+01  0.27777949696E+02  0.28620272310E+02  0.00000000000E+00 0.  1.
</event>
<event>
 5    1  0.1724235E-003  0.9118800E+02  0.7818608E-02  0.1130116E+00
         25   -1    0    0    0    0  0.00000000000E+00  0.00000000000E+00  0.99999998245E-14  0.12500000000E+03  0.12500000000E+03 0.  0.
        -13    1    3    3    0    0  0.20201473338E+02 -0.11828381364E+02  0.87765453496E+01  0.25000980841E+02  0.10566000000E+00 0.  1.
         23    2    1    0    0    0 -0.19871585591E+02  0.29113007882E+02 -0.14562558927E+02  0.86861892229E+02  0.78041482926E+02 0.  0.
         13    1    3    3    0    0 -0.40073058929E+02  0.40941389246E+02 -0.23339104276E+02  0.61860911388E+02  0.10566000000E+00 0. -1.
         22    1    1    0    0    0  0.19871585591E+02 -0.29113007882E+02  0.14562558927E+02  0.38138107771E+02  0.00000000000E+00 0. -1.
</event>
<event>
 5    1  0.1724235E-003  0.9118800E+02  0.7818608E-02  0.1130116E+00
         25   -1    0    0    0    0  0.00000000000E+00  0.00000000000E+00  0.99999998245E-14  0.12500000000E+03  0.12500000000E+03 0.  0.
        -13    1    3    3    0    0 -0.42161909924E+02 -0.44407038609E+02  0.80407726681E+01  0.61759832542E+02  0.10566000000E+00 0.  1.
         23    2    1    0    0    0 -0.32477079481E+02 -0.26422928775E+02  0.88688118217E+01  0.82202947767E+02  0.70183594535E+02 0.  0.
         13    1    3    3    0    0  0.96848304435E+01  0.17984109834E+02  0.82803915355E+00  0.20443115225E+02  0.10566000000E+00 0. -1.
         22    1    1    0    0    0  0.32477079481E+02  0.26422928775E+02 -0.88688118217E+01  0.42797052233E+02  0.00000000000E+00 0.  1.
</event>
<event>
 5    1  0.1724235E-003  0.9118800E+02  0.7818608E-02  0.1130116E+00
         25   -1    0    0    0    0  0.00000000000E+00  0.00000000000E+00  0.99999998245E-14  0.12500000000E+03  0.12500000000E+03 0.  0.
        -13    1    3    3    0    0  0.41158352486E+02 -0.23827194100E+02  0.21848758577E+02  0.52336646563E+02  0.10566000000E+00 0. -1.
         23    2    1    0    0    0  0.27870289105E+02  0.49930338799E+01 -0.76558438615E+01  0.95669208204E+02  0.91062078008E+02 0.  0.
         13    1    3    3    0    0 -0.13288063381E+02  0.28820227980E+02 -0.29504602439E+02  0.43332561641E+02  0.10566000000E+00 0.  1.
         22    1    1    0    0    0 -0.27870289105E+02 -0.49930338799E+01  0.76558438615E+01  0.29330791796E+02  0.00000000000E+00 0. -1.
</event>
<event>
 5    1  0.1724235E-003  0.9118800E+02  0.7818608E-02  0.1130116E+00
         25   -1    0    0    0    0  0.00000000000E+00  0.00000000000E+00  0.99999998245E-14  0.12500000000E+03  0.12500000000E+03 0.  0.
        -13    1    3    3    0    0  0.25727626394E+02 -0.18585372377E+02 -0.45460484835E+01  0.32062509994E+02  0.10566000000E+00 0. -1.
         23    2    1    0    0    0 -0.17157715086E+02 -0.95850584850E+01  0.30869845211E+02  0.88404810747E+02  0.80474857482E+02 0.  0.
         13    1    3    3    0    0 -0.42885341480E+02  0.90003138915E+01  0.35415893694E+02  0.56342300753E+02  0.10566000000E+00 0.  1.
         22    1    1    0    0    0  0.17157715086E+02  0.95850584850E+01 -0.30869845211E+02  0.36595189253E+02  0.00000000000E+00 0.  1.
</event>
<event>
 5    1  0.1724235E-003  0.9118800E+02  0.7818608E-02  0.1130116E+00
         25   -1    0    0    0    0  0.00000000000E+00  0.00000000000E+00  0.99999998245E-14  0.12500000000E+03  0.12500000000E+03 0.  0.
        -13    1    3    3    0    0 -0.27826412629E+02 -0.24327040855E+02  0.43488324576E+02  0.57073283548E+02  0.10566000000E+00 0.  1.
         23    2    1    0    0    0 -0.21176387049E+02  0.52588243262E+01  0.19459270093E+02  0.95763758889E+02  0.91191774423E+02 0.  0.
         13    1    3    3    0    0  0.66500255808E+01  0.29585865181E+02 -0.24029054483E+02  0.38690475341E+02  0.10566000000E+00 0. -1.
         22    1    1    0    0    0  0.21176387049E+02 -0.52588243262E+01 -0.19459270093E+02  0.29236241111E+02  0.00000000000E+00 0.  1.
</event>
<event>
 5    1  0.1724235E-003  0.9118800E+02  0.7818608E-02  0.1130116E+00
         25   -1    0    0    0    0  0.00000000000E+00  0.00000000000E+00  0.99999998245E-14  0.12500000000E+03  0.12500000000E+03 0.  0.
        -13    1    3    3    0    0 -0.40438906651E+02 -0.22254973568E+02 -0.20242608222E+02  0.50402017532E+02  0.10566000000E+00 0.  1.
         23    2    1    0    0    0 -0.25491564762E+01 -0.27182775884E+02  0.63689825581E+01  0.96964924785E+02  0.92823656447E+02 0.  0.
         13    1    3    3    0    0  0.37889750175E+02 -0.49278023160E+01  0.26611590780E+02  0.46562907253E+02  0.10566000000E+00 0. -1.
         22    1    1    0    0    0  0.25491564762E+01  0.27182775884E+02 -0.63689825581E+01  0.28035075215E+02  0.00000000000E+00 0. -1.
</event>
<event>
 5    1  0.1724235E-003  0.9118800E+02  0.7818608E-02  0.1130116E+00
         25   -1    0    0    0    0  0.00000000000E+00  0.00000000000E+00  0.99999998245E-14  0.12500000000E+03  0.12500000000E+03 0.  0.
        -13    1    3    3    0    0 -0.83229306969E+01  0.27700033125E+02 -0.22562611694E+02  0.36683042691E+02  0.10566000000E+00 0.  1.
         23    2    1    0    0    0 -0.78816042947E+01 -0.36788297303E+01  0.27715729089E+02  0.95951504111E+02  0.91448761762E+02 0.  0.
         13    1    3    3    0    0  0.44132640220E+00 -0.31378862856E+02  0.50278340784E+02  0.59268461420E+02  0.10566000000E+00 0. -1.
         22    1    1    0    0    0  0.78816042947E+01  0.36788297303E+01 -0.27715729089E+02  0.29048495889E+02  0.00000000000E+00 0. -1.
</event>
<event>
 5    1  0.1724235E-003  0.9118800E+02  0.7818608E-02  0.1130116E+00
         25   -1    0    0    0    0  0.00000000000E+00  0.00000000000E+00  0.99999998245E-14  0.12500000000E+03  0.12500000000E+03 0.  0.
        -13    1    3    3    0    0 -0.30788782466E+02 -0.10295428694E+02  0.26730583024E+02  0.42053302017E+02  0.10566000000E+00 0.  1.
         23    2    1    0    0    0  0.13800306626E+02  0.17603556539E+02  0.19840187864E+02  0.95100723750E+02  0.90278352542E+02 0.  0.
         13    1    3    3    0    0  0.44589089092E+02  0.27898985233E+02 -0.68903951604E+01  0.53047421733E+02  0.10566000000E+00 0. -1.
         22    1    1    0    0    0 -0.13800306626E+02 -0.17603556539E+02 -0.19840187864E+02  0.29899276250E+02  0.00000000000E+00 0. -1.
</event>
<event>
 5    1  0.1724235E-003  0.9118800E+02  0.7818608E-02  0.1130116E+00
         25   -1    0    0    0    0  0.00000000000E+00  0.00000000000E+00  0.99999998245E-14  0.12500000000E+03  0.12500000000E+03 0.  0.
        -13    1    3    3    0    0 -0.52576676042E+02  0.21090841737E+02 -0.23983888283E+02  0.61517221410E+02  0.10566000000E+00 0. -1.
         23    2    1    0    0    0 -0.25475150984E+02  0.12805886927E+02 -0.39685393835E+01  0.96212444312E+02  0.91804744310E+02 0.  0.
         13    1    3    3    0    0  0.27101525057E+02 -0.82849548096E+01  0.20015348899E+02  0.34695222902E+02  0.10566000000E+00 0.  1.
         22    1    1    0    0    0  0.25475150984E+02 -0.12805886927E+02  0.39685393835E+01  0.28787555688E+02  0.00000000000E+00 0. -1.
</event>
<event>
 5    1  0.1724235E-003  0.9118800E+02  0.7818608E-02  0.1130116E+00
         25   -1    0    0    0    0  0.00000000000E+00  0.00000000000E+00  0.99999998245E-14  0.12500000000E+03  0.12500000000E+03 0.  0.
        -13    1    3    3    0    0  0.11929488631E+02 -0.27895483400E+02 -0.27982304445E+02  0.41273371794E+02  0.10566000000E+00 0. -1.
         23    2    1    0    0    0 -0.15356882435E+02 -0.15051162253E+02  0.18467766690E+02  0.96655163966E+02  0.92405578790E+02 0.  0.
         13    1    3    3    0    0 -0.27286371066E+02  0.12844321147E+02  0.46450071135E+02  0.55381792172E+02  0.10566000000E+00 0.  1.
         22    1    1    0    0    0  0.15356882435E+02  0.15051162253E+02 -0.18467766690E+02  0.28344836034E+02  0.00000000000E+00 0.  1.
</event>
<event>
 5    1  0.1724235E-003  0.9118800E+02  0.7818608E-02  0.1130116E+00
         25   -1    0    0    0    0  0.00000000000E+00  0.00000000000E+00  0.99999998245E-14  0.12500000000E+03  0.12500000000E+03 0.  0.
        -13    1    3    3    0    0 -0.56262790144E+02 -0.94612932112E+01 -0.17535984948E+02  0.59687013295E+02  0.10566000000E+00 0. -1.
         23    2    1    0    0    0 -0.25433658877E+02  0.87865533610E+01 -0.99806487698E+01  0.96300037043E+02  0.91923931926E+02 0.  0.
         13    1    3    3    0    0  0.30829131267E+02  0.18247846572E+02  0.75553361778E+01  0.36613023748E+02  0.10566000000E+00 0.  1.
         22    1    1    0    0    0  0.25433658877E+02 -0.87865533610E+01  0.99806487698E+01  0.28699962957E+02  0.00000000000E+00 0. -1.
</event>
<event>
 5    1  0.1724235E-003  0.9118800E+02  0.7818608E-02  0.1130116E+00
         25   -1    0    0    0    0  0.00000000000E+00  0.00000000000E+00  0.99999998245E-14  0.12500000000E+03  0.12500000000E+03 0.  0.
        -13    1    3    3    0    0  0.48570297231E+02 -0.25873310134E+02 -0.51522730919E+01  0.55272588436E+02  0.10566000000E+00 0. -1.
         23    2    1    0    0    0  0.11599460308E+02 -0.28958635430E+02 -0.88973172145E+01  0.92560636582E+02  0.86690017565E+02 0.  0.
         13    1    3    3    0    0 -0.36970836923E+02 -0.30853252959E+01 -0.37450441227E+01  0.37288048146E+02  0.10566000000E+00 0.  1.
         22    1    1    0    0    0 -0.11599460308E+02  0.28958635430E+02  0.88973172145E+01  0.32439363418E+02  0.00000000000E+00 0. -1.
</event>
<event>
 5    1  0.1724235E-003  0.9118800E+02  0.7818608E-02  0.1130116E+00
         25   -1    0    0    0    0  0.00000000000E+00  0.00000000000E+00  0.99999998245E-14  0.12500000000E+03  0.12500000000E+03 0.  0.
        -13    1    3    3    0    0  0.32866628934E+02  0.67281968144E+01  0.38767655159E+02  0.51268179024E+02  0.10566000000E+00 0. -1.
         23    2    1    0    0    0  0.10217564510E+01  0.25404456784E+02  0.11897780583E+02  0.96928883287E+02  0.92775108847E+02 0.  0.
         13    1    3    3    0    0 -0.31844872483E+02  0.18676259970E+02 -0.26869874577E+02  0.45660704262E+02  0.10566000000E+00 0.  1.
         22    1    1    0    0    0 -0.10217564510E+01 -0.25404456784E+02 -0.11897780583E+02  0.28071116713E+02  0.00000000000E+00 0. -1.
</event>
<event>
 5    1  0.1724235E-003  0.9118800E+02  0.7818608E-02  0.1130116E+00
         25   -1    0    0    0    0  0.00000000000E+00  0.00000000000E+00  0.99999998245E-14  0.12500000000E+03  0.12500000000E+03 0.  0.
        -13    1    3    3    0    0 -0.40491342109E+02 -0.24073184711E+02  0.11500996552E+02  0.48490732039E+02  0.10566000000E+00 0. -1.
         23    2    1    0    0    0 -0.19640284064E+02  0.17996660167E+02  0.12763554781E+02  0.95461400407E+02  0.90776374139E+02 0.  0.
         13    1    3    3    0    0  0.20851058045E+02  0.42069844878E+02  0.12625582288E+01  0.46970668368E+02  0.10566000000E+00 0.  1.
         22    1    1    0    0    0  0.19640284064E+02 -0.17996660167E+02 -0.12763554781E+02  0.29538599593E+02  0.00000000000E+00 0. -1.
</event>
<event>
 5    1  0.1724235E-003  0.9118800E+02  0.7818608E-02  0.1130116E+00
         25   -1    0    0    0    0  0.00000000000E+00  0.00000000000E+00  0.99999998245E-14  0.12500000000E+03  0.12500000000E+03 0.  0.
        -13    1    3    3    0    0  0.72237946695E+01 -0.36771083782E+02  0.47711418278E+02  0.60668660856E+02  0.10566000000E+00 0. -1.
         23    2    1    0    0    0 -0.52335331345E-01 -0.87023218239E+01  0.27867261111E+02  0.95805524736E+02  0.91249006483E+02 0.  0.
         13    1    3    3    0    0 -0.72761300009E+01  0.28068761958E+02 -0.19844157167E+02  0.35136863881E+02  0.10566000000E+00 0.  1.
         22    1    1    0    0    0  0.52335331345E-01  0.87023218239E+01 -0.27867261111E+02  0.29194475264E+02  0.00000000000E+00 0. -1.
</event>
<event>
 5    1  0.1724235E-003  0.9118800E+02  0.7818608E-02  0.1130116E+00
         25   -1    0    0    0    0  0.00000000000E+00  0.00000000000E+00  0.99999998245E-14  0.12500000000E+03  0.12500000000E+03 0.  0.
        -13    1    3    3    0    0 -0.46222186816E+02 -0.39089674490E+02 -0.15177156665E+02  0.62408737002E+02  0.10566000000E+00 0. -1.
         23    2    1    0    0    0 -0.20587290856E+02 -0.20290918037E+02 -0.81794055879E+01  0.94959018402E+02  0.90081932709E+02 0.  0.
         13    1    3    3    0    0  0.25634895960E+02  0.18798756453E+02  0.69977510767E+01  0.32550281400E+02  0.10566000000E+00 0.  1.
         22    1    1    0    0    0  0.20587290856E+02  0.20290918037E+02  0.81794055879E+01  0.30040981598E+02  0.00000000000E+00 0. -1.
</event>
<event>
 5    1  0.1724235E-003  0.9118800E+02  0.7818608E-02  0.1130116E+00
         25   -1    0    0    0    0  0.00000000000E+00  0.00000000000E+00  0.99999998245E-14  0.12500000000E+03  0.12500000000E+03 0.  0.
        -13    1    3    3    0    0 -0.16862919311E+02  0.18343571294E+02 -0.49476823936E+02  0.55396858452E+02  0.10566000000E+00 0. -1.
         23    2    1    0    0    0 -0.25821549350E+02  0.31621349330E+01 -0.12981621318E+02  0.95926403727E+02  0.91414445969E+02 0.  0.
         13    1    3    3    0    0 -0.89586300388E+01 -0.15181436361E+02  0.36495202617E+02  0.40529545276E+02  0.10566000000E+00 0.  1.
         22    1    1    0    0    0  0.25821549350E+02 -0.31621349330E+01  0.12981621318E+02  0.29073596273E+02  0.00000000000E+00 0. -1.
</event>
<event>
 5    1  0.1724235E-003  0.9118800E+02  0.7818608E-02  0.1130116E+00
         25   -1    0    0    0    0  0.00000000000E+00  0.00000000000E+00  0.99999998245E-14  0.12500000000E+03  0.12500000000E+03 0.  0.
        -13    1    3    3    0    0  0.31424214045E+02  0.39047603495E+02  0.34159923838E+02  0.60655652068E+02  0.10566000000E+00 0.  1.
         23    2    1    0    0    0  0.21953057248E+02  0.18096533963E+02  0.80784305571E+01  0.95424971610E+02  0.90726197443E+02 0.  0.
         13    1    3    3    0    0 -0.94711567970E+01 -0.20951069532E+02 -0.26081493281E+02  0.34769319542E+02  0.10566000000E+00 0. -1.
         22    1    1    0    0    0 -0.21953057248E+02 -0.18096533963E+02 -0.80784305571E+01  0.29575028390E+02  0.00000000000E+00 0.  1.
</event>
<event>
 5    1  0.1724235E-003  0.9118800E+02  0.7818608E-02  0.1130116E+00
         25   -1    0    0    0    0  0.00000000000E+00  0.00000000000E+00  0.99999998245E-14  0.12500000000E+03  0.12500000000E+03 0.  0.
        -13    1    3    3    0    0  0.22793199946E+02  0.23220324089E+02 -0.29410649420E+01  0.32670696987E+02  0.10566000000E+00 0.  1.
         23    2    1    0    0    0  0.32690914950E+01 -0.31933570526E+02 -0.94451155444E+01  0.91538827077E+02  0.85203912875E+02 0.  0.
         13    1    3    3    0    0 -0.19524108451E+02 -0.55153894615E+02 -0.65040506024E+01  0.58868130090E+02  0.10566000000E+00 0. -1.
         22    1    1    0    0    0 -0.32690914950E+01  0.31933570526E+02  0.94451155444E+01  0.33461172923E+02  0.00000000000E+00 0. -1.
</event>
<event>
 5    1  0.1724235E-003  0.9118800E+02  0.7818608E-02  0.1130116E+00
         25   -1    0    0    0    0  0.00000000000E+00  0.00000000000E+00  0.99999998245E-14  0.12500000000E+03  0.12500000000E+03 0.  0.
        -13    1    3    3    0    0  0.82603714391E+01  0.14220111501E+02 -0.90783787900E+00  0.16470599293E+02  0.10566000000E+00 0.  1.
         23    2    1    0    0    0 -0.44305748820E+02 -0.44754310883E+01  0.20173371333E+02  0.76112437442E+02  0.58336175401E+02 0.  0.
         13    1    3    3    0    0 -0.52566120259E+02 -0.18695542590E+02  0.21081209212E+02  0.59641838148E+02  0.10566000000E+00 0. -1.
         22    1    1    0    0    0  0.44305748820E+02  0.44754310883E+01 -0.20173371333E+02  0.48887562558E+02  0.00000000000E+00 0. -1.
</event>
<event>
 5    1  0.1724235E-003  0.9118800E+02  0.7818608E-02  0.1130116E+00
         25   -1    0    0    0    0  0.00000000000E+00  0.00000000000E+00  0.99999998245E-14  0.12500000000E+03  0.12500000000E+03 0.  0.
        -13    1    3    3    0    0  0.49060998543E+02 -0.26293752208E+02  0.23907369253E+02  0.60579835357E+02  0.10566000000E+00 0.  1.
         23    2    1    0    0    0  0.25610406947E+02 -0.75837615269E+01  0.10954577475E+01  0.98267876804E+02  0.94561986025E+02 0.  0.
         13    1    3    3    0    0 -0.23450591596E+02  0.18709990682E+02 -0.22811911506E+02  0.37688041447E+02  0.10566000000E+00 0. -1.
         22    1    1    0    0    0 -0.25610406947E+02  0.75837615269E+01 -0.10954577475E+01  0.26732123196E+02  0.00000000000E+00 0.  1.
</event>
<event>
 5    1  0.1724235E-003  0.9118800E+02  0.7818608E-02  0.1130116E+00
         25   -1    0    0    0    0  0.00000000000E+00  0.00000000000E+00  0.99999998245E-14  0.12500000000E+03  0.12500000000E+03 0.  0.
        -13    1    3    3    0    0  0.56422481399E+02  0.21124662407E+02 -0.62691857107E+01  0.60572779551E+02  0.10566000000E+00 0. -1.
         23    2    1    0    0    0  0.22514513417E+02  0.19007979368E+02  0.17577078083E+01  0.95482274295E+02  0.90805113147E+02 0.  0.
         13    1    3    3    0    0 -0.33907967981E+02 -0.21166830389E+01  0.80268935190E+01  0.34909494744E+02  0.10566000000E+00 0.  1.
         22    1    1    0    0    0 -0.22514513417E+02 -0.19007979368E+02 -0.17577078083E+01  0.29517725705E+02  0.00000000000E+00 0. -1.
</event>
<event>
 5    1  0.1724235E-003  0.9118800E+02  0.7818608E-02  0.1130116E+00
         25   -1    0    0    0    0  0.00000000000E+00  0.00000000000E+00  0.99999998245E-14  0.12500000000E+03  0.12500000000E+03 0.  0.
        -13    1    3    3    0    0  0.56071075950E+02 -0.19525845038E+02  0.17418912134E+02  0.61876116932E+02  0.10566000000E+00 0. -1.
         23    2    1    0    0    0  0.27995097211E+02 -0.10389492344E+02  0.22908310897E+01  0.95051462038E+02  0.90210118664E+02 0.  0.
         13    1    3    3    0    0 -0.28075978739E+02  0.91363526937E+01 -0.15128081045E+02  0.33175345105E+02  0.10566000000E+00 0.  1.
         22    1    1    0    0    0 -0.27995097211E+02  0.10389492344E+02 -0.22908310897E+01  0.29948537962E+02  0.00000000000E+00 0. -1.
</event>
<event>
 5    1  0.1724235E-003  0.9118800E+02  0.7818608E-02  0.1130116E+00
         25   -1    0    0    0    0  0.00000000000E+00  0.00000000000E+00  0.99999998245E-14  0.12500000000E+03  0.12500000000E+03 0.  0.
        -13    1    3    3    0    0  0.18717657033E+02  0.26133569730E+02 -0.56345399702E+00  0.32150315646E+02  0.10566000000E+00 0.  1.
         23    2    1    0    0    0 -0.93996403282E+01 -0.29207425388E+02 -0.21203493479E+01  0.94244141738E+02  0.89084428687E+02 0.  0.
         13    1    3    3    0    0 -0.28117297362E+02 -0.55340995118E+02 -0.15568953509E+01  0.62093826092E+02  0.10566000000E+00 0. -1.
         22    1    1    0    0    0  0.93996403282E+01  0.29207425388E+02  0.21203493479E+01  0.30755858262E+02  0.00000000000E+00 0. -1.
</event>
<event>
 5    1  0.1724235E-003  0.9118800E+02  0.7818608E-02  0.1130116E+00
         25   -1    0    0    0    0  0.00000000000E+00  0.00000000000E+00  0.99999998245E-14  0.12500000000E+03  0.12500000000E+03 0.  0.
        -13    1    3    3    0    0  0.58126560730E+02  0.14855248931E+02 -0.15208148937E+02  0.61892442521E+02  0.10566000000E+00 0. -1.
         23    2    1    0    0    0  0.26766122009E+02  0.12098215442E+02 -0.10909608154E+02  0.93666126088E+02  0.88269652327E+02 0.  0.
         13    1    3    3    0    0 -0.31360438722E+02 -0.27570334892E+01  0.42985407823E+01  0.31773683567E+02  0.10566000000E+00 0.  1.
         22    1    1    0    0    0 -0.26766122009E+02 -0.12098215442E+02  0.10909608154E+02  0.31333873912E+02  0.00000000000E+00 0. -1.
</event>
<event>
 5    1  0.1724235E-003  0.9118800E+02  0.7818608E-02  0.1130116E+00
         25   -1    0    0    0    0  0.00000000000E+00  0.00000000000E+00  0.99999998245E-14  0.12500000000E+03  0.12500000000E+03 0.  0.
        -13    1    3    3    0    0  0.12568971102E+02  0.32454791774E+02  0.17855957263E+02  0.39116990139E+02  0.10566000000E+00 0.  1.
         23    2    1    0    0    0  0.23829129571E+02 -0.17688454652E+02 -0.41727984159E+01  0.95031331516E+02  0.90182220415E+02 0.  0.
         13    1    3    3    0    0  0.11260158469E+02 -0.50143246426E+02 -0.22028755679E+02  0.55914341378E+02  0.10566000000E+00 0. -1.
         22    1    1    0    0    0 -0.23829129571E+02  0.17688454652E+02  0.41727984159E+01  0.29968668484E+02  0.00000000000E+00 0. -1.
</event>
<event>
 5    1  0.1724235E-003  0.9118800E+02  0.7818608E-02  0.1130116E+00
         25   -1    0    0    0    0  0.00000000000E+00  0.00000000000E+00  0.99999998245E-14  0.12500000000E+03  0.12500000000E+03 0.  0.
        -13    1    3    3    0    0  0.44709007066E+01  0.23129530531E+02 -0.42235177483E+02  0.48360991685E+02  0.10566000000E+00 0.  1.
         23    2    1    0    0    0  0.11818018272E+02  0.28330394465E+02  0.26961736818E+01  0.94185293139E+02  0.89001816187E+02 0.  0.
         13    1    3    3    0    0  0.73471175659E+01  0.52008639338E+01  0.44931351165E+02  0.45824301453E+02  0.10566000000E+00 0. -1.
         22    1    1    0    0    0 -0.11818018272E+02 -0.28330394465E+02 -0.26961736818E+01  0.30814706861E+02  0.00000000000E+00 0.  1.
</event>
<event>
 5    1  0.1724235E-003  0.9118800E+02  0.7818608E-02  0.1130116E+00
         25   -1    0    0    0    0  0.00000000000E+00  0.00000000000E+00  0.99999998245E-14  0.12500000000E+03  0.12500000000E+03 0.  0.
        -13    1    3    3    0    0  0.41965850197E+02  0.12154152525E+02 -0.21613225116E+02  0.48744216789E+02  0.10566000000E+00 0.  1.
         23    2    1    0    0    0 -0.22659804802E+01 -0.46545862726E+01 -0.28030501420E+02  0.96495459121E+02  0.92189287773E+02 0.  0.
         13    1    3    3    0    0 -0.44231830678E+02 -0.16808738798E+02 -0.64172763037E+01  0.47751242332E+02  0.10566000000E+00 0. -1.
         22    1    1    0    0    0  0.22659804802E+01  0.46545862726E+01  0.28030501420E+02  0.28504540879E+02  0.00000000000E+00 0.  1.
</event>
<event>
 5    1  0.1724235E-003  0.9118800E+02  0.7818608E-02  0.1130116E+00
         25   -1    0    0    0    0  0.00000000000E+00  0.00000000000E+00  0.99999998245E-14  0.12500000000E+03  0.12500000000E+03 0.  0.
        -13    1    3    3    0    0 -0.37317645552E+01  0.35268474049E+02 -0.35789911576E+02  0.50385714871E+02  0.10566000000E+00 0.  1.
         23    2    1    0    0    0 -0.23517082511E+02 -0.15938127083E+01 -0.14476159187E+02  0.97338608249E+02  0.93325516673E+02 0.  0.
         13    1    3    3    0    0 -0.19785317956E+02 -0.36862286757E+02  0.21313752389E+02  0.46952893378E+02  0.10566000000E+00 0. -1.
         22    1    1    0    0    0  0.23517082511E+02  0.15938127083E+01  0.14476159187E+02  0.27661391751E+02  0.00000000000E+00 0.  1.
</event>
<event>
 5    1  0.1724235E-003  0.9118800E+02  0.7818608E-02  0.1130116E+00
         25   -1    0    0    0    0  0.00000000000E+00  0.00000000000E+00  0.99999998245E-14  0.12500000000E+03  0.12500000000E+03 0.  0.
        -13    1    3    3    0    0  0.36551444571E+02  0.28494264091E+02 -0.17082109949E+02  0.49393732706E+02  0.10566000000E+00 0.  1.
         23    2    1    0    0    0  0.35153233241E+01  0.24979306553E+02  0.15060821134E+02  0.95620558426E+02  0.90995272441E+02 0.  0.
         13    1    3    3    0    0 -0.33036121247E+02 -0.35149575379E+01  0.32142931083E+02  0.46226825720E+02  0.10566000000E+00 0. -1.
         22    1    1    0    0    0 -0.35153233241E+01 -0.24979306553E+02 -0.15060821134E+02  0.29379441574E+02  0.00000000000E+00 0.  1.
</event>
<event>
 5    1  0.1724235E-003  0.9118800E+02  0.7818608E-02  0.1130116E+00
         25   -1    0    0    0    0  0.00000000000E+00  0.00000000000E+00  0.99999998245E-14  0.12500000000E+03  0.12500000000E+03 0.  0.
        -13    1    3    3    0    0 -0.12868381724E+02 -0.53655469804E+02 -0.18908771829E+02  0.58327159233E+02  0.10566000000E+00 0.  1.
         23    2    1    0    0    0  0.10282833408E+02 -0.25337718564E+02 -0.87658785838E+01  0.96284546456E+02  0.91902865102E+02 0.  0.
         13    1    3    3    0    0  0.23151215132E+02  0.28317751240E+02  0.10142893245E+02  0.37957387223E+02  0.10566000000E+00 0. -1.
         22    1    1    0    0    0 -0.10282833408E+02  0.25337718564E+02  0.87658785838E+01  0.28715453544E+02  0.00000000000E+00 0.  1.
</event>
<event>
 5    1  0.1724235E-003  0.9118800E+02  0.7818608E-02  0.1130116E+00
         25   -1    0    0    0    0  0.00000000000E+00  0.00000000000E+00  0.99999998245E-14  0.12500000000E+03  0.12500000000E+03 0.  0.
        -13    1    3    3    0    0 -0.26987676177E+02 -0.24175241037E+02  0.13755551931E+02  0.38755687552E+02  0.10566000000E+00 0. -1.
         23    2    1    0    0    0 -0.93369488805E+01  0.28008136250E+02  0.24725145077E+00  0.95475511115E+02  0.90795802650E+02 0.  0.
         13    1    3    3    0    0  0.17650727297E+02  0.52183377287E+02 -0.13508300480E+02  0.56719823564E+02  0.10566000000E+00 0.  1.
         22    1    1    0    0    0  0.93369488805E+01 -0.28008136250E+02 -0.24725145077E+00  0.29524488885E+02  0.00000000000E+00 0.  1.
</event>
<event>
 5    1  0.1724235E-003  0.9118800E+02  0.7818608E-02  0.1130116E+00
         25   -1    0    0    0    0  0.00000000000E+00  0.00000000000E+00  0.99999998245E-14  0.12500000000E+03  0.12500000000E+03 0.  0.
        -13    1    3    3    0    0 -0.32588300069E+02 -0.23112594038E+02  0.64682903049E+01  0.40472697564E+02  0.10566000000E+00 0. -1.
         23    2    1    0    0    0 -0.36966473789E+01  0.19938156856E+02  0.22470097633E+02  0.94732846379E+02  0.89767541990E+02 0.  0.
         13    1    3    3    0    0  0.28891652690E+02  0.43050750894E+02  0.16001807329E+02  0.54260148816E+02  0.10566000000E+00 0.  1.
         22    1    1    0    0    0  0.36966473789E+01 -0.19938156856E+02 -0.22470097633E+02  0.30267153621E+02  0.00000000000E+00 0.  1.
</event>
<event>
 5    1  0.1724235E-003  0.9118800E+02  0.7818608E-02  0.1130116E+00
         25   -1    0    0    0    0  0.00000000000E+00  0.00000000000E+00  0.99999998245E-14  0.12500000000E+03  0.12500000000E+03 0.  0.
        -13    1    3    3    0    0  0.26294438579E+02  0.17936056437E+01  0.55914618459E+02  0.61814806016E+02  0.10566000000E+00 0. -1.
         23    2    1    0    0    0  0.10714042671E+02  0.65532048486E+01  0.30649720265E+02  0.91876887881E+02  0.85698436218E+02 0.  0.
         13    1    3    3    0    0 -0.15580395909E+02  0.47595992049E+01 -0.25264898194E+02  0.30062081865E+02  0.10566000000E+00 0.  1.
         22    1    1    0    0    0 -0.10714042671E+02 -0.65532048486E+01 -0.30649720265E+02  0.33123112119E+02  0.00000000000E+00 0. -1.
</event>
<event>
 5    1  0.1724235E-003  0.9118800E+02  0.7818608E-02  0.1130116E+00
         25   -1    0    0    0    0  0.00000000000E+00  0.00000000000E+00  0.99999998245E-14  0.12500000000E+03  0.12500000000E+03 0.  0.
        -13    1    3    3    0    0  0.15741686975E+02  0.80361312342E+01  0.36639730155E+01  0.18050373301E+02  0.10566000000E+00 0.  1.
         23    2    1    0    0    0 -0.36429518500E+02 -0.12838544568E+01 -0.27325486115E+02  0.79442999530E+02  0.65082638871E+02 0.  0.
         13    1    3    3    0    0 -0.52171205475E+02 -0.93199856910E+01 -0.30989459131E+02  0.61392626228E+02  0.10566000000E+00 0. -1.
         22    1    1    0    0    0  0.36429518500E+02  0.12838544568E+01  0.27325486115E+02  0.45557000470E+02  0.00000000000E+00 0. -1.
</event>
<event>
 5    1  0.1724235E-003  0.9118800E+02  0.7818608E-02  0.1130116E+00
         25   -1    0    0    0    0  0.00000000000E+00  0.00000000000E+00  0.99999998245E-14  0.12500000000E+03  0.12500000000E+03 0.  0.
        -13    1    3    3    0    0 -0.21954527269E+01 -0.75838068684E+01 -0.35793402319E+02  0.36653962308E+02  0.10566000000E+00 0. -1.
         23    2    1    0    0    0  0.24700541579E+02  0.69726246310E+01  0.14504168491E+02  0.95519410587E+02  0.90856219637E+02 0.  0.
         13    1    3    3    0    0  0.26895994306E+02  0.14556431499E+02  0.50297570809E+02  0.58865448279E+02  0.10566000000E+00 0.  1.
         22    1    1    0    0    0 -0.24700541579E+02 -0.69726246310E+01 -0.14504168491E+02  0.29480589413E+02  0.00000000000E+00 0.  1.
</event>
<event>
 5    1  0.1724235E-003  0.9118800E+02  0.7818608E-02  0.1130116E+00
         25   -1    0    0    0    0  0.00000000000E+00  0.00000000000E+00  0.99999998245E-14  0.12500000000E+03  0.12500000000E+03 0.  0.
        -13    1    3    3    0    0 -0.55755261419E+01 -0.83079474546E+01  0.49145500362E+02  0.50153762098E+02  0.10566000000E+00 0.  1.
         23    2    1    0    0    0  0.38679043980E+01  0.22981351475E+02  0.15808788383E+02  0.96839371630E+02  0.92654427350E+02 0.  0.
         13    1    3    3    0    0  0.94434305399E+01  0.31289298929E+02 -0.33336711979E+02  0.46685609533E+02  0.10566000000E+00 0. -1.
         22    1    1    0    0    0 -0.38679043980E+01 -0.22981351475E+02 -0.15808788383E+02  0.28160628370E+02  0.00000000000E+00 0.  1.
</event>
<event>
 5    1  0.1724235E-003  0.9118800E+02  0.7818608E-02  0.1130116E+00
         25   -1    0    0    0    0  0.00000000000E+00  0.00000000000E+00  0.99999998245E-14  0.12500000000E+03  0.12500000000E+03 0.  0.
        -13    1    3    3    0    0  0.16473097731E+01 -0.45700010468E+02 -0.25255629247E+02  0.52240430310E+02  0.10566000000E+00 0. -1.
         23    2    1    0    0    0  0.23649459502E+02 -0.11952701172E+02 -0.17438969728E+02  0.93278057039E+02  0.87718380398E+02 0.  0.
         13    1    3    3    0    0  0.22002149729E+02  0.33747309296E+02  0.78166595193E+01  0.41037626728E+02  0.10566000000E+00 0.  1.
         22    1    1    0    0    0 -0.23649459502E+02  0.11952701172E+02  0.17438969728E+02  0.31721942961E+02  0.00000000000E+00 0. -1.
</event>
<event>
 5    1  0.1724235E-003  0.9118800E+02  0.7818608E-02  0.1130116E+00
         25   -1    0    0    0    0  0.00000000000E+00  0.00000000000E+00  0.99999998245E-14  0.12500000000E+03  0.12500000000E+03 0.  0.
        -13    1    3    3    0    0  0.31185681259E+02 -0.69436581141E+01  0.24871679151E+01  0.32046189662E+02  0.10566000000E+00 0.  1.
         23    2    1    0    0    0 -0.90418359977E+01  0.33076758748E+02 -0.80913403702E+01  0.89767961222E+02  0.82565067102E+02 0.  0.
         13    1    3    3    0    0 -0.40227517257E+02  0.40020416862E+02 -0.10578508285E+02  0.57721771560E+02  0.10566000000E+00 0. -1.
         22    1    1    0    0    0  0.90418359977E+01 -0.33076758748E+02  0.80913403702E+01  0.35232038778E+02  0.00000000000E+00 0. -1.
</event>
<event>
 5    1  0.1724235E-003  0.9118800E+02  0.7818608E-02  0.1130116E+00
         25   -1    0    0    0    0  0.00000000000E+00  0.00000000000E+00  0.99999998245E-14  0.12500000000E+03  0.12500000000E+03 0.  0.
        -13    1    3    3    0    0  0.15232490667E+01 -0.38150537309E+01  0.34032783612E+02  0.34279971516E+02  0.10566000000E+00 0.  1.
         23    2    1    0    0    0 -0.11753546879E+01 -0.14276824640E+02 -0.26020162708E+02  0.95297171047E+02  0.90549946227E+02 0.  0.
         13    1    3    3    0    0 -0.26986037545E+01 -0.10461770909E+02 -0.60052946321E+02  0.61017199531E+02  0.10566000000E+00 0. -1.
         22    1    1    0    0    0  0.11753546879E+01  0.14276824640E+02  0.26020162708E+02  0.29702828953E+02  0.00000000000E+00 0. -1.
</event>
<event>
 5    1  0.1724235E-003  0.9118800E+02  0.7818608E-02  0.1130116E+00
         25   -1    0    0    0    0  0.00000000000E+00  0.00000000000E+00  0.99999998245E-14  0.12500000000E+03  0.12500000000E+03 0.  0.
        -13    1    3    3    0    0 -0.10608485090E+02 -0.43061896039E+02  0.72218317061E+01  0.44933649569E+02  0.10566000000E+00 0. -1.
         23    2    1    0    0    0  0.26429547695E+02 -0.85140563768E+01  0.95495404115E+01  0.95636691783E+02  0.91017432098E+02 0.  0.
         13    1    3    3    0    0  0.37038032785E+02  0.34547839662E+02  0.23277087054E+01  0.50703042214E+02  0.10566000000E+00 0.  1.
         22    1    1    0    0    0 -0.26429547695E+02  0.85140563768E+01 -0.95495404115E+01  0.29363308217E+02  0.00000000000E+00 0.  1.
</event>
<event>
 5    1  0.1724235E-003  0.9118800E+02  0.7818608E-02  0.1130116E+00
         25   -1    0    0    0    0  0.00000000000E+00  0.00000000000E+00  0.99999998245E-14  0.12500000000E+03  0.12500000000E+03 0.  0.
        -13    1    3    3    0    0 -0.28901451050E+01  0.20615866196E+02  0.54115588499E+02  0.57981677798E+02  0.10566000000E+00 0. -1.
         23    2    1    0    0    0  0.15346880632E+02  0.10571222315E+02  0.23459920679E+02  0.95039269624E+02  0.90193222617E+02 0.  0.
         13    1    3    3    0    0  0.18237025737E+02 -0.10044643881E+02 -0.30655667819E+02  0.37057591826E+02  0.10566000000E+00 0.  1.
         22    1    1    0    0    0 -0.15346880632E+02 -0.10571222315E+02 -0.23459920679E+02  0.29960730376E+02  0.00000000000E+00 0. -1.
</event>
<event>
 5    1  0.1724235E-003  0.9118800E+02  0.7818608E-02  0.1130116E+00
         25   -1    0    0    0    0  0.00000000000E+00  0.00000000000E+00  0.99999998245E-14  0.12500000000E+03  0.12500000000E+03 0.  0.
        -13    1    3    3    0    0 -0.39736720630E+02 -0.88572486323E+01  0.26941981094E+01  0.40801074584E+02  0.10566000000E+00 0.  1.
         23    2    1    0    0    0  0.14746983302E+02 -0.12520798352E+02  0.19095291669E+02  0.97817761832E+02  0.93965102341E+02 0.  0.
         13    1    3    3    0    0  0.54483703932E+02 -0.36635497193E+01  0.16401093560E+02  0.57016687248E+02  0.10566000000E+00 0. -1.
         22    1    1    0    0    0 -0.14746983302E+02  0.12520798352E+02 -0.19095291669E+02  0.27182238168E+02  0.00000000000E+00 0. -1.
</event>
<event>
 5    1  0.1724235E-003  0.9118800E+02  0.7818608E-02  0.1130116E+00
         25   -1    0    0    0    0  0.00000000000E+00  0.00000000000E+00  0.99999998245E-14  0.12500000000E+03  0.12500000000E+03 0.  0.
        -13    1    3    3    0    0 -0.62556493829E+01 -0.32240980557E+02  0.20852418838E+02  0.38903065585E+02  0.10566000000E+00 0.  1.
         23    2    1    0    0    0  0.23918177139E+02  0.14736241747E+01 -0.15084760219E+02  0.96683913464E+02  0.92444460981E+02 0.  0.
         13    1    3    3    0    0  0.30173826522E+02  0.33714604731E+02 -0.35937179056E+02  0.57780847880E+02  0.10566000000E+00 0. -1.
         22    1    1    0    0    0 -0.23918177139E+02 -0.14736241747E+01  0.15084760219E+02  0.28316086536E+02  0.00000000000E+00 0. -1.
</event>
<event>
 5    1  0.1724235E-003  0.9118800E+02  0.7818608E-02  0.1130116E+00
         25   -1    0    0    0    0  0.00000000000E+00  0.00000000000E+00  0.99999998245E-14  0.12500000000E+03  0.12500000000E+03 0.  0.
        -13    1    3    3    0    0  0.75011848342E+01 -0.32191186357E+02 -0.52944198453E+02  0.62415058815E+02  0.10566000000E+00 0. -1.
         23    2    1    0    0    0  0.34332958053E+01 -0.16322842084E+02 -0.22440184606E+02  0.97039589078E+02  0.92924147935E+02 0.  0.
         13    1    3    3    0    0 -0.40678890288E+01  0.15868344274E+02  0.30504013847E+02  0.34624530263E+02  0.10566000000E+00 0.  1.
         22    1    1    0    0    0 -0.34332958053E+01  0.16322842084E+02  0.22440184606E+02  0.27960410922E+02  0.00000000000E+00 0. -1.
</event>
<event>
 5    1  0.1724235E-003  0.9118800E+02  0.7818608E-02  0.1130116E+00
         25   -1    0    0    0    0  0.00000000000E+00  0.00000000000E+00  0.99999998245E-14  0.12500000000E+03  0.12500000000E+03 0.  0.
        -13    1    3    3    0    0  0.26727538460E+02 -0.31140648187E+02  0.34566772883E+02  0.53656073591E+02  0.10566000000E+00 0.  1.
         23    2    1    0    0    0  0.88586787102E+01 -0.40978269548E+02  0.25010097998E+02  0.76181972945E+02  0.58484982997E+02 0.  0.
         13    1    3    3    0    0 -0.17868859750E+02 -0.98376213616E+01 -0.95566748847E+01  0.22525899354E+02  0.10566000000E+00 0. -1.
         22    1    1    0    0    0 -0.88586787102E+01  0.40978269548E+02 -0.25010097998E+02  0.48818027055E+02  0.00000000000E+00 0. -1.
</event>
<event>
 5    1  0.1724235E-003  0.9118800E+02  0.7818608E-02  0.1130116E+00
         25   -1    0    0    0    0  0.00000000000E+00  0.00000000000E+00  0.99999998245E-14  0.12500000000E+03  0.12500000000E+03 0.  0.
        -13    1    3    3    0    0  0.35384504682E+02 -0.19209302986E+02  0.58300694786E+00  0.40266754947E+02  0.10566000000E+00 0. -1.
         23    2    1    0    0    0  0.68110505846E+01  0.26632666894E+02 -0.10789053854E+02  0.95468778572E+02  0.90786533380E+02 0.  0.
         13    1    3    3    0    0 -0.28573454098E+02  0.45841969879E+02 -0.11372060802E+02  0.55202023626E+02  0.10566000000E+00 0.  1.
         22    1    1    0    0    0 -0.68110505846E+01 -0.26632666894E+02  0.10789053854E+02  0.29531221428E+02  0.00000000000E+00 0.  1.
</event>
<event>
 5    1  0.1724235E-003  0.9118800E+02  0.7818608E-02  0.1130116E+00
         25   -1    0    0    0    0  0.00000000000E+00  0.00000000000E+00  0.99999998245E-14  0.12500000000E+03  0.12500000000E+03 0.  0.
        -13    1    3    3    0    0 -0.46674396263E+02  0.12978716884E+02 -0.10846383487E+02  0.49644753572E+02  0.10566000000E+00 0. -1.
         23    2    1    0    0    0 -0.11714788306E+02  0.13710588499E+02 -0.30359531295E+02  0.89688278965E+02  0.82444343294E+02 0.  0.
         13    1    3    3    0    0  0.34959607956E+02  0.73187161506E+00 -0.19513147807E+02  0.40043525393E+02  0.10566000000E+00 0.  1.
         22    1    1    0    0    0  0.11714788306E+02 -0.13710588499E+02  0.30359531295E+02  0.35311721035E+02  0.00000000000E+00 0. -1.
</event>
<event>
 5    1  0.1724235E-003  0.9118800E+02  0.7818608E-02  0.1130116E+00
         25   -1    0    0    0    0  0.00000000000E+00  0.00000000000E+00  0.99999998245E-14  0.12500000000E+03  0.12500000000E+03 0.  0.
        -13    1    3    3    0    0 -0.33689738454E+02 -0.97212900863E+01  0.26289275335E+02  0.43825096916E+02  0.10566000000E+00 0.  1.
         23    2    1    0    0    0 -0.52301238109E+00 -0.32559603948E+02 -0.91649575984E+00  0.92423301032E+02  0.86491764105E+02 0.  0.
         13    1    3    3    0    0  0.33166726073E+02 -0.22838313861E+02 -0.27205771095E+02  0.48598204116E+02  0.10566000000E+00 0. -1.
         22    1    1    0    0    0  0.52301238109E+00  0.32559603948E+02  0.91649575984E+00  0.32576698968E+02  0.00000000000E+00 0. -1.
</event>
<event>
 5    1  0.1724235E-003  0.9118800E+02  0.7818608E-02  0.1130116E+00
         25   -1    0    0    0    0  0.00000000000E+00  0.00000000000E+00  0.99999998245E-14  0.12500000000E+03  0.12500000000E+03 0.  0.
        -13    1    3    3    0    0  0.12513254528E+02 -0.73504882050E+01 -0.52857965632E+02  0.54814112330E+02  0.10566000000E+00 0. -1.
         23    2    1    0    0    0  0.19581676616E+02  0.12088790833E+02 -0.16364372224E+02  0.96762195531E+02  0.92550250582E+02 0.  0.
         13    1    3    3    0    0  0.70684220887E+01  0.19439279038E+02  0.36493593408E+02  0.41948083201E+02  0.10566000000E+00 0.  1.
         22    1    1    0    0    0 -0.19581676616E+02 -0.12088790833E+02  0.16364372224E+02  0.28237804469E+02  0.00000000000E+00 0. -1.
</event>
<event>
 5    1  0.1724235E-003  0.9118800E+02  0.7818608E-02  0.1130116E+00
         25   -1    0    0    0    0  0.00000000000E+00  0.00000000000E+00  0.99999998245E-14  0.12500000000E+03  0.12500000000E+03 0.  0.
        -13    1    3    3    0    0  0.18646377213E+02 -0.14364905461E+02  0.52346457732E+02  0.57395127783E+02  0.10566000000E+00 0. -1.
         23    2    1    0    0    0 -0.86456914239E+01 -0.73888659474E+01  0.28541202701E+02  0.94276335313E+02  0.89129590082E+02 0.  0.
         13    1    3    3    0    0 -0.27292068637E+02  0.69760395132E+01 -0.23805255031E+02  0.36881207530E+02  0.10566000000E+00 0.  1.
         22    1    1    0    0    0  0.86456914239E+01  0.73888659474E+01 -0.28541202701E+02  0.30723664687E+02  0.00000000000E+00 0. -1.
</event>
<event>
 5    1  0.1724235E-003  0.9118800E+02  0.7818608E-02  0.1130116E+00
         25   -1    0    0    0    0  0.00000000000E+00  0.00000000000E+00  0.99999998245E-14  0.12500000000E+03  0.12500000000E+03 0.  0.
        -13    1    3    3    0    0 -0.40788201932E+02  0.37426927126E+01 -0.17630401941E+02  0.44592907533E+02  0.10566000000E+00 0. -1.
         23    2    1    0    0    0 -0.15463952651E+02  0.54086888839E+01  0.25532120497E+02  0.94663933608E+02  0.89671530611E+02 0.  0.
         13    1    3    3    0    0  0.25324249281E+02  0.16659961713E+01  0.43162522439E+02  0.50071026075E+02  0.10566000000E+00 0.  1.
         22    1    1    0    0    0  0.15463952651E+02 -0.54086888839E+01 -0.25532120497E+02  0.30336066392E+02  0.00000000000E+00 0. -1.
</event>
<event>
 5    1  0.1724235E-003  0.9118800E+02  0.7818608E-02  0.1130116E+00
         25   -1    0    0    0    0  0.00000000000E+00  0.00000000000E+00  0.99999998245E-14  0.12500000000E+03  0.12500000000E+03 0.  0.
        -13    1    3    3    0    0  0.20033185841E+02 -0.23962140647E+02  0.51151269756E+02  0.59933098377E+02  0.10566000000E+00 0. -1.
         23    2    1    0    0    0  0.10374835062E+01 -0.20581863683E+02  0.22357925627E+02  0.94593317790E+02  0.89573039735E+02 0.  0.
         13    1    3    3    0    0 -0.18995702335E+02  0.33802769644E+01 -0.28793344129E+02  0.34660219413E+02  0.10566000000E+00 0.  1.
         22    1    1    0    0    0 -0.10374835062E+01  0.20581863683E+02 -0.22357925627E+02  0.30406682210E+02  0.00000000000E+00 0. -1.
</event>
<event>
 5    1  0.1724235E-003  0.9118800E+02  0.7818608E-02  0.1130116E+00
         25   -1    0    0    0    0  0.00000000000E+00  0.00000000000E+00  0.99999998245E-14  0.12500000000E+03  0.12500000000E+03 0.  0.
        -13    1    3    3    0    0  0.40789013550E+02  0.11790511641E+01  0.32091031559E+02  0.51913189640E+02  0.10566000000E+00 0.  1.
         23    2    1    0    0    0 -0.41353324921E+01  0.26648542661E+01  0.27462990874E+02  0.97099851419E+02  0.93005176495E+02 0.  0.
         13    1    3    3    0    0 -0.44924346042E+02  0.14858031020E+01 -0.46280406850E+01  0.45186661780E+02  0.10566000000E+00 0. -1.
         22    1    1    0    0    0  0.41353324921E+01 -0.26648542661E+01 -0.27462990874E+02  0.27900148581E+02  0.00000000000E+00 0. -1.
</event>
<event>
 5    1  0.1724235E-003  0.9118800E+02  0.7818608E-02  0.1130116E+00
         25   -1    0    0    0    0  0.00000000000E+00  0.00000000000E+00  0.99999998245E-14  0.12500000000E+03  0.12500000000E+03 0.  0.
        -13    1    3    3    0    0 -0.27902070456E+02 -0.70319278127E+01  0.50512386139E+02  0.58133345526E+02  0.10566000000E+00 0.  1.
         23    2    1    0    0    0 -0.25337503895E+02  0.47882546715E+01  0.16121884713E+02  0.94588955080E+02  0.89566951327E+02 0.  0.
         13    1    3    3    0    0  0.25645665610E+01  0.11820182484E+02 -0.34390501426E+02  0.36455609555E+02  0.10566000000E+00 0. -1.
         22    1    1    0    0    0  0.25337503895E+02 -0.47882546715E+01 -0.16121884713E+02  0.30411044920E+02  0.00000000000E+00 0.  1.
</event>
<event>
 5    1  0.1724235E-003  0.9118800E+02  0.7818608E-02  0.1130116E+00
         25   -1    0    0    0    0  0.00000000000E+00  0.00000000000E+00  0.99999998245E-14  0.12500000000E+03  0.12500000000E+03 0.  0.
        -13    1    3    3    0    0 -0.41818581061E+02  0.34588048415E+01 -0.88901453154E+01  0.42892923667E+02  0.10566000000E+00 0. -1.
         23    2    1    0    0    0  0.47019395302E+01  0.27584394743E+02 -0.99313449044E+01  0.95307598947E+02  0.90564340316E+02 0.  0.
         13    1    3    3    0    0  0.46520520591E+02  0.24125589901E+02 -0.10411995890E+01  0.52414675281E+02  0.10566000000E+00 0.  1.
         22    1    1    0    0    0 -0.47019395302E+01 -0.27584394743E+02  0.99313449044E+01  0.29692401053E+02  0.00000000000E+00 0.  1.
</event>
<event>
 5    1  0.1724235E-003  0.9118800E+02  0.7818608E-02  0.1130116E+00
         25   -1    0    0    0    0  0.00000000000E+00  0.00000000000E+00  0.99999998245E-14  0.12500000000E+03  0.12500000000E+03 0.  0.
        -13    1    3    3    0    0  0.43429116784E+02  0.13400873284E+02  0.60426369658E+01  0.45849713357E+02  0.10566000000E+00 0. -1.
         23    2    1    0    0    0 -0.11316841393E+02  0.34242287886E+01  0.18659610294E+02  0.10290979180E+03  0.10051093448E+03 0.  0.
         13    1    3    3    0    0 -0.54745958177E+02 -0.99766444958E+01  0.12616973328E+02  0.57060078444E+02  0.10566000000E+00 0.  1.
         22    1    1    0    0    0  0.11316841393E+02 -0.34242287886E+01 -0.18659610294E+02  0.22090208198E+02  0.00000000000E+00 0.  1.
</event>
<event>
 5    1  0.1724235E-003  0.9118800E+02  0.7818608E-02  0.1130116E+00
         25   -1    0    0    0    0  0.00000000000E+00  0.00000000000E+00  0.99999998245E-14  0.12500000000E+03  0.12500000000E+03 0.  0.
        -13    1    3    3    0    0  0.34748279165E+02 -0.27756591561E+02 -0.28364379891E+02  0.52748653923E+02  0.10566000000E+00 0.  1.
         23    2    1    0    0    0  0.12080129564E+02  0.62180206929E+01 -0.28317923062E+02  0.93591433045E+02  0.88163814920E+02 0.  0.
         13    1    3    3    0    0 -0.22668149602E+02  0.33974612253E+02  0.46456828977E-01  0.40842779122E+02  0.10566000000E+00 0. -1.
         22    1    1    0    0    0 -0.12080129564E+02 -0.62180206929E+01  0.28317923062E+02  0.31408566955E+02  0.00000000000E+00 0. -1.
</event>
<event>
 5    1  0.1724235E-003  0.9118800E+02  0.7818608E-02  0.1130116E+00
         25   -1    0    0    0    0  0.00000000000E+00  0.00000000000E+00  0.99999998245E-14  0.12500000000E+03  0.12500000000E+03 0.  0.
        -13    1    3    3    0    0 -0.47537608045E+02  0.16137164824E+02 -0.28588264690E+02  0.57771379672E+02  0.10566000000E+00 0. -1.
         23    2    1    0    0    0 -0.16606039777E+02  0.21562778348E+02 -0.43562232796E+01  0.97437513748E+02  0.93457896600E+02 0.  0.
         13    1    3    3    0    0  0.30931568267E+02  0.54256135234E+01  0.24232041410E+02  0.39666134076E+02  0.10566000000E+00 0.  1.
         22    1    1    0    0    0  0.16606039777E+02 -0.21562778348E+02  0.43562232796E+01  0.27562486252E+02  0.00000000000E+00 0. -1.
</event>
<event>
 5    1  0.1724235E-003  0.9118800E+02  0.7818608E-02  0.1130116E+00
         25   -1    0    0    0    0  0.00000000000E+00  0.00000000000E+00  0.99999998245E-14  0.12500000000E+03  0.12500000000E+03 0.  0.
        -13    1    3    3    0    0 -0.19150621300E+02 -0.88062043472E+01  0.42534043847E+02  0.47470533820E+02  0.10566000000E+00 0. -1.
         23    2    1    0    0    0  0.12931352831E+02  0.18018520566E+02  0.20772288799E+02  0.94612914727E+02  0.89600383268E+02 0.  0.
         13    1    3    3    0    0  0.32081974131E+02  0.26824724913E+02 -0.21761755048E+02  0.47142380907E+02  0.10566000000E+00 0.  1.
         22    1    1    0    0    0 -0.12931352831E+02 -0.18018520566E+02 -0.20772288799E+02  0.30387085273E+02  0.00000000000E+00 0.  1.
</event>
<event>
 5    1  0.1724235E-003  0.9118800E+02  0.7818608E-02  0.1130116E+00
         25   -1    0    0    0    0  0.00000000000E+00  0.00000000000E+00  0.99999998245E-14  0.12500000000E+03  0.12500000000E+03 0.  0.
        -13    1    3    3    0    0 -0.58810687421E+01 -0.56799294510E+02 -0.97373179275E+01  0.57927310924E+02  0.10566000000E+00 0. -1.
         23    2    1    0    0    0  0.73267315727E+01 -0.29386069777E+02  0.86786082767E+01  0.93495391859E+02  0.88027540944E+02 0.  0.
         13    1    3    3    0    0  0.13207800315E+02  0.27413224733E+02  0.18415926204E+02  0.35568080935E+02  0.10566000000E+00 0.  1.
         22    1    1    0    0    0 -0.73267315727E+01  0.29386069777E+02 -0.86786082767E+01  0.31504608141E+02  0.00000000000E+00 0. -1.
</event>
<event>
 5    1  0.1724235E-003  0.9118800E+02  0.7818608E-02  0.1130116E+00
         25   -1    0    0    0    0  0.00000000000E+00  0.00000000000E+00  0.99999998245E-14  0.12500000000E+03  0.12500000000E+03 0.  0.
        -13    1    3    3    0    0 -0.49579553413E+02  0.13887197362E+02  0.28975306225E+02  0.59081011350E+02  0.10566000000E+00 0. -1.
         23    2    1    0    0    0 -0.24704867916E+02 -0.73923265449E+01  0.78349483785E+01  0.98048870031E+02  0.94272039905E+02 0.  0.
         13    1    3    3    0    0  0.24874685498E+02 -0.21279523907E+02 -0.21140357846E+02  0.38967858682E+02  0.10566000000E+00 0.  1.
         22    1    1    0    0    0  0.24704867916E+02  0.73923265449E+01 -0.78349483785E+01  0.26951129969E+02  0.00000000000E+00 0. -1.
</event>
<event>
 5    1  0.1724235E-003  0.9118800E+02  0.7818608E-02  0.1130116E+00
         25   -1    0    0    0    0  0.00000000000E+00  0.00000000000E+00  0.99999998245E-14  0.12500000000E+03  0.12500000000E+03 0.  0.
        -13    1    3    3    0    0  0.47634419373E+01  0.40661642545E+02 -0.45503034434E+02  0.61209450743E+02  0.10566000000E+00 0. -1.
         23    2    1    0    0    0 -0.37568302130E+01  0.14018405710E+02 -0.25710110554E+02  0.95476462668E+02  0.90797112658E+02 0.  0.
         13    1    3    3    0    0 -0.85202721503E+01 -0.26643236835E+02  0.19792923880E+02  0.34267011925E+02  0.10566000000E+00 0.  1.
         22    1    1    0    0    0  0.37568302130E+01 -0.14018405710E+02  0.25710110554E+02  0.29523537332E+02  0.00000000000E+00 0. -1.
</event>
<event>
 5    1  0.1724235E-003  0.9118800E+02  0.7818608E-02  0.1130116E+00
         25   -1    0    0    0    0  0.00000000000E+00  0.00000000000E+00  0.99999998245E-14  0.12500000000E+03  0.12500000000E+03 0.  0.
        -13    1    3    3    0    0  0.45506022738E+02  0.20085202088E+02  0.11628394302E+01  0.49755168655E+02  0.10566000000E+00 0. -1.
         23    2    1    0    0    0 -0.22325355377E+01  0.26686469421E+02 -0.25978348524E+01  0.98094598851E+02  0.94332654541E+02 0.  0.
         13    1    3    3    0    0 -0.47738558275E+02  0.66012673330E+01 -0.37606742826E+01  0.48339430196E+02  0.10566000000E+00 0.  1.
         22    1    1    0    0    0  0.22325355377E+01 -0.26686469421E+02  0.25978348524E+01  0.26905401149E+02  0.00000000000E+00 0. -1.
</event>
<event>
 5    1  0.1724235E-003  0.9118800E+02  0.7818608E-02  0.1130116E+00
         25   -1    0    0    0    0  0.00000000000E+00  0.00000000000E+00  0.99999998245E-14  0.12500000000E+03  0.12500000000E+03 0.  0.
        -13    1    3    3    0    0  0.22229532350E+02 -0.17307821060E+02  0.33051756878E+02  0.43429742977E+02  0.10566000000E+00 0.  1.
         23    2    1    0    0    0 -0.19370094625E+02  0.12574211544E+02  0.71594909400E+01  0.10082212432E+03  0.97880187376E+02 0.  0.
         13    1    3    3    0    0 -0.41599626975E+02  0.29882032604E+02 -0.25892265938E+02  0.57392381345E+02  0.10566000000E+00 0. -1.
         22    1    1    0    0    0  0.19370094625E+02 -0.12574211544E+02 -0.71594909400E+01  0.24177875677E+02  0.00000000000E+00 0. -1.
</event>
<event>
 5    1  0.1724235E-003  0.9118800E+02  0.7818608E-02  0.1130116E+00
         25   -1    0    0    0    0  0.00000000000E+00  0.00000000000E+00  0.99999998245E-14  0.12500000000E+03  0.12500000000E+03 0.  0.
        -13    1    3    3    0    0 -0.20154900279E+02 -0.83985709038E+01 -0.52242344399E+02  0.56621813030E+02  0.10566000000E+00 0.  1.
         23    2    1    0    0    0 -0.89141386998E+01  0.15362245864E+02 -0.22971613187E+02  0.95962860348E+02  0.91464283122E+02 0.  0.
         13    1    3    3    0    0  0.11240761579E+02  0.23760816768E+02  0.29270731212E+02  0.39341047318E+02  0.10566000000E+00 0. -1.
         22    1    1    0    0    0  0.89141386998E+01 -0.15362245864E+02  0.22971613187E+02  0.29037139652E+02  0.00000000000E+00 0.  1.
</event>
<event>
 5    1  0.1724235E-003  0.9118800E+02  0.7818608E-02  0.1130116E+00
         25   -1    0    0    0    0  0.00000000000E+00  0.00000000000E+00  0.99999998245E-14  0.12500000000E+03  0.12500000000E+03 0.  0.
        -13    1    3    3    0    0  0.14102486560E+02 -0.43304752421E+02  0.41403819657E+02  0.61550541474E+02  0.10566000000E+00 0.  1.
         23    2    1    0    0    0  0.18391283402E+01 -0.26595792370E+02  0.17894449718E+02  0.92891902960E+02  0.87166368170E+02 0.  0.
         13    1    3    3    0    0 -0.12263358220E+02  0.16708960052E+02 -0.23509369939E+02  0.31341361486E+02  0.10566000000E+00 0. -1.
         22    1    1    0    0    0 -0.18391283402E+01  0.26595792370E+02 -0.17894449718E+02  0.32108097040E+02  0.00000000000E+00 0.  1.
</event>
<event>
 5    1  0.1724235E-003  0.9118800E+02  0.7818608E-02  0.1130116E+00
         25   -1    0    0    0    0  0.00000000000E+00  0.00000000000E+00  0.99999998245E-14  0.12500000000E+03  0.12500000000E+03 0.  0.
        -13    1    3    3    0    0  0.24735513091E+02  0.19408166892E+02  0.33317634150E+02  0.45810462335E+02  0.10566000000E+00 0. -1.
         23    2    1    0    0    0  0.23041520702E+02 -0.19227107625E+02  0.32141319166E+01  0.94818482678E+02  0.89886710194E+02 0.  0.
         13    1    3    3    0    0 -0.16939923886E+01 -0.38635274517E+02 -0.30103502233E+02  0.49008020343E+02  0.10566000000E+00 0.  1.
         22    1    1    0    0    0 -0.23041520702E+02  0.19227107625E+02 -0.32141319166E+01  0.30181517322E+02  0.00000000000E+00 0. -1.
</event>
<event>
 5    1  0.1724235E-003  0.9118800E+02  0.7818608E-02  0.1130116E+00
         25   -1    0    0    0    0  0.00000000000E+00  0.00000000000E+00  0.99999998245E-14  0.12500000000E+03  0.12500000000E+03 0.  0.
        -13    1    3    3    0    0  0.24396962805E+02 -0.10570989788E+02  0.33354562986E+02  0.42655546594E+02  0.10566000000E+00 0. -1.
         23    2    1    0    0    0 -0.18976269896E+02 -0.22638596787E+02  0.76991622170E+01  0.94473257913E+02  0.89405338085E+02 0.  0.
         13    1    3    3    0    0 -0.43373232701E+02 -0.12067606999E+02 -0.25655400769E+02  0.51817711318E+02  0.10566000000E+00 0.  1.
         22    1    1    0    0    0  0.18976269896E+02  0.22638596787E+02 -0.76991622170E+01  0.30526742087E+02  0.00000000000E+00 0.  1.
</event>
<event>
 5    1  0.1724235E-003  0.9118800E+02  0.7818608E-02  0.1130116E+00
         25   -1    0    0    0    0  0.00000000000E+00  0.00000000000E+00  0.99999998245E-14  0.12500000000E+03  0.12500000000E+03 0.  0.
        -13    1    3    3    0    0  0.37300197698E+02  0.37497002866E+02  0.31310552029E+02  0.61462930329E+02  0.10566000000E+00 0.  1.
         23    2    1    0    0    0  0.18899105235E+02  0.11061741506E+02  0.19209158167E+02  0.95870460674E+02  0.91337917474E+02 0.  0.
         13    1    3    3    0    0 -0.18401092463E+02 -0.26435261360E+02 -0.12101393862E+02  0.34407530345E+02  0.10566000000E+00 0. -1.
         22    1    1    0    0    0 -0.18899105235E+02 -0.11061741506E+02 -0.19209158167E+02  0.29129539326E+02  0.00000000000E+00 0.  1.
</event>
<event>
 5    1  0.1724235E-003  0.9118800E+02  0.7818608E-02  0.1130116E+00
         25   -1    0    0    0    0  0.00000000000E+00  0.00000000000E+00  0.99999998245E-14  0.12500000000E+03  0.12500000000E+03 0.  0.
        -13    1    3    3    0    0  0.19628088253E+02  0.32231646700E+01  0.33776152329E+02  0.39198090121E+02  0.10566000000E+00 0. -1.
         23    2    1    0    0    0 -0.20780008755E+02 -0.19475701118E+02  0.45891060892E-01  0.96519940241E+02  0.92222475895E+02 0.  0.
         13    1    3    3    0    0 -0.40408097008E+02 -0.22698865788E+02 -0.33730261268E+02  0.57321850120E+02  0.10566000000E+00 0.  1.
         22    1    1    0    0    0  0.20780008755E+02  0.19475701118E+02 -0.45891060892E-01  0.28480059759E+02  0.00000000000E+00 0.  1.
</event>
<event>
 5    1  0.1724235E-003  0.9118800E+02  0.7818608E-02  0.1130116E+00
         25   -1    0    0    0    0  0.00000000000E+00  0.00000000000E+00  0.99999998245E-14  0.12500000000E+03  0.12500000000E+03 0.  0.
        -13    1    3    3    0    0 -0.48904498439E+02 -0.14097441374E+02 -0.30767834570E+02  0.59473175710E+02  0.10566000000E+00 0. -1.
         23    2    1    0    0    0 -0.33670426732E+02  0.32384928015E+01 -0.24004071413E+02  0.83522525193E+02  0.72495732966E+02 0.  0.
         13    1    3    3    0    0  0.15234071707E+02  0.17335934175E+02  0.67637631574E+01  0.24049349483E+02  0.10566000000E+00 0.  1.
         22    1    1    0    0    0  0.33670426732E+02 -0.32384928015E+01  0.24004071413E+02  0.41477474807E+02  0.00000000000E+00 0. -1.
</event>
<event>
 5    1  0.1724235E-003  0.9118800E+02  0.7818608E-02  0.1130116E+00
         25   -1    0    0    0    0  0.00000000000E+00  0.00000000000E+00  0.99999998245E-14  0.12500000000E+03  0.12500000000E+03 0.  0.
        -13    1    3    3    0    0 -0.34597438068E+02 -0.27763063498E+01  0.42245913725E+02  0.54675579451E+02  0.10566000000E+00 0.  1.
         23    2    1    0    0    0 -0.12784872613E+02  0.20595244197E+02  0.17529113911E+02  0.95085339952E+02  0.90257049520E+02 0.  0.
         13    1    3    3    0    0  0.21812565455E+02  0.23371550547E+02 -0.24716799813E+02  0.40409760501E+02  0.10566000000E+00 0. -1.
         22    1    1    0    0    0  0.12784872613E+02 -0.20595244197E+02 -0.17529113911E+02  0.29914660048E+02  0.00000000000E+00 0. -1.
</event>
<event>
 5    1  0.1724235E-003  0.9118800E+02  0.7818608E-02  0.1130116E+00
         25   -1    0    0    0    0  0.00000000000E+00  0.00000000000E+00  0.99999998245E-14  0.12500000000E+03  0.12500000000E+03 0.  0.
        -13    1    3    3    0    0 -0.20902181981E+02  0.38960645767E+02  0.21531436684E+02  0.49177708973E+02  0.10566000000E+00 0.  1.
         23    2    1    0    0    0  0.19710324172E+02  0.19271810161E+02  0.79665192953E+01  0.96305663006E+02  0.91931581904E+02 0.  0.
         13    1    3    3    0    0  0.40612506152E+02 -0.19688835606E+02 -0.13564917388E+02  0.47127954033E+02  0.10566000000E+00 0. -1.
         22    1    1    0    0    0 -0.19710324172E+02 -0.19271810161E+02 -0.79665192953E+01  0.28694336994E+02  0.00000000000E+00 0. -1.
</event>
<event>
 5    1  0.1724235E-003  0.9118800E+02  0.7818608E-02  0.1130116E+00
         25   -1    0    0    0    0  0.00000000000E+00  0.00000000000E+00  0.99999998245E-14  0.12500000000E+03  0.12500000000E+03 0.  0.
        -13    1    3    3    0    0  0.99189796113E+01  0.26753357349E+02 -0.55080292804E+02  0.62032073199E+02  0.10566000000E+00 0. -1.
         23    2    1    0    0    0  0.66728391259E+01  0.17323735820E+02 -0.24095633985E+02  0.94582271915E+02  0.89557623789E+02 0.  0.
         13    1    3    3    0    0 -0.32461404854E+01 -0.94296215295E+01  0.30984658819E+02  0.32550198716E+02  0.10566000000E+00 0.  1.
         22    1    1    0    0    0 -0.66728391259E+01 -0.17323735820E+02  0.24095633985E+02  0.30417728085E+02  0.00000000000E+00 0. -1.
</event>
<event>
 5    1  0.1724235E-003  0.9118800E+02  0.7818608E-02  0.1130116E+00
         25   -1    0    0    0    0  0.00000000000E+00  0.00000000000E+00  0.99999998245E-14  0.12500000000E+03  0.12500000000E+03 0.  0.
        -13    1    3    3    0    0  0.11204920665E+02  0.31446102699E+02  0.40527669097E+02  0.52506292466E+02  0.10566000000E+00 0. -1.
         23    2    1    0    0    0  0.26219003249E+02  0.10132755275E+02  0.51969620463E+01  0.96414736745E+02  0.92079770777E+02 0.  0.
         13    1    3    3    0    0  0.15014082584E+02 -0.21313347424E+02 -0.35330707051E+02  0.43908444279E+02  0.10566000000E+00 0.  1.
         22    1    1    0    0    0 -0.26219003249E+02 -0.10132755275E+02 -0.51969620463E+01  0.28585263255E+02  0.00000000000E+00 0. -1.
</event>
<event>
 5    1  0.1724235E-003  0.9118800E+02  0.7818608E-02  0.1130116E+00
         25   -1    0    0    0    0  0.00000000000E+00  0.00000000000E+00  0.99999998245E-14  0.12500000000E+03  0.12500000000E+03 0.  0.
        -13    1    3    3    0    0 -0.31812889115E+02  0.42100531166E+02  0.16243126569E+02  0.55212000173E+02  0.10566000000E+00 0.  1.
         23    2    1    0    0    0 -0.27128760522E+02  0.65788057307E+01 -0.46682344461E+01  0.96697301451E+02  0.92462561952E+02 0.  0.
         13    1    3    3    0    0  0.46841285935E+01 -0.35521725435E+02 -0.20911361015E+02  0.41485301278E+02  0.10566000000E+00 0. -1.
         22    1    1    0    0    0  0.27128760522E+02 -0.65788057307E+01  0.46682344461E+01  0.28302698549E+02  0.00000000000E+00 0.  1.
</event>
<event>
 5    1  0.1724235E-003  0.9118800E+02  0.7818608E-02  0.1130116E+00
         25   -1    0    0    0    0  0.00000000000E+00  0.00000000000E+00  0.99999998245E-14  0.12500000000E+03  0.12500000000E+03 0.  0.
        -13    1    3    3    0    0 -0.13698417256E+01 -0.31346347178E+02 -0.12114811592E+02  0.33634056724E+02  0.10566000000E+00 0.  1.
         23    2    1    0    0    0 -0.21402221732E+02  0.23036001424E+02  0.26643860623E+01  0.93443520320E+02  0.87953851991E+02 0.  0.
         13    1    3    3    0    0 -0.20032380007E+02  0.54382348603E+02  0.14779197654E+02  0.59809463596E+02  0.10566000000E+00 0. -1.
         22    1    1    0    0    0  0.21402221732E+02 -0.23036001424E+02 -0.26643860623E+01  0.31556479680E+02  0.00000000000E+00 0. -1.
</event>
<event>
 5    1  0.1724235E-003  0.9118800E+02  0.7818608E-02  0.1130116E+00
         25   -1    0    0    0    0  0.00000000000E+00  0.00000000000E+00  0.99999998245E-14  0.12500000000E+03  0.12500000000E+03 0.  0.
        -13    1    3    3    0    0 -0.41936451988E+02  0.20293314264E+02  0.41235048446E+02  0.62215954493E+02  0.10566000000E+00 0. -1.
         23    2    1    0    0    0 -0.16680126433E+02  0.50175027114E+01  0.19376541228E+02  0.98945205792E+02  0.95453137444E+02 0.  0.
         13    1    3    3    0    0  0.25256325555E+02 -0.15275811553E+02 -0.21858507218E+02  0.36729251298E+02  0.10566000000E+00 0.  1.
         22    1    1    0    0    0  0.16680126433E+02 -0.50175027114E+01 -0.19376541228E+02  0.26054794208E+02  0.00000000000E+00 0. -1.
</event>
<event>
 5    1  0.1724235E-003  0.9118800E+02  0.7818608E-02  0.1130116E+00
         25   -1    0    0    0    0  0.00000000000E+00  0.00000000000E+00  0.99999998245E-14  0.12500000000E+03  0.12500000000E+03 0.  0.
        -13    1    3    3    0    0 -0.54702665560E+01  0.32421640390E+02  0.14879078394E+02  0.36089953168E+02  0.10566000000E+00 0.  1.
         23    2    1    0    0    0 -0.17238514786E+01 -0.14402594252E+02 -0.23926690171E+02  0.97019776848E+02  0.92897493034E+02 0.  0.
         13    1    3    3    0    0  0.37464150773E+01 -0.46824234641E+02 -0.38805768565E+02  0.60929823680E+02  0.10566000000E+00 0. -1.
         22    1    1    0    0    0  0.17238514786E+01  0.14402594252E+02  0.23926690171E+02  0.27980223152E+02  0.00000000000E+00 0. -1.
</event>
<event>
 5    1  0.1724235E-003  0.9118800E+02  0.7818608E-02  0.1130116E+00
         25   -1    0    0    0    0  0.00000000000E+00  0.00000000000E+00  0.99999998245E-14  0.12500000000E+03  0.12500000000E+03 0.  0.
        -13    1    3    3    0    0 -0.85957397166E+01  0.34349287325E+02 -0.28146268385E+02  0.45232553200E+02  0.10566000000E+00 0.  1.
         23    2    1    0    0    0  0.23346157450E+02  0.14068312687E+02  0.69826340680E+01  0.96862522002E+02  0.92685654232E+02 0.  0.
         13    1    3    3    0    0  0.31941897167E+02 -0.20280974638E+02  0.35128902453E+02  0.51629968801E+02  0.10566000000E+00 0. -1.
         22    1    1    0    0    0 -0.23346157450E+02 -0.14068312687E+02 -0.69826340680E+01  0.28137477998E+02  0.00000000000E+00 0. -1.
</event>
<event>
 5    1  0.1724235E-003  0.9118800E+02  0.7818608E-02  0.1130116E+00
         25   -1    0    0    0    0  0.00000000000E+00  0.00000000000E+00  0.99999998245E-14  0.12500000000E+03  0.12500000000E+03 0.  0.
        -13    1    3    3    0    0 -0.38903085192E+02  0.92406223532E+01  0.31821856586E+02  0.51102650220E+02  0.10566000000E+00 0. -1.
         23    2    1    0    0    0 -0.16942507701E+02 -0.21964245317E+02  0.78285391994E+01  0.96177046203E+02  0.91756534104E+02 0.  0.
         13    1    3    3    0    0  0.21960577490E+02 -0.31204867671E+02 -0.23993317386E+02  0.45074395983E+02  0.10566000000E+00 0.  1.
         22    1    1    0    0    0  0.16942507701E+02  0.21964245317E+02 -0.78285391994E+01  0.28822953797E+02  0.00000000000E+00 0. -1.
</event>
<event>
 5    1  0.1724235E-003  0.9118800E+02  0.7818608E-02  0.1130116E+00
         25   -1    0    0    0    0  0.00000000000E+00  0.00000000000E+00  0.99999998245E-14  0.12500000000E+03  0.12500000000E+03 0.  0.
        -13    1    3    3    0    0 -0.32311154970E+02 -0.36653059269E+02  0.31900034642E+02  0.58353070729E+02  0.10566000000E+00 0. -1.
         23    2    1    0    0    0 -0.93903207701E+01 -0.54761936021E+01  0.25107069779E+02  0.97640691284E+02  0.93729252749E+02 0.  0.
         13    1    3    3    0    0  0.22920834200E+02  0.31176865667E+02 -0.67929648627E+01  0.39287620555E+02  0.10566000000E+00 0.  1.
         22    1    1    0    0    0  0.93903207701E+01  0.54761936021E+01 -0.25107069779E+02  0.27359308716E+02  0.00000000000E+00 0. -1.
</event>
<event>
 5    1  0.1724235E-003  0.9118800E+02  0.7818608E-02  0.1130116E+00
         25   -1    0    0    0    0  0.00000000000E+00  0.00000000000E+00  0.99999998245E-14  0.12500000000E+03  0.12500000000E+03 0.  0.
        -13    1    3    3    0    0 -0.34192555059E+02  0.32291837775E+02 -0.71023767547E+00  0.47036254208E+02  0.10566000000E+00 0.  1.
         23    2    1    0    0    0 -0.14117275846E+02 -0.82410913933E+01 -0.22456189048E+02  0.97224228341E+02  0.93172190515E+02 0.  0.
         13    1    3    3    0    0  0.20075279213E+02 -0.40532929168E+02 -0.21745951373E+02  0.50187974133E+02  0.10566000000E+00 0. -1.
         22    1    1    0    0    0  0.14117275846E+02  0.82410913933E+01  0.22456189048E+02  0.27775771659E+02  0.00000000000E+00 0. -1.
</event>
<event>
 5    1  0.1724235E-003  0.9118800E+02  0.7818608E-02  0.1130116E+00
         25   -1    0    0    0    0  0.00000000000E+00  0.00000000000E+00  0.99999998245E-14  0.12500000000E+03  0.12500000000E+03 0.  0.
        -13    1    3    3    0    0  0.30976285212E+02  0.24149774342E+02  0.11372456417E+01  0.39294355040E+02  0.10566000000E+00 0.  1.
         23    2    1    0    0    0  0.48595495782E+01 -0.22992380138E+02  0.17593057734E+02  0.95643902730E+02  0.91027334809E+02 0.  0.
         13    1    3    3    0    0 -0.26116735633E+02 -0.47142154480E+02  0.16455812092E+02  0.56349547690E+02  0.10566000000E+00 0. -1.
         22    1    1    0    0    0 -0.48595495782E+01  0.22992380138E+02 -0.17593057734E+02  0.29356097270E+02  0.00000000000E+00 0. -1.
</event>
<event>
 5    1  0.1724235E-003  0.9118800E+02  0.7818608E-02  0.1130116E+00
         25   -1    0    0    0    0  0.00000000000E+00  0.00000000000E+00  0.99999998245E-14  0.12500000000E+03  0.12500000000E+03 0.  0.
        -13    1    3    3    0    0 -0.15990513520E+02 -0.17080658357E+02  0.28532073147E+02  0.36898994223E+02  0.10566000000E+00 0.  1.
         23    2    1    0    0    0 -0.93801486571E+01  0.22141853673E+02 -0.15619852232E+02  0.96325470245E+02  0.91958509999E+02 0.  0.
         13    1    3    3    0    0  0.66103648633E+01  0.39222512030E+02 -0.44151925380E+02  0.59426476022E+02  0.10566000000E+00 0. -1.
         22    1    1    0    0    0  0.93801486571E+01 -0.22141853673E+02  0.15619852232E+02  0.28674529755E+02  0.00000000000E+00 0. -1.
</event>
<event>
 5    1  0.1724235E-003  0.9118800E+02  0.7818608E-02  0.1130116E+00
         25   -1    0    0    0    0  0.00000000000E+00  0.00000000000E+00  0.99999998245E-14  0.12500000000E+03  0.12500000000E+03 0.  0.
        -13    1    3    3    0    0  0.29576012907E+02 -0.17591894666E+02 -0.31045453430E+02  0.46347024070E+02  0.10566000000E+00 0.  1.
         23    2    1    0    0    0  0.22362424696E+02 -0.12275234034E+02  0.16427355709E+02  0.94658321990E+02  0.89663707806E+02 0.  0.
         13    1    3    3    0    0 -0.72135882109E+01  0.53166606323E+01  0.47472809139E+02  0.48311297920E+02  0.10566000000E+00 0. -1.
         22    1    1    0    0    0 -0.22362424696E+02  0.12275234034E+02 -0.16427355709E+02  0.30341678010E+02  0.00000000000E+00 0.  1.
</event>
<event>
 5    1  0.1724235E-003  0.9118800E+02  0.7818608E-02  0.1130116E+00
         25   -1    0    0    0    0  0.00000000000E+00  0.00000000000E+00  0.99999998245E-14  0.12500000000E+03  0.12500000000E+03 0.  0.
        -13    1    3    3    0    0 -0.28237087362E+02  0.22827289913E+02 -0.14273986434E+02  0.39015075550E+02  0.10566000000E+00 0. -1.
         23    2    1    0    0    0  0.23265780529E+02 -0.35895407355E+01 -0.15330132546E+02  0.96907397590E+02  0.92746155702E+02 0.  0.
         13    1    3    3    0    0  0.51502867891E+02 -0.26416830648E+02 -0.10561461122E+01  0.57892322039E+02  0.10566000000E+00 0.  1.
         22    1    1    0    0    0 -0.23265780529E+02  0.35895407355E+01  0.15330132546E+02  0.28092602410E+02  0.00000000000E+00 0.  1.
</event>
<event>
 5    1  0.1724235E-003  0.9118800E+02  0.7818608E-02  0.1130116E+00
         25   -1    0    0    0    0  0.00000000000E+00  0.00000000000E+00  0.99999998245E-14  0.12500000000E+03  0.12500000000E+03 0.  0.
        -13    1    3    3    0    0 -0.58607066338E+02 -0.25724876581E+01  0.17143972409E+02  0.61117369638E+02  0.10566000000E+00 0. -1.
         23    2    1    0    0    0 -0.30009050005E+02 -0.18761602206E+01 -0.86359504366E+00  0.94919959180E+02  0.90027716815E+02 0.  0.
         13    1    3    3    0    0  0.28598016334E+02  0.69632743745E+00 -0.18007567453E+02  0.33802589542E+02  0.10566000000E+00 0.  1.
         22    1    1    0    0    0  0.30009050005E+02  0.18761602206E+01  0.86359504366E+00  0.30080040820E+02  0.00000000000E+00 0.  1.
</event>
<event>
 5    1  0.1724235E-003  0.9118800E+02  0.7818608E-02  0.1130116E+00
         25   -1    0    0    0    0  0.00000000000E+00  0.00000000000E+00  0.99999998245E-14  0.12500000000E+03  0.12500000000E+03 0.  0.
        -13    1    3    3    0    0 -0.43104679674E+01  0.15620981834E+02  0.43826825333E+02  0.46726833729E+02  0.10566000000E+00 0.  1.
         23    2    1    0    0    0  0.73956189520E+01  0.24617030572E+02 -0.59241157752E+01  0.98622196423E+02  0.95029201331E+02 0.  0.
         13    1    3    3    0    0  0.11706086919E+02  0.89960487375E+01 -0.49750941108E+02  0.51895362693E+02  0.10566000000E+00 0. -1.
         22    1    1    0    0    0 -0.73956189520E+01 -0.24617030572E+02  0.59241157752E+01  0.26377803577E+02  0.00000000000E+00 0. -1.
</event>
<event>
 5    1  0.1724235E-003  0.9118800E+02  0.7818608E-02  0.1130116E+00
         25   -1    0    0    0    0  0.00000000000E+00  0.00000000000E+00  0.99999998245E-14  0.12500000000E+03  0.12500000000E+03 0.  0.
        -13    1    3    3    0    0  0.57509836571E+01  0.43983477232E+02  0.18213960345E+02  0.47951846658E+02  0.10566000000E+00 0.  1.
         23    2    1    0    0    0  0.15271678067E+01  0.20992674202E+02 -0.22054577993E+02  0.94513461625E+02  0.89461530314E+02 0.  0.
         13    1    3    3    0    0 -0.42238158504E+01 -0.22990803031E+02 -0.40268538338E+02  0.46561614966E+02  0.10566000000E+00 0. -1.
         22    1    1    0    0    0 -0.15271678067E+01 -0.20992674202E+02  0.22054577993E+02  0.30486538375E+02  0.00000000000E+00 0. -1.
</event>
<event>
 5    1  0.1724235E-003  0.9118800E+02  0.7818608E-02  0.1130116E+00
         25   -1    0    0    0    0  0.00000000000E+00  0.00000000000E+00  0.99999998245E-14  0.12500000000E+03  0.12500000000E+03 0.  0.
        -13    1    3    3    0    0 -0.50122616665E+02 -0.34874408526E+02 -0.29843527859E+01  0.61134430536E+02  0.10566000000E+00 0. -1.
         23    2    1    0    0    0 -0.23441107568E+02 -0.11872925318E+02 -0.96885716154E+01  0.96994280949E+02  0.92863180202E+02 0.  0.
         13    1    3    3    0    0  0.26681509097E+02  0.23001483208E+02 -0.67042188295E+01  0.35859850413E+02  0.10566000000E+00 0.  1.
         22    1    1    0    0    0  0.23441107568E+02  0.11872925318E+02  0.96885716154E+01  0.28005719051E+02  0.00000000000E+00 0. -1.
</event>
<event>
 5    1  0.1724235E-003  0.9118800E+02  0.7818608E-02  0.1130116E+00
         25   -1    0    0    0    0  0.00000000000E+00  0.00000000000E+00  0.99999998245E-14  0.12500000000E+03  0.12500000000E+03 0.  0.
        -13    1    3    3    0    0  0.46323530535E+02  0.18534377982E+02 -0.48706993182E+01  0.50131103362E+02  0.10566000000E+00 0. -1.
         23    2    1    0    0    0  0.81844323059E+01  0.14533997513E+02  0.22316282604E+02  0.97138943216E+02  0.93057701475E+02 0.  0.
         13    1    3    3    0    0 -0.38139098229E+02 -0.40003804697E+01  0.27186981922E+02  0.47007839854E+02  0.10566000000E+00 0.  1.
         22    1    1    0    0    0 -0.81844323059E+01 -0.14533997513E+02 -0.22316282604E+02  0.27861056784E+02  0.00000000000E+00 0.  1.
</event>
<event>
 5    1  0.1724235E-003  0.9118800E+02  0.7818608E-02  0.1130116E+00
         25   -1    0    0    0    0  0.00000000000E+00  0.00000000000E+00  0.99999998245E-14  0.12500000000E+03  0.12500000000E+03 0.  0.
        -13    1    3    3    0    0  0.19034770423E+02  0.22423529955E+02  0.19922240538E+02  0.35525258800E+02  0.10566000000E+00 0.  1.
         23    2    1    0    0    0 -0.31587959061E+01 -0.27484774263E+02 -0.70611526750E+01  0.96447404934E+02  0.92124107776E+02 0.  0.
         13    1    3    3    0    0 -0.22193566329E+02 -0.49908304219E+02 -0.26983393213E+02  0.60922146135E+02  0.10566000000E+00 0. -1.
         22    1    1    0    0    0  0.31587959061E+01  0.27484774263E+02  0.70611526750E+01  0.28552595066E+02  0.00000000000E+00 0. -1.
</event>
<event>
 5    1  0.1724235E-003  0.9118800E+02  0.7818608E-02  0.1130116E+00
         25   -1    0    0    0    0  0.00000000000E+00  0.00000000000E+00  0.99999998245E-14  0.12500000000E+03  0.12500000000E+03 0.  0.
        -13    1    3    3    0    0 -0.39448638849E+02 -0.13205863660E+01  0.45146597838E+02  0.59968037451E+02  0.10566000000E+00 0. -1.
         23    2    1    0    0    0 -0.63476027994E+01 -0.25682160052E+01  0.25752621547E+02  0.98352574021E+02  0.94673879741E+02 0.  0.
         13    1    3    3    0    0  0.33101036050E+02 -0.12476296392E+01 -0.19393976291E+02  0.38384536570E+02  0.10566000000E+00 0.  1.
         22    1    1    0    0    0  0.63476027994E+01  0.25682160052E+01 -0.25752621547E+02  0.26647425979E+02  0.00000000000E+00 0. -1.
</event>
<event>
 5    1  0.1724235E-003  0.9118800E+02  0.7818608E-02  0.1130116E+00
         25   -1    0    0    0    0  0.00000000000E+00  0.00000000000E+00  0.99999998245E-14  0.12500000000E+03  0.12500000000E+03 0.  0.
        -13    1    3    3    0    0 -0.31383354422E+02  0.43408762484E+02 -0.10237548112E+02  0.54534889296E+02  0.10566000000E+00 0.  1.
         23    2    1    0    0    0 -0.22844849206E+02  0.99611025134E+01  0.13716846141E+02  0.96552459393E+02  0.92266542410E+02 0.  0.
         13    1    3    3    0    0  0.85385052160E+01 -0.33447659971E+02  0.23954394253E+02  0.42017570097E+02  0.10566000000E+00 0. -1.
         22    1    1    0    0    0  0.22844849206E+02 -0.99611025134E+01 -0.13716846141E+02  0.28447540607E+02  0.00000000000E+00 0.  1.
</event>
<event>
 5    1  0.1724235E-003  0.9118800E+02  0.7818608E-02  0.1130116E+00
         25   -1    0    0    0    0  0.00000000000E+00  0.00000000000E+00  0.99999998245E-14  0.12500000000E+03  0.12500000000E+03 0.  0.
        -13    1    3    3    0    0  0.34861173284E+02 -0.38898434554E+02 -0.17494754661E+02  0.55085998385E+02  0.10566000000E+00 0. -1.
         23    2    1    0    0    0  0.16155480444E+02 -0.40850304700E+01 -0.24646645924E+02  0.95248627298E+02  0.90482909019E+02 0.  0.
         13    1    3    3    0    0 -0.18705692840E+02  0.34813404083E+02 -0.71518912636E+01  0.40162628913E+02  0.10566000000E+00 0.  1.
         22    1    1    0    0    0 -0.16155480444E+02  0.40850304700E+01  0.24646645924E+02  0.29751372702E+02  0.00000000000E+00 0. -1.
</event>
<event>
 5    1  0.1724235E-003  0.9118800E+02  0.7818608E-02  0.1130116E+00
         25   -1    0    0    0    0  0.00000000000E+00  0.00000000000E+00  0.99999998245E-14  0.12500000000E+03  0.12500000000E+03 0.  0.
        -13    1    3    3    0    0 -0.48845086668E+02 -0.14800277995E+02  0.18598398120E+02  0.54321287697E+02  0.10566000000E+00 0.  1.
         23    2    1    0    0    0 -0.99599450783E+01 -0.25088113657E+02  0.16885685258E+01  0.97954386372E+02  0.94146675954E+02 0.  0.
         13    1    3    3    0    0  0.38885141590E+02 -0.10287835662E+02 -0.16909829595E+02  0.43633098676E+02  0.10566000000E+00 0. -1.
         22    1    1    0    0    0  0.99599450783E+01  0.25088113657E+02 -0.16885685258E+01  0.27045613628E+02  0.00000000000E+00 0.  1.
</event>
<event>
 4    1  0.1724235E-003  0.9118800E+02  0.7818608E-02  0.1130116E+00
         25   -1    0    0    0    0  0.00000000000E+00  0.00000000000E+00  0.99999998245E-14  0.12500000000E+03  0.12500000000E+03 0.  0.
        -13    1    1    0    0    0 -0.95537936143E+01 -0.27000567791E+01 -0.89700960454E-01  0.99289722194E+01  0.10566000000E+00 0.  1.
         13    1    1    0    0    0  0.34331453862E+02  0.45853880331E+02  0.21115527962E+02  0.61050010245E+02  0.10566000000E+00 0. -1.
         22    1    1    0    0    0 -0.24777660247E+02 -0.43153823552E+02 -0.21025827002E+02  0.54021017536E+02  0.00000000000E+00 0. -1.
</event>
<event>
 5    1  0.1724235E-003  0.9118800E+02  0.7818608E-02  0.1130116E+00
         25   -1    0    0    0    0  0.00000000000E+00  0.00000000000E+00  0.99999998245E-14  0.12500000000E+03  0.12500000000E+03 0.  0.
        -13    1    3    3    0    0 -0.48486168789E+01  0.13108129520E+02 -0.31275782983E+02  0.34256647682E+02  0.10566000000E+00 0.  1.
         23    2    1    0    0    0  0.12525021018E+02 -0.12198929799E+02  0.22697848753E+02  0.96348955032E+02  0.91990427534E+02 0.  0.
         13    1    3    3    0    0  0.17373637897E+02 -0.25307059319E+02  0.53973631736E+02  0.62092307350E+02  0.10566000000E+00 0. -1.
         22    1    1    0    0    0 -0.12525021018E+02  0.12198929799E+02 -0.22697848753E+02  0.28651044968E+02  0.00000000000E+00 0. -1.
</event>
<event>
 5    1  0.1724235E-003  0.9118800E+02  0.7818608E-02  0.1130116E+00
         25   -1    0    0    0    0  0.00000000000E+00  0.00000000000E+00  0.99999998245E-14  0.12500000000E+03  0.12500000000E+03 0.  0.
        -13    1    3    3    0    0 -0.39723268243E+02  0.11621161697E+02 -0.10014346890E+02  0.42582716527E+02  0.10566000000E+00 0.  1.
         23    2    1    0    0    0  0.11132047688E+02  0.14879356046E+02 -0.23252970224E+02  0.95233939691E+02  0.90462616161E+02 0.  0.
         13    1    3    3    0    0  0.50855315931E+02  0.32581943490E+01 -0.13238623335E+02  0.52651223164E+02  0.10566000000E+00 0. -1.
         22    1    1    0    0    0 -0.11132047688E+02 -0.14879356046E+02  0.23252970224E+02  0.29766060309E+02  0.00000000000E+00 0. -1.
</event>
<event>
 5    1  0.1724235E-003  0.9118800E+02  0.7818608E-02  0.1130116E+00
         25   -1    0    0    0    0  0.00000000000E+00  0.00000000000E+00  0.99999998245E-14  0.12500000000E+03  0.12500000000E+03 0.  0.
        -13    1    3    3    0    0 -0.37897179486E+02 -0.85680802205E+01  0.43064187111E+02  0.58001237808E+02  0.10566000000E+00 0. -1.
         23    2    1    0    0    0 -0.20878731601E+02  0.11843119075E+02  0.14784196855E+02  0.96808629347E+02  0.92612943678E+02 0.  0.
         13    1    3    3    0    0  0.17018447886E+02  0.20411199295E+02 -0.28279990256E+02  0.38807391539E+02  0.10566000000E+00 0.  1.
         22    1    1    0    0    0  0.20878731601E+02 -0.11843119075E+02 -0.14784196855E+02  0.28191370653E+02  0.00000000000E+00 0. -1.
</event>
<event>
 5    1  0.1724235E-003  0.9118800E+02  0.7818608E-02  0.1130116E+00
         25   -1    0    0    0    0  0.00000000000E+00  0.00000000000E+00  0.99999998245E-14  0.12500000000E+03  0.12500000000E+03 0.  0.
        -13    1    3    3    0    0  0.32918354015E+02 -0.20862493941E+01  0.15202185458E+01  0.33019580494E+02  0.10566000000E+00 0. -1.
         23    2    1    0    0    0 -0.29253273154E+02  0.34617756224E+01 -0.14288139148E+01  0.95507977521E+02  0.90840488661E+02 0.  0.
         13    1    3    3    0    0 -0.62171627169E+02  0.55480250166E+01 -0.29490324607E+01  0.62488397026E+02  0.10566000000E+00 0.  1.
         22    1    1    0    0    0  0.29253273154E+02 -0.34617756224E+01  0.14288139148E+01  0.29492022479E+02  0.00000000000E+00 0.  1.
</event>
<event>
 5    1  0.1724235E-003  0.9118800E+02  0.7818608E-02  0.1130116E+00
         25   -1    0    0    0    0  0.00000000000E+00  0.00000000000E+00  0.99999998245E-14  0.12500000000E+03  0.12500000000E+03 0.  0.
        -13    1    3    3    0    0 -0.15714574941E+02 -0.22203150688E+02  0.36201150009E+02  0.45282029460E+02  0.10566000000E+00 0. -1.
         23    2    1    0    0    0 -0.17991920720E+01 -0.26232428693E+02 -0.12351066215E+02  0.95949591330E+02  0.91446147172E+02 0.  0.
         13    1    3    3    0    0  0.13915382869E+02 -0.40292780048E+01 -0.48552216223E+02  0.50667561870E+02  0.10566000000E+00 0.  1.
         22    1    1    0    0    0  0.17991920720E+01  0.26232428693E+02  0.12351066215E+02  0.29050408670E+02  0.00000000000E+00 0.  1.
</event>
<event>
 5    1  0.1724235E-003  0.9118800E+02  0.7818608E-02  0.1130116E+00
         25   -1    0    0    0    0  0.00000000000E+00  0.00000000000E+00  0.99999998245E-14  0.12500000000E+03  0.12500000000E+03 0.  0.
        -13    1    3    3    0    0 -0.39590389999E+02  0.21738914840E+02  0.34035862624E+02  0.56554668307E+02  0.10566000000E+00 0.  1.
         23    2    1    0    0    0 -0.77695365170E+01  0.26010516228E+02  0.13341888934E+02  0.94752377739E+02  0.89794735005E+02 0.  0.
         13    1    3    3    0    0  0.31820853482E+02  0.42716013879E+01 -0.20693973690E+02  0.38197709432E+02  0.10566000000E+00 0. -1.
         22    1    1    0    0    0  0.77695365170E+01 -0.26010516228E+02 -0.13341888934E+02  0.30247622261E+02  0.00000000000E+00 0.  1.
</event>
<event>
 5    1  0.1724235E-003  0.9118800E+02  0.7818608E-02  0.1130116E+00
         25   -1    0    0    0    0  0.00000000000E+00  0.00000000000E+00  0.99999998245E-14  0.12500000000E+03  0.12500000000E+03 0.  0.
        -13    1    3    3    0    0  0.29413576584E+02 -0.17426125550E+02 -0.10780580982E+02  0.35847739531E+02  0.10566000000E+00 0. -1.
         23    2    1    0    0    0 -0.11929570204E+02  0.96647969677E+01  0.24156744177E+02  0.96377085492E+02  0.92028644307E+02 0.  0.
         13    1    3    3    0    0 -0.41343146788E+02  0.27090922517E+02  0.34937325159E+02  0.60529345961E+02  0.10566000000E+00 0.  1.
         22    1    1    0    0    0  0.11929570204E+02 -0.96647969677E+01 -0.24156744177E+02  0.28622914508E+02  0.00000000000E+00 0.  1.
</event>
<event>
 5    1  0.1724235E-003  0.9118800E+02  0.7818608E-02  0.1130116E+00
         25   -1    0    0    0    0  0.00000000000E+00  0.00000000000E+00  0.99999998245E-14  0.12500000000E+03  0.12500000000E+03 0.  0.
        -13    1    3    3    0    0  0.18417279665E+00 -0.57608825720E+02  0.75930916591E+01  0.58107460153E+02  0.10566000000E+00 0. -1.
         23    2    1    0    0    0 -0.16318061052E+02 -0.24055845467E+02  0.32263704690E+01  0.95753251735E+02  0.91177370733E+02 0.  0.
         13    1    3    3    0    0 -0.16502233849E+02  0.33552980253E+02 -0.43667211900E+01  0.37645791582E+02  0.10566000000E+00 0.  1.
         22    1    1    0    0    0  0.16318061052E+02  0.24055845467E+02 -0.32263704690E+01  0.29246748265E+02  0.00000000000E+00 0. -1.
</event>
<event>
 5    1  0.1724235E-003  0.9118800E+02  0.7818608E-02  0.1130116E+00
         25   -1    0    0    0    0  0.00000000000E+00  0.00000000000E+00  0.99999998245E-14  0.12500000000E+03  0.12500000000E+03 0.  0.
        -13    1    3    3    0    0 -0.11251203068E+01  0.33029617363E+02 -0.18588167055E+02  0.37917708756E+02  0.10566000000E+00 0.  1.
         23    2    1    0    0    0  0.72719055005E+01 -0.23995359956E+02 -0.15248169745E+02  0.95654394032E+02  0.91041740472E+02 0.  0.
         13    1    3    3    0    0  0.83970258074E+01 -0.57024977319E+02  0.33399973100E+01  0.57736685276E+02  0.10566000000E+00 0. -1.
         22    1    1    0    0    0 -0.72719055005E+01  0.23995359956E+02  0.15248169745E+02  0.29345605968E+02  0.00000000000E+00 0. -1.
</event>
<event>
 5    1  0.1724235E-003  0.9118800E+02  0.7818608E-02  0.1130116E+00
         25   -1    0    0    0    0  0.00000000000E+00  0.00000000000E+00  0.99999998245E-14  0.12500000000E+03  0.12500000000E+03 0.  0.
        -13    1    3    3    0    0 -0.23622682972E+02 -0.30862108276E+02 -0.47791674037E+02  0.61599968744E+02  0.10566000000E+00 0.  1.
         23    2    1    0    0    0 -0.18843219987E+02 -0.18873315484E+02 -0.22052488708E+02  0.90393913323E+02  0.83507354951E+02 0.  0.
         13    1    3    3    0    0  0.47794629849E+01  0.11988792792E+02  0.25739185328E+02  0.28793944579E+02  0.10566000000E+00 0. -1.
         22    1    1    0    0    0  0.18843219987E+02  0.18873315484E+02  0.22052488708E+02  0.34606086677E+02  0.00000000000E+00 0.  1.
</event>
<event>
 5    1  0.1724235E-003  0.9118800E+02  0.7818608E-02  0.1130116E+00
         25   -1    0    0    0    0  0.00000000000E+00  0.00000000000E+00  0.99999998245E-14  0.12500000000E+03  0.12500000000E+03 0.  0.
        -13    1    3    3    0    0  0.36503778323E+02 -0.49664831631E+02 -0.50634259831E+01  0.61844731218E+02  0.10566000000E+00 0. -1.
         23    2    1    0    0    0  0.22223631626E+02 -0.19571393433E+02 -0.14250221969E+01  0.95352741581E+02  0.90626626303E+02 0.  0.
         13    1    3    3    0    0 -0.14280146697E+02  0.30093438198E+02  0.36384037862E+01  0.33508010362E+02  0.10566000000E+00 0.  1.
         22    1    1    0    0    0 -0.22223631626E+02  0.19571393433E+02  0.14250221969E+01  0.29647258419E+02  0.00000000000E+00 0. -1.
</event>
<event>
 5    1  0.1724235E-003  0.9118800E+02  0.7818608E-02  0.1130116E+00
         25   -1    0    0    0    0  0.00000000000E+00  0.00000000000E+00  0.99999998245E-14  0.12500000000E+03  0.12500000000E+03 0.  0.
        -13    1    3    3    0    0 -0.24693244284E+01  0.33434178210E+02 -0.51822945066E+01  0.33923578469E+02  0.10566000000E+00 0.  1.
         23    2    1    0    0    0  0.22619513725E+01 -0.12915808492E+02  0.29969416443E+02  0.92287610070E+02  0.86295437408E+02 0.  0.
         13    1    3    3    0    0  0.47312758009E+01 -0.46349986702E+02  0.35151710950E+02  0.58364031601E+02  0.10566000000E+00 0. -1.
         22    1    1    0    0    0 -0.22619513725E+01  0.12915808492E+02 -0.29969416443E+02  0.32712389930E+02  0.00000000000E+00 0. -1.
</event>
<event>
 5    1  0.1724235E-003  0.9118800E+02  0.7818608E-02  0.1130116E+00
         25   -1    0    0    0    0  0.00000000000E+00  0.00000000000E+00  0.99999998245E-14  0.12500000000E+03  0.12500000000E+03 0.  0.
        -13    1    3    3    0    0 -0.51098006926E+01 -0.43595598067E+02  0.34615612826E+02  0.55901145330E+02  0.10566000000E+00 0. -1.
         23    2    1    0    0    0  0.16020076982E+02 -0.15805372239E+02  0.44059853840E+01  0.10206824548E+03  0.99458842595E+02 0.  0.
         13    1    3    3    0    0  0.21129877675E+02  0.27790225828E+02 -0.30209627442E+02  0.46167100151E+02  0.10566000000E+00 0.  1.
         22    1    1    0    0    0 -0.16020076982E+02  0.15805372239E+02 -0.44059853840E+01  0.22931754519E+02  0.00000000000E+00 0. -1.
</event>
<event>
 5    1  0.1724235E-003  0.9118800E+02  0.7818608E-02  0.1130116E+00
         25   -1    0    0    0    0  0.00000000000E+00  0.00000000000E+00  0.99999998245E-14  0.12500000000E+03  0.12500000000E+03 0.  0.
        -13    1    3    3    0    0 -0.41926036640E+01  0.13809368974E+02  0.34381451023E+02  0.37287691473E+02  0.10566000000E+00 0.  1.
         23    2    1    0    0    0 -0.22968277546E+02 -0.10418157633E+02 -0.15181338242E+02  0.95562730889E+02  0.90915800180E+02 0.  0.
         13    1    3    3    0    0 -0.18775673882E+02 -0.24227526607E+02 -0.49562789265E+02  0.58275039416E+02  0.10566000000E+00 0. -1.
         22    1    1    0    0    0  0.22968277546E+02  0.10418157633E+02  0.15181338242E+02  0.29437269111E+02  0.00000000000E+00 0. -1.
</event>
<event>
 5    1  0.1724235E-003  0.9118800E+02  0.7818608E-02  0.1130116E+00
         25   -1    0    0    0    0  0.00000000000E+00  0.00000000000E+00  0.99999998245E-14  0.12500000000E+03  0.12500000000E+03 0.  0.
        -13    1    3    3    0    0 -0.23435539522E+02 -0.34699609171E+02 -0.22636359068E+02  0.47599404463E+02  0.10566000000E+00 0.  1.
         23    2    1    0    0    0 -0.28375533513E+02  0.81484539443E+01 -0.20108579710E+01  0.95409262368E+02  0.90704551110E+02 0.  0.
         13    1    3    3    0    0 -0.49399939907E+01  0.42848063115E+02  0.20625501097E+02  0.47809857905E+02  0.10566000000E+00 0. -1.
         22    1    1    0    0    0  0.28375533513E+02 -0.81484539443E+01  0.20108579710E+01  0.29590737632E+02  0.00000000000E+00 0.  1.
</event>
<event>
 4    1  0.1724235E-003  0.9118800E+02  0.7818608E-02  0.1130116E+00
         25   -1    0    0    0    0  0.00000000000E+00  0.00000000000E+00  0.99999998245E-14  0.12500000000E+03  0.12500000000E+03 0.  0.
        -13    1    1    0    0    0 -0.66359369377E+01  0.96522345502E+01  0.12260565764E+02  0.16956825403E+02  0.10566000000E+00 0.  1.
         13    1    1    0    0    0  0.27759165873E+02  0.32895913426E+02 -0.34906536003E+02  0.55418316736E+02  0.10566000000E+00 0. -1.
         22    1    1    0    0    0 -0.21123228935E+02 -0.42548147976E+02  0.22645970239E+02  0.52624857861E+02  0.00000000000E+00 0. -1.
</event>
<event>
 5    1  0.1724235E-003  0.9118800E+02  0.7818608E-02  0.1130116E+00
         25   -1    0    0    0    0  0.00000000000E+00  0.00000000000E+00  0.99999998245E-14  0.12500000000E+03  0.12500000000E+03 0.  0.
        -13    1    3    3    0    0 -0.91848590657E+01  0.12870943222E+02  0.52979945862E+02  0.55289317622E+02  0.10566000000E+00 0.  1.
         23    2    1    0    0    0 -0.13331267579E+02 -0.13286390477E+02  0.22247540651E+02  0.95858896174E+02  0.91322089570E+02 0.  0.
         13    1    3    3    0    0 -0.41464085135E+01 -0.26157333699E+02 -0.30732405211E+02  0.40569578552E+02  0.10566000000E+00 0. -1.
         22    1    1    0    0    0  0.13331267579E+02  0.13286390477E+02 -0.22247540651E+02  0.29141103826E+02  0.00000000000E+00 0.  1.
</event>
<event>
 5    1  0.1724235E-003  0.9118800E+02  0.7818608E-02  0.1130116E+00
         25   -1    0    0    0    0  0.00000000000E+00  0.00000000000E+00  0.99999998245E-14  0.12500000000E+03  0.12500000000E+03 0.  0.
        -13    1    3    3    0    0  0.40481658952E+02 -0.14392536410E+02  0.10426861161E+02  0.44211315447E+02  0.10566000000E+00 0.  1.
         23    2    1    0    0    0  0.74103684301E+01  0.23782163276E+02 -0.92661869346E+01  0.98422432943E+02  0.94766071121E+02 0.  0.
         13    1    3    3    0    0 -0.33071290522E+02  0.38174699686E+02 -0.19693048096E+02  0.54211117497E+02  0.10566000000E+00 0. -1.
         22    1    1    0    0    0 -0.74103684301E+01 -0.23782163276E+02  0.92661869346E+01  0.26577567057E+02  0.00000000000E+00 0. -1.
</event>
<event>
 5    1  0.1724235E-003  0.9118800E+02  0.7818608E-02  0.1130116E+00
         25   -1    0    0    0    0  0.00000000000E+00  0.00000000000E+00  0.99999998245E-14  0.12500000000E+03  0.12500000000E+03 0.  0.
        -13    1    3    3    0    0  0.19072906099E+02 -0.33297461584E+02 -0.14832987940E+02  0.41140313444E+02  0.10566000000E+00 0.  1.
         23    2    1    0    0    0 -0.25069045784E+02 -0.30687803063E+01 -0.16782579462E+02  0.94676256127E+02  0.89688706266E+02 0.  0.
         13    1    3    3    0    0 -0.44141951883E+02  0.30228681278E+02 -0.19495915215E+01  0.53535942683E+02  0.10566000000E+00 0. -1.
         22    1    1    0    0    0  0.25069045784E+02  0.30687803063E+01  0.16782579462E+02  0.30323743873E+02  0.00000000000E+00 0. -1.
</event>
<event>
 5    1  0.1724235E-003  0.9118800E+02  0.7818608E-02  0.1130116E+00
         25   -1    0    0    0    0  0.00000000000E+00  0.00000000000E+00  0.99999998245E-14  0.12500000000E+03  0.12500000000E+03 0.  0.
        -13    1    3    3    0    0 -0.28752909029E+02  0.62326720051E+01  0.27232750509E+02  0.40090021729E+02  0.10566000000E+00 0.  1.
         23    2    1    0    0    0  0.75330242867E+01 -0.27946502878E+02  0.19328200492E+01  0.95991565514E+02  0.91503504733E+02 0.  0.
         13    1    3    3    0    0  0.36285933315E+02 -0.34179174883E+02 -0.25299930460E+02  0.55901543785E+02  0.10566000000E+00 0. -1.
         22    1    1    0    0    0 -0.75330242867E+01  0.27946502878E+02 -0.19328200492E+01  0.29008434486E+02  0.00000000000E+00 0. -1.
</event>
<event>
 5    1  0.1724235E-003  0.9118800E+02  0.7818608E-02  0.1130116E+00
         25   -1    0    0    0    0  0.00000000000E+00  0.00000000000E+00  0.99999998245E-14  0.12500000000E+03  0.12500000000E+03 0.  0.
        -13    1    3    3    0    0  0.83826670787E+01  0.21903040340E+02 -0.51851060798E+02  0.56908311813E+02  0.10566000000E+00 0.  1.
         23    2    1    0    0    0  0.14825954839E+02 -0.51417469730E+01 -0.24476614661E+02  0.95925076714E+02  0.91412631395E+02 0.  0.
         13    1    3    3    0    0  0.64432877603E+01 -0.27044787313E+02  0.27374446138E+02  0.39016764901E+02  0.10566000000E+00 0. -1.
         22    1    1    0    0    0 -0.14825954839E+02  0.51417469730E+01  0.24476614661E+02  0.29074923286E+02  0.00000000000E+00 0.  1.
</event>
<event>
 5    1  0.1724235E-003  0.9118800E+02  0.7818608E-02  0.1130116E+00
         25   -1    0    0    0    0  0.00000000000E+00  0.00000000000E+00  0.99999998245E-14  0.12500000000E+03  0.12500000000E+03 0.  0.
        -13    1    3    3    0    0 -0.53647338035E+01 -0.39685905226E+02  0.17536988920E+01  0.40085384696E+02  0.10566000000E+00 0. -1.
         23    2    1    0    0    0 -0.78277828645E+01  0.56691281407E+01 -0.28663215722E+02  0.94751146568E+02  0.89793021120E+02 0.  0.
         13    1    3    3    0    0 -0.24630490610E+01  0.45355033367E+02 -0.30416914614E+02  0.54665761872E+02  0.10566000000E+00 0.  1.
         22    1    1    0    0    0  0.78277828645E+01 -0.56691281407E+01  0.28663215722E+02  0.30248853432E+02  0.00000000000E+00 0. -1.
</event>
<event>
 5    1  0.1724235E-003  0.9118800E+02  0.7818608E-02  0.1130116E+00
         25   -1    0    0    0    0  0.00000000000E+00  0.00000000000E+00  0.99999998245E-14  0.12500000000E+03  0.12500000000E+03 0.  0.
        -13    1    3    3    0    0 -0.94011659039E+01 -0.49346951018E+01  0.34270757321E+02  0.35877975243E+02  0.10566000000E+00 0. -1.
         23    2    1    0    0    0  0.19038844919E+02 -0.54524198001E+01 -0.19813380491E+02  0.96986136575E+02  0.92852216687E+02 0.  0.
         13    1    3    3    0    0  0.28440010823E+02 -0.51772469835E+00 -0.54084137812E+02  0.61108161332E+02  0.10566000000E+00 0.  1.
         22    1    1    0    0    0 -0.19038844919E+02  0.54524198001E+01  0.19813380491E+02  0.28013863425E+02  0.00000000000E+00 0.  1.
</event>
<event>
 4    1  0.1724235E-003  0.9118800E+02  0.7818608E-02  0.1130116E+00
         25   -1    0    0    0    0  0.00000000000E+00  0.00000000000E+00  0.99999998245E-14  0.12500000000E+03  0.12500000000E+03 0.  0.
        -13    1    1    0    0    0 -0.10593904548E+02  0.39840772337E+01 -0.46546397243E+02  0.47902838593E+02  0.10566000000E+00 0.  1.
         13    1    1    0    0    0  0.22186635572E+02  0.40347932998E+01 -0.54699797672E+01  0.23204702060E+02  0.10566000000E+00 0. -1.
         22    1    1    0    0    0 -0.11592731024E+02 -0.80188705335E+01  0.52016377010E+02  0.53892459347E+02  0.00000000000E+00 0. -1.
</event>
<event>
 5    1  0.1724235E-003  0.9118800E+02  0.7818608E-02  0.1130116E+00
         25   -1    0    0    0    0  0.00000000000E+00  0.00000000000E+00  0.99999998245E-14  0.12500000000E+03  0.12500000000E+03 0.  0.
        -13    1    3    3    0    0 -0.11772283695E+02 -0.47382735456E+02  0.32186816838E+01  0.48929350686E+02  0.10566000000E+00 0. -1.
         23    2    1    0    0    0 -0.69324475470E+01 -0.84516430149E+01  0.27733545807E+02  0.95189957033E+02  0.90401821101E+02 0.  0.
         13    1    3    3    0    0  0.48398361477E+01  0.38931092441E+02  0.24514864123E+02  0.46260606348E+02  0.10566000000E+00 0.  1.
         22    1    1    0    0    0  0.69324475470E+01  0.84516430149E+01 -0.27733545807E+02  0.29810042967E+02  0.00000000000E+00 0. -1.
</event>
<event>
 5    1  0.1724235E-003  0.9118800E+02  0.7818608E-02  0.1130116E+00
         25   -1    0    0    0    0  0.00000000000E+00  0.00000000000E+00  0.99999998245E-14  0.12500000000E+03  0.12500000000E+03 0.  0.
        -13    1    3    3    0    0  0.14206631789E+02 -0.44338435591E+02 -0.61390001765E+00  0.46563003498E+02  0.10566000000E+00 0.  1.
         23    2    1    0    0    0 -0.24872982090E+02 -0.12305276852E+02 -0.25646538203E+01  0.97131334340E+02  0.93047480272E+02 0.  0.
         13    1    3    3    0    0 -0.39079613879E+02  0.32033158739E+02 -0.19507538027E+01  0.50568330842E+02  0.10566000000E+00 0. -1.
         22    1    1    0    0    0  0.24872982090E+02  0.12305276852E+02  0.25646538203E+01  0.27868665660E+02  0.00000000000E+00 0. -1.
</event>
<event>
 5    1  0.1724235E-003  0.9118800E+02  0.7818608E-02  0.1130116E+00
         25   -1    0    0    0    0  0.00000000000E+00  0.00000000000E+00  0.99999998245E-14  0.12500000000E+03  0.12500000000E+03 0.  0.
        -13    1    3    3    0    0 -0.10574323187E+02  0.41899123850E+02  0.70385385948E+01  0.43782474574E+02  0.10566000000E+00 0.  1.
         23    2    1    0    0    0  0.14336326335E+02 -0.63157020646E+01  0.20015884622E+02  0.99582408011E+02  0.96283965449E+02 0.  0.
         13    1    3    3    0    0  0.24910649523E+02 -0.48214825914E+02  0.12977346027E+02  0.55799933436E+02  0.10566000000E+00 0. -1.
         22    1    1    0    0    0 -0.14336326335E+02  0.63157020646E+01 -0.20015884622E+02  0.25417591989E+02  0.00000000000E+00 0. -1.
</event>
<event>
 5    1  0.1724235E-003  0.9118800E+02  0.7818608E-02  0.1130116E+00
         25   -1    0    0    0    0  0.00000000000E+00  0.00000000000E+00  0.99999998245E-14  0.12500000000E+03  0.12500000000E+03 0.  0.
        -13    1    3    3    0    0  0.30048963035E+02 -0.34049456106E+02  0.35054768345E+02  0.57368576663E+02  0.10566000000E+00 0. -1.
         23    2    1    0    0    0  0.16410542354E+02 -0.34471325433E+02  0.10591999788E+02  0.85379694133E+02  0.75630176076E+02 0.  0.
         13    1    3    3    0    0 -0.13638420681E+02 -0.42186932663E+00 -0.24462768557E+02  0.28011117470E+02  0.10566000000E+00 0.  1.
         22    1    1    0    0    0 -0.16410542354E+02  0.34471325433E+02 -0.10591999788E+02  0.39620305867E+02  0.00000000000E+00 0. -1.
</event>
<event>
 5    1  0.1724235E-003  0.9118800E+02  0.7818608E-02  0.1130116E+00
         25   -1    0    0    0    0  0.00000000000E+00  0.00000000000E+00  0.99999998245E-14  0.12500000000E+03  0.12500000000E+03 0.  0.
        -13    1    3    3    0    0 -0.38671784454E+02  0.14098969117E+02 -0.71382685089E+01  0.41776235880E+02  0.10566000000E+00 0. -1.
         23    2    1    0    0    0  0.88855253960E+01  0.22883977438E+02  0.16314334304E+02  0.95524815713E+02  0.90863655706E+02 0.  0.
         13    1    3    3    0    0  0.47557309850E+02  0.87850083212E+01  0.23452602813E+02  0.53748579833E+02  0.10566000000E+00 0.  1.
         22    1    1    0    0    0 -0.88855253960E+01 -0.22883977438E+02 -0.16314334304E+02  0.29475184287E+02  0.00000000000E+00 0.  1.
</event>
<event>
 5    1  0.1724235E-003  0.9118800E+02  0.7818608E-02  0.1130116E+00
         25   -1    0    0    0    0  0.00000000000E+00  0.00000000000E+00  0.99999998245E-14  0.12500000000E+03  0.12500000000E+03 0.  0.
        -13    1    3    3    0    0 -0.30311512591E+02 -0.40876144978E+02  0.15363501318E+02  0.53157270063E+02  0.10566000000E+00 0.  1.
         23    2    1    0    0    0 -0.16508898069E+02 -0.19749663684E+02 -0.16966577545E+02  0.94170506254E+02  0.88981046091E+02 0.  0.
         13    1    3    3    0    0  0.13802614522E+02  0.21126481294E+02 -0.32330078863E+02  0.41013236190E+02  0.10566000000E+00 0. -1.
         22    1    1    0    0    0  0.16508898069E+02  0.19749663684E+02  0.16966577545E+02  0.30829493746E+02  0.00000000000E+00 0.  1.
</event>
<event>
 5    1  0.1724235E-003  0.9118800E+02  0.7818608E-02  0.1130116E+00
         25   -1    0    0    0    0  0.00000000000E+00  0.00000000000E+00  0.99999998245E-14  0.12500000000E+03  0.12500000000E+03 0.  0.
        -13    1    3    3    0    0  0.48999885241E+02 -0.12107568576E+02  0.27262972978E+02  0.57366042483E+02  0.10566000000E+00 0.  1.
         23    2    1    0    0    0  0.10724898596E+02 -0.15345951764E+02  0.21960176017E+02  0.96142227803E+02  0.91709088704E+02 0.  0.
         13    1    3    3    0    0 -0.38274986645E+02 -0.32383831886E+01 -0.53027969610E+01  0.38776185321E+02  0.10566000000E+00 0. -1.
         22    1    1    0    0    0 -0.10724898596E+02  0.15345951764E+02 -0.21960176017E+02  0.28857772197E+02  0.00000000000E+00 0.  1.
</event>
<event>
 5    1  0.1724235E-003  0.9118800E+02  0.7818608E-02  0.1130116E+00
         25   -1    0    0    0    0  0.00000000000E+00  0.00000000000E+00  0.99999998245E-14  0.12500000000E+03  0.12500000000E+03 0.  0.
        -13    1    3    3    0    0 -0.23715426695E+01  0.34929797352E+02  0.25302543999E+02  0.43196583830E+02  0.10566000000E+00 0. -1.
         23    2    1    0    0    0  0.19586917268E+02 -0.13968409763E+02  0.10057554379E+02  0.98924758880E+02  0.95426357575E+02 0.  0.
         13    1    3    3    0    0  0.21958459938E+02 -0.48898207115E+02 -0.15244989620E+02  0.55728175051E+02  0.10566000000E+00 0.  1.
         22    1    1    0    0    0 -0.19586917268E+02  0.13968409763E+02 -0.10057554379E+02  0.26075241120E+02  0.00000000000E+00 0.  1.
</event>
<event>
 5    1  0.1724235E-003  0.9118800E+02  0.7818608E-02  0.1130116E+00
         25   -1    0    0    0    0  0.00000000000E+00  0.00000000000E+00  0.99999998245E-14  0.12500000000E+03  0.12500000000E+03 0.  0.
        -13    1    3    3    0    0 -0.20010976243E+02  0.12957555596E+02  0.27127367105E+02  0.36114299485E+02  0.10566000000E+00 0.  1.
         23    2    1    0    0    0  0.37806559593E+00  0.56532867790E+01 -0.28569563179E+02  0.95874023188E+02  0.91342792803E+02 0.  0.
         13    1    3    3    0    0  0.20389041839E+02 -0.73042688173E+01 -0.55696930283E+02  0.59759723703E+02  0.10566000000E+00 0. -1.
         22    1    1    0    0    0 -0.37806559593E+00 -0.56532867790E+01  0.28569563179E+02  0.29125976812E+02  0.00000000000E+00 0. -1.
</event>
<event>
 5    1  0.1724235E-003  0.9118800E+02  0.7818608E-02  0.1130116E+00
         25   -1    0    0    0    0  0.00000000000E+00  0.00000000000E+00  0.99999998245E-14  0.12500000000E+03  0.12500000000E+03 0.  0.
        -13    1    3    3    0    0  0.46884228220E+02 -0.57177160751E+01 -0.28172934816E+02  0.54995895784E+02  0.10566000000E+00 0.  1.
         23    2    1    0    0    0  0.15552515930E+02  0.14056144860E+02  0.35096412772E+01  0.10374503489E+03  0.10154436824E+03 0.  0.
         13    1    3    3    0    0 -0.31331712290E+02  0.19773860935E+02  0.31682576094E+02  0.48749139103E+02  0.10566000000E+00 0. -1.
         22    1    1    0    0    0 -0.15552515930E+02 -0.14056144860E+02 -0.35096412772E+01  0.21254965113E+02  0.00000000000E+00 0.  1.
</event>
<event>
 5    1  0.1724235E-003  0.9118800E+02  0.7818608E-02  0.1130116E+00
         25   -1    0    0    0    0  0.00000000000E+00  0.00000000000E+00  0.99999998245E-14  0.12500000000E+03  0.12500000000E+03 0.  0.
        -13    1    3    3    0    0  0.59256032436E+02  0.15106452169E+02 -0.32329636042E+01  0.61236798536E+02  0.10566000000E+00 0.  1.
         23    2    1    0    0    0  0.12165089175E+02  0.97384379599E+01 -0.49081402157E+01  0.10866242341E+03  0.10742721188E+03 0.  0.
         13    1    3    3    0    0 -0.47090943261E+02 -0.53680142095E+01 -0.16751766114E+01  0.47425624872E+02  0.10566000000E+00 0. -1.
         22    1    1    0    0    0 -0.12165089175E+02 -0.97384379599E+01  0.49081402157E+01  0.16337576592E+02  0.00000000000E+00 0.  1.
</event>
<event>
 5    1  0.1724235E-003  0.9118800E+02  0.7818608E-02  0.1130116E+00
         25   -1    0    0    0    0  0.00000000000E+00  0.00000000000E+00  0.99999998245E-14  0.12500000000E+03  0.12500000000E+03 0.  0.
        -13    1    3    3    0    0  0.21370420659E+02  0.58108224751E+02  0.27443576004E+01  0.61974215006E+02  0.10566000000E+00 0.  1.
         23    2    1    0    0    0  0.11548254048E+02  0.27185200413E+02  0.68532074260E+01  0.94678988389E+02  0.89692514165E+02 0.  0.
         13    1    3    3    0    0 -0.98221666104E+01 -0.30923024338E+02  0.41088498257E+01  0.32704773384E+02  0.10566000000E+00 0. -1.
         22    1    1    0    0    0 -0.11548254048E+02 -0.27185200413E+02 -0.68532074260E+01  0.30321011611E+02  0.00000000000E+00 0.  1.
</event>
<event>
 5    1  0.1724235E-003  0.9118800E+02  0.7818608E-02  0.1130116E+00
         25   -1    0    0    0    0  0.00000000000E+00  0.00000000000E+00  0.99999998245E-14  0.12500000000E+03  0.12500000000E+03 0.  0.
        -13    1    3    3    0    0  0.41427444182E+02  0.39686513985E+02  0.11817837515E+02  0.58574098126E+02  0.10566000000E+00 0.  1.
         23    2    1    0    0    0  0.11711507017E+02  0.19104619136E+02  0.19226939512E+02  0.95473383669E+02  0.90792873714E+02 0.  0.
         13    1    3    3    0    0 -0.29715937165E+02 -0.20581894848E+02  0.74091019975E+01  0.36899285543E+02  0.10566000000E+00 0. -1.
         22    1    1    0    0    0 -0.11711507017E+02 -0.19104619136E+02 -0.19226939512E+02  0.29526616331E+02  0.00000000000E+00 0.  1.
</event>
<event>
 5    1  0.1724235E-003  0.9118800E+02  0.7818608E-02  0.1130116E+00
         25   -1    0    0    0    0  0.00000000000E+00  0.00000000000E+00  0.99999998245E-14  0.12500000000E+03  0.12500000000E+03 0.  0.
        -13    1    3    3    0    0 -0.27231030373E+02  0.11734621426E+02 -0.19210298588E+02  0.35330965046E+02  0.10566000000E+00 0. -1.
         23    2    1    0    0    0  0.16935528021E+02  0.15174359430E+02  0.20169907438E+02  0.94604301957E+02  0.89588366930E+02 0.  0.
         13    1    3    3    0    0  0.44166558394E+02  0.34397380040E+01  0.39380206026E+02  0.59273336911E+02  0.10566000000E+00 0.  1.
         22    1    1    0    0    0 -0.16935528021E+02 -0.15174359430E+02 -0.20169907438E+02  0.30395698043E+02  0.00000000000E+00 0.  1.
</event>
<event>
 5    1  0.1724235E-003  0.9118800E+02  0.7818608E-02  0.1130116E+00
         25   -1    0    0    0    0  0.00000000000E+00  0.00000000000E+00  0.99999998245E-14  0.12500000000E+03  0.12500000000E+03 0.  0.
        -13    1    3    3    0    0 -0.30544638160E+02 -0.12466416574E+02  0.27178011708E+02  0.42743911227E+02  0.10566000000E+00 0.  1.
         23    2    1    0    0    0  0.21497151203E+02 -0.11932557370E+01  0.18331990033E+02  0.96722566812E+02  0.92496711850E+02 0.  0.
         13    1    3    3    0    0  0.52041789363E+02  0.11273160837E+02 -0.88460216748E+01  0.53978655586E+02  0.10566000000E+00 0. -1.
         22    1    1    0    0    0 -0.21497151203E+02  0.11932557370E+01 -0.18331990033E+02  0.28277433188E+02  0.00000000000E+00 0.  1.
</event>
<event>
 5    1  0.1724235E-003  0.9118800E+02  0.7818608E-02  0.1130116E+00
         25   -1    0    0    0    0  0.00000000000E+00  0.00000000000E+00  0.99999998245E-14  0.12500000000E+03  0.12500000000E+03 0.  0.
        -13    1    3    3    0    0 -0.11103318587E+02 -0.10557733383E+02  0.43246712593E+02  0.45880701084E+02  0.10566000000E+00 0.  1.
         23    2    1    0    0    0 -0.19904363755E+02  0.20493589905E+02  0.48793366532E+01  0.96017611385E+02  0.91539078247E+02 0.  0.
         13    1    3    3    0    0 -0.88010451674E+01  0.31051323288E+02 -0.38367375940E+02  0.50136910301E+02  0.10566000000E+00 0. -1.
         22    1    1    0    0    0  0.19904363755E+02 -0.20493589905E+02 -0.48793366532E+01  0.28982388615E+02  0.00000000000E+00 0. -1.
</event>
<event>
 5    1  0.1724235E-003  0.9118800E+02  0.7818608E-02  0.1130116E+00
         25   -1    0    0    0    0  0.00000000000E+00  0.00000000000E+00  0.99999998245E-14  0.12500000000E+03  0.12500000000E+03 0.  0.
        -13    1    3    3    0    0 -0.26040858402E+02  0.11996785556E+02 -0.25397056753E+02  0.38302360576E+02  0.10566000000E+00 0.  1.
         23    2    1    0    0    0 -0.32149045380E+02 -0.13309698023E+02  0.15600807389E+02  0.86867410637E+02  0.78050321328E+02 0.  0.
         13    1    3    3    0    0 -0.61081869778E+01 -0.25306483578E+02  0.40997864141E+02  0.48565050061E+02  0.10566000000E+00 0. -1.
         22    1    1    0    0    0  0.32149045380E+02  0.13309698023E+02 -0.15600807389E+02  0.38132589363E+02  0.00000000000E+00 0. -1.
</event>
<event>
 5    1  0.1724235E-003  0.9118800E+02  0.7818608E-02  0.1130116E+00
         25   -1    0    0    0    0  0.00000000000E+00  0.00000000000E+00  0.99999998245E-14  0.12500000000E+03  0.12500000000E+03 0.  0.
        -13    1    3    3    0    0 -0.60500028433E+02 -0.28851035427E+00  0.65496401150E+01  0.60854298355E+02  0.10566000000E+00 0. -1.
         23    2    1    0    0    0 -0.43482062410E+02  0.18043444961E+01 -0.44933714050E+01  0.81249162327E+02  0.68463790296E+02 0.  0.
         13    1    3    3    0    0  0.17017966023E+02  0.20928548504E+01 -0.11043011520E+02  0.20394863972E+02  0.10566000000E+00 0.  1.
         22    1    1    0    0    0  0.43482062410E+02 -0.18043444961E+01  0.44933714050E+01  0.43750837673E+02  0.00000000000E+00 0. -1.
</event>
<event>
 5    1  0.1724235E-003  0.9118800E+02  0.7818608E-02  0.1130116E+00
         25   -1    0    0    0    0  0.00000000000E+00  0.00000000000E+00  0.99999998245E-14  0.12500000000E+03  0.12500000000E+03 0.  0.
        -13    1    3    3    0    0  0.41556170027E+02 -0.12953013050E+02  0.77646030239E+00  0.43535156701E+02  0.10566000000E+00 0.  1.
         23    2    1    0    0    0  0.37333900449E+01 -0.37599406103E+01  0.31458753453E+02  0.93098142320E+02  0.87461623470E+02 0.  0.
         13    1    3    3    0    0 -0.37822779982E+02  0.91930724400E+01  0.30682293151E+02  0.49562985619E+02  0.10566000000E+00 0. -1.
         22    1    1    0    0    0 -0.37333900449E+01  0.37599406103E+01 -0.31458753453E+02  0.31901857680E+02  0.00000000000E+00 0. -1.
</event>
<event>
 5    1  0.1724235E-003  0.9118800E+02  0.7818608E-02  0.1130116E+00
         25   -1    0    0    0    0  0.00000000000E+00  0.00000000000E+00  0.99999998245E-14  0.12500000000E+03  0.12500000000E+03 0.  0.
        -13    1    3    3    0    0 -0.50104228325E+02  0.13184518538E+02 -0.17917595883E+02  0.54820768249E+02  0.10566000000E+00 0.  1.
         23    2    1    0    0    0 -0.24695147880E+02  0.62965280854E+01  0.13782044297E+02  0.96026885915E+02  0.91551742085E+02 0.  0.
         13    1    3    3    0    0  0.25409080445E+02 -0.68879904522E+01  0.31699640180E+02  0.41206117666E+02  0.10566000000E+00 0. -1.
         22    1    1    0    0    0  0.24695147880E+02 -0.62965280854E+01 -0.13782044297E+02  0.28973114085E+02  0.00000000000E+00 0. -1.
</event>
<event>
 5    1  0.1724235E-003  0.9118800E+02  0.7818608E-02  0.1130116E+00
         25   -1    0    0    0    0  0.00000000000E+00  0.00000000000E+00  0.99999998245E-14  0.12500000000E+03  0.12500000000E+03 0.  0.
        -13    1    3    3    0    0 -0.77698718776E+01  0.36797357144E+02 -0.93618973250E+01  0.38756582503E+02  0.10566000000E+00 0.  1.
         23    2    1    0    0    0  0.31903378662E+02  0.41863188042E+00 -0.33825534468E+01  0.92915073780E+02  0.87199589707E+02 0.  0.
         13    1    3    3    0    0  0.39673250540E+02 -0.36378725263E+02  0.59793438782E+01  0.54158491277E+02  0.10566000000E+00 0. -1.
         22    1    1    0    0    0 -0.31903378662E+02 -0.41863188042E+00  0.33825534468E+01  0.32084926220E+02  0.00000000000E+00 0.  1.
</event>
<event>
 5    1  0.1724235E-003  0.9118800E+02  0.7818608E-02  0.1130116E+00
         25   -1    0    0    0    0  0.00000000000E+00  0.00000000000E+00  0.99999998245E-14  0.12500000000E+03  0.12500000000E+03 0.  0.
        -13    1    3    3    0    0 -0.36791824105E+02  0.31480022665E+02 -0.13893652009E+00  0.48421695709E+02  0.10566000000E+00 0.  1.
         23    2    1    0    0    0  0.13785732823E+01  0.17610896851E+02 -0.23751797288E+02  0.95399459014E+02  0.90691040095E+02 0.  0.
         13    1    3    3    0    0  0.38170397387E+02 -0.13869125813E+02 -0.23612860768E+02  0.46977763306E+02  0.10566000000E+00 0. -1.
         22    1    1    0    0    0 -0.13785732823E+01 -0.17610896851E+02  0.23751797288E+02  0.29600540986E+02  0.00000000000E+00 0. -1.
</event>
<event>
 5    1  0.1724235E-003  0.9118800E+02  0.7818608E-02  0.1130116E+00
         25   -1    0    0    0    0  0.00000000000E+00  0.00000000000E+00  0.99999998245E-14  0.12500000000E+03  0.12500000000E+03 0.  0.
        -13    1    3    3    0    0  0.38915438962E+02 -0.20800088775E+01  0.26969395797E+02  0.47393008980E+02  0.10566000000E+00 0.  1.
         23    2    1    0    0    0  0.22886506727E+02 -0.60568945485E+01 -0.17974511528E+02  0.95275242198E+02  0.90519669406E+02 0.  0.
         13    1    3    3    0    0 -0.16028932235E+02 -0.39768856711E+01 -0.44943907325E+02  0.47882233218E+02  0.10566000000E+00 0. -1.
         22    1    1    0    0    0 -0.22886506727E+02  0.60568945485E+01  0.17974511528E+02  0.29724757802E+02  0.00000000000E+00 0. -1.
</event>
<event>
 5    1  0.1724235E-003  0.9118800E+02  0.7818608E-02  0.1130116E+00
         25   -1    0    0    0    0  0.00000000000E+00  0.00000000000E+00  0.99999998245E-14  0.12500000000E+03  0.12500000000E+03 0.  0.
        -13    1    3    3    0    0 -0.25792654246E+02  0.38364196089E+02  0.78036073393E+01  0.46882619446E+02  0.10566000000E+00 0.  1.
         23    2    1    0    0    0  0.59152855279E+01  0.74767831399E+01  0.27914438880E+02  0.95502393538E+02  0.90832804561E+02 0.  0.
         13    1    3    3    0    0  0.31707939774E+02 -0.30887412949E+02  0.20110831541E+02  0.48619774091E+02  0.10566000000E+00 0. -1.
         22    1    1    0    0    0 -0.59152855279E+01 -0.74767831399E+01 -0.27914438880E+02  0.29497606462E+02  0.00000000000E+00 0. -1.
</event>
<event>
 5    1  0.1724235E-003  0.9118800E+02  0.7818608E-02  0.1130116E+00
         25   -1    0    0    0    0  0.00000000000E+00  0.00000000000E+00  0.99999998245E-14  0.12500000000E+03  0.12500000000E+03 0.  0.
        -13    1    3    3    0    0 -0.15335087869E+02  0.16444777013E+01 -0.58582367054E+02  0.60578660603E+02  0.10566000000E+00 0. -1.
         23    2    1    0    0    0 -0.10999672294E+02 -0.94443633700E+01 -0.26597789300E+02  0.94707572139E+02  0.89732341075E+02 0.  0.
         13    1    3    3    0    0  0.43354155748E+01 -0.11088841071E+02  0.31984577754E+02  0.34128911536E+02  0.10566000000E+00 0.  1.
         22    1    1    0    0    0  0.10999672294E+02  0.94443633700E+01  0.26597789300E+02  0.30292427861E+02  0.00000000000E+00 0. -1.
</event>
<event>
 5    1  0.1724235E-003  0.9118800E+02  0.7818608E-02  0.1130116E+00
         25   -1    0    0    0    0  0.00000000000E+00  0.00000000000E+00  0.99999998245E-14  0.12500000000E+03  0.12500000000E+03 0.  0.
        -13    1    3    3    0    0 -0.62787632980E+01 -0.34076327595E+02 -0.18575084064E+01  0.34699862714E+02  0.10566000000E+00 0.  1.
         23    2    1    0    0    0  0.36803255114E+01  0.24623837201E+02 -0.15353261793E+02  0.95749345271E+02  0.91172014993E+02 0.  0.
         13    1    3    3    0    0  0.99590888094E+01  0.58700164795E+02 -0.13495753387E+02  0.61049482557E+02  0.10566000000E+00 0. -1.
         22    1    1    0    0    0 -0.36803255114E+01 -0.24623837201E+02  0.15353261793E+02  0.29250654729E+02  0.00000000000E+00 0. -1.
</event>
<event>
 5    1  0.1724235E-003  0.9118800E+02  0.7818608E-02  0.1130116E+00
         25   -1    0    0    0    0  0.00000000000E+00  0.00000000000E+00  0.99999998245E-14  0.12500000000E+03  0.12500000000E+03 0.  0.
        -13    1    3    3    0    0 -0.11273267560E+02 -0.46542501241E+02 -0.25574630745E+02  0.54289629627E+02  0.10566000000E+00 0.  1.
         23    2    1    0    0    0  0.13288358521E+02 -0.15221292180E+02 -0.23301826052E+02  0.94157767507E+02  0.88963148981E+02 0.  0.
         13    1    3    3    0    0  0.24561626081E+02  0.31321209061E+02  0.22728046926E+01  0.39868137880E+02  0.10566000000E+00 0. -1.
         22    1    1    0    0    0 -0.13288358521E+02  0.15221292180E+02  0.23301826052E+02  0.30842232493E+02  0.00000000000E+00 0.  1.
</event>
<event>
 5    1  0.1724235E-003  0.9118800E+02  0.7818608E-02  0.1130116E+00
         25   -1    0    0    0    0  0.00000000000E+00  0.00000000000E+00  0.99999998245E-14  0.12500000000E+03  0.12500000000E+03 0.  0.
        -13    1    3    3    0    0  0.18314947089E+02  0.30560503936E+02 -0.12059680183E+02  0.37614209255E+02  0.10566000000E+00 0.  1.
         23    2    1    0    0    0  0.10450375086E+02 -0.14265130778E+02  0.23655481729E+02  0.95465509800E+02  0.90782032638E+02 0.  0.
         13    1    3    3    0    0 -0.78645720024E+01 -0.44825634714E+02  0.35715161913E+02  0.57851300545E+02  0.10566000000E+00 0. -1.
         22    1    1    0    0    0 -0.10450375086E+02  0.14265130778E+02 -0.23655481729E+02  0.29534490200E+02  0.00000000000E+00 0. -1.
</event>
<event>
 5    1  0.1724235E-003  0.9118800E+02  0.7818608E-02  0.1130116E+00
         25   -1    0    0    0    0  0.00000000000E+00  0.00000000000E+00  0.99999998245E-14  0.12500000000E+03  0.12500000000E+03 0.  0.
        -13    1    3    3    0    0 -0.32800662577E+02  0.51933981176E+00  0.40553294452E+02  0.52160656000E+02  0.10566000000E+00 0.  1.
         23    2    1    0    0    0 -0.15591777798E+02  0.22968253215E+02  0.63912322400E+01  0.96513300644E+02  0.92213476027E+02 0.  0.
         13    1    3    3    0    0  0.17208884779E+02  0.22448913403E+02 -0.34162062212E+02  0.44352644645E+02  0.10566000000E+00 0. -1.
         22    1    1    0    0    0  0.15591777798E+02 -0.22968253215E+02 -0.63912322400E+01  0.28486699356E+02  0.00000000000E+00 0. -1.
</event>
<event>
 5    1  0.1724235E-003  0.9118800E+02  0.7818608E-02  0.1130116E+00
         25   -1    0    0    0    0  0.00000000000E+00  0.00000000000E+00  0.99999998245E-14  0.12500000000E+03  0.12500000000E+03 0.  0.
        -13    1    3    3    0    0 -0.17080473239E+02 -0.38516544400E+02  0.44859638749E+02  0.61544009549E+02  0.10566000000E+00 0. -1.
         23    2    1    0    0    0 -0.14554938269E+01 -0.22070277773E+02  0.20289383558E+02  0.94985425067E+02  0.90118567825E+02 0.  0.
         13    1    3    3    0    0  0.15624979413E+02  0.16446266628E+02 -0.24570255192E+02  0.33441415518E+02  0.10566000000E+00 0.  1.
         22    1    1    0    0    0  0.14554938269E+01  0.22070277773E+02 -0.20289383558E+02  0.30014574933E+02  0.00000000000E+00 0. -1.
</event>
<event>
 5    1  0.1724235E-003  0.9118800E+02  0.7818608E-02  0.1130116E+00
         25   -1    0    0    0    0  0.00000000000E+00  0.00000000000E+00  0.99999998245E-14  0.12500000000E+03  0.12500000000E+03 0.  0.
        -13    1    3    3    0    0  0.54295400356E+02 -0.94864066486E+01  0.29236546907E+02  0.62392060793E+02  0.10566000000E+00 0.  1.
         23    2    1    0    0    0  0.18536142925E+02 -0.49910478808E+01  0.12183697421E+02  0.10226364945E+03  0.99704124100E+02 0.  0.
         13    1    3    3    0    0 -0.35759257430E+02  0.44953587677E+01 -0.17052849486E+02  0.39871588657E+02  0.10566000000E+00 0. -1.
         22    1    1    0    0    0 -0.18536142925E+02  0.49910478808E+01 -0.12183697421E+02  0.22736350550E+02  0.00000000000E+00 0.  1.
</event>
<event>
 5    1  0.1724235E-003  0.9118800E+02  0.7818608E-02  0.1130116E+00
         25   -1    0    0    0    0  0.00000000000E+00  0.00000000000E+00  0.99999998245E-14  0.12500000000E+03  0.12500000000E+03 0.  0.
        -13    1    3    3    0    0 -0.28304405217E+02  0.49708700028E+02  0.20329192864E+02  0.60707342716E+02  0.10566000000E+00 0.  1.
         23    2    1    0    0    0 -0.75891961127E+01  0.27551036511E+02  0.15545983061E+01  0.96380561041E+02  0.92033364929E+02 0.  0.
         13    1    3    3    0    0  0.20715209104E+02 -0.22157663517E+02 -0.18774594558E+02  0.35673218324E+02  0.10566000000E+00 0. -1.
         22    1    1    0    0    0  0.75891961127E+01 -0.27551036511E+02 -0.15545983061E+01  0.28619438959E+02  0.00000000000E+00 0.  1.
</event>
<event>
 5    1  0.1724235E-003  0.9118800E+02  0.7818608E-02  0.1130116E+00
         25   -1    0    0    0    0  0.00000000000E+00  0.00000000000E+00  0.99999998245E-14  0.12500000000E+03  0.12500000000E+03 0.  0.
        -13    1    3    3    0    0  0.18625702754E+02  0.22841845984E+02 -0.53095141681E+02  0.60727028292E+02  0.10566000000E+00 0. -1.
         23    2    1    0    0    0  0.17336200288E+02  0.14462946099E+02 -0.20172605795E+02  0.94723694498E+02  0.89754797223E+02 0.  0.
         13    1    3    3    0    0 -0.12895024664E+01 -0.83788998853E+01  0.32922535886E+02  0.33996666206E+02  0.10566000000E+00 0.  1.
         22    1    1    0    0    0 -0.17336200288E+02 -0.14462946099E+02  0.20172605795E+02  0.30276305502E+02  0.00000000000E+00 0. -1.
</event>
<event>
 5    1  0.1724235E-003  0.9118800E+02  0.7818608E-02  0.1130116E+00
         25   -1    0    0    0    0  0.00000000000E+00  0.00000000000E+00  0.99999998245E-14  0.12500000000E+03  0.12500000000E+03 0.  0.
        -13    1    3    3    0    0 -0.35822383448E+02 -0.44830893050E+02 -0.13865491255E+02  0.59036557651E+02  0.10566000000E+00 0.  1.
         23    2    1    0    0    0 -0.27179597727E+02 -0.15294043786E+02  0.21667566893E+01  0.93737672152E+02  0.88370911719E+02 0.  0.
         13    1    3    3    0    0  0.86427857210E+01  0.29536849263E+02  0.16032247944E+02  0.34701114501E+02  0.10566000000E+00 0. -1.
         22    1    1    0    0    0  0.27179597727E+02  0.15294043786E+02 -0.21667566893E+01  0.31262327848E+02  0.00000000000E+00 0.  1.
</event>
<event>
 5    1  0.1724235E-003  0.9118800E+02  0.7818608E-02  0.1130116E+00
         25   -1    0    0    0    0  0.00000000000E+00  0.00000000000E+00  0.99999998245E-14  0.12500000000E+03  0.12500000000E+03 0.  0.
        -13    1    3    3    0    0 -0.32649189081E+02 -0.41491212167E+02  0.32567259898E+02  0.62033279907E+02  0.10566000000E+00 0.  1.
         23    2    1    0    0    0 -0.96945669788E+01 -0.20657219209E+02  0.15420764132E+02  0.97459025058E+02  0.93486663565E+02 0.  0.
         13    1    3    3    0    0  0.22954622102E+02  0.20833992958E+02 -0.17146495766E+02  0.35425745151E+02  0.10566000000E+00 0. -1.
         22    1    1    0    0    0  0.96945669788E+01  0.20657219209E+02 -0.15420764132E+02  0.27540974942E+02  0.00000000000E+00 0.  1.
</event>
<event>
 5    1  0.1724235E-003  0.9118800E+02  0.7818608E-02  0.1130116E+00
         25   -1    0    0    0    0  0.00000000000E+00  0.00000000000E+00  0.99999998245E-14  0.12500000000E+03  0.12500000000E+03 0.  0.
        -13    1    3    3    0    0 -0.28657721940E+01 -0.26679954027E+02  0.21229313651E+02  0.34215895710E+02  0.10566000000E+00 0.  1.
         23    2    1    0    0    0 -0.15876253090E+00  0.15969133830E+02 -0.23827434595E+02  0.96315769485E+02  0.91945322727E+02 0.  0.
         13    1    3    3    0    0  0.27070096631E+01  0.42649087857E+02 -0.45056748246E+02  0.62099873775E+02  0.10566000000E+00 0. -1.
         22    1    1    0    0    0  0.15876253090E+00 -0.15969133830E+02  0.23827434595E+02  0.28684230515E+02  0.00000000000E+00 0. -1.
</event>
<event>
 5    1  0.1724235E-003  0.9118800E+02  0.7818608E-02  0.1130116E+00
         25   -1    0    0    0    0  0.00000000000E+00  0.00000000000E+00  0.99999998245E-14  0.12500000000E+03  0.12500000000E+03 0.  0.
        -13    1    3    3    0    0 -0.37832731937E+01  0.22192831092E+02  0.29508501162E+02  0.37116003460E+02  0.10566000000E+00 0.  1.
         23    2    1    0    0    0  0.23815828769E+02 -0.15041436393E+02 -0.68357725342E+01  0.96014377791E+02  0.91534662547E+02 0.  0.
         13    1    3    3    0    0  0.27599101963E+02 -0.37234267485E+02 -0.36344273697E+02  0.58898374331E+02  0.10566000000E+00 0. -1.
         22    1    1    0    0    0 -0.23815828769E+02  0.15041436393E+02  0.68357725342E+01  0.28985622209E+02  0.00000000000E+00 0. -1.
</event>
<event>
 5    1  0.1724235E-003  0.9118800E+02  0.7818608E-02  0.1130116E+00
         25   -1    0    0    0    0  0.00000000000E+00  0.00000000000E+00  0.99999998245E-14  0.12500000000E+03  0.12500000000E+03 0.  0.
        -13    1    3    3    0    0  0.19235611083E+02  0.57729073297E+02  0.13808625296E+02  0.62396666049E+02  0.10566000000E+00 0.  1.
         23    2    1    0    0    0  0.93742827246E+01  0.27404031915E+02  0.39834510917E+01  0.95764302225E+02  0.91192519190E+02 0.  0.
         13    1    3    3    0    0 -0.98613283581E+01 -0.30325041382E+02 -0.98251742043E+01  0.33367636176E+02  0.10566000000E+00 0. -1.
         22    1    1    0    0    0 -0.93742827246E+01 -0.27404031915E+02 -0.39834510917E+01  0.29235697775E+02  0.00000000000E+00 0.  1.
</event>
<event>
 5    1  0.1724235E-003  0.9118800E+02  0.7818608E-02  0.1130116E+00
         25   -1    0    0    0    0  0.00000000000E+00  0.00000000000E+00  0.99999998245E-14  0.12500000000E+03  0.12500000000E+03 0.  0.
        -13    1    3    3    0    0  0.89100977023E+01 -0.46592186632E+02 -0.12206318644E+02  0.48981905589E+02  0.10566000000E+00 0. -1.
         23    2    1    0    0    0  0.18402647364E+02 -0.19615353504E+01 -0.22609533515E+02  0.95781922433E+02  0.91216668479E+02 0.  0.
         13    1    3    3    0    0  0.94925496615E+01  0.44630651282E+02 -0.10403214871E+02  0.46800016844E+02  0.10566000000E+00 0.  1.
         22    1    1    0    0    0 -0.18402647364E+02  0.19615353504E+01  0.22609533515E+02  0.29218077567E+02  0.00000000000E+00 0. -1.
</event>
<event>
 5    1  0.1724235E-003  0.9118800E+02  0.7818608E-02  0.1130116E+00
         25   -1    0    0    0    0  0.00000000000E+00  0.00000000000E+00  0.99999998245E-14  0.12500000000E+03  0.12500000000E+03 0.  0.
        -13    1    3    3    0    0 -0.39055849125E+02  0.44027671708E+02 -0.10063003879E+02  0.59708210809E+02  0.10566000000E+00 0. -1.
         23    2    1    0    0    0 -0.24327580434E+02  0.11033769108E+02 -0.11609576592E+02  0.95873422804E+02  0.91341971191E+02 0.  0.
         13    1    3    3    0    0  0.14728268692E+02 -0.32993902601E+02 -0.15465727136E+01  0.36165211995E+02  0.10566000000E+00 0.  1.
         22    1    1    0    0    0  0.24327580434E+02 -0.11033769108E+02  0.11609576592E+02  0.29126577196E+02  0.00000000000E+00 0. -1.
</event>
<event>
 5    1  0.1724235E-003  0.9118800E+02  0.7818608E-02  0.1130116E+00
         25   -1    0    0    0    0  0.00000000000E+00  0.00000000000E+00  0.99999998245E-14  0.12500000000E+03  0.12500000000E+03 0.  0.
        -13    1    3    3    0    0  0.34578652452E+02  0.27152544070E+02 -0.89807188669E+01  0.44873247378E+02  0.10566000000E+00 0.  1.
         23    2    1    0    0    0 -0.27975127211E+01  0.14372503298E+02  0.24369462345E+02  0.96569987277E+02  0.92290285617E+02 0.  0.
         13    1    3    3    0    0 -0.37376165173E+02 -0.12780040772E+02  0.33350181212E+02  0.51696739898E+02  0.10566000000E+00 0. -1.
         22    1    1    0    0    0  0.27975127211E+01 -0.14372503298E+02 -0.24369462345E+02  0.28430012723E+02  0.00000000000E+00 0.  1.
</event>
<event>
 5    1  0.1724235E-003  0.9118800E+02  0.7818608E-02  0.1130116E+00
         25   -1    0    0    0    0  0.00000000000E+00  0.00000000000E+00  0.99999998245E-14  0.12500000000E+03  0.12500000000E+03 0.  0.
        -13    1    3    3    0    0 -0.39454082356E+02 -0.23183250011E+02  0.21834320399E+02  0.50703416127E+02  0.10566000000E+00 0.  1.
         23    2    1    0    0    0 -0.34100448931E+02  0.11244626655E+02  0.14300712677E+02  0.86350386432E+02  0.77217851615E+02 0.  0.
         13    1    3    3    0    0  0.53536334257E+01  0.34427876666E+02 -0.75336077219E+01  0.35646970305E+02  0.10566000000E+00 0. -1.
         22    1    1    0    0    0  0.34100448931E+02 -0.11244626655E+02 -0.14300712677E+02  0.38649613568E+02  0.00000000000E+00 0.  1.
</event>
<event>
 5    1  0.1724235E-003  0.9118800E+02  0.7818608E-02  0.1130116E+00
         25   -1    0    0    0    0  0.00000000000E+00  0.00000000000E+00  0.99999998245E-14  0.12500000000E+03  0.12500000000E+03 0.  0.
        -13    1    3    3    0    0  0.61906464242E+01 -0.47163341475E+02 -0.33724820056E+02  0.58310200944E+02  0.10566000000E+00 0.  1.
         23    2    1    0    0    0 -0.12594220853E+02 -0.25730704536E+02 -0.13046193926E+02  0.93521646632E+02  0.88064815097E+02 0.  0.
         13    1    3    3    0    0 -0.18784867277E+02  0.21432636939E+02  0.20678626130E+02  0.35211445688E+02  0.10566000000E+00 0. -1.
         22    1    1    0    0    0  0.12594220853E+02  0.25730704536E+02  0.13046193926E+02  0.31478353368E+02  0.00000000000E+00 0.  1.
</event>
<event>
 5    1  0.1724235E-003  0.9118800E+02  0.7818608E-02  0.1130116E+00
         25   -1    0    0    0    0  0.00000000000E+00  0.00000000000E+00  0.99999998245E-14  0.12500000000E+03  0.12500000000E+03 0.  0.
        -13    1    3    3    0    0 -0.80571095956E+01 -0.12549927104E+02  0.27809049763E+02  0.31555856796E+02  0.10566000000E+00 0.  1.
         23    2    1    0    0    0  0.14191123960E+02  0.19712760638E+02 -0.20114317089E+02  0.93463248690E+02  0.87981885480E+02 0.  0.
         13    1    3    3    0    0  0.22248233555E+02  0.32262687743E+02 -0.47923366852E+02  0.61907391894E+02  0.10566000000E+00 0. -1.
         22    1    1    0    0    0 -0.14191123960E+02 -0.19712760638E+02  0.20114317089E+02  0.31536751310E+02  0.00000000000E+00 0. -1.
</event>
<event>
 5    1  0.1724235E-003  0.9118800E+02  0.7818608E-02  0.1130116E+00
         25   -1    0    0    0    0  0.00000000000E+00  0.00000000000E+00  0.99999998245E-14  0.12500000000E+03  0.12500000000E+03 0.  0.
        -13    1    3    3    0    0  0.45664282732E+02  0.17623666269E+01  0.41644693196E+02  0.61827374916E+02  0.10566000000E+00 0.  1.
         23    2    1    0    0    0  0.15165054993E+02  0.10040803938E+01  0.22507900538E+02  0.97841342871E+02  0.93996466518E+02 0.  0.
         13    1    3    3    0    0 -0.30499227739E+02 -0.75828623311E+00 -0.19136792657E+02  0.36013967956E+02  0.10566000000E+00 0. -1.
         22    1    1    0    0    0 -0.15165054993E+02 -0.10040803938E+01 -0.22507900538E+02  0.27158657129E+02  0.00000000000E+00 0.  1.
</event>
<event>
 5    1  0.1724235E-003  0.9118800E+02  0.7818608E-02  0.1130116E+00
         25   -1    0    0    0    0  0.00000000000E+00  0.00000000000E+00  0.99999998245E-14  0.12500000000E+03  0.12500000000E+03 0.  0.
        -13    1    3    3    0    0  0.12501115504E+02 -0.13997503211E+02 -0.25409156519E+02  0.31588674933E+02  0.10566000000E+00 0.  1.
         23    2    1    0    0    0 -0.26467997408E+01 -0.38123421432E+00  0.32198228356E+02  0.92690917721E+02  0.86877669342E+02 0.  0.
         13    1    3    3    0    0 -0.15147915244E+02  0.13616268996E+02  0.57607384875E+02  0.61102242789E+02  0.10566000000E+00 0. -1.
         22    1    1    0    0    0  0.26467997408E+01  0.38123421432E+00 -0.32198228356E+02  0.32309082279E+02  0.00000000000E+00 0. -1.
</event>
<event>
 5    1  0.1724235E-003  0.9118800E+02  0.7818608E-02  0.1130116E+00
         25   -1    0    0    0    0  0.00000000000E+00  0.00000000000E+00  0.99999998245E-14  0.12500000000E+03  0.12500000000E+03 0.  0.
        -13    1    3    3    0    0 -0.16286232757E+01 -0.14264841761E+02 -0.44006202698E+02  0.46289255386E+02  0.10566000000E+00 0. -1.
         23    2    1    0    0    0 -0.28347540128E+02  0.39849632125E+01 -0.68382298967E+01  0.95568310425E+02  0.90923471151E+02 0.  0.
         13    1    3    3    0    0 -0.26718916852E+02  0.18249804974E+02  0.37167972801E+02  0.49279055039E+02  0.10566000000E+00 0.  1.
         22    1    1    0    0    0  0.28347540128E+02 -0.39849632125E+01  0.68382298967E+01  0.29431689575E+02  0.00000000000E+00 0. -1.
</event>
<event>
 4    1  0.1724235E-003  0.9118800E+02  0.7818608E-02  0.1130116E+00
         25   -1    0    0    0    0  0.00000000000E+00  0.00000000000E+00  0.99999998245E-14  0.12500000000E+03  0.12500000000E+03 0.  0.
        -13    1    1    0    0    0 -0.14535082427E+02  0.71013390797E+01  0.39087752389E+00  0.16182137905E+02  0.10566000000E+00 0. -1.
         13    1    1    0    0    0  0.29213871031E+02  0.45136402881E+02 -0.67407106223E+01  0.54186653978E+02  0.10566000000E+00 0.  1.
         22    1    1    0    0    0 -0.14678788604E+02 -0.52237741960E+02  0.63498330984E+01  0.54631208117E+02  0.00000000000E+00 0.  1.
</event>
<event>
 5    1  0.1724235E-003  0.9118800E+02  0.7818608E-02  0.1130116E+00
         25   -1    0    0    0    0  0.00000000000E+00  0.00000000000E+00  0.99999998245E-14  0.12500000000E+03  0.12500000000E+03 0.  0.
        -13    1    3    3    0    0 -0.29228920967E+02 -0.18806690332E+02  0.20547632776E+02  0.40376203374E+02  0.10566000000E+00 0. -1.
         23    2    1    0    0    0  0.20769791104E+02 -0.58305106151E+01 -0.10878219793E+02  0.10083981080E+03  0.97902771661E+02 0.  0.
         13    1    3    3    0    0  0.49998712071E+02  0.12976179717E+02 -0.31425852569E+02  0.60463607422E+02  0.10566000000E+00 0.  1.
         22    1    1    0    0    0 -0.20769791104E+02  0.58305106151E+01  0.10878219793E+02  0.24160189204E+02  0.00000000000E+00 0.  1.
</event>
<event>
 5    1  0.1724235E-003  0.9118800E+02  0.7818608E-02  0.1130116E+00
         25   -1    0    0    0    0  0.00000000000E+00  0.00000000000E+00  0.99999998245E-14  0.12500000000E+03  0.12500000000E+03 0.  0.
        -13    1    3    3    0    0  0.12971822279E+02  0.42639209958E+01 -0.28659435420E+02  0.31746237543E+02  0.10566000000E+00 0. -1.
         23    2    1    0    0    0  0.35186949447E+01 -0.18474178392E+01  0.31652122510E+02  0.93099356963E+02  0.87463359419E+02 0.  0.
         13    1    3    3    0    0 -0.94531273343E+01 -0.61113388350E+01  0.60311557929E+02  0.61353119421E+02  0.10566000000E+00 0.  1.
         22    1    1    0    0    0 -0.35186949447E+01  0.18474178392E+01 -0.31652122510E+02  0.31900643037E+02  0.00000000000E+00 0.  1.
</event>
<event>
 5    1  0.1724235E-003  0.9118800E+02  0.7818608E-02  0.1130116E+00
         25   -1    0    0    0    0  0.00000000000E+00  0.00000000000E+00  0.99999998245E-14  0.12500000000E+03  0.12500000000E+03 0.  0.
        -13    1    3    3    0    0 -0.15566001228E+02  0.41922006849E+02  0.23770708215E+02  0.50643980743E+02  0.10566000000E+00 0.  1.
         23    2    1    0    0    0 -0.17943153628E+02  0.32914311234E+02 -0.10428114244E+02  0.86089150449E+02  0.76793799308E+02 0.  0.
         13    1    3    3    0    0 -0.23771523998E+01 -0.90076956148E+01 -0.34198822459E+02  0.35445169705E+02  0.10566000000E+00 0. -1.
         22    1    1    0    0    0  0.17943153628E+02 -0.32914311234E+02  0.10428114244E+02  0.38910849551E+02  0.00000000000E+00 0.  1.
</event>
<event>
 5    1  0.1724235E-003  0.9118800E+02  0.7818608E-02  0.1130116E+00
         25   -1    0    0    0    0  0.00000000000E+00  0.00000000000E+00  0.99999998245E-14  0.12500000000E+03  0.12500000000E+03 0.  0.
        -13    1    3    3    0    0  0.21734285497E+02  0.10155372052E+02 -0.20553202572E+02  0.31590442345E+02  0.10566000000E+00 0.  1.
         23    2    1    0    0    0 -0.25160875273E+02 -0.19409211110E+02  0.53419584298E+01  0.92776970343E+02  0.87001394160E+02 0.  0.
         13    1    3    3    0    0 -0.46895160769E+02 -0.29564583162E+02  0.25895161002E+02  0.61186527998E+02  0.10566000000E+00 0. -1.
         22    1    1    0    0    0  0.25160875273E+02  0.19409211110E+02 -0.53419584298E+01  0.32223029657E+02  0.00000000000E+00 0. -1.
</event>
<event>
 5    1  0.1724235E-003  0.9118800E+02  0.7818608E-02  0.1130116E+00
         25   -1    0    0    0    0  0.00000000000E+00  0.00000000000E+00  0.99999998245E-14  0.12500000000E+03  0.12500000000E+03 0.  0.
        -13    1    3    3    0    0 -0.21336947774E+01  0.19822314269E+02  0.31132541464E+02  0.36969218255E+02  0.10566000000E+00 0.  1.
         23    2    1    0    0    0  0.23953681483E+02  0.14890804840E+01 -0.17622595716E+02  0.95224975280E+02  0.90450228414E+02 0.  0.
         13    1    3    3    0    0  0.26087376261E+02 -0.18333233785E+02 -0.48755137180E+02  0.58255757025E+02  0.10566000000E+00 0. -1.
         22    1    1    0    0    0 -0.23953681483E+02 -0.14890804840E+01  0.17622595716E+02  0.29775024720E+02  0.00000000000E+00 0. -1.
</event>
<event>
 5    1  0.1724235E-003  0.9118800E+02  0.7818608E-02  0.1130116E+00
         25   -1    0    0    0    0  0.00000000000E+00  0.00000000000E+00  0.99999998245E-14  0.12500000000E+03  0.12500000000E+03 0.  0.
        -13    1    3    3    0    0 -0.72530876398E+00  0.49808093116E+02  0.12207435291E+01  0.49828441592E+02  0.10566000000E+00 0.  1.
         23    2    1    0    0    0 -0.26306420249E+02  0.11064962790E+02 -0.21706572024E+01  0.96378803300E+02  0.92030977530E+02 0.  0.
         13    1    3    3    0    0 -0.25581111485E+02 -0.38743130326E+02 -0.33914007315E+01  0.46550361709E+02  0.10566000000E+00 0. -1.
         22    1    1    0    0    0  0.26306420249E+02 -0.11064962790E+02  0.21706572024E+01  0.28621196700E+02  0.00000000000E+00 0.  1.
</event>
<event>
 5    1  0.1724235E-003  0.9118800E+02  0.7818608E-02  0.1130116E+00
         25   -1    0    0    0    0  0.00000000000E+00  0.00000000000E+00  0.99999998245E-14  0.12500000000E+03  0.12500000000E+03 0.  0.
        -13    1    3    3    0    0 -0.60900299152E+02  0.56003390821E+00 -0.81368369049E+01  0.61444115695E+02  0.10566000000E+00 0.  1.
         23    2    1    0    0    0 -0.29974572095E+02  0.39818526115E+01  0.32745174907E+01  0.94585322831E+02  0.89561882002E+02 0.  0.
         13    1    3    3    0    0  0.30925727056E+02  0.34218187033E+01  0.11411354396E+02  0.33141207135E+02  0.10566000000E+00 0. -1.
         22    1    1    0    0    0  0.29974572095E+02 -0.39818526115E+01 -0.32745174907E+01  0.30414677169E+02  0.00000000000E+00 0.  1.
</event>
<event>
 5    1  0.1724235E-003  0.9118800E+02  0.7818608E-02  0.1130116E+00
         25   -1    0    0    0    0  0.00000000000E+00  0.00000000000E+00  0.99999998245E-14  0.12500000000E+03  0.12500000000E+03 0.  0.
        -13    1    3    3    0    0 -0.18103713159E+00  0.60229061065E+02 -0.71991364748E+01  0.60658151152E+02  0.10566000000E+00 0.  1.
         23    2    1    0    0    0 -0.80158661927E+01  0.29914808907E+02 -0.10857723551E+02  0.92181711448E+02  0.86141905378E+02 0.  0.
         13    1    3    3    0    0 -0.78348290611E+01 -0.30314252158E+02 -0.36585870766E+01  0.31523560296E+02  0.10566000000E+00 0. -1.
         22    1    1    0    0    0  0.80158661927E+01 -0.29914808907E+02  0.10857723551E+02  0.32818288552E+02  0.00000000000E+00 0.  1.
</event>
<event>
 5    1  0.1724235E-003  0.9118800E+02  0.7818608E-02  0.1130116E+00
         25   -1    0    0    0    0  0.00000000000E+00  0.00000000000E+00  0.99999998245E-14  0.12500000000E+03  0.12500000000E+03 0.  0.
        -13    1    3    3    0    0 -0.25993788327E+02 -0.14374639861E+02  0.40537472475E+02  0.50255399127E+02  0.10566000000E+00 0. -1.
         23    2    1    0    0    0 -0.15624773467E+02 -0.26185177727E+02 -0.81775980155E+00  0.94496462343E+02  0.89437774938E+02 0.  0.
         13    1    3    3    0    0  0.10369014860E+02 -0.11810537866E+02 -0.41355232276E+02  0.44241063216E+02  0.10566000000E+00 0.  1.
         22    1    1    0    0    0  0.15624773467E+02  0.26185177727E+02  0.81775980155E+00  0.30503537657E+02  0.00000000000E+00 0. -1.
</event>
<event>
 5    1  0.1724235E-003  0.9118800E+02  0.7818608E-02  0.1130116E+00
         25   -1    0    0    0    0  0.00000000000E+00  0.00000000000E+00  0.99999998245E-14  0.12500000000E+03  0.12500000000E+03 0.  0.
        -13    1    3    3    0    0  0.42340122820E+02 -0.32617655080E+02 -0.23434118840E+02  0.58358945443E+02  0.10566000000E+00 0.  1.
         23    2    1    0    0    0  0.24215983918E+02 -0.71325392795E+01 -0.24733002906E+02  0.89658686691E+02  0.82399464031E+02 0.  0.
         13    1    3    3    0    0 -0.18124138902E+02  0.25485115801E+02 -0.12988840662E+01  0.31299741248E+02  0.10566000000E+00 0. -1.
         22    1    1    0    0    0 -0.24215983918E+02  0.71325392795E+01  0.24733002906E+02  0.35341313309E+02  0.00000000000E+00 0.  1.
</event>
<event>
 5    1  0.1724235E-003  0.9118800E+02  0.7818608E-02  0.1130116E+00
         25   -1    0    0    0    0  0.00000000000E+00  0.00000000000E+00  0.99999998245E-14  0.12500000000E+03  0.12500000000E+03 0.  0.
        -13    1    3    3    0    0 -0.32779417420E+02  0.16594708582E+02 -0.46453363140E+02  0.59226688835E+02  0.10566000000E+00 0. -1.
         23    2    1    0    0    0 -0.44590505749E+01  0.17253956731E+02 -0.22300137226E+02  0.96453927149E+02  0.92132957118E+02 0.  0.
         13    1    3    3    0    0  0.28320366846E+02  0.65924814940E+00  0.24153225914E+02  0.37227238314E+02  0.10566000000E+00 0.  1.
         22    1    1    0    0    0  0.44590505749E+01 -0.17253956731E+02  0.22300137226E+02  0.28546072851E+02  0.00000000000E+00 0. -1.
</event>
<event>
 5    1  0.1724235E-003  0.9118800E+02  0.7818608E-02  0.1130116E+00
         25   -1    0    0    0    0  0.00000000000E+00  0.00000000000E+00  0.99999998245E-14  0.12500000000E+03  0.12500000000E+03 0.  0.
        -13    1    3    3    0    0  0.36613748504E+02 -0.32599327859E+02 -0.19646501939E+02  0.52813624746E+02  0.10566000000E+00 0. -1.
         23    2    1    0    0    0 -0.54727833934E+01 -0.25221190867E+02 -0.13155404735E+02  0.96032354246E+02  0.91559207956E+02 0.  0.
         13    1    3    3    0    0 -0.42086531897E+02  0.73781369929E+01  0.64910972042E+01  0.43218729499E+02  0.10566000000E+00 0.  1.
         22    1    1    0    0    0  0.54727833934E+01  0.25221190867E+02  0.13155404735E+02  0.28967645754E+02  0.00000000000E+00 0. -1.
</event>
<event>
 5    1  0.1724235E-003  0.9118800E+02  0.7818608E-02  0.1130116E+00
         25   -1    0    0    0    0  0.00000000000E+00  0.00000000000E+00  0.99999998245E-14  0.12500000000E+03  0.12500000000E+03 0.  0.
        -13    1    3    3    0    0 -0.88165451287E+00 -0.34119903567E+02  0.79392408576E+01  0.35042657484E+02  0.10566000000E+00 0.  1.
         23    2    1    0    0    0  0.17735997202E+02  0.21597216992E+02 -0.80352419941E+01  0.95921305179E+02  0.91407473955E+02 0.  0.
         13    1    3    3    0    0  0.18617651715E+02  0.55717120560E+02 -0.15974482852E+02  0.60878647695E+02  0.10566000000E+00 0. -1.
         22    1    1    0    0    0 -0.17735997202E+02 -0.21597216992E+02  0.80352419941E+01  0.29078694821E+02  0.00000000000E+00 0. -1.
</event>
<event>
 5    1  0.1724235E-003  0.9118800E+02  0.7818608E-02  0.1130116E+00
         25   -1    0    0    0    0  0.00000000000E+00  0.00000000000E+00  0.99999998245E-14  0.12500000000E+03  0.12500000000E+03 0.  0.
        -13    1    3    3    0    0 -0.19380493494E+01 -0.36293518597E+02 -0.33579345289E+02  0.49482917472E+02  0.10566000000E+00 0. -1.
         23    2    1    0    0    0  0.21901743835E+02  0.28205294396E+00 -0.20349124012E+02  0.95102629130E+02  0.90280990704E+02 0.  0.
         13    1    3    3    0    0  0.23839793185E+02  0.36575571541E+02  0.13230221277E+02  0.45619711658E+02  0.10566000000E+00 0.  1.
         22    1    1    0    0    0 -0.21901743835E+02 -0.28205294396E+00  0.20349124012E+02  0.29897370870E+02  0.00000000000E+00 0.  1.
</event>
<event>
 5    1  0.1724235E-003  0.9118800E+02  0.7818608E-02  0.1130116E+00
         25   -1    0    0    0    0  0.00000000000E+00  0.00000000000E+00  0.99999998245E-14  0.12500000000E+03  0.12500000000E+03 0.  0.
        -13    1    3    3    0    0  0.17757993211E+02 -0.18823217413E+02  0.31312875627E+02  0.40622249823E+02  0.10566000000E+00 0. -1.
         23    2    1    0    0    0 -0.28930384311E+02 -0.70466222693E+01  0.77367690479E+01  0.94235091142E+02  0.89071728317E+02 0.  0.
         13    1    3    3    0    0 -0.46688377522E+02  0.11776595144E+02 -0.23576106579E+02  0.53612841318E+02  0.10566000000E+00 0.  1.
         22    1    1    0    0    0  0.28930384311E+02  0.70466222693E+01 -0.77367690479E+01  0.30764908858E+02  0.00000000000E+00 0.  1.
</event>
<event>
 5    1  0.1724235E-003  0.9118800E+02  0.7818608E-02  0.1130116E+00
         25   -1    0    0    0    0  0.00000000000E+00  0.00000000000E+00  0.99999998245E-14  0.12500000000E+03  0.12500000000E+03 0.  0.
        -13    1    3    3    0    0  0.51915178308E+02 -0.19563013409E+02  0.11202897577E+02  0.56598704142E+02  0.10566000000E+00 0.  1.
         23    2    1    0    0    0  0.15031196317E+02 -0.17057024251E+02  0.20133938388E+02  0.94631358048E+02  0.89626109543E+02 0.  0.
         13    1    3    3    0    0 -0.36883981990E+02  0.25059891585E+01  0.89310408112E+01  0.38032653906E+02  0.10566000000E+00 0. -1.
         22    1    1    0    0    0 -0.15031196317E+02  0.17057024251E+02 -0.20133938388E+02  0.30368641952E+02  0.00000000000E+00 0.  1.
</event>
<event>
 5    1  0.1724235E-003  0.9118800E+02  0.7818608E-02  0.1130116E+00
         25   -1    0    0    0    0  0.00000000000E+00  0.00000000000E+00  0.99999998245E-14  0.12500000000E+03  0.12500000000E+03 0.  0.
        -13    1    3    3    0    0  0.27234203694E+02  0.51365241879E+02  0.15531594936E+02  0.60177500193E+02  0.10566000000E+00 0.  1.
         23    2    1    0    0    0  0.18420523480E+02  0.25645127782E+02 -0.33030712512E+01  0.93252582090E+02  0.87682070702E+02 0.  0.
         13    1    3    3    0    0 -0.88136802136E+01 -0.25720114097E+02 -0.18834666187E+02  0.33075081897E+02  0.10566000000E+00 0. -1.
         22    1    1    0    0    0 -0.18420523480E+02 -0.25645127782E+02  0.33030712512E+01  0.31747417910E+02  0.00000000000E+00 0.  1.
</event>
<event>
 5    1  0.1724235E-003  0.9118800E+02  0.7818608E-02  0.1130116E+00
         25   -1    0    0    0    0  0.00000000000E+00  0.00000000000E+00  0.99999998245E-14  0.12500000000E+03  0.12500000000E+03 0.  0.
        -13    1    3    3    0    0 -0.40829304689E+02 -0.74238916180E+01  0.88266493446E+01  0.42427198715E+02  0.10566000000E+00 0. -1.
         23    2    1    0    0    0  0.50944355957E+01 -0.25425565876E+02 -0.12556747371E+02  0.96188811571E+02  0.91772560675E+02 0.  0.
         13    1    3    3    0    0  0.45923740284E+02 -0.18001674258E+02 -0.21383396715E+02  0.53761612856E+02  0.10566000000E+00 0.  1.
         22    1    1    0    0    0 -0.50944355957E+01  0.25425565876E+02  0.12556747371E+02  0.28811188429E+02  0.00000000000E+00 0. -1.
</event>
<event>
 5    1  0.1724235E-003  0.9118800E+02  0.7818608E-02  0.1130116E+00
         25   -1    0    0    0    0  0.00000000000E+00  0.00000000000E+00  0.99999998245E-14  0.12500000000E+03  0.12500000000E+03 0.  0.
        -13    1    3    3    0    0  0.29162031020E+01  0.17570036921E+02 -0.43552221163E+02  0.47053348130E+02  0.10566000000E+00 0. -1.
         23    2    1    0    0    0 -0.19880771939E+02 -0.14901693322E+02 -0.14447414279E+02  0.96259204324E+02  0.91868389998E+02 0.  0.
         13    1    3    3    0    0 -0.22796975041E+02 -0.32471730243E+02  0.29104806884E+02  0.49205856194E+02  0.10566000000E+00 0.  1.
         22    1    1    0    0    0  0.19880771939E+02  0.14901693322E+02  0.14447414279E+02  0.28740795676E+02  0.00000000000E+00 0.  1.
</event>
<event>
 5    1  0.1724235E-003  0.9118800E+02  0.7818608E-02  0.1130116E+00
         25   -1    0    0    0    0  0.00000000000E+00  0.00000000000E+00  0.99999998245E-14  0.12500000000E+03  0.12500000000E+03 0.  0.
        -13    1    3    3    0    0 -0.34515780772E+02 -0.43268455383E+02  0.26255796333E+02  0.61260724438E+02  0.10566000000E+00 0.  1.
         23    2    1    0    0    0 -0.21605953710E+02 -0.13791124997E+02  0.14690653456E+02  0.95456343094E+02  0.90769409900E+02 0.  0.
         13    1    3    3    0    0  0.12909827062E+02  0.29477330386E+02 -0.11565142878E+02  0.34195618656E+02  0.10566000000E+00 0. -1.
         22    1    1    0    0    0  0.21605953710E+02  0.13791124997E+02 -0.14690653456E+02  0.29543656906E+02  0.00000000000E+00 0.  1.
</event>
<event>
 5    1  0.1724235E-003  0.9118800E+02  0.7818608E-02  0.1130116E+00
         25   -1    0    0    0    0  0.00000000000E+00  0.00000000000E+00  0.99999998245E-14  0.12500000000E+03  0.12500000000E+03 0.  0.
        -13    1    3    3    0    0 -0.12327129712E+02  0.11767702049E+02  0.20962742485E+02  0.27016377903E+02  0.10566000000E+00 0. -1.
         23    2    1    0    0    0 -0.45367184397E+02 -0.18425040667E+02  0.10009791498E+01  0.76023827191E+02  0.58145995544E+02 0.  0.
         13    1    3    3    0    0 -0.33040054685E+02 -0.30192742716E+02 -0.19961763335E+02  0.49007449289E+02  0.10566000000E+00 0.  1.
         22    1    1    0    0    0  0.45367184397E+02  0.18425040667E+02 -0.10009791498E+01  0.48976172809E+02  0.00000000000E+00 0.  1.
</event>
<event>
 5    1  0.1724235E-003  0.9118800E+02  0.7818608E-02  0.1130116E+00
         25   -1    0    0    0    0  0.00000000000E+00  0.00000000000E+00  0.99999998245E-14  0.12500000000E+03  0.12500000000E+03 0.  0.
        -13    1    3    3    0    0 -0.11014662754E+02 -0.32492038294E+02 -0.15680003270E+02  0.37721731332E+02  0.10566000000E+00 0.  1.
         23    2    1    0    0    0  0.17722471664E+02  0.18480351185E+02 -0.12965044653E+02  0.96299795042E+02  0.91923602847E+02 0.  0.
         13    1    3    3    0    0  0.28737134418E+02  0.50972389478E+02  0.27149586169E+01  0.58578063710E+02  0.10566000000E+00 0. -1.
         22    1    1    0    0    0 -0.17722471664E+02 -0.18480351185E+02  0.12965044653E+02  0.28700204958E+02  0.00000000000E+00 0. -1.
</event>
<event>
 5    1  0.1724235E-003  0.9118800E+02  0.7818608E-02  0.1130116E+00
         25   -1    0    0    0    0  0.00000000000E+00  0.00000000000E+00  0.99999998245E-14  0.12500000000E+03  0.12500000000E+03 0.  0.
        -13    1    3    3    0    0  0.26669423517E+02  0.49332575725E+02  0.11502610442E+02  0.57247553567E+02  0.10566000000E+00 0.  1.
         23    2    1    0    0    0  0.22889138094E+02  0.16745292135E+02  0.18953614569E+02  0.90889049316E+02  0.84245251076E+02 0.  0.
         13    1    3    3    0    0 -0.37802854238E+01 -0.32587283590E+02  0.74510041277E+01  0.33641495749E+02  0.10566000000E+00 0. -1.
         22    1    1    0    0    0 -0.22889138094E+02 -0.16745292135E+02 -0.18953614569E+02  0.34110950684E+02  0.00000000000E+00 0.  1.
</event>
<event>
 5    1  0.1724235E-003  0.9118800E+02  0.7818608E-02  0.1130116E+00
         25   -1    0    0    0    0  0.00000000000E+00  0.00000000000E+00  0.99999998245E-14  0.12500000000E+03  0.12500000000E+03 0.  0.
        -13    1    3    3    0    0  0.13818771165E+02  0.60517734489E+01 -0.59836980042E+02  0.61709462345E+02  0.10566000000E+00 0.  1.
         23    2    1    0    0    0  0.21968042118E+01  0.81906768158E+01 -0.30660007992E+02  0.93188850610E+02  0.87591167662E+02 0.  0.
         13    1    3    3    0    0 -0.11621966953E+02  0.21389033669E+01  0.29176972050E+02  0.31479388265E+02  0.10566000000E+00 0. -1.
         22    1    1    0    0    0 -0.21968042118E+01 -0.81906768158E+01  0.30660007992E+02  0.31811149390E+02  0.00000000000E+00 0.  1.
</event>
<event>
 5    1  0.1724235E-003  0.9118800E+02  0.7818608E-02  0.1130116E+00
         25   -1    0    0    0    0  0.00000000000E+00  0.00000000000E+00  0.99999998245E-14  0.12500000000E+03  0.12500000000E+03 0.  0.
        -13    1    3    3    0    0  0.38036502257E+02 -0.15053319840E+02  0.87080917949E+01  0.41823677133E+02  0.10566000000E+00 0. -1.
         23    2    1    0    0    0 -0.72870941875E+01  0.19946535632E+02 -0.92484037814E+01  0.10183755199E+03  0.99168482882E+02 0.  0.
         13    1    3    3    0    0 -0.45323596445E+02  0.34999855472E+02 -0.17956495576E+02  0.60013874855E+02  0.10566000000E+00 0.  1.
         22    1    1    0    0    0  0.72870941875E+01 -0.19946535632E+02  0.92484037814E+01  0.23162448012E+02  0.00000000000E+00 0.  1.
</event>
<event>
 5    1  0.1724235E-003  0.9118800E+02  0.7818608E-02  0.1130116E+00
         25   -1    0    0    0    0  0.00000000000E+00  0.00000000000E+00  0.99999998245E-14  0.12500000000E+03  0.12500000000E+03 0.  0.
        -13    1    3    3    0    0  0.20168598900E+02  0.14717244409E+02 -0.26640933832E+02  0.36511918384E+02  0.10566000000E+00 0.  1.
         23    2    1    0    0    0  0.11313232513E+02 -0.14700075005E+02  0.23344277967E+02  0.95183280716E+02  0.90392589182E+02 0.  0.
         13    1    3    3    0    0 -0.88553663876E+01 -0.29417319414E+02  0.49985211799E+02  0.58671362333E+02  0.10566000000E+00 0. -1.
         22    1    1    0    0    0 -0.11313232513E+02  0.14700075005E+02 -0.23344277967E+02  0.29816719284E+02  0.00000000000E+00 0. -1.
</event>
<event>
 5    1  0.1724235E-003  0.9118800E+02  0.7818608E-02  0.1130116E+00
         25   -1    0    0    0    0  0.00000000000E+00  0.00000000000E+00  0.99999998245E-14  0.12500000000E+03  0.12500000000E+03 0.  0.
        -13    1    3    3    0    0 -0.44033173465E+02  0.34707246599E+02  0.52151195627E+00  0.56069568133E+02  0.10566000000E+00 0.  1.
         23    2    1    0    0    0 -0.38658283870E+02  0.58560092602E+01 -0.37276501681E+01  0.85723402235E+02  0.76196132177E+02 0.  0.
         13    1    3    3    0    0  0.53748895951E+01 -0.28851237339E+02 -0.42491621244E+01  0.29653834102E+02  0.10566000000E+00 0. -1.
         22    1    1    0    0    0  0.38658283870E+02 -0.58560092602E+01  0.37276501681E+01  0.39276597765E+02  0.00000000000E+00 0.  1.
</event>
<event>
 5    1  0.1724235E-003  0.9118800E+02  0.7818608E-02  0.1130116E+00
         25   -1    0    0    0    0  0.00000000000E+00  0.00000000000E+00  0.99999998245E-14  0.12500000000E+03  0.12500000000E+03 0.  0.
        -13    1    3    3    0    0 -0.22505557219E+02  0.40148117512E+01  0.29936697763E+02  0.37667437610E+02  0.10566000000E+00 0.  1.
         23    2    1    0    0    0 -0.87028859841E+01  0.10649468923E+01 -0.27148007905E+02  0.96471265897E+02  0.92156478200E+02 0.  0.
         13    1    3    3    0    0  0.13802671235E+02 -0.29498648589E+01 -0.57084705668E+02  0.58803828286E+02  0.10566000000E+00 0. -1.
         22    1    1    0    0    0  0.87028859841E+01 -0.10649468923E+01  0.27148007905E+02  0.28528734103E+02  0.00000000000E+00 0. -1.
</event>
<event>
 5    1  0.1724235E-003  0.9118800E+02  0.7818608E-02  0.1130116E+00
         25   -1    0    0    0    0  0.00000000000E+00  0.00000000000E+00  0.99999998245E-14  0.12500000000E+03  0.12500000000E+03 0.  0.
        -13    1    3    3    0    0  0.63011951563E+01 -0.32048004208E+02  0.46648390685E+02  0.56946142553E+02  0.10566000000E+00 0. -1.
         23    2    1    0    0    0 -0.12380236130E+02 -0.44039180035E+01  0.25112047579E+02  0.96657811057E+02  0.92409159526E+02 0.  0.
         13    1    3    3    0    0 -0.18681431287E+02  0.27644086205E+02 -0.21536343105E+02  0.39711668504E+02  0.10566000000E+00 0.  1.
         22    1    1    0    0    0  0.12380236130E+02  0.44039180035E+01 -0.25112047579E+02  0.28342188943E+02  0.00000000000E+00 0. -1.
</event>
<event>
 5    1  0.1724235E-003  0.9118800E+02  0.7818608E-02  0.1130116E+00
         25   -1    0    0    0    0  0.00000000000E+00  0.00000000000E+00  0.99999998245E-14  0.12500000000E+03  0.12500000000E+03 0.  0.
        -13    1    3    3    0    0 -0.32916743813E+02  0.10085012314E+01 -0.16620319316E+02  0.36888687645E+02  0.10566000000E+00 0.  1.
         23    2    1    0    0    0  0.82937347290E+01 -0.24962400843E+02  0.14764684153E+02  0.94835395084E+02  0.89910226175E+02 0.  0.
         13    1    3    3    0    0  0.41210478542E+02 -0.25970902075E+02  0.31385003469E+02  0.57946707439E+02  0.10566000000E+00 0. -1.
         22    1    1    0    0    0 -0.82937347290E+01  0.24962400843E+02 -0.14764684153E+02  0.30164604916E+02  0.00000000000E+00 0. -1.
</event>
<event>
 5    1  0.1724235E-003  0.9118800E+02  0.7818608E-02  0.1130116E+00
         25   -1    0    0    0    0  0.00000000000E+00  0.00000000000E+00  0.99999998245E-14  0.12500000000E+03  0.12500000000E+03 0.  0.
        -13    1    3    3    0    0  0.13489376641E+02 -0.42247416785E+02  0.72435021603E+01  0.44936477329E+02  0.10566000000E+00 0.  1.
         23    2    1    0    0    0 -0.17769940913E+01 -0.70677917062E+01 -0.27418703651E+02  0.96629298607E+02  0.92370583260E+02 0.  0.
         13    1    3    3    0    0 -0.15266370732E+02  0.35179625078E+02 -0.34662205812E+02  0.51692821279E+02  0.10566000000E+00 0. -1.
         22    1    1    0    0    0  0.17769940913E+01  0.70677917062E+01  0.27418703651E+02  0.28370701393E+02  0.00000000000E+00 0. -1.
</event>
<event>
 5    1  0.1724235E-003  0.9118800E+02  0.7818608E-02  0.1130116E+00
         25   -1    0    0    0    0  0.00000000000E+00  0.00000000000E+00  0.99999998245E-14  0.12500000000E+03  0.12500000000E+03 0.  0.
        -13    1    3    3    0    0  0.17874013545E+02  0.30394882461E+02 -0.13529272931E+02  0.37767467881E+02  0.10566000000E+00 0. -1.
         23    2    1    0    0    0  0.45688755195E+02  0.86766836651E+01  0.60144025919E+01  0.78107354209E+02  0.62464698449E+02 0.  0.
         13    1    3    3    0    0  0.27814741650E+02 -0.21718198796E+02  0.19543675523E+02  0.40339886328E+02  0.10566000000E+00 0.  1.
         22    1    1    0    0    0 -0.45688755195E+02 -0.86766836651E+01 -0.60144025919E+01  0.46892645791E+02  0.00000000000E+00 0. -1.
</event>
<event>
 5    1  0.1724235E-003  0.9118800E+02  0.7818608E-02  0.1130116E+00
         25   -1    0    0    0    0  0.00000000000E+00  0.00000000000E+00  0.99999998245E-14  0.12500000000E+03  0.12500000000E+03 0.  0.
        -13    1    3    3    0    0 -0.26769900888E+02 -0.13835652486E+02 -0.34585254843E+02  0.45871602216E+02  0.10566000000E+00 0.  1.
         23    2    1    0    0    0 -0.21595187812E+02 -0.13390577570E+02  0.14843306721E+02  0.95572403110E+02  0.90929097529E+02 0.  0.
         13    1    3    3    0    0  0.51747130758E+01  0.44507491627E+00  0.49428561565E+02  0.49700800894E+02  0.10566000000E+00 0. -1.
         22    1    1    0    0    0  0.21595187812E+02  0.13390577570E+02 -0.14843306721E+02  0.29427596890E+02  0.00000000000E+00 0.  1.
</event>
<event>
 5    1  0.1724235E-003  0.9118800E+02  0.7818608E-02  0.1130116E+00
         25   -1    0    0    0    0  0.00000000000E+00  0.00000000000E+00  0.99999998245E-14  0.12500000000E+03  0.12500000000E+03 0.  0.
        -13    1    3    3    0    0  0.22050688886E+02  0.20329736658E+02  0.27667396957E+02  0.40804743491E+02  0.10566000000E+00 0. -1.
         23    2    1    0    0    0  0.11140432303E+02 -0.24460487322E+02 -0.54601112834E+01  0.97573051807E+02  0.93639003368E+02 0.  0.
         13    1    3    3    0    0 -0.10910256583E+02 -0.44790223980E+02 -0.33127508240E+02  0.56768308317E+02  0.10566000000E+00 0.  1.
         22    1    1    0    0    0 -0.11140432303E+02  0.24460487322E+02  0.54601112834E+01  0.27426948193E+02  0.00000000000E+00 0.  1.
</event>
<event>
 5    1  0.1724235E-003  0.9118800E+02  0.7818608E-02  0.1130116E+00
         25   -1    0    0    0    0  0.00000000000E+00  0.00000000000E+00  0.99999998245E-14  0.12500000000E+03  0.12500000000E+03 0.  0.
        -13    1    3    3    0    0  0.10868267394E+02  0.40480279038E+02  0.21496474571E+02  0.47105008334E+02  0.10566000000E+00 0. -1.
         23    2    1    0    0    0  0.18134240535E+02  0.15414358497E+02 -0.18494705198E+02  0.94858546020E+02  0.89942406600E+02 0.  0.
         13    1    3    3    0    0  0.72659731409E+01 -0.25065920541E+02 -0.39991179769E+02  0.47753537686E+02  0.10566000000E+00 0.  1.
         22    1    1    0    0    0 -0.18134240535E+02 -0.15414358497E+02  0.18494705198E+02  0.30141453980E+02  0.00000000000E+00 0.  1.
</event>
<event>
 5    1  0.1724235E-003  0.9118800E+02  0.7818608E-02  0.1130116E+00
         25   -1    0    0    0    0  0.00000000000E+00  0.00000000000E+00  0.99999998245E-14  0.12500000000E+03  0.12500000000E+03 0.  0.
        -13    1    3    3    0    0 -0.44954292808E+02  0.15838023785E+02  0.28455491450E+02  0.55510878186E+02  0.10566000000E+00 0.  1.
         23    2    1    0    0    0 -0.12521136743E+02 -0.87991801635E+01  0.24071106379E+02  0.96475929477E+02  0.92162803610E+02 0.  0.
         13    1    3    3    0    0  0.32433156066E+02 -0.24637203949E+02 -0.43843850712E+01  0.40965051291E+02  0.10566000000E+00 0. -1.
         22    1    1    0    0    0  0.12521136743E+02  0.87991801635E+01 -0.24071106379E+02  0.28524070523E+02  0.00000000000E+00 0.  1.
</event>
<event>
 5    1  0.1724235E-003  0.9118800E+02  0.7818608E-02  0.1130116E+00
         25   -1    0    0    0    0  0.00000000000E+00  0.00000000000E+00  0.99999998245E-14  0.12500000000E+03  0.12500000000E+03 0.  0.
        -13    1    3    3    0    0 -0.41992834971E+02  0.86763355404E+01  0.82158045381E+01  0.43659908332E+02  0.10566000000E+00 0.  1.
         23    2    1    0    0    0 -0.87324072558E+01 -0.26789808072E+02 -0.92800250182E+01  0.95334066384E+02  0.90600864212E+02 0.  0.
         13    1    3    3    0    0  0.33260427715E+02 -0.35466143612E+02 -0.17495829556E+02  0.51674158052E+02  0.10566000000E+00 0. -1.
         22    1    1    0    0    0  0.87324072558E+01  0.26789808072E+02  0.92800250182E+01  0.29665933616E+02  0.00000000000E+00 0. -1.
</event>
<event>
 5    1  0.1724235E-003  0.9118800E+02  0.7818608E-02  0.1130116E+00
         25   -1    0    0    0    0  0.00000000000E+00  0.00000000000E+00  0.99999998245E-14  0.12500000000E+03  0.12500000000E+03 0.  0.
        -13    1    3    3    0    0  0.36082891935E+02  0.90660662428E+01  0.79881519722E+00  0.37213141728E+02  0.10566000000E+00 0. -1.
         23    2    1    0    0    0 -0.79845625189E+01 -0.24081928262E+02  0.16727817373E+02  0.94610653487E+02  0.89597228594E+02 0.  0.
         13    1    3    3    0    0 -0.44067454454E+02 -0.33147994504E+02  0.15929002176E+02  0.57397511759E+02  0.10566000000E+00 0.  1.
         22    1    1    0    0    0  0.79845625189E+01  0.24081928262E+02 -0.16727817373E+02  0.30389346513E+02  0.00000000000E+00 0.  1.
</event>
<event>
 5    1  0.1724235E-003  0.9118800E+02  0.7818608E-02  0.1130116E+00
         25   -1    0    0    0    0  0.00000000000E+00  0.00000000000E+00  0.99999998245E-14  0.12500000000E+03  0.12500000000E+03 0.  0.
        -13    1    3    3    0    0 -0.20022134076E+02 -0.17784753397E+02  0.10204949301E+02  0.28658950795E+02  0.10566000000E+00 0. -1.
         23    2    1    0    0    0  0.73231193668E+01  0.74582079476E+01 -0.35727138585E+02  0.87775258570E+02  0.79490972081E+02 0.  0.
         13    1    3    3    0    0  0.27345253443E+02  0.25242961345E+02 -0.45932087887E+02  0.59116307775E+02  0.10566000000E+00 0.  1.
         22    1    1    0    0    0 -0.73231193668E+01 -0.74582079476E+01  0.35727138585E+02  0.37224741430E+02  0.00000000000E+00 0.  1.
</event>
<event>
 5    1  0.1724235E-003  0.9118800E+02  0.7818608E-02  0.1130116E+00
         25   -1    0    0    0    0  0.00000000000E+00  0.00000000000E+00  0.99999998245E-14  0.12500000000E+03  0.12500000000E+03 0.  0.
        -13    1    3    3    0    0 -0.10186553125E+02 -0.44103298646E+02 -0.33295040714E+02  0.56191082177E+02  0.10566000000E+00 0. -1.
         23    2    1    0    0    0 -0.20347416341E+02 -0.10959961202E+02 -0.23096213338E+02  0.92326261740E+02  0.86351406676E+02 0.  0.
         13    1    3    3    0    0 -0.10160863216E+02  0.33143337444E+02  0.10198827375E+02  0.36135179563E+02  0.10566000000E+00 0.  1.
         22    1    1    0    0    0  0.20347416341E+02  0.10959961202E+02  0.23096213338E+02  0.32673738260E+02  0.00000000000E+00 0. -1.
</event>
<event>
 5    1  0.1724235E-003  0.9118800E+02  0.7818608E-02  0.1130116E+00
         25   -1    0    0    0    0  0.00000000000E+00  0.00000000000E+00  0.99999998245E-14  0.12500000000E+03  0.12500000000E+03 0.  0.
        -13    1    3    3    0    0  0.71372843685E+01 -0.15423503399E+01  0.38237912678E+02  0.38929022628E+02  0.10566000000E+00 0.  1.
         23    2    1    0    0    0 -0.15108128571E+02  0.24373781694E+02 -0.68735192957E+01  0.95511323352E+02  0.90845092536E+02 0.  0.
         13    1    3    3    0    0 -0.22245412940E+02  0.25916132033E+02 -0.45111431974E+02  0.56582300724E+02  0.10566000000E+00 0. -1.
         22    1    1    0    0    0  0.15108128571E+02 -0.24373781694E+02  0.68735192957E+01  0.29488676648E+02  0.00000000000E+00 0. -1.
</event>
<event>
 5    1  0.1724235E-003  0.9118800E+02  0.7818608E-02  0.1130116E+00
         25   -1    0    0    0    0  0.00000000000E+00  0.00000000000E+00  0.99999998245E-14  0.12500000000E+03  0.12500000000E+03 0.  0.
        -13    1    3    3    0    0  0.28652273021E+02  0.31040477351E+02 -0.23496855078E+02  0.48338156213E+02  0.10566000000E+00 0. -1.
         23    2    1    0    0    0  0.21357946407E+02  0.69961944176E+01  0.17563569034E+02  0.96476543543E+02  0.92163636461E+02 0.  0.
         13    1    3    3    0    0 -0.72943266141E+01 -0.24044282933E+02  0.41060424111E+02  0.48138387330E+02  0.10566000000E+00 0.  1.
         22    1    1    0    0    0 -0.21357946407E+02 -0.69961944176E+01 -0.17563569034E+02  0.28523456457E+02  0.00000000000E+00 0.  1.
</event>
<event>
 5    1  0.1724235E-003  0.9118800E+02  0.7818608E-02  0.1130116E+00
         25   -1    0    0    0    0  0.00000000000E+00  0.00000000000E+00  0.99999998245E-14  0.12500000000E+03  0.12500000000E+03 0.  0.
        -13    1    3    3    0    0 -0.55308697713E+02  0.67371630262E+00  0.66908182296E+01  0.55716103139E+02  0.10566000000E+00 0. -1.
         23    2    1    0    0    0 -0.18023002942E+02  0.85687280857E+01  0.20629561339E+02  0.96297551723E+02  0.91920552276E+02 0.  0.
         13    1    3    3    0    0  0.37285694771E+02  0.78950117830E+01  0.13938743110E+02  0.40581448584E+02  0.10566000000E+00 0.  1.
         22    1    1    0    0    0  0.18023002942E+02 -0.85687280857E+01 -0.20629561339E+02  0.28702448277E+02  0.00000000000E+00 0. -1.
</event>
<event>
 5    1  0.1724235E-003  0.9118800E+02  0.7818608E-02  0.1130116E+00
         25   -1    0    0    0    0  0.00000000000E+00  0.00000000000E+00  0.99999998245E-14  0.12500000000E+03  0.12500000000E+03 0.  0.
        -13    1    3    3    0    0  0.17008092336E+02  0.39723980077E+02  0.37831759801E+02  0.57432769494E+02  0.10566000000E+00 0. -1.
         23    2    1    0    0    0 -0.91700390151E+01  0.23180761027E+02  0.15008782100E+02  0.95901875706E+02  0.91380900228E+02 0.  0.
         13    1    3    3    0    0 -0.26178131351E+02 -0.16543219050E+02 -0.22822977701E+02  0.38469106212E+02  0.10566000000E+00 0.  1.
         22    1    1    0    0    0  0.91700390151E+01 -0.23180761027E+02 -0.15008782100E+02  0.29098124294E+02  0.00000000000E+00 0. -1.
</event>
<event>
 5    1  0.1724235E-003  0.9118800E+02  0.7818608E-02  0.1130116E+00
         25   -1    0    0    0    0  0.00000000000E+00  0.00000000000E+00  0.99999998245E-14  0.12500000000E+03  0.12500000000E+03 0.  0.
        -13    1    3    3    0    0 -0.38302078520E+02  0.76392130384E+01 -0.17426886351E+02  0.42768146169E+02  0.10566000000E+00 0.  1.
         23    2    1    0    0    0  0.51624504061E+01 -0.23034486688E+02 -0.16898525277E+02  0.95969005741E+02  0.91472681360E+02 0.  0.
         13    1    3    3    0    0  0.43464528926E+02 -0.30673699726E+02  0.52836107485E+00  0.53200859571E+02  0.10566000000E+00 0. -1.
         22    1    1    0    0    0 -0.51624504061E+01  0.23034486688E+02  0.16898525277E+02  0.29030994259E+02  0.00000000000E+00 0. -1.
</event>
<event>
 5    1  0.1724235E-003  0.9118800E+02  0.7818608E-02  0.1130116E+00
         25   -1    0    0    0    0  0.00000000000E+00  0.00000000000E+00  0.99999998245E-14  0.12500000000E+03  0.12500000000E+03 0.  0.
        -13    1    3    3    0    0  0.43775500510E+00 -0.44714479183E+02  0.24883146193E+02  0.51173805863E+02  0.10566000000E+00 0. -1.
         23    2    1    0    0    0 -0.22407415399E+02 -0.38186650610E+02  0.88181284184E+01  0.79854989883E+02  0.65869169349E+02 0.  0.
         13    1    3    3    0    0 -0.22845170404E+02  0.65278285729E+01 -0.16065017774E+02  0.28681184020E+02  0.10566000000E+00 0.  1.
         22    1    1    0    0    0  0.22407415399E+02  0.38186650610E+02 -0.88181284184E+01  0.45145010117E+02  0.00000000000E+00 0. -1.
</event>
<event>
 5    1  0.1724235E-003  0.9118800E+02  0.7818608E-02  0.1130116E+00
         25   -1    0    0    0    0  0.00000000000E+00  0.00000000000E+00  0.99999998245E-14  0.12500000000E+03  0.12500000000E+03 0.  0.
        -13    1    3    3    0    0  0.13937060513E+02 -0.54518528980E+02  0.18364551695E+02  0.59192732500E+02  0.10566000000E+00 0. -1.
         23    2    1    0    0    0  0.18359551093E+01 -0.32656816210E+02 -0.31151534447E+01  0.92143607059E+02  0.86086594570E+02 0.  0.
         13    1    3    3    0    0 -0.12101105403E+02  0.21861712770E+02 -0.21479705140E+02  0.32950874558E+02  0.10566000000E+00 0.  1.
         22    1    1    0    0    0 -0.18359551093E+01  0.32656816210E+02  0.31151534447E+01  0.32856392941E+02  0.00000000000E+00 0. -1.
</event>
<event>
 5    1  0.1724235E-003  0.9118800E+02  0.7818608E-02  0.1130116E+00
         25   -1    0    0    0    0  0.00000000000E+00  0.00000000000E+00  0.99999998245E-14  0.12500000000E+03  0.12500000000E+03 0.  0.
        -13    1    3    3    0    0 -0.21135764418E+02  0.48755928265E+02 -0.27020973468E+02  0.59615478273E+02  0.10566000000E+00 0.  1.
         23    2    1    0    0    0  0.34481678985E+01  0.25264595838E+02 -0.12735037236E+02  0.96497880112E+02  0.92192570351E+02 0.  0.
         13    1    3    3    0    0  0.24583932316E+02 -0.23491332427E+02  0.14285936232E+02  0.36882401839E+02  0.10566000000E+00 0. -1.
         22    1    1    0    0    0 -0.34481678985E+01 -0.25264595838E+02  0.12735037236E+02  0.28502119888E+02  0.00000000000E+00 0.  1.
</event>
<event>
 5    1  0.1724235E-003  0.9118800E+02  0.7818608E-02  0.1130116E+00
         25   -1    0    0    0    0  0.00000000000E+00  0.00000000000E+00  0.99999998245E-14  0.12500000000E+03  0.12500000000E+03 0.  0.
        -13    1    3    3    0    0  0.68912188543E+01 -0.35540693431E+02  0.47732478320E+02  0.59908517237E+02  0.10566000000E+00 0.  1.
         23    2    1    0    0    0 -0.22619398202E+01 -0.25912263645E+02  0.15622773345E+02  0.94658068191E+02  0.89663353984E+02 0.  0.
         13    1    3    3    0    0 -0.91531586745E+01  0.96284297866E+01 -0.32109704975E+02  0.34749550954E+02  0.10566000000E+00 0. -1.
         22    1    1    0    0    0  0.22619398202E+01  0.25912263645E+02 -0.15622773345E+02  0.30341931809E+02  0.00000000000E+00 0.  1.
</event>
<event>
 5    1  0.1724235E-003  0.9118800E+02  0.7818608E-02  0.1130116E+00
         25   -1    0    0    0    0  0.00000000000E+00  0.00000000000E+00  0.99999998245E-14  0.12500000000E+03  0.12500000000E+03 0.  0.
        -13    1    3    3    0    0 -0.22198122549E+02 -0.13310856442E+02 -0.36024432467E+02  0.44358837254E+02  0.10566000000E+00 0. -1.
         23    2    1    0    0    0  0.10876643794E+02  0.21173409776E+02 -0.16808521784E+02  0.95859974840E+02  0.91323566016E+02 0.  0.
         13    1    3    3    0    0  0.33074766343E+02  0.34484266218E+02  0.19215910682E+02  0.51501137586E+02  0.10566000000E+00 0.  1.
         22    1    1    0    0    0 -0.10876643794E+02 -0.21173409776E+02  0.16808521784E+02  0.29140025160E+02  0.00000000000E+00 0.  1.
</event>
<event>
 5    1  0.1724235E-003  0.9118800E+02  0.7818608E-02  0.1130116E+00
         25   -1    0    0    0    0  0.00000000000E+00  0.00000000000E+00  0.99999998245E-14  0.12500000000E+03  0.12500000000E+03 0.  0.
        -13    1    3    3    0    0 -0.34093560045E+02  0.46250873015E+01  0.17013034531E+02  0.38382506133E+02  0.10566000000E+00 0. -1.
         23    2    1    0    0    0 -0.37778657437E+01 -0.56507126258E+01 -0.29433925540E+02  0.94791411893E+02  0.89849056607E+02 0.  0.
         13    1    3    3    0    0  0.30315694301E+02 -0.10275799927E+02 -0.46446960071E+02  0.56408905759E+02  0.10566000000E+00 0.  1.
         22    1    1    0    0    0  0.37778657437E+01  0.56507126258E+01  0.29433925540E+02  0.30208588107E+02  0.00000000000E+00 0.  1.
</event>
<event>
 5    1  0.1724235E-003  0.9118800E+02  0.7818608E-02  0.1130116E+00
         25   -1    0    0    0    0  0.00000000000E+00  0.00000000000E+00  0.99999998245E-14  0.12500000000E+03  0.12500000000E+03 0.  0.
        -13    1    3    3    0    0  0.13949612448E+02 -0.32084973325E+02  0.14273730803E+02  0.37786078862E+02  0.10566000000E+00 0.  1.
         23    2    1    0    0    0 -0.83732442196E+00  0.88058098824E+00 -0.30024961034E+02  0.94950460567E+02  0.90070056854E+02 0.  0.
         13    1    3    3    0    0 -0.14786936870E+02  0.32965554313E+02 -0.44298691837E+02  0.57164381705E+02  0.10566000000E+00 0. -1.
         22    1    1    0    0    0  0.83732442196E+00 -0.88058098824E+00  0.30024961034E+02  0.30049539433E+02  0.00000000000E+00 0. -1.
</event>
<event>
 5    1  0.1724235E-003  0.9118800E+02  0.7818608E-02  0.1130116E+00
         25   -1    0    0    0    0  0.00000000000E+00  0.00000000000E+00  0.99999998245E-14  0.12500000000E+03  0.12500000000E+03 0.  0.
        -13    1    3    3    0    0  0.29367332333E+02  0.31757773705E+02 -0.18267340553E+02  0.46954268112E+02  0.10566000000E+00 0. -1.
         23    2    1    0    0    0  0.22506007600E+02 -0.22964225705E+01  0.17185592351E+02  0.96589816629E+02  0.92317139022E+02 0.  0.
         13    1    3    3    0    0 -0.68613247323E+01 -0.34054196276E+02  0.35452932904E+02  0.49635548517E+02  0.10566000000E+00 0.  1.
         22    1    1    0    0    0 -0.22506007600E+02  0.22964225705E+01 -0.17185592351E+02  0.28410183371E+02  0.00000000000E+00 0.  1.
</event>
<event>
 5    1  0.1724235E-003  0.9118800E+02  0.7818608E-02  0.1130116E+00
         25   -1    0    0    0    0  0.00000000000E+00  0.00000000000E+00  0.99999998245E-14  0.12500000000E+03  0.12500000000E+03 0.  0.
        -13    1    3    3    0    0 -0.21517571533E+02 -0.30565422004E+02  0.36720308659E+02  0.52398884903E+02  0.10566000000E+00 0. -1.
         23    2    1    0    0    0 -0.25803958999E+02  0.52200212894E+01  0.18801791061E+02  0.92648798023E+02  0.86817046170E+02 0.  0.
         13    1    3    3    0    0 -0.42863874654E+01  0.35785443293E+02 -0.17918517598E+02  0.40249913120E+02  0.10566000000E+00 0.  1.
         22    1    1    0    0    0  0.25803958999E+02 -0.52200212894E+01 -0.18801791061E+02  0.32351201977E+02  0.00000000000E+00 0. -1.
</event>
<event>
 5    1  0.1724235E-003  0.9118800E+02  0.7818608E-02  0.1130116E+00
         25   -1    0    0    0    0  0.00000000000E+00  0.00000000000E+00  0.99999998245E-14  0.12500000000E+03  0.12500000000E+03 0.  0.
        -13    1    3    3    0    0  0.48570413536E+02 -0.14343610276E+02  0.81937966403E+01  0.51302764977E+02  0.10566000000E+00 0. -1.
         23    2    1    0    0    0  0.13372756428E+02  0.31455341275E+01 -0.20750623944E+02  0.10011399201E+03  0.96971635046E+02 0.  0.
         13    1    3    3    0    0 -0.35197657109E+02  0.17489144404E+02 -0.28944420584E+02  0.48811227037E+02  0.10566000000E+00 0.  1.
         22    1    1    0    0    0 -0.13372756428E+02 -0.31455341275E+01  0.20750623944E+02  0.24886007986E+02  0.00000000000E+00 0.  1.
</event>
<event>
 5    1  0.1724235E-003  0.9118800E+02  0.7818608E-02  0.1130116E+00
         25   -1    0    0    0    0  0.00000000000E+00  0.00000000000E+00  0.99999998245E-14  0.12500000000E+03  0.12500000000E+03 0.  0.
        -13    1    3    3    0    0 -0.10740057946E+02  0.15111460332E+02 -0.29086382967E+02  0.34492519714E+02  0.10566000000E+00 0.  1.
         23    2    1    0    0    0 -0.12514164579E+02 -0.24336067550E+02  0.15094404613E+02  0.93747967274E+02  0.88385472893E+02 0.  0.
         13    1    3    3    0    0 -0.17741066330E+01 -0.39447527882E+02  0.44180787580E+02  0.59255447560E+02  0.10566000000E+00 0. -1.
         22    1    1    0    0    0  0.12514164579E+02  0.24336067550E+02 -0.15094404613E+02  0.31252032726E+02  0.00000000000E+00 0. -1.
</event>
<event>
 5    1  0.1724235E-003  0.9118800E+02  0.7818608E-02  0.1130116E+00
         25   -1    0    0    0    0  0.00000000000E+00  0.00000000000E+00  0.99999998245E-14  0.12500000000E+03  0.12500000000E+03 0.  0.
        -13    1    3    3    0    0 -0.95233663928E+01 -0.10518333336E+02  0.42602953135E+02  0.44903815244E+02  0.10566000000E+00 0.  1.
         23    2    1    0    0    0 -0.22526148193E+02 -0.12274541276E+02 -0.87414133712E+01  0.97898265301E+02  0.94072133628E+02 0.  0.
         13    1    3    3    0    0 -0.13002781800E+02 -0.17562079400E+01 -0.51344366506E+02  0.52994450057E+02  0.10566000000E+00 0. -1.
         22    1    1    0    0    0  0.22526148193E+02  0.12274541276E+02  0.87414133712E+01  0.27101734699E+02  0.00000000000E+00 0.  1.
</event>
<event>
 5    1  0.1724235E-003  0.9118800E+02  0.7818608E-02  0.1130116E+00
         25   -1    0    0    0    0  0.00000000000E+00  0.00000000000E+00  0.99999998245E-14  0.12500000000E+03  0.12500000000E+03 0.  0.
        -13    1    3    3    0    0 -0.16272800541E+02 -0.31315229250E+02  0.59636830433E+01  0.35791399803E+02  0.10566000000E+00 0.  1.
         23    2    1    0    0    0  0.10269351703E+02  0.22189091151E+02  0.15174538856E+02  0.96223586394E+02  0.91819913954E+02 0.  0.
         13    1    3    3    0    0  0.26542152244E+02  0.53504320401E+02  0.92108558123E+01  0.60432186591E+02  0.10566000000E+00 0. -1.
         22    1    1    0    0    0 -0.10269351703E+02 -0.22189091151E+02 -0.15174538856E+02  0.28776413606E+02  0.00000000000E+00 0. -1.
</event>
<event>
 5    1  0.1724235E-003  0.9118800E+02  0.7818608E-02  0.1130116E+00
         25   -1    0    0    0    0  0.00000000000E+00  0.00000000000E+00  0.99999998245E-14  0.12500000000E+03  0.12500000000E+03 0.  0.
        -13    1    3    3    0    0 -0.21925619947E+02 -0.47109724336E+02 -0.30211196550E+02  0.60106459704E+02  0.10566000000E+00 0.  1.
         23    2    1    0    0    0 -0.10715408761E+01 -0.28186551306E+02 -0.88975776755E+01  0.95423036618E+02  0.90723531427E+02 0.  0.
         13    1    3    3    0    0  0.20854079071E+02  0.18923173030E+02  0.21313618874E+02  0.35316576915E+02  0.10566000000E+00 0. -1.
         22    1    1    0    0    0  0.10715408761E+01  0.28186551306E+02  0.88975776755E+01  0.29576963382E+02  0.00000000000E+00 0.  1.
</event>
<event>
 5    1  0.1724235E-003  0.9118800E+02  0.7818608E-02  0.1130116E+00
         25   -1    0    0    0    0  0.00000000000E+00  0.00000000000E+00  0.99999998245E-14  0.12500000000E+03  0.12500000000E+03 0.  0.
        -13    1    3    3    0    0  0.89268370236E+01  0.50634566776E+02 -0.95198937496E+01  0.52289456995E+02  0.10566000000E+00 0. -1.
         23    2    1    0    0    0  0.19942131670E+02  0.17103938578E+02  0.14510034295E+02  0.94987095681E+02  0.90120885039E+02 0.  0.
         13    1    3    3    0    0  0.11015294646E+02 -0.33530628198E+02  0.24029928045E+02  0.42697638686E+02  0.10566000000E+00 0.  1.
         22    1    1    0    0    0 -0.19942131670E+02 -0.17103938578E+02 -0.14510034295E+02  0.30012904319E+02  0.00000000000E+00 0. -1.
</event>
<event>
 5    1  0.1724235E-003  0.9118800E+02  0.7818608E-02  0.1130116E+00
         25   -1    0    0    0    0  0.00000000000E+00  0.00000000000E+00  0.99999998245E-14  0.12500000000E+03  0.12500000000E+03 0.  0.
        -13    1    3    3    0    0 -0.36399631364E+02  0.14543230676E+02 -0.55173468356E+01  0.39583974057E+02  0.10566000000E+00 0.  1.
         23    2    1    0    0    0  0.18840200606E+01 -0.16189615045E+02  0.23341394982E+02  0.96531176937E+02  0.92237705057E+02 0.  0.
         13    1    3    3    0    0  0.38283651425E+02 -0.30732845722E+02  0.28858741817E+02  0.56947202880E+02  0.10566000000E+00 0. -1.
         22    1    1    0    0    0 -0.18840200606E+01  0.16189615045E+02 -0.23341394982E+02  0.28468823063E+02  0.00000000000E+00 0. -1.
</event>
<event>
 5    1  0.1724235E-003  0.9118800E+02  0.7818608E-02  0.1130116E+00
         25   -1    0    0    0    0  0.00000000000E+00  0.00000000000E+00  0.99999998245E-14  0.12500000000E+03  0.12500000000E+03 0.  0.
        -13    1    3    3    0    0 -0.35546561874E+02 -0.32415378823E+02  0.27247298822E+02  0.55287804282E+02  0.10566000000E+00 0. -1.
         23    2    1    0    0    0  0.77861642936E+00 -0.19860418909E+02  0.23970681777E+02  0.93861020125E+02  0.88545214615E+02 0.  0.
         13    1    3    3    0    0  0.36325178303E+02  0.12554959914E+02 -0.32766170445E+01  0.38573215843E+02  0.10566000000E+00 0.  1.
         22    1    1    0    0    0 -0.77861642936E+00  0.19860418909E+02 -0.23970681777E+02  0.31138979875E+02  0.00000000000E+00 0. -1.
</event>
<event>
 5    1  0.1724235E-003  0.9118800E+02  0.7818608E-02  0.1130116E+00
         25   -1    0    0    0    0  0.00000000000E+00  0.00000000000E+00  0.99999998245E-14  0.12500000000E+03  0.12500000000E+03 0.  0.
        -13    1    3    3    0    0  0.47262918333E+02 -0.82431690719E+01  0.36554974741E+02  0.60315923503E+02  0.10566000000E+00 0.  1.
         23    2    1    0    0    0  0.21299781688E+02 -0.15572281886E+02  0.17848800331E+02  0.93144759672E+02  0.87528223551E+02 0.  0.
         13    1    3    3    0    0 -0.25963136645E+02 -0.73291128141E+01 -0.18706174410E+02  0.32828836169E+02  0.10566000000E+00 0. -1.
         22    1    1    0    0    0 -0.21299781688E+02  0.15572281886E+02 -0.17848800331E+02  0.31855240328E+02  0.00000000000E+00 0.  1.
</event>
<event>
 5    1  0.1724235E-003  0.9118800E+02  0.7818608E-02  0.1130116E+00
         25   -1    0    0    0    0  0.00000000000E+00  0.00000000000E+00  0.99999998245E-14  0.12500000000E+03  0.12500000000E+03 0.  0.
        -13    1    3    3    0    0 -0.13593224270E+02  0.16985165158E+02 -0.55047789435E+02  0.59190724504E+02  0.10566000000E+00 0. -1.
         23    2    1    0    0    0 -0.32600925787E+01  0.20899182469E+02 -0.20186674666E+02  0.95761226675E+02  0.91188303355E+02 0.  0.
         13    1    3    3    0    0  0.10333131692E+02  0.39140173105E+01  0.34861114770E+02  0.36570502172E+02  0.10566000000E+00 0.  1.
         22    1    1    0    0    0  0.32600925787E+01 -0.20899182469E+02  0.20186674666E+02  0.29238773325E+02  0.00000000000E+00 0. -1.
</event>
<event>
 5    1  0.1724235E-003  0.9118800E+02  0.7818608E-02  0.1130116E+00
         25   -1    0    0    0    0  0.00000000000E+00  0.00000000000E+00  0.99999998245E-14  0.12500000000E+03  0.12500000000E+03 0.  0.
        -13    1    3    3    0    0  0.42174565218E+02 -0.19391709180E+02 -0.31859708226E+02  0.56300839324E+02  0.10566000000E+00 0.  1.
         23    2    1    0    0    0  0.28148373095E+02  0.63341008173E+01 -0.56797020019E+01  0.95594035369E+02  0.90958830480E+02 0.  0.
         13    1    3    3    0    0 -0.14026192123E+02  0.25725809998E+02  0.26180006224E+02  0.39293196045E+02  0.10566000000E+00 0. -1.
         22    1    1    0    0    0 -0.28148373095E+02 -0.63341008173E+01  0.56797020019E+01  0.29405964631E+02  0.00000000000E+00 0.  1.
</event>
<event>
 5    1  0.1724235E-003  0.9118800E+02  0.7818608E-02  0.1130116E+00
         25   -1    0    0    0    0  0.00000000000E+00  0.00000000000E+00  0.99999998245E-14  0.12500000000E+03  0.12500000000E+03 0.  0.
        -13    1    3    3    0    0  0.95090221660E+01  0.30064946283E+02  0.87624914168E+01  0.32727892041E+02  0.10566000000E+00 0.  1.
         23    2    1    0    0    0  0.12348342840E+02  0.14427649747E+02 -0.38217967538E+02  0.82323874463E+02  0.70398640724E+02 0.  0.
         13    1    3    3    0    0  0.28393206737E+01 -0.15637296536E+02 -0.46980458955E+02  0.49595982423E+02  0.10566000000E+00 0. -1.
         22    1    1    0    0    0 -0.12348342840E+02 -0.14427649747E+02  0.38217967538E+02  0.42676125537E+02  0.00000000000E+00 0. -1.
</event>
<event>
 5    1  0.1724235E-003  0.9118800E+02  0.7818608E-02  0.1130116E+00
         25   -1    0    0    0    0  0.00000000000E+00  0.00000000000E+00  0.99999998245E-14  0.12500000000E+03  0.12500000000E+03 0.  0.
        -13    1    3    3    0    0 -0.36197498453E+02 -0.28440898746E+02  0.24444312959E+02  0.52121772953E+02  0.10566000000E+00 0.  1.
         23    2    1    0    0    0 -0.30996904182E+02  0.39104140573E+01 -0.12057424798E+01  0.93734152468E+02  0.88365933011E+02 0.  0.
         13    1    3    3    0    0  0.52005942709E+01  0.32351312803E+02 -0.25650055439E+02  0.41612379515E+02  0.10566000000E+00 0. -1.
         22    1    1    0    0    0  0.30996904182E+02 -0.39104140573E+01  0.12057424798E+01  0.31265847532E+02  0.00000000000E+00 0.  1.
</event>
<event>
 5    1  0.1724235E-003  0.9118800E+02  0.7818608E-02  0.1130116E+00
         25   -1    0    0    0    0  0.00000000000E+00  0.00000000000E+00  0.99999998245E-14  0.12500000000E+03  0.12500000000E+03 0.  0.
        -13    1    3    3    0    0  0.33381578936E+02  0.36025214413E+02  0.36608236096E+02  0.61256183360E+02  0.10566000000E+00 0. -1.
         23    2    1    0    0    0  0.21135650861E+02  0.13016876801E+02  0.10820938309E+02  0.97921456374E+02  0.94102944128E+02 0.  0.
         13    1    3    3    0    0 -0.12245928074E+02 -0.23008337612E+02 -0.25787297787E+02  0.36665273015E+02  0.10566000000E+00 0.  1.
         22    1    1    0    0    0 -0.21135650861E+02 -0.13016876801E+02 -0.10820938309E+02  0.27078543626E+02  0.00000000000E+00 0. -1.
</event>
<event>
 5    1  0.1724235E-003  0.9118800E+02  0.7818608E-02  0.1130116E+00
         25   -1    0    0    0    0  0.00000000000E+00  0.00000000000E+00  0.99999998245E-14  0.12500000000E+03  0.12500000000E+03 0.  0.
        -13    1    3    3    0    0 -0.23389577835E+02 -0.16019459469E+02 -0.20514098504E+02  0.34993354147E+02  0.10566000000E+00 0.  1.
         23    2    1    0    0    0  0.24704425457E+02  0.72472947896E+01  0.10979156440E+02  0.97011184465E+02  0.92885930669E+02 0.  0.
         13    1    3    3    0    0  0.48094003292E+02  0.23266754259E+02  0.31493254943E+02  0.62017830318E+02  0.10566000000E+00 0. -1.
         22    1    1    0    0    0 -0.24704425457E+02 -0.72472947896E+01 -0.10979156440E+02  0.27988815535E+02  0.00000000000E+00 0. -1.
</event>
<event>
 5    1  0.1724235E-003  0.9118800E+02  0.7818608E-02  0.1130116E+00
         25   -1    0    0    0    0  0.00000000000E+00  0.00000000000E+00  0.99999998245E-14  0.12500000000E+03  0.12500000000E+03 0.  0.
        -13    1    3    3    0    0  0.22449397529E+02 -0.22910924076E+02  0.35785738353E+02  0.48057425285E+02  0.10566000000E+00 0. -1.
         23    2    1    0    0    0  0.23713030835E+00 -0.40018347747E+02  0.19470372190E+02  0.80495845358E+02  0.67074297160E+02 0.  0.
         13    1    3    3    0    0 -0.22212267221E+02 -0.17107423671E+02 -0.16315366164E+02  0.32438420073E+02  0.10566000000E+00 0.  1.
         22    1    1    0    0    0 -0.23713030835E+00  0.40018347747E+02 -0.19470372190E+02  0.44504154642E+02  0.00000000000E+00 0. -1.
</event>
<event>
 5    1  0.1724235E-003  0.9118800E+02  0.7818608E-02  0.1130116E+00
         25   -1    0    0    0    0  0.00000000000E+00  0.00000000000E+00  0.99999998245E-14  0.12500000000E+03  0.12500000000E+03 0.  0.
        -13    1    3    3    0    0  0.34008846419E+02 -0.24911993720E+02  0.16108628632E+02  0.45129903017E+02  0.10566000000E+00 0.  1.
         23    2    1    0    0    0 -0.62217592971E+01 -0.25637088350E+02 -0.13764116122E+02  0.95243967327E+02  0.90476471150E+02 0.  0.
         13    1    3    3    0    0 -0.40230605716E+02 -0.72509463015E+00 -0.29872744754E+02  0.50114064310E+02  0.10566000000E+00 0. -1.
         22    1    1    0    0    0  0.62217592971E+01  0.25637088350E+02  0.13764116122E+02  0.29756032673E+02  0.00000000000E+00 0.  1.
</event>
<event>
 5    1  0.1724235E-003  0.9118800E+02  0.7818608E-02  0.1130116E+00
         25   -1    0    0    0    0  0.00000000000E+00  0.00000000000E+00  0.99999998245E-14  0.12500000000E+03  0.12500000000E+03 0.  0.
        -13    1    3    3    0    0 -0.19055628408E+02 -0.23595562600E+02  0.20486241472E+02  0.36600065603E+02  0.10566000000E+00 0.  1.
         23    2    1    0    0    0  0.12918164778E+02 -0.34234692615E+01 -0.25547534725E+02  0.96168148628E+02  0.91744412130E+02 0.  0.
         13    1    3    3    0    0  0.31973793186E+02  0.20172093338E+02 -0.46033776197E+02  0.59568083026E+02  0.10566000000E+00 0. -1.
         22    1    1    0    0    0 -0.12918164778E+02  0.34234692615E+01  0.25547534725E+02  0.28831851372E+02  0.00000000000E+00 0. -1.
</event>
<event>
 5    1  0.1724235E-003  0.9118800E+02  0.7818608E-02  0.1130116E+00
         25   -1    0    0    0    0  0.00000000000E+00  0.00000000000E+00  0.99999998245E-14  0.12500000000E+03  0.12500000000E+03 0.  0.
        -13    1    3    3    0    0 -0.16494761846E+02 -0.32221700856E+02 -0.48132951743E+01  0.36517039158E+02  0.10566000000E+00 0. -1.
         23    2    1    0    0    0 -0.13148423845E+02  0.25351155931E+02  0.74707892626E+01  0.95480940921E+02  0.90803277641E+02 0.  0.
         13    1    3    3    0    0  0.33463380007E+01  0.57572856787E+02  0.12284084437E+02  0.58963901763E+02  0.10566000000E+00 0.  1.
         22    1    1    0    0    0  0.13148423845E+02 -0.25351155931E+02 -0.74707892626E+01  0.29519059079E+02  0.00000000000E+00 0.  1.
</event>
<event>
 5    1  0.1724235E-003  0.9118800E+02  0.7818608E-02  0.1130116E+00
         25   -1    0    0    0    0  0.00000000000E+00  0.00000000000E+00  0.99999998245E-14  0.12500000000E+03  0.12500000000E+03 0.  0.
        -13    1    3    3    0    0 -0.19414805426E+02  0.21567504753E+02  0.20716200801E+02  0.35654790291E+02  0.10566000000E+00 0. -1.
         23    2    1    0    0    0  0.21489420290E+02 -0.18961263923E+02  0.17204908294E+01  0.96289639455E+02  0.91909791990E+02 0.  0.
         13    1    3    3    0    0  0.40904225716E+02 -0.40528768676E+02 -0.18995709972E+02  0.60634849164E+02  0.10566000000E+00 0.  1.
         22    1    1    0    0    0 -0.21489420290E+02  0.18961263923E+02 -0.17204908294E+01  0.28710360545E+02  0.00000000000E+00 0.  1.
</event>
<event>
 5    1  0.1724235E-003  0.9118800E+02  0.7818608E-02  0.1130116E+00
         25   -1    0    0    0    0  0.00000000000E+00  0.00000000000E+00  0.99999998245E-14  0.12500000000E+03  0.12500000000E+03 0.  0.
        -13    1    3    3    0    0  0.34886932638E+02  0.86292651488E-01  0.11457285804E+02  0.36720376868E+02  0.10566000000E+00 0. -1.
         23    2    1    0    0    0 -0.17268348289E+02  0.23270636988E+02  0.11572589495E+02  0.93796743342E+02  0.88454428015E+02 0.  0.
         13    1    3    3    0    0 -0.52155280927E+02  0.23184344337E+02  0.11530369090E+00  0.57076366474E+02  0.10566000000E+00 0.  1.
         22    1    1    0    0    0  0.17268348289E+02 -0.23270636988E+02 -0.11572589495E+02  0.31203256658E+02  0.00000000000E+00 0.  1.
</event>
<event>
 5    1  0.1724235E-003  0.9118800E+02  0.7818608E-02  0.1130116E+00
         25   -1    0    0    0    0  0.00000000000E+00  0.00000000000E+00  0.99999998245E-14  0.12500000000E+03  0.12500000000E+03 0.  0.
        -13    1    3    3    0    0  0.65378315607E+01  0.20697179953E+02 -0.23909078005E+02  0.32291975390E+02  0.10566000000E+00 0.  1.
         23    2    1    0    0    0 -0.17098778826E+01 -0.13644857127E+02  0.27260707523E+02  0.94467198244E+02  0.89396865499E+02 0.  0.
         13    1    3    3    0    0 -0.82477094433E+01 -0.34342037080E+02  0.51169785528E+02  0.62175222854E+02  0.10566000000E+00 0. -1.
         22    1    1    0    0    0  0.17098778826E+01  0.13644857127E+02 -0.27260707523E+02  0.30532801756E+02  0.00000000000E+00 0. -1.
</event>
<event>
 5    1  0.1724235E-003  0.9118800E+02  0.7818608E-02  0.1130116E+00
         25   -1    0    0    0    0  0.00000000000E+00  0.00000000000E+00  0.99999998245E-14  0.12500000000E+03  0.12500000000E+03 0.  0.
        -13    1    3    3    0    0  0.41758475719E+02 -0.79942704910E+01  0.11266899680E+02  0.43984461432E+02  0.10566000000E+00 0.  1.
         23    2    1    0    0    0 -0.76599942656E+01  0.11930231293E+02  0.22467765005E+02  0.98432982946E+02  0.94779985949E+02 0.  0.
         13    1    3    3    0    0 -0.49418469984E+02  0.19924501784E+02  0.11200865324E+02  0.54448521513E+02  0.10566000000E+00 0. -1.
         22    1    1    0    0    0  0.76599942656E+01 -0.11930231293E+02 -0.22467765005E+02  0.26567017054E+02  0.00000000000E+00 0. -1.
</event>
<event>
 5    1  0.1724235E-003  0.9118800E+02  0.7818608E-02  0.1130116E+00
         25   -1    0    0    0    0  0.00000000000E+00  0.00000000000E+00  0.99999998245E-14  0.12500000000E+03  0.12500000000E+03 0.  0.
        -13    1    3    3    0    0 -0.12812999493E+02 -0.72552512376E+01  0.30745362230E+02  0.34089589162E+02  0.10566000000E+00 0.  1.
         23    2    1    0    0    0  0.20727532434E+02 -0.80643575013E+01 -0.20110287832E+02  0.95015201528E+02  0.90159860149E+02 0.  0.
         13    1    3    3    0    0  0.33540531927E+02 -0.80910626374E+00 -0.50855650062E+02  0.60925612366E+02  0.10566000000E+00 0. -1.
         22    1    1    0    0    0 -0.20727532434E+02  0.80643575013E+01  0.20110287832E+02  0.29984798472E+02  0.00000000000E+00 0. -1.
</event>
<event>
 5    1  0.1724235E-003  0.9118800E+02  0.7818608E-02  0.1130116E+00
         25   -1    0    0    0    0  0.00000000000E+00  0.00000000000E+00  0.99999998245E-14  0.12500000000E+03  0.12500000000E+03 0.  0.
        -13    1    3    3    0    0  0.17338510507E+02 -0.76703656954E+01 -0.56859309455E+02  0.59937056086E+02  0.10566000000E+00 0.  1.
         23    2    1    0    0    0  0.17481531638E+02 -0.84339582738E+01 -0.18886409199E+02  0.97918049313E+02  0.94098418309E+02 0.  0.
         13    1    3    3    0    0  0.14302113123E+00 -0.76359257831E+00  0.37972900256E+02  0.37980993227E+02  0.10566000000E+00 0. -1.
         22    1    1    0    0    0 -0.17481531638E+02  0.84339582738E+01  0.18886409199E+02  0.27081950687E+02  0.00000000000E+00 0.  1.
</event>
<event>
 5    1  0.1724235E-003  0.9118800E+02  0.7818608E-02  0.1130116E+00
         25   -1    0    0    0    0  0.00000000000E+00  0.00000000000E+00  0.99999998245E-14  0.12500000000E+03  0.12500000000E+03 0.  0.
        -13    1    3    3    0    0  0.68291390476E+01  0.35833367395E+02 -0.12599016521E+02  0.38592923449E+02  0.10566000000E+00 0. -1.
         23    2    1    0    0    0 -0.10958140886E+02 -0.17064430448E+02 -0.21879112707E+02  0.95167614728E+02  0.90370922768E+02 0.  0.
         13    1    3    3    0    0 -0.17787279933E+02 -0.52897797843E+02 -0.92800961861E+01  0.56574691279E+02  0.10566000000E+00 0.  1.
         22    1    1    0    0    0  0.10958140886E+02  0.17064430448E+02  0.21879112707E+02  0.29832385272E+02  0.00000000000E+00 0.  1.
</event>
<event>
 5    1  0.1724235E-003  0.9118800E+02  0.7818608E-02  0.1130116E+00
         25   -1    0    0    0    0  0.00000000000E+00  0.00000000000E+00  0.99999998245E-14  0.12500000000E+03  0.12500000000E+03 0.  0.
        -13    1    3    3    0    0 -0.45169189672E+02 -0.19791652545E+02 -0.24694254335E+02  0.55152357768E+02  0.10566000000E+00 0.  1.
         23    2    1    0    0    0 -0.12567138097E+02  0.28016055632E+01 -0.27209737101E+02  0.94897645494E+02  0.89996729794E+02 0.  0.
         13    1    3    3    0    0  0.32602051575E+02  0.22593258108E+02 -0.25154827656E+01  0.39745287726E+02  0.10566000000E+00 0. -1.
         22    1    1    0    0    0  0.12567138097E+02 -0.28016055632E+01  0.27209737101E+02  0.30102354506E+02  0.00000000000E+00 0.  1.
</event>
<event>
 5    1  0.1724235E-003  0.9118800E+02  0.7818608E-02  0.1130116E+00
         25   -1    0    0    0    0  0.00000000000E+00  0.00000000000E+00  0.99999998245E-14  0.12500000000E+03  0.12500000000E+03 0.  0.
        -13    1    3    3    0    0 -0.30747612009E+02  0.25232618813E+02  0.29838867338E+02  0.49723936534E+02  0.10566000000E+00 0.  1.
         23    2    1    0    0    0 -0.24428198518E+02 -0.14180709510E+02  0.63147906730E+01  0.96056849061E+02  0.91592643074E+02 0.  0.
         13    1    3    3    0    0  0.63194134918E+01 -0.39413328322E+02 -0.23524076665E+02  0.46332912527E+02  0.10566000000E+00 0. -1.
         22    1    1    0    0    0  0.24428198518E+02  0.14180709510E+02 -0.63147906730E+01  0.28943150939E+02  0.00000000000E+00 0. -1.
</event>
<event>
 5    1  0.1724235E-003  0.9118800E+02  0.7818608E-02  0.1130116E+00
         25   -1    0    0    0    0  0.00000000000E+00  0.00000000000E+00  0.99999998245E-14  0.12500000000E+03  0.12500000000E+03 0.  0.
        -13    1    3    3    0    0 -0.45975752597E+02 -0.52439976055E-01  0.56676450462E+01  0.46323924070E+02  0.10566000000E+00 0. -1.
         23    2    1    0    0    0 -0.67126643976E+01  0.27812120459E+02 -0.57779583392E+01  0.95811668250E+02  0.91257421959E+02 0.  0.
         13    1    3    3    0    0  0.39263088199E+02  0.27864560435E+02 -0.11445603385E+02  0.49487744181E+02  0.10566000000E+00 0.  1.
         22    1    1    0    0    0  0.67126643976E+01 -0.27812120459E+02  0.57779583392E+01  0.29188331750E+02  0.00000000000E+00 0.  1.
</event>
<event>
 5    1  0.1724235E-003  0.9118800E+02  0.7818608E-02  0.1130116E+00
         25   -1    0    0    0    0  0.00000000000E+00  0.00000000000E+00  0.99999998245E-14  0.12500000000E+03  0.12500000000E+03 0.  0.
        -13    1    3    3    0    0  0.30698186423E+02  0.17401863681E+02  0.15081328785E+02  0.38375267441E+02  0.10566000000E+00 0.  1.
         23    2    1    0    0    0  0.47102213543E+00 -0.16769663845E+02 -0.22116890015E+02  0.97240311398E+02  0.93193765079E+02 0.  0.
         13    1    3    3    0    0 -0.30227164287E+02 -0.34171527525E+02 -0.37198218800E+02  0.58865043958E+02  0.10566000000E+00 0. -1.
         22    1    1    0    0    0 -0.47102213543E+00  0.16769663845E+02  0.22116890015E+02  0.27759688602E+02  0.00000000000E+00 0. -1.
</event>
<event>
 5    1  0.1724235E-003  0.9118800E+02  0.7818608E-02  0.1130116E+00
         25   -1    0    0    0    0  0.00000000000E+00  0.00000000000E+00  0.99999998245E-14  0.12500000000E+03  0.12500000000E+03 0.  0.
        -13    1    3    3    0    0 -0.42460344096E+02  0.52665521391E+01  0.26264398417E+02  0.50204055418E+02  0.10566000000E+00 0.  1.
         23    2    1    0    0    0 -0.43228586779E+01  0.25275863425E+02  0.16931418886E+02  0.94271685296E+02  0.89123068417E+02 0.  0.
         13    1    3    3    0    0  0.38137485418E+02  0.20009311286E+02 -0.93329795311E+01  0.44067629878E+02  0.10566000000E+00 0. -1.
         22    1    1    0    0    0  0.43228586779E+01 -0.25275863425E+02 -0.16931418886E+02  0.30728314704E+02  0.00000000000E+00 0. -1.
</event>
<event>
 5    1  0.1724235E-003  0.9118800E+02  0.7818608E-02  0.1130116E+00
         25   -1    0    0    0    0  0.00000000000E+00  0.00000000000E+00  0.99999998245E-14  0.12500000000E+03  0.12500000000E+03 0.  0.
        -13    1    3    3    0    0 -0.15218049867E+02 -0.33623476137E+02  0.27450180151E+02  0.45996203578E+02  0.10566000000E+00 0.  1.
         23    2    1    0    0    0 -0.26876213893E+02  0.78262853045E+01  0.98302028536E-01  0.97007299556E+02  0.92880702457E+02 0.  0.
         13    1    3    3    0    0 -0.11658164025E+02  0.41449761441E+02 -0.27351878122E+02  0.51011095977E+02  0.10566000000E+00 0. -1.
         22    1    1    0    0    0  0.26876213893E+02 -0.78262853045E+01 -0.98302028536E-01  0.27992700444E+02  0.00000000000E+00 0. -1.
</event>
<event>
 5    1  0.1724235E-003  0.9118800E+02  0.7818608E-02  0.1130116E+00
         25   -1    0    0    0    0  0.00000000000E+00  0.00000000000E+00  0.99999998245E-14  0.12500000000E+03  0.12500000000E+03 0.  0.
        -13    1    3    3    0    0 -0.26220910806E+02 -0.33944252207E+00 -0.27341375686E+02  0.37884210077E+02  0.10566000000E+00 0. -1.
         23    2    1    0    0    0  0.66416902425E+01  0.24835874285E+02  0.13435801637E+02  0.95992182667E+02  0.91504347803E+02 0.  0.
         13    1    3    3    0    0  0.32862601049E+02  0.25175316807E+02  0.40777177323E+02  0.58107972590E+02  0.10566000000E+00 0.  1.
         22    1    1    0    0    0 -0.66416902425E+01 -0.24835874285E+02 -0.13435801637E+02  0.29007817333E+02  0.00000000000E+00 0.  1.
</event>
<event>
 5    1  0.1724235E-003  0.9118800E+02  0.7818608E-02  0.1130116E+00
         25   -1    0    0    0    0  0.00000000000E+00  0.00000000000E+00  0.99999998245E-14  0.12500000000E+03  0.12500000000E+03 0.  0.
        -13    1    3    3    0    0 -0.95861760817E+01 -0.19145573317E+02  0.25331131276E+02  0.33168134184E+02  0.10566000000E+00 0. -1.
         23    2    1    0    0    0  0.17863996906E+02  0.18104185978E+02 -0.15783168314E+02  0.95066868900E+02  0.90231464717E+02 0.  0.
         13    1    3    3    0    0  0.27450172988E+02  0.37249759295E+02 -0.41114299590E+02  0.61898734716E+02  0.10566000000E+00 0.  1.
         22    1    1    0    0    0 -0.17863996906E+02 -0.18104185978E+02  0.15783168314E+02  0.29933131100E+02  0.00000000000E+00 0.  1.
</event>
<event>
 5    1  0.1724235E-003  0.9118800E+02  0.7818608E-02  0.1130116E+00
         25   -1    0    0    0    0  0.00000000000E+00  0.00000000000E+00  0.99999998245E-14  0.12500000000E+03  0.12500000000E+03 0.  0.
        -13    1    3    3    0    0 -0.62850812087E+01  0.56374523820E+02 -0.15752587690E+02  0.58870572995E+02  0.10566000000E+00 0.  1.
         23    2    1    0    0    0  0.54997650084E+01  0.14916569936E+02 -0.16647838112E+02  0.10198039992E+03  0.99348376842E+02 0.  0.
         13    1    3    3    0    0  0.11784846217E+02 -0.41457953884E+02 -0.89525042207E+00  0.43109826930E+02  0.10566000000E+00 0. -1.
         22    1    1    0    0    0 -0.54997650084E+01 -0.14916569936E+02  0.16647838112E+02  0.23019600076E+02  0.00000000000E+00 0.  1.
</event>
<event>
 5    1  0.1724235E-003  0.9118800E+02  0.7818608E-02  0.1130116E+00
         25   -1    0    0    0    0  0.00000000000E+00  0.00000000000E+00  0.99999998245E-14  0.12500000000E+03  0.12500000000E+03 0.  0.
        -13    1    3    3    0    0  0.29125459540E+02  0.32071468499E+02 -0.66921014513E+01  0.43836820950E+02  0.10566000000E+00 0.  1.
         23    2    1    0    0    0  0.26476034264E+02 -0.15712758720E+02 -0.11933277604E+02  0.91980698201E+02  0.85849720734E+02 0.  0.
         13    1    3    3    0    0 -0.26494252760E+01 -0.47784227219E+02 -0.52411761529E+01  0.48143877251E+02  0.10566000000E+00 0. -1.
         22    1    1    0    0    0 -0.26476034264E+02  0.15712758720E+02  0.11933277604E+02  0.33019301799E+02  0.00000000000E+00 0. -1.
</event>
<event>
 5    1  0.1724235E-003  0.9118800E+02  0.7818608E-02  0.1130116E+00
         25   -1    0    0    0    0  0.00000000000E+00  0.00000000000E+00  0.99999998245E-14  0.12500000000E+03  0.12500000000E+03 0.  0.
        -13    1    3    3    0    0 -0.12333715812E+02  0.25767416441E+02  0.53697248054E+02  0.60823399349E+02  0.10566000000E+00 0. -1.
         23    2    1    0    0    0 -0.23096549384E+01  0.20888986610E+02  0.21334467621E+02  0.95052649930E+02  0.90211764657E+02 0.  0.
         13    1    3    3    0    0  0.10024060873E+02 -0.48784298316E+01 -0.32362780432E+02  0.34229250581E+02  0.10566000000E+00 0.  1.
         22    1    1    0    0    0  0.23096549384E+01 -0.20888986610E+02 -0.21334467621E+02  0.29947350070E+02  0.00000000000E+00 0. -1.
</event>
<event>
 5    1  0.1724235E-003  0.9118800E+02  0.7818608E-02  0.1130116E+00
         25   -1    0    0    0    0  0.00000000000E+00  0.00000000000E+00  0.99999998245E-14  0.12500000000E+03  0.12500000000E+03 0.  0.
        -13    1    3    3    0    0 -0.72126211649E+01  0.43417531656E+02  0.28560922067E+02  0.52467527029E+02  0.10566000000E+00 0.  1.
         23    2    1    0    0    0 -0.19537987186E+02  0.19950580377E+01  0.20830568916E+02  0.96370892414E+02  0.92020232033E+02 0.  0.
         13    1    3    3    0    0 -0.12325366021E+02 -0.41422473619E+02 -0.77303531516E+01  0.43903365385E+02  0.10566000000E+00 0. -1.
         22    1    1    0    0    0  0.19537987186E+02 -0.19950580377E+01 -0.20830568916E+02  0.28629107586E+02  0.00000000000E+00 0.  1.
</event>
<event>
 5    1  0.1724235E-003  0.9118800E+02  0.7818608E-02  0.1130116E+00
         25   -1    0    0    0    0  0.00000000000E+00  0.00000000000E+00  0.99999998245E-14  0.12500000000E+03  0.12500000000E+03 0.  0.
        -13    1    3    3    0    0  0.20001902367E+02  0.88355320151E+01  0.24051333986E+02  0.32505700343E+02  0.10566000000E+00 0. -1.
         23    2    1    0    0    0 -0.19461957065E+02 -0.17754061632E+02 -0.15545809201E+02  0.94411658087E+02  0.89319172196E+02 0.  0.
         13    1    3    3    0    0 -0.39463859432E+02 -0.26589593647E+02 -0.39597143187E+02  0.61905957744E+02  0.10566000000E+00 0.  1.
         22    1    1    0    0    0  0.19461957065E+02  0.17754061632E+02  0.15545809201E+02  0.30588341913E+02  0.00000000000E+00 0.  1.
</event>
<event>
 5    1  0.1724235E-003  0.9118800E+02  0.7818608E-02  0.1130116E+00
         25   -1    0    0    0    0  0.00000000000E+00  0.00000000000E+00  0.99999998245E-14  0.12500000000E+03  0.12500000000E+03 0.  0.
        -13    1    3    3    0    0  0.94012909796E+01 -0.11144455118E+02  0.54284394536E+02  0.56208449598E+02  0.10566000000E+00 0.  1.
         23    2    1    0    0    0  0.21351276291E+02 -0.11801979244E+02  0.17269528968E+02  0.95110196654E+02  0.90291467833E+02 0.  0.
         13    1    3    3    0    0  0.11949985311E+02 -0.65752412586E+00 -0.37014865569E+02  0.38901747056E+02  0.10566000000E+00 0. -1.
         22    1    1    0    0    0 -0.21351276291E+02  0.11801979244E+02 -0.17269528968E+02  0.29889803346E+02  0.00000000000E+00 0.  1.
</event>
<event>
 5    1  0.1724235E-003  0.9118800E+02  0.7818608E-02  0.1130116E+00
         25   -1    0    0    0    0  0.00000000000E+00  0.00000000000E+00  0.99999998245E-14  0.12500000000E+03  0.12500000000E+03 0.  0.
        -13    1    3    3    0    0  0.24401528460E+02  0.80445115193E+01 -0.20962045646E+02  0.33159723739E+02  0.10566000000E+00 0. -1.
         23    2    1    0    0    0 -0.35674126378E+01  0.22140954490E+01  0.31673540397E+02  0.93049384781E+02  0.87391911498E+02 0.  0.
         13    1    3    3    0    0 -0.27968941097E+02 -0.58304160703E+01  0.52635586043E+02  0.59889661042E+02  0.10566000000E+00 0.  1.
         22    1    1    0    0    0  0.35674126378E+01 -0.22140954490E+01 -0.31673540397E+02  0.31950615219E+02  0.00000000000E+00 0.  1.
</event>
<event>
 5    1  0.1724235E-003  0.9118800E+02  0.7818608E-02  0.1130116E+00
         25   -1    0    0    0    0  0.00000000000E+00  0.00000000000E+00  0.99999998245E-14  0.12500000000E+03  0.12500000000E+03 0.  0.
        -13    1    3    3    0    0 -0.31605470525E+02  0.17299211554E+02  0.26803884502E+02  0.44906880051E+02  0.10566000000E+00 0. -1.
         23    2    1    0    0    0  0.24934313155E+01  0.27008331069E+02 -0.10076796292E+02  0.96065436406E+02  0.91604361804E+02 0.  0.
         13    1    3    3    0    0  0.34098901841E+02  0.97091195150E+01 -0.36880680794E+02  0.51158556355E+02  0.10566000000E+00 0.  1.
         22    1    1    0    0    0 -0.24934313155E+01 -0.27008331069E+02  0.10076796292E+02  0.28934563594E+02  0.00000000000E+00 0. -1.
</event>
<event>
 5    1  0.1724235E-003  0.9118800E+02  0.7818608E-02  0.1130116E+00
         25   -1    0    0    0    0  0.00000000000E+00  0.00000000000E+00  0.99999998245E-14  0.12500000000E+03  0.12500000000E+03 0.  0.
        -13    1    3    3    0    0 -0.39022432896E+02  0.44826762319E+02  0.15949077050E+02  0.61535137214E+02  0.10566000000E+00 0.  1.
         23    2    1    0    0    0 -0.13841916386E+02  0.27691629890E+02  0.86618741047E+01  0.92852634973E+02  0.87110038131E+02 0.  0.
         13    1    3    3    0    0  0.25180516511E+02 -0.17135132428E+02 -0.72872029449E+01  0.31317497759E+02  0.10566000000E+00 0. -1.
         22    1    1    0    0    0  0.13841916386E+02 -0.27691629890E+02 -0.86618741047E+01  0.32147365027E+02  0.00000000000E+00 0.  1.
</event>
<event>
 5    1  0.1724235E-003  0.9118800E+02  0.7818608E-02  0.1130116E+00
         25   -1    0    0    0    0  0.00000000000E+00  0.00000000000E+00  0.99999998245E-14  0.12500000000E+03  0.12500000000E+03 0.  0.
        -13    1    3    3    0    0  0.22055730713E+02  0.46673672305E+02  0.18897657235E+02  0.54972898384E+02  0.10566000000E+00 0.  1.
         23    2    1    0    0    0  0.27470014534E+02  0.91170788529E+01  0.38124410986E+01  0.95806549837E+02  0.91250410734E+02 0.  0.
         13    1    3    3    0    0  0.54142838207E+01 -0.37556593452E+02 -0.15085216136E+02  0.40833651453E+02  0.10566000000E+00 0. -1.
         22    1    1    0    0    0 -0.27470014534E+02 -0.91170788529E+01 -0.38124410986E+01  0.29193450163E+02  0.00000000000E+00 0.  1.
</event>
<event>
 5    1  0.1724235E-003  0.9118800E+02  0.7818608E-02  0.1130116E+00
         25   -1    0    0    0    0  0.00000000000E+00  0.00000000000E+00  0.99999998245E-14  0.12500000000E+03  0.12500000000E+03 0.  0.
        -13    1    3    3    0    0 -0.34372604635E+02 -0.18560106038E+02 -0.57853740391E+01  0.39489684759E+02  0.10566000000E+00 0.  1.
         23    2    1    0    0    0 -0.57840219856E+01  0.23890303413E+02  0.16587980813E+02  0.95345951120E+02  0.90617259835E+02 0.  0.
         13    1    3    3    0    0  0.28588582649E+02  0.42450409451E+02  0.22373354852E+02  0.55856266362E+02  0.10566000000E+00 0. -1.
         22    1    1    0    0    0  0.57840219856E+01 -0.23890303413E+02 -0.16587980813E+02  0.29654048880E+02  0.00000000000E+00 0. -1.
</event>
<event>
 5    1  0.1724235E-003  0.9118800E+02  0.7818608E-02  0.1130116E+00
         25   -1    0    0    0    0  0.00000000000E+00  0.00000000000E+00  0.99999998245E-14  0.12500000000E+03  0.12500000000E+03 0.  0.
        -13    1    3    3    0    0 -0.11047393034E+02 -0.59470949111E+02 -0.12915686982E+02  0.61851958864E+02  0.10566000000E+00 0. -1.
         23    2    1    0    0    0 -0.11748038068E+02 -0.31804419157E+02 -0.98292215946E+01  0.89699134946E+02  0.82460801212E+02 0.  0.
         13    1    3    3    0    0 -0.70064503455E+00  0.27666529954E+02  0.30864653876E+01  0.27847176083E+02  0.10566000000E+00 0.  1.
         22    1    1    0    0    0  0.11748038068E+02  0.31804419157E+02  0.98292215946E+01  0.35300865054E+02  0.00000000000E+00 0. -1.
</event>
<event>
 5    1  0.1724235E-003  0.9118800E+02  0.7818608E-02  0.1130116E+00
         25   -1    0    0    0    0  0.00000000000E+00  0.00000000000E+00  0.99999998245E-14  0.12500000000E+03  0.12500000000E+03 0.  0.
        -13    1    3    3    0    0  0.16781492246E+02  0.20553220897E+02  0.28411757181E+02  0.38875345419E+02  0.10566000000E+00 0. -1.
         23    2    1    0    0    0 -0.19394779420E+02  0.17931752719E+02 -0.14342999833E+02  0.94942939789E+02  0.90059618849E+02 0.  0.
         13    1    3    3    0    0 -0.36176271665E+02 -0.26214681777E+01 -0.42754757015E+02  0.56067594370E+02  0.10566000000E+00 0.  1.
         22    1    1    0    0    0  0.19394779420E+02 -0.17931752719E+02  0.14342999833E+02  0.30057060211E+02  0.00000000000E+00 0.  1.
</event>
<event>
 5    1  0.1724235E-003  0.9118800E+02  0.7818608E-02  0.1130116E+00
         25   -1    0    0    0    0  0.00000000000E+00  0.00000000000E+00  0.99999998245E-14  0.12500000000E+03  0.12500000000E+03 0.  0.
        -13    1    3    3    0    0  0.33555065821E+02 -0.11673544319E+02  0.18799636594E+02  0.40195168607E+02  0.10566000000E+00 0. -1.
         23    2    1    0    0    0 -0.15761689423E+02  0.15225638340E+02  0.18420032004E+02  0.96372242572E+02  0.92022066066E+02 0.  0.
         13    1    3    3    0    0 -0.49316755244E+02  0.26899182659E+02 -0.37960459021E+00  0.56177073965E+02  0.10566000000E+00 0.  1.
         22    1    1    0    0    0  0.15761689423E+02 -0.15225638340E+02 -0.18420032004E+02  0.28627757428E+02  0.00000000000E+00 0.  1.
</event>
<event>
 5    1  0.1724235E-003  0.9118800E+02  0.7818608E-02  0.1130116E+00
         25   -1    0    0    0    0  0.00000000000E+00  0.00000000000E+00  0.99999998245E-14  0.12500000000E+03  0.12500000000E+03 0.  0.
        -13    1    3    3    0    0 -0.80311508128E+01  0.12196502126E+02 -0.51361623932E+02  0.53397393424E+02  0.10566000000E+00 0. -1.
         23    2    1    0    0    0 -0.26047975918E+02  0.10870077854E+02 -0.17463236476E+02  0.91809334593E+02  0.85599846076E+02 0.  0.
         13    1    3    3    0    0 -0.18016825105E+02 -0.13264242724E+01  0.33898387456E+02  0.38411941169E+02  0.10566000000E+00 0.  1.
         22    1    1    0    0    0  0.26047975918E+02 -0.10870077854E+02  0.17463236476E+02  0.33190665407E+02  0.00000000000E+00 0. -1.
</event>
<event>
 5    1  0.1724235E-003  0.9118800E+02  0.7818608E-02  0.1130116E+00
         25   -1    0    0    0    0  0.00000000000E+00  0.00000000000E+00  0.99999998245E-14  0.12500000000E+03  0.12500000000E+03 0.  0.
        -13    1    3    3    0    0  0.30243275552E+02  0.16741257130E+02 -0.16046590087E+02  0.38110754700E+02  0.10566000000E+00 0.  1.
         23    2    1    0    0    0 -0.18493676316E+02 -0.12496570545E+02 -0.19929059596E+02  0.95077637870E+02  0.90246382019E+02 0.  0.
         13    1    3    3    0    0 -0.48736951868E+02 -0.29237827675E+02 -0.38824695090E+01  0.56966883170E+02  0.10566000000E+00 0. -1.
         22    1    1    0    0    0  0.18493676316E+02  0.12496570545E+02  0.19929059596E+02  0.29922362130E+02  0.00000000000E+00 0. -1.
</event>
<event>
 5    1  0.1724235E-003  0.9118800E+02  0.7818608E-02  0.1130116E+00
         25   -1    0    0    0    0  0.00000000000E+00  0.00000000000E+00  0.99999998245E-14  0.12500000000E+03  0.12500000000E+03 0.  0.
        -13    1    3    3    0    0  0.16901635110E+02  0.79496445801E-01  0.30315751323E+02  0.34709185116E+02  0.10566000000E+00 0.  1.
         23    2    1    0    0    0 -0.25714692136E+02  0.22042333413E+02  0.57798284952E+00  0.91126058420E+02  0.84596185523E+02 0.  0.
         13    1    3    3    0    0 -0.42616327247E+02  0.21962836968E+02 -0.29737768473E+02  0.56416873305E+02  0.10566000000E+00 0. -1.
         22    1    1    0    0    0  0.25714692136E+02 -0.22042333413E+02 -0.57798284952E+00  0.33873941580E+02  0.00000000000E+00 0.  1.
</event>
<event>
 5    1  0.1724235E-003  0.9118800E+02  0.7818608E-02  0.1130116E+00
         25   -1    0    0    0    0  0.00000000000E+00  0.00000000000E+00  0.99999998245E-14  0.12500000000E+03  0.12500000000E+03 0.  0.
        -13    1    3    3    0    0  0.21807590012E+02 -0.19575688675E+02  0.32801057114E+02  0.43985214346E+02  0.10566000000E+00 0. -1.
         23    2    1    0    0    0  0.28409624240E+02  0.16245677751E+02  0.11292691038E+01  0.92253946134E+02  0.86246661000E+02 0.  0.
         13    1    3    3    0    0  0.66020342279E+01  0.35821366427E+02 -0.31671788010E+02  0.48268731788E+02  0.10566000000E+00 0.  1.
         22    1    1    0    0    0 -0.28409624240E+02 -0.16245677751E+02 -0.11292691038E+01  0.32746053866E+02  0.00000000000E+00 0.  1.
</event>
<event>
 5    1  0.1724235E-003  0.9118800E+02  0.7818608E-02  0.1130116E+00
         25   -1    0    0    0    0  0.00000000000E+00  0.00000000000E+00  0.99999998245E-14  0.12500000000E+03  0.12500000000E+03 0.  0.
        -13    1    3    3    0    0 -0.16974142059E+02  0.33056687089E+02  0.38634674038E+02  0.53605179433E+02  0.10566000000E+00 0. -1.
         23    2    1    0    0    0 -0.11654672158E+02 -0.66341900082E+01  0.26250634120E+02  0.95522217657E+02  0.90860081523E+02 0.  0.
         13    1    3    3    0    0  0.53194699014E+01 -0.39690877097E+02 -0.12384039918E+02  0.41917038225E+02  0.10566000000E+00 0.  1.
         22    1    1    0    0    0  0.11654672158E+02  0.66341900082E+01 -0.26250634120E+02  0.29477782343E+02  0.00000000000E+00 0. -1.
</event>
<event>
 5    1  0.1724235E-003  0.9118800E+02  0.7818608E-02  0.1130116E+00
         25   -1    0    0    0    0  0.00000000000E+00  0.00000000000E+00  0.99999998245E-14  0.12500000000E+03  0.12500000000E+03 0.  0.
        -13    1    3    3    0    0 -0.13821193054E+02  0.11006099627E+02 -0.32419503805E+02  0.36921470683E+02  0.10566000000E+00 0.  1.
         23    2    1    0    0    0  0.26667331791E+02  0.94477675415E+01  0.94359795476E+01  0.95176442091E+02  0.90383131848E+02 0.  0.
         13    1    3    3    0    0  0.40488524844E+02 -0.15583320858E+01  0.41855483353E+02  0.58254971407E+02  0.10566000000E+00 0. -1.
         22    1    1    0    0    0 -0.26667331791E+02 -0.94477675415E+01 -0.94359795476E+01  0.29823557909E+02  0.00000000000E+00 0. -1.
</event>
<event>
 5    1  0.1724235E-003  0.9118800E+02  0.7818608E-02  0.1130116E+00
         25   -1    0    0    0    0  0.00000000000E+00  0.00000000000E+00  0.99999998245E-14  0.12500000000E+03  0.12500000000E+03 0.  0.
        -13    1    3    3    0    0  0.52235629964E+02 -0.13583464002E+02  0.11617414765E+02  0.55209120821E+02  0.10566000000E+00 0.  1.
         23    2    1    0    0    0  0.14428721340E+02 -0.25344245707E+02  0.34956123135E+01  0.95627596363E+02  0.91004939924E+02 0.  0.
         13    1    3    3    0    0 -0.37806908624E+02 -0.11760781705E+02 -0.81218024511E+01  0.40418475541E+02  0.10566000000E+00 0. -1.
         22    1    1    0    0    0 -0.14428721340E+02  0.25344245707E+02 -0.34956123135E+01  0.29372403637E+02  0.00000000000E+00 0.  1.
</event>
<event>
 5    1  0.1724235E-003  0.9118800E+02  0.7818608E-02  0.1130116E+00
         25   -1    0    0    0    0  0.00000000000E+00  0.00000000000E+00  0.99999998245E-14  0.12500000000E+03  0.12500000000E+03 0.  0.
        -13    1    3    3    0    0  0.10649676422E+02 -0.32706061305E+02  0.13991117703E+02  0.37133066027E+02  0.10566000000E+00 0. -1.
         23    2    1    0    0    0 -0.17301434661E+02  0.47721610512E+01 -0.22340274723E+02  0.96343394529E+02  0.91982871407E+02 0.  0.
         13    1    3    3    0    0 -0.27951111083E+02  0.37478222356E+02 -0.36331392426E+02  0.59210328502E+02  0.10566000000E+00 0.  1.
         22    1    1    0    0    0  0.17301434661E+02 -0.47721610512E+01  0.22340274723E+02  0.28656605471E+02  0.00000000000E+00 0.  1.
</event>
<event>
 5    1  0.1724235E-003  0.9118800E+02  0.7818608E-02  0.1130116E+00
         25   -1    0    0    0    0  0.00000000000E+00  0.00000000000E+00  0.99999998245E-14  0.12500000000E+03  0.12500000000E+03 0.  0.
        -13    1    3    3    0    0  0.55583109487E+02 -0.39505408025E+01 -0.47663281624E+01  0.55926897653E+02  0.10566000000E+00 0.  1.
         23    2    1    0    0    0  0.22171073152E+02  0.18096495779E+02  0.96034778926E+00  0.96365022926E+02  0.92012258593E+02 0.  0.
         13    1    3    3    0    0 -0.33412036335E+02  0.22047036581E+02  0.57266759517E+01  0.40438125273E+02  0.10566000000E+00 0. -1.
         22    1    1    0    0    0 -0.22171073152E+02 -0.18096495779E+02 -0.96034778926E+00  0.28634977074E+02  0.00000000000E+00 0.  1.
</event>
<event>
 5    1  0.1724235E-003  0.9118800E+02  0.7818608E-02  0.1130116E+00
         25   -1    0    0    0    0  0.00000000000E+00  0.00000000000E+00  0.99999998245E-14  0.12500000000E+03  0.12500000000E+03 0.  0.
        -13    1    3    3    0    0  0.21739692632E+02 -0.11591193462E+01 -0.30797971380E+02  0.37715832201E+02  0.10566000000E+00 0. -1.
         23    2    1    0    0    0 -0.55906745088E+01  0.80078407491E+01  0.23699081126E+02  0.99367450358E+02  0.96004492548E+02 0.  0.
         13    1    3    3    0    0 -0.27330367141E+02  0.91669600952E+01  0.54497052507E+02  0.61651618157E+02  0.10566000000E+00 0.  1.
         22    1    1    0    0    0  0.55906745088E+01 -0.80078407491E+01 -0.23699081126E+02  0.25632549642E+02  0.00000000000E+00 0.  1.
</event>
<event>
 5    1  0.1724235E-003  0.9118800E+02  0.7818608E-02  0.1130116E+00
         25   -1    0    0    0    0  0.00000000000E+00  0.00000000000E+00  0.99999998245E-14  0.12500000000E+03  0.12500000000E+03 0.  0.
        -13    1    3    3    0    0  0.32556821694E+02  0.30881983624E+02  0.37554587989E+02  0.58514970686E+02  0.10566000000E+00 0.  1.
         23    2    1    0    0    0  0.60893291436E+01  0.87675598839E+01  0.29067716186E+02  0.94034177550E+02  0.88789325864E+02 0.  0.
         13    1    3    3    0    0 -0.26467492550E+02 -0.22114423740E+02 -0.84868718023E+01  0.35519206864E+02  0.10566000000E+00 0. -1.
         22    1    1    0    0    0 -0.60893291436E+01 -0.87675598839E+01 -0.29067716186E+02  0.30965822450E+02  0.00000000000E+00 0.  1.
</event>
<event>
 5    1  0.1724235E-003  0.9118800E+02  0.7818608E-02  0.1130116E+00
         25   -1    0    0    0    0  0.00000000000E+00  0.00000000000E+00  0.99999998245E-14  0.12500000000E+03  0.12500000000E+03 0.  0.
        -13    1    3    3    0    0  0.20170707612E+02 -0.29492437620E+02  0.53849249431E+01  0.36134054616E+02  0.10566000000E+00 0. -1.
         23    2    1    0    0    0 -0.22434925258E+02  0.14313551311E+02  0.77322258657E+01  0.97287350554E+02  0.93256836954E+02 0.  0.
         13    1    3    3    0    0 -0.42605632870E+02  0.43805988931E+02  0.23473009226E+01  0.61153295938E+02  0.10566000000E+00 0.  1.
         22    1    1    0    0    0  0.22434925258E+02 -0.14313551311E+02 -0.77322258657E+01  0.27712649446E+02  0.00000000000E+00 0.  1.
</event>
<event>
 5    1  0.1724235E-003  0.9118800E+02  0.7818608E-02  0.1130116E+00
         25   -1    0    0    0    0  0.00000000000E+00  0.00000000000E+00  0.99999998245E-14  0.12500000000E+03  0.12500000000E+03 0.  0.
        -13    1    3    3    0    0  0.23651680653E+02 -0.10421015736E+02 -0.35630213043E+01  0.26090340196E+02  0.10566000000E+00 0.  1.
         23    2    1    0    0    0 -0.10708093494E+02 -0.22363650419E+02 -0.40231679529E+02  0.77741305942E+02  0.61727842062E+02 0.  0.
         13    1    3    3    0    0 -0.34359774146E+02 -0.11942634683E+02 -0.36668658225E+02  0.51650965747E+02  0.10566000000E+00 0. -1.
         22    1    1    0    0    0  0.10708093494E+02  0.22363650419E+02  0.40231679529E+02  0.47258694058E+02  0.00000000000E+00 0. -1.
</event>
<event>
 5    1  0.1724235E-003  0.9118800E+02  0.7818608E-02  0.1130116E+00
         25   -1    0    0    0    0  0.00000000000E+00  0.00000000000E+00  0.99999998245E-14  0.12500000000E+03  0.12500000000E+03 0.  0.
        -13    1    3    3    0    0  0.47648563907E+02  0.12118829703E+02  0.27458060176E+02  0.56313478923E+02  0.10566000000E+00 0.  1.
         23    2    1    0    0    0  0.11351332093E+02  0.20102815019E+02  0.20502780622E+02  0.94123796781E+02  0.88915404713E+02 0.  0.
         13    1    3    3    0    0 -0.36297231813E+02  0.79839853157E+01 -0.69552795542E+01  0.37810317858E+02  0.10566000000E+00 0. -1.
         22    1    1    0    0    0 -0.11351332093E+02 -0.20102815019E+02 -0.20502780622E+02  0.30876203219E+02  0.00000000000E+00 0.  1.
</event>
<event>
 5    1  0.1724235E-003  0.9118800E+02  0.7818608E-02  0.1130116E+00
         25   -1    0    0    0    0  0.00000000000E+00  0.00000000000E+00  0.99999998245E-14  0.12500000000E+03  0.12500000000E+03 0.  0.
        -13    1    3    3    0    0  0.52936477457E+02 -0.61564009899E+01  0.26735881530E+02  0.59623740607E+02  0.10566000000E+00 0.  1.
         23    2    1    0    0    0  0.19806585850E+02 -0.94120304762E+01  0.23160650280E+02  0.93104814124E+02  0.87471158281E+02 0.  0.
         13    1    3    3    0    0 -0.33129891608E+02 -0.32556294863E+01 -0.35752312507E+01  0.33481073517E+02  0.10566000000E+00 0. -1.
         22    1    1    0    0    0 -0.19806585850E+02  0.94120304762E+01 -0.23160650280E+02  0.31895185876E+02  0.00000000000E+00 0.  1.
</event>
<event>
 5    1  0.1724235E-003  0.9118800E+02  0.7818608E-02  0.1130116E+00
         25   -1    0    0    0    0  0.00000000000E+00  0.00000000000E+00  0.99999998245E-14  0.12500000000E+03  0.12500000000E+03 0.  0.
        -13    1    3    3    0    0 -0.29400707999E+02 -0.38107438215E+02  0.33760660279E+02  0.58790916175E+02  0.10566000000E+00 0. -1.
         23    2    1    0    0    0 -0.65032599824E+01 -0.27885318280E+02  0.68808176074E+01  0.95551247617E+02  0.90900010474E+02 0.  0.
         13    1    3    3    0    0  0.22897448017E+02  0.10222119934E+02 -0.26879842672E+02  0.36760331442E+02  0.10566000000E+00 0.  1.
         22    1    1    0    0    0  0.65032599824E+01  0.27885318280E+02 -0.68808176074E+01  0.29448752383E+02  0.00000000000E+00 0. -1.
</event>
<event>
 5    1  0.1724235E-003  0.9118800E+02  0.7818608E-02  0.1130116E+00
         25   -1    0    0    0    0  0.00000000000E+00  0.00000000000E+00  0.99999998245E-14  0.12500000000E+03  0.12500000000E+03 0.  0.
        -13    1    3    3    0    0 -0.26155033342E+02  0.13809422939E+02 -0.25786875071E+02  0.39239776006E+02  0.10566000000E+00 0.  1.
         23    2    1    0    0    0  0.26286210884E+02  0.11768673869E+02 -0.46073938692E+01  0.95833329886E+02  0.91287088197E+02 0.  0.
         13    1    3    3    0    0  0.52441244226E+02 -0.20407490697E+01  0.21179481202E+02  0.56593553880E+02  0.10566000000E+00 0. -1.
         22    1    1    0    0    0 -0.26286210884E+02 -0.11768673869E+02  0.46073938692E+01  0.29166670114E+02  0.00000000000E+00 0. -1.
</event>
<event>
 5    1  0.1724235E-003  0.9118800E+02  0.7818608E-02  0.1130116E+00
         25   -1    0    0    0    0  0.00000000000E+00  0.00000000000E+00  0.99999998245E-14  0.12500000000E+03  0.12500000000E+03 0.  0.
        -13    1    3    3    0    0  0.22487613895E+02 -0.25904851968E+01  0.52774902357E+02  0.57424775795E+02  0.10566000000E+00 0. -1.
         23    2    1    0    0    0  0.14587099603E+02 -0.18359339902E+02  0.22272695787E+02  0.92659285505E+02  0.86832144832E+02 0.  0.
         13    1    3    3    0    0 -0.79005142924E+01 -0.15768854705E+02 -0.30502206570E+02  0.35234509710E+02  0.10566000000E+00 0.  1.
         22    1    1    0    0    0 -0.14587099603E+02  0.18359339902E+02 -0.22272695787E+02  0.32340714495E+02  0.00000000000E+00 0. -1.
</event>
<event>
 5    1  0.1724235E-003  0.9118800E+02  0.7818608E-02  0.1130116E+00
         25   -1    0    0    0    0  0.00000000000E+00  0.00000000000E+00  0.99999998245E-14  0.12500000000E+03  0.12500000000E+03 0.  0.
        -13    1    3    3    0    0  0.35562526434E+02  0.85176785764E+01  0.91769579108E+01  0.37702411796E+02  0.10566000000E+00 0.  1.
         23    2    1    0    0    0 -0.22467544169E+02  0.89449460312E+01  0.15803655236E+02  0.96111280414E+02  0.91666897534E+02 0.  0.
         13    1    3    3    0    0 -0.58030070603E+02  0.42726745478E+00  0.66266973257E+01  0.58408868618E+02  0.10566000000E+00 0. -1.
         22    1    1    0    0    0  0.22467544169E+02 -0.89449460312E+01 -0.15803655236E+02  0.28888719586E+02  0.00000000000E+00 0. -1.
</event>
<event>
 5    1  0.1724235E-003  0.9118800E+02  0.7818608E-02  0.1130116E+00
         25   -1    0    0    0    0  0.00000000000E+00  0.00000000000E+00  0.99999998245E-14  0.12500000000E+03  0.12500000000E+03 0.  0.
        -13    1    3    3    0    0 -0.29379709339E+02  0.37730721660E+02  0.19044664507E+02  0.51473149195E+02  0.10566000000E+00 0. -1.
         23    2    1    0    0    0 -0.25782968125E+02  0.78310863994E+01 -0.12683627654E+02  0.95218096602E+02  0.90440721749E+02 0.  0.
         13    1    3    3    0    0  0.35967412137E+01 -0.29899635261E+02 -0.31728292162E+02  0.43744947407E+02  0.10566000000E+00 0.  1.
         22    1    1    0    0    0  0.25782968125E+02 -0.78310863994E+01  0.12683627654E+02  0.29781903398E+02  0.00000000000E+00 0. -1.
</event>
<event>
 5    1  0.1724235E-003  0.9118800E+02  0.7818608E-02  0.1130116E+00
         25   -1    0    0    0    0  0.00000000000E+00  0.00000000000E+00  0.99999998245E-14  0.12500000000E+03  0.12500000000E+03 0.  0.
        -13    1    3    3    0    0 -0.30171474561E+02  0.22904301790E+02 -0.50619350259E+01  0.38217264004E+02  0.10566000000E+00 0. -1.
         23    2    1    0    0    0  0.11587342447E+02 -0.19730218902E+01  0.26388428843E+02  0.96112139277E+02  0.91668068700E+02 0.  0.
         13    1    3    3    0    0  0.41758817008E+02 -0.24877323681E+02  0.31450363869E+02  0.57894875273E+02  0.10566000000E+00 0.  1.
         22    1    1    0    0    0 -0.11587342447E+02  0.19730218902E+01 -0.26388428843E+02  0.28887860723E+02  0.00000000000E+00 0.  1.
</event>
<event>
 5    1  0.1724235E-003  0.9118800E+02  0.7818608E-02  0.1130116E+00
         25   -1    0    0    0    0  0.00000000000E+00  0.00000000000E+00  0.99999998245E-14  0.12500000000E+03  0.12500000000E+03 0.  0.
        -13    1    3    3    0    0  0.30920800052E+02  0.27510762245E+02 -0.19297378842E+02  0.45665500209E+02  0.10566000000E+00 0. -1.
         23    2    1    0    0    0  0.22101074022E+02 -0.19138202232E+02 -0.43243567185E+01  0.95446179289E+02  0.90755412082E+02 0.  0.
         13    1    3    3    0    0 -0.88197260298E+01 -0.46648964477E+02  0.14973022124E+02  0.49780679079E+02  0.10566000000E+00 0.  1.
         22    1    1    0    0    0 -0.22101074022E+02  0.19138202232E+02  0.43243567185E+01  0.29553820711E+02  0.00000000000E+00 0.  1.
</event>
<event>
 5    1  0.1724235E-003  0.9118800E+02  0.7818608E-02  0.1130116E+00
         25   -1    0    0    0    0  0.00000000000E+00  0.00000000000E+00  0.99999998245E-14  0.12500000000E+03  0.12500000000E+03 0.  0.
        -13    1    3    3    0    0  0.27169855707E+02 -0.18591401297E+02 -0.23391986803E+02  0.40386104937E+02  0.10566000000E+00 0. -1.
         23    2    1    0    0    0  0.33793685239E+01  0.28227214903E+02 -0.43919344138E+01  0.96233963070E+02  0.91834039264E+02 0.  0.
         13    1    3    3    0    0 -0.23790487183E+02  0.46818616199E+02  0.19000052389E+02  0.55847858133E+02  0.10566000000E+00 0.  1.
         22    1    1    0    0    0 -0.33793685239E+01 -0.28227214903E+02  0.43919344138E+01  0.28766036930E+02  0.00000000000E+00 0.  1.
</event>
<event>
 5    1  0.1724235E-003  0.9118800E+02  0.7818608E-02  0.1130116E+00
         25   -1    0    0    0    0  0.00000000000E+00  0.00000000000E+00  0.99999998245E-14  0.12500000000E+03  0.12500000000E+03 0.  0.
        -13    1    3    3    0    0  0.35919949784E+02  0.39209247711E+02  0.97769984333E+01  0.54066706585E+02  0.10566000000E+00 0. -1.
         23    2    1    0    0    0  0.32104237707E+02  0.22212824603E+01 -0.10710378867E+01  0.92801191068E+02  0.87036186537E+02 0.  0.
         13    1    3    3    0    0 -0.38157120771E+01 -0.36987965251E+02 -0.10848036320E+02  0.38734484482E+02  0.10566000000E+00 0.  1.
         22    1    1    0    0    0 -0.32104237707E+02 -0.22212824603E+01  0.10710378867E+01  0.32198808932E+02  0.00000000000E+00 0. -1.
</event>
<event>
 5    1  0.1724235E-003  0.9118800E+02  0.7818608E-02  0.1130116E+00
         25   -1    0    0    0    0  0.00000000000E+00  0.00000000000E+00  0.99999998245E-14  0.12500000000E+03  0.12500000000E+03 0.  0.
        -13    1    3    3    0    0 -0.31696117414E+02 -0.15511639444E+02 -0.10754158407E+02  0.36890620820E+02  0.10566000000E+00 0. -1.
         23    2    1    0    0    0  0.25975899241E+02 -0.13187330685E+02  0.12374760520E+01  0.95842078624E+02  0.91299067115E+02 0.  0.
         13    1    3    3    0    0  0.57672016655E+02  0.23243087596E+01  0.11991634459E+02  0.58951457805E+02  0.10566000000E+00 0.  1.
         22    1    1    0    0    0 -0.25975899241E+02  0.13187330685E+02 -0.12374760520E+01  0.29157921376E+02  0.00000000000E+00 0.  1.
</event>
<event>
 5    1  0.1724235E-003  0.9118800E+02  0.7818608E-02  0.1130116E+00
         25   -1    0    0    0    0  0.00000000000E+00  0.00000000000E+00  0.99999998245E-14  0.12500000000E+03  0.12500000000E+03 0.  0.
        -13    1    3    3    0    0  0.19655840700E+02  0.28524420867E+02 -0.15926958519E+01  0.34677694611E+02  0.10566000000E+00 0.  1.
         23    2    1    0    0    0 -0.28979005875E+01 -0.27573201938E+02  0.85548301264E+01  0.95985100182E+02  0.91494672225E+02 0.  0.
         13    1    3    3    0    0 -0.22553741288E+02 -0.56097622805E+02  0.10147525978E+02  0.61307405572E+02  0.10566000000E+00 0. -1.
         22    1    1    0    0    0  0.28979005875E+01  0.27573201938E+02 -0.85548301264E+01  0.29014899818E+02  0.00000000000E+00 0. -1.
</event>
<event>
 5    1  0.1724235E-003  0.9118800E+02  0.7818608E-02  0.1130116E+00
         25   -1    0    0    0    0  0.00000000000E+00  0.00000000000E+00  0.99999998245E-14  0.12500000000E+03  0.12500000000E+03 0.  0.
        -13    1    3    3    0    0  0.51103385464E+02 -0.15073460896E+02  0.62702245706E+01  0.53647852795E+02  0.10566000000E+00 0. -1.
         23    2    1    0    0    0  0.16165283104E+02  0.50252827728E+01  0.22280518598E+02  0.97018017337E+02  0.92895125460E+02 0.  0.
         13    1    3    3    0    0 -0.34938102360E+02  0.20098743669E+02  0.16010294027E+02  0.43370164542E+02  0.10566000000E+00 0.  1.
         22    1    1    0    0    0 -0.16165283104E+02 -0.50252827728E+01 -0.22280518598E+02  0.27981982663E+02  0.00000000000E+00 0. -1.
</event>
<event>
 5    1  0.1724235E-003  0.9118800E+02  0.7818608E-02  0.1130116E+00
         25   -1    0    0    0    0  0.00000000000E+00  0.00000000000E+00  0.99999998245E-14  0.12500000000E+03  0.12500000000E+03 0.  0.
        -13    1    3    3    0    0  0.19515475129E+02  0.44593322880E+02  0.11253776860E+02  0.49960753323E+02  0.10566000000E+00 0. -1.
         23    2    1    0    0    0 -0.14297104846E+02  0.24006395340E+02 -0.10523968606E+02  0.95142536286E+02  0.90336227902E+02 0.  0.
         13    1    3    3    0    0 -0.33812579975E+02 -0.20586927540E+02 -0.21777745466E+02  0.45181782963E+02  0.10566000000E+00 0.  1.
         22    1    1    0    0    0  0.14297104846E+02 -0.24006395340E+02  0.10523968606E+02  0.29857463714E+02  0.00000000000E+00 0.  1.
</event>
<event>
 5    1  0.1724235E-003  0.9118800E+02  0.7818608E-02  0.1130116E+00
         25   -1    0    0    0    0  0.00000000000E+00  0.00000000000E+00  0.99999998245E-14  0.12500000000E+03  0.12500000000E+03 0.  0.
        -13    1    3    3    0    0 -0.24800146801E+02 -0.43016675643E+02 -0.24473503160E+02  0.55357431169E+02  0.10566000000E+00 0.  1.
         23    2    1    0    0    0 -0.26059705801E+02 -0.46268619662E+01 -0.66039655844E+01  0.97721281563E+02  0.93836668690E+02 0.  0.
         13    1    3    3    0    0 -0.12595590006E+01  0.38389813677E+02  0.17869537576E+02  0.42363850394E+02  0.10566000000E+00 0. -1.
         22    1    1    0    0    0  0.26059705801E+02  0.46268619662E+01  0.66039655844E+01  0.27278718437E+02  0.00000000000E+00 0.  1.
</event>
<event>
 5    1  0.1724235E-003  0.9118800E+02  0.7818608E-02  0.1130116E+00
         25   -1    0    0    0    0  0.00000000000E+00  0.00000000000E+00  0.99999998245E-14  0.12500000000E+03  0.12500000000E+03 0.  0.
        -13    1    3    3    0    0  0.50677255893E+02 -0.15896007187E+02 -0.27338626274E+02  0.59735073114E+02  0.10566000000E+00 0.  1.
         23    2    1    0    0    0  0.26012911059E+02  0.24837525949E+01 -0.35321701172E+01  0.98631139682E+02  0.95040964434E+02 0.  0.
         13    1    3    3    0    0 -0.24664344834E+02  0.18379759782E+02  0.23806456157E+02  0.38896066568E+02  0.10566000000E+00 0. -1.
         22    1    1    0    0    0 -0.26012911059E+02 -0.24837525949E+01  0.35321701172E+01  0.26368860318E+02  0.00000000000E+00 0.  1.
</event>
<event>
 5    1  0.1724235E-003  0.9118800E+02  0.7818608E-02  0.1130116E+00
         25   -1    0    0    0    0  0.00000000000E+00  0.00000000000E+00  0.99999998245E-14  0.12500000000E+03  0.12500000000E+03 0.  0.
        -13    1    3    3    0    0  0.32945658225E+02  0.32929701249E+02  0.39508946879E+02  0.61079863030E+02  0.10566000000E+00 0.  1.
         23    2    1    0    0    0  0.11474849972E+02  0.23064085447E+02  0.14703987563E+02  0.95338046766E+02  0.90606355690E+02 0.  0.
         13    1    3    3    0    0 -0.21470808253E+02 -0.98656158022E+01 -0.24804959316E+02  0.34258183736E+02  0.10566000000E+00 0. -1.
         22    1    1    0    0    0 -0.11474849972E+02 -0.23064085447E+02 -0.14703987563E+02  0.29661953234E+02  0.00000000000E+00 0.  1.
</event>
<event>
 5    1  0.1724235E-003  0.9118800E+02  0.7818608E-02  0.1130116E+00
         25   -1    0    0    0    0  0.00000000000E+00  0.00000000000E+00  0.99999998245E-14  0.12500000000E+03  0.12500000000E+03 0.  0.
        -13    1    3    3    0    0 -0.23148253222E+01 -0.36405782547E+02 -0.46013044954E+01  0.36768499918E+02  0.10566000000E+00 0. -1.
         23    2    1    0    0    0  0.90802460637E+01  0.56078777783E+00  0.33032362840E+02  0.90737741663E+02  0.84020446416E+02 0.  0.
         13    1    3    3    0    0  0.11395071386E+02  0.36966570324E+02  0.37633667336E+02  0.53969241746E+02  0.10566000000E+00 0.  1.
         22    1    1    0    0    0 -0.90802460637E+01 -0.56078777783E+00 -0.33032362840E+02  0.34262258337E+02  0.00000000000E+00 0.  1.
</event>
<event>
 5    1  0.1724235E-003  0.9118800E+02  0.7818608E-02  0.1130116E+00
         25   -1    0    0    0    0  0.00000000000E+00  0.00000000000E+00  0.99999998245E-14  0.12500000000E+03  0.12500000000E+03 0.  0.
        -13    1    3    3    0    0 -0.11300582447E+02 -0.20713627976E+02 -0.33306634389E+02  0.40817895658E+02  0.10566000000E+00 0.  1.
         23    2    1    0    0    0  0.11412488284E+02  0.24325168233E+02 -0.11306036997E+02  0.95848925046E+02  0.91308440253E+02 0.  0.
         13    1    3    3    0    0  0.22713070730E+02  0.45038796209E+02  0.22000597392E+02  0.55031029389E+02  0.10566000000E+00 0. -1.
         22    1    1    0    0    0 -0.11412488284E+02 -0.24325168233E+02  0.11306036997E+02  0.29151074954E+02  0.00000000000E+00 0. -1.
</event>
<event>
 5    1  0.1724235E-003  0.9118800E+02  0.7818608E-02  0.1130116E+00
         25   -1    0    0    0    0  0.00000000000E+00  0.00000000000E+00  0.99999998245E-14  0.12500000000E+03  0.12500000000E+03 0.  0.
        -13    1    3    3    0    0 -0.17387396028E+01  0.57536965142E+01 -0.55072455770E+02  0.55399591944E+02  0.10566000000E+00 0. -1.
         23    2    1    0    0    0  0.62419816428E+00 -0.17669967902E+02 -0.15297317472E+02  0.10161998052E+03  0.98893857899E+02 0.  0.
         13    1    3    3    0    0  0.23629377670E+01 -0.23423664416E+02  0.39775138298E+02  0.46220388577E+02  0.10566000000E+00 0.  1.
         22    1    1    0    0    0 -0.62419816428E+00  0.17669967902E+02  0.15297317472E+02  0.23380019479E+02  0.00000000000E+00 0. -1.
</event>
<event>
 5    1  0.1724235E-003  0.9118800E+02  0.7818608E-02  0.1130116E+00
         25   -1    0    0    0    0  0.00000000000E+00  0.00000000000E+00  0.99999998245E-14  0.12500000000E+03  0.12500000000E+03 0.  0.
        -13    1    3    3    0    0 -0.39354952560E+02  0.71760341064E+01  0.11811578076E+02  0.41711296998E+02  0.10566000000E+00 0.  1.
         23    2    1    0    0    0  0.16131288400E+02  0.10868466718E+02  0.19031544860E+02  0.97787103536E+02  0.93924309334E+02 0.  0.
         13    1    3    3    0    0  0.55486240960E+02  0.36924326115E+01  0.72199667835E+01  0.56075806538E+02  0.10566000000E+00 0. -1.
         22    1    1    0    0    0 -0.16131288400E+02 -0.10868466718E+02 -0.19031544860E+02  0.27212896464E+02  0.00000000000E+00 0. -1.
</event>
<event>
 5    1  0.1724235E-003  0.9118800E+02  0.7818608E-02  0.1130116E+00
         25   -1    0    0    0    0  0.00000000000E+00  0.00000000000E+00  0.99999998245E-14  0.12500000000E+03  0.12500000000E+03 0.  0.
        -13    1    3    3    0    0 -0.60737324697E+02 -0.23884696550E+01 -0.53561165884E+01  0.61019886493E+02  0.10566000000E+00 0.  1.
         23    2    1    0    0    0 -0.28129155887E+02 -0.10445412464E+02 -0.47937590436E+01  0.94613552722E+02  0.89601273319E+02 0.  0.
         13    1    3    3    0    0  0.32608168811E+02 -0.80569428088E+01  0.56235754478E+00  0.33593666228E+02  0.10566000000E+00 0. -1.
         22    1    1    0    0    0  0.28129155887E+02  0.10445412464E+02  0.47937590436E+01  0.30386447278E+02  0.00000000000E+00 0.  1.
</event>
<event>
 5    1  0.1724235E-003  0.9118800E+02  0.7818608E-02  0.1130116E+00
         25   -1    0    0    0    0  0.00000000000E+00  0.00000000000E+00  0.99999998245E-14  0.12500000000E+03  0.12500000000E+03 0.  0.
        -13    1    3    3    0    0 -0.41216520011E+01  0.37052504273E+01 -0.33594196951E+02  0.34048467348E+02  0.10566000000E+00 0. -1.
         23    2    1    0    0    0 -0.14822319805E+02 -0.31587507576E+01  0.25957559942E+02  0.94942159277E+02  0.90058535516E+02 0.  0.
         13    1    3    3    0    0 -0.10700667804E+02 -0.68640011849E+01  0.59551756893E+02  0.60893691929E+02  0.10566000000E+00 0.  1.
         22    1    1    0    0    0  0.14822319805E+02  0.31587507576E+01 -0.25957559942E+02  0.30057840723E+02  0.00000000000E+00 0.  1.
</event>
<event>
 5    1  0.1724235E-003  0.9118800E+02  0.7818608E-02  0.1130116E+00
         25   -1    0    0    0    0  0.00000000000E+00  0.00000000000E+00  0.99999998245E-14  0.12500000000E+03  0.12500000000E+03 0.  0.
        -13    1    3    3    0    0  0.30083286643E+02 -0.26919283571E+01 -0.26065464641E+02  0.39895741934E+02  0.10566000000E+00 0.  1.
         23    2    1    0    0    0 -0.14935851623E+02 -0.26229029603E+02 -0.85971842684E+01  0.93616035385E+02  0.88198689595E+02 0.  0.
         13    1    3    3    0    0 -0.45019138266E+02 -0.23537101246E+02  0.17468280372E+02  0.53720293451E+02  0.10566000000E+00 0. -1.
         22    1    1    0    0    0  0.14935851623E+02  0.26229029603E+02  0.85971842684E+01  0.31383964615E+02  0.00000000000E+00 0. -1.
</event>
<event>
 5    1  0.1724235E-003  0.9118800E+02  0.7818608E-02  0.1130116E+00
         25   -1    0    0    0    0  0.00000000000E+00  0.00000000000E+00  0.99999998245E-14  0.12500000000E+03  0.12500000000E+03 0.  0.
        -13    1    3    3    0    0  0.51178400116E+02  0.81367698393E+01  0.16015243050E+02  0.54239605786E+02  0.10566000000E+00 0.  1.
         23    2    1    0    0    0  0.14455916658E+02 -0.15177424982E+01  0.27487982415E+02  0.93905527083E+02  0.88608023173E+02 0.  0.
         13    1    3    3    0    0 -0.36722483457E+02 -0.96545123375E+01  0.11472739366E+02  0.39665921297E+02  0.10566000000E+00 0. -1.
         22    1    1    0    0    0 -0.14455916658E+02  0.15177424982E+01 -0.27487982415E+02  0.31094472917E+02  0.00000000000E+00 0.  1.
</event>
<event>
 5    1  0.1724235E-003  0.9118800E+02  0.7818608E-02  0.1130116E+00
         25   -1    0    0    0    0  0.00000000000E+00  0.00000000000E+00  0.99999998245E-14  0.12500000000E+03  0.12500000000E+03 0.  0.
        -13    1    3    3    0    0  0.24337842911E+02 -0.24812166507E+02  0.43840619732E+01  0.35031491086E+02  0.10566000000E+00 0.  1.
         23    2    1    0    0    0 -0.29785956354E+02  0.78620200345E+00 -0.13179279850E+01  0.95174536991E+02  0.90380497055E+02 0.  0.
         13    1    3    3    0    0 -0.54123799264E+02  0.25598368510E+02 -0.57019899582E+01  0.60143045905E+02  0.10566000000E+00 0. -1.
         22    1    1    0    0    0  0.29785956354E+02 -0.78620200345E+00  0.13179279850E+01  0.29825463009E+02  0.00000000000E+00 0. -1.
</event>
<event>
 5    1  0.1724235E-003  0.9118800E+02  0.7818608E-02  0.1130116E+00
         25   -1    0    0    0    0  0.00000000000E+00  0.00000000000E+00  0.99999998245E-14  0.12500000000E+03  0.12500000000E+03 0.  0.
        -13    1    3    3    0    0  0.27104329292E+02  0.67942406472E+01  0.43016660171E+02  0.51295717059E+02  0.10566000000E+00 0. -1.
         23    2    1    0    0    0 -0.12038219638E+02 -0.68689788095E+01  0.24820395011E+02  0.96571957323E+02  0.92292953852E+02 0.  0.
         13    1    3    3    0    0 -0.39142548930E+02 -0.13663219457E+02 -0.18196265160E+02  0.45276240264E+02  0.10566000000E+00 0.  1.
         22    1    1    0    0    0  0.12038219638E+02  0.68689788095E+01 -0.24820395011E+02  0.28428042677E+02  0.00000000000E+00 0. -1.
</event>
<event>
 5    1  0.1724235E-003  0.9118800E+02  0.7818608E-02  0.1130116E+00
         25   -1    0    0    0    0  0.00000000000E+00  0.00000000000E+00  0.99999998245E-14  0.12500000000E+03  0.12500000000E+03 0.  0.
        -13    1    3    3    0    0  0.14981705788E+01 -0.12869107201E+02 -0.35260944896E+02  0.37565993055E+02  0.10566000000E+00 0. -1.
         23    2    1    0    0    0 -0.16840442251E+02 -0.14651392259E+02  0.19510370208E+02  0.95353443100E+02  0.90627593894E+02 0.  0.
         13    1    3    3    0    0 -0.18338612830E+02 -0.17822850582E+01  0.54771315104E+02  0.57787450046E+02  0.10566000000E+00 0.  1.
         22    1    1    0    0    0  0.16840442251E+02  0.14651392259E+02 -0.19510370208E+02  0.29646556900E+02  0.00000000000E+00 0.  1.
</event>
<event>
 5    1  0.1724235E-003  0.9118800E+02  0.7818608E-02  0.1130116E+00
         25   -1    0    0    0    0  0.00000000000E+00  0.00000000000E+00  0.99999998245E-14  0.12500000000E+03  0.12500000000E+03 0.  0.
        -13    1    3    3    0    0 -0.34700804064E+02 -0.44178602912E+02 -0.67133067493E+00  0.56181461416E+02  0.10566000000E+00 0.  1.
         23    2    1    0    0    0 -0.49160882701E+01 -0.22415287768E+02  0.16365238079E+02  0.96814293215E+02  0.92620587904E+02 0.  0.
         13    1    3    3    0    0  0.29784715794E+02  0.21763315144E+02  0.17036568754E+02  0.40632831798E+02  0.10566000000E+00 0. -1.
         22    1    1    0    0    0  0.49160882701E+01  0.22415287768E+02 -0.16365238079E+02  0.28185706785E+02  0.00000000000E+00 0.  1.
</event>
<event>
 5    1  0.1724235E-003  0.9118800E+02  0.7818608E-02  0.1130116E+00
         25   -1    0    0    0    0  0.00000000000E+00  0.00000000000E+00  0.99999998245E-14  0.12500000000E+03  0.12500000000E+03 0.  0.
        -13    1    3    3    0    0  0.16510263157E+02 -0.43028084961E+02 -0.34000683311E+02  0.57271830026E+02  0.10566000000E+00 0.  1.
         23    2    1    0    0    0  0.22773201022E+02 -0.17689118166E+02 -0.60100553609E+01  0.95544196638E+02  0.90890313892E+02 0.  0.
         13    1    3    3    0    0  0.62629378651E+01  0.25338966795E+02  0.27990627950E+02  0.38272366611E+02  0.10566000000E+00 0. -1.
         22    1    1    0    0    0 -0.22773201022E+02  0.17689118166E+02  0.60100553609E+01  0.29455803362E+02  0.00000000000E+00 0.  1.
</event>
<event>
 5    1  0.1724235E-003  0.9118800E+02  0.7818608E-02  0.1130116E+00
         25   -1    0    0    0    0  0.00000000000E+00  0.00000000000E+00  0.99999998245E-14  0.12500000000E+03  0.12500000000E+03 0.  0.
        -13    1    3    3    0    0  0.45247902571E+02 -0.11847604760E+02  0.29273731287E+02  0.55178808733E+02  0.10566000000E+00 0. -1.
         23    2    1    0    0    0  0.31112801279E+02  0.74234937095E+00 -0.41622444453E+01  0.93601245808E+02  0.88177726507E+02 0.  0.
         13    1    3    3    0    0 -0.14135101293E+02  0.12589954131E+02 -0.33435975732E+02  0.38422437075E+02  0.10566000000E+00 0.  1.
         22    1    1    0    0    0 -0.31112801279E+02 -0.74234937095E+00  0.41622444453E+01  0.31398754192E+02  0.00000000000E+00 0. -1.
</event>
<event>
 5    1  0.1724235E-003  0.9118800E+02  0.7818608E-02  0.1130116E+00
         25   -1    0    0    0    0  0.00000000000E+00  0.00000000000E+00  0.99999998245E-14  0.12500000000E+03  0.12500000000E+03 0.  0.
        -13    1    3    3    0    0  0.19179364502E+02  0.59244918906E+01  0.45787613890E+02  0.49994643480E+02  0.10566000000E+00 0. -1.
         23    2    1    0    0    0  0.26969205494E+02  0.86865320179E+01 -0.14597367939E+00  0.96666006427E+02  0.92420244572E+02 0.  0.
         13    1    3    3    0    0  0.77898409917E+01  0.27620401273E+01 -0.45933587569E+02  0.46671362947E+02  0.10566000000E+00 0.  1.
         22    1    1    0    0    0 -0.26969205494E+02 -0.86865320179E+01  0.14597367939E+00  0.28333993573E+02  0.00000000000E+00 0. -1.
</event>
<event>
 5    1  0.1724235E-003  0.9118800E+02  0.7818608E-02  0.1130116E+00
         25   -1    0    0    0    0  0.00000000000E+00  0.00000000000E+00  0.99999998245E-14  0.12500000000E+03  0.12500000000E+03 0.  0.
        -13    1    3    3    0    0 -0.47603594964E+02  0.23113860410E+02 -0.26792770203E+02  0.59314555513E+02  0.10566000000E+00 0.  1.
         23    2    1    0    0    0 -0.14376185450E+02  0.99118333550E+01 -0.24193343549E+02  0.95163160010E+02  0.90364760844E+02 0.  0.
         13    1    3    3    0    0  0.33227409514E+02 -0.13202027055E+02  0.25994266549E+01  0.35848604496E+02  0.10566000000E+00 0. -1.
         22    1    1    0    0    0  0.14376185450E+02 -0.99118333550E+01  0.24193343549E+02  0.29836839990E+02  0.00000000000E+00 0.  1.
</event>
<event>
 5    1  0.1724235E-003  0.9118800E+02  0.7818608E-02  0.1130116E+00
         25   -1    0    0    0    0  0.00000000000E+00  0.00000000000E+00  0.99999998245E-14  0.12500000000E+03  0.12500000000E+03 0.  0.
        -13    1    3    3    0    0 -0.83085187282E+01 -0.51215227872E+02  0.25452214824E+02  0.57791499833E+02  0.10566000000E+00 0. -1.
         23    2    1    0    0    0  0.64342329446E+01 -0.29083934531E+02 -0.85893368226E+00  0.95200463620E+02  0.90416347554E+02 0.  0.
         13    1    3    3    0    0  0.14742751673E+02  0.22131293341E+02 -0.26311148506E+02  0.37408963787E+02  0.10566000000E+00 0.  1.
         22    1    1    0    0    0 -0.64342329446E+01  0.29083934531E+02  0.85893368226E+00  0.29799536380E+02  0.00000000000E+00 0. -1.
</event>
<event>
 5    1  0.1724235E-003  0.9118800E+02  0.7818608E-02  0.1130116E+00
         25   -1    0    0    0    0  0.00000000000E+00  0.00000000000E+00  0.99999998245E-14  0.12500000000E+03  0.12500000000E+03 0.  0.
        -13    1    3    3    0    0  0.63423712147E+00  0.29317388233E+02 -0.15126852769E+02  0.32996126261E+02  0.10566000000E+00 0.  1.
         23    2    1    0    0    0 -0.77038360597E+00 -0.29435337194E+02  0.50334322678E+01  0.95127470696E+02  0.90315378945E+02 0.  0.
         13    1    3    3    0    0 -0.14046207274E+01 -0.58752725427E+02  0.20160285037E+02  0.62131344435E+02  0.10566000000E+00 0. -1.
         22    1    1    0    0    0  0.77038360597E+00  0.29435337194E+02 -0.50334322678E+01  0.29872529304E+02  0.00000000000E+00 0. -1.
</event>
<event>
 5    1  0.1724235E-003  0.9118800E+02  0.7818608E-02  0.1130116E+00
         25   -1    0    0    0    0  0.00000000000E+00  0.00000000000E+00  0.99999998245E-14  0.12500000000E+03  0.12500000000E+03 0.  0.
        -13    1    3    3    0    0  0.46026075333E+02  0.35707066052E+02  0.15759197059E+02  0.60346976996E+02  0.10566000000E+00 0. -1.
         23    2    1    0    0    0  0.25910449835E+02  0.19416027791E+02 -0.32456179544E+01  0.92459754430E+02  0.86544431407E+02 0.  0.
         13    1    3    3    0    0 -0.20115625498E+02 -0.16291038261E+02 -0.19004815013E+02  0.32112777434E+02  0.10566000000E+00 0.  1.
         22    1    1    0    0    0 -0.25910449835E+02 -0.19416027791E+02  0.32456179544E+01  0.32540245570E+02  0.00000000000E+00 0. -1.
</event>
<event>
 5    1  0.1724235E-003  0.9118800E+02  0.7818608E-02  0.1130116E+00
         25   -1    0    0    0    0  0.00000000000E+00  0.00000000000E+00  0.99999998245E-14  0.12500000000E+03  0.12500000000E+03 0.  0.
        -13    1    3    3    0    0  0.22929905633E+02  0.92101161572E+01  0.41059794858E+02  0.47922069339E+02  0.10566000000E+00 0. -1.
         23    2    1    0    0    0  0.35702898130E+01  0.33768615692E+02  0.21038033414E+02  0.85054221437E+02  0.75090314684E+02 0.  0.
         13    1    3    3    0    0 -0.19359615820E+02  0.24558499534E+02 -0.20021761444E+02  0.37132152098E+02  0.10566000000E+00 0.  1.
         22    1    1    0    0    0 -0.35702898130E+01 -0.33768615692E+02 -0.21038033414E+02  0.39945778563E+02  0.00000000000E+00 0. -1.
</event>
<event>
 5    1  0.1724235E-003  0.9118800E+02  0.7818608E-02  0.1130116E+00
         25   -1    0    0    0    0  0.00000000000E+00  0.00000000000E+00  0.99999998245E-14  0.12500000000E+03  0.12500000000E+03 0.  0.
        -13    1    3    3    0    0 -0.37458468781E+02 -0.35411316446E+02 -0.13643354992E+01  0.51565209117E+02  0.10566000000E+00 0.  1.
         23    2    1    0    0    0 -0.23980186083E+02  0.44664733190E+01 -0.15651447870E+02  0.96017823945E+02  0.91539368504E+02 0.  0.
         13    1    3    3    0    0  0.13478282698E+02  0.39877789765E+02 -0.14287112371E+02  0.44452614827E+02  0.10566000000E+00 0. -1.
         22    1    1    0    0    0  0.23980186083E+02 -0.44664733190E+01  0.15651447870E+02  0.28982176055E+02  0.00000000000E+00 0.  1.
</event>
<event>
 5    1  0.1724235E-003  0.9118800E+02  0.7818608E-02  0.1130116E+00
         25   -1    0    0    0    0  0.00000000000E+00  0.00000000000E+00  0.99999998245E-14  0.12500000000E+03  0.12500000000E+03 0.  0.
        -13    1    3    3    0    0 -0.26595890109E+02 -0.13733730694E+02 -0.33941279739E+02  0.45254594948E+02  0.10566000000E+00 0.  1.
         23    2    1    0    0    0 -0.22367681937E+01  0.25626496513E+02 -0.14603687787E+02  0.95419801345E+02  0.90719073718E+02 0.  0.
         13    1    3    3    0    0  0.24359121916E+02  0.39360227208E+02  0.19337591952E+02  0.50165206397E+02  0.10566000000E+00 0. -1.
         22    1    1    0    0    0  0.22367681937E+01 -0.25626496513E+02  0.14603687787E+02  0.29580198655E+02  0.00000000000E+00 0.  1.
</event>
<event>
 5    1  0.1724235E-003  0.9118800E+02  0.7818608E-02  0.1130116E+00
         25   -1    0    0    0    0  0.00000000000E+00  0.00000000000E+00  0.99999998245E-14  0.12500000000E+03  0.12500000000E+03 0.  0.
        -13    1    3    3    0    0  0.65814697621E+01  0.46257055364E+02 -0.26432170433E+02  0.53681483894E+02  0.10566000000E+00 0.  1.
         23    2    1    0    0    0  0.17712809816E+02  0.25020699097E+02  0.57458596651E+01  0.93810355594E+02  0.88473662174E+02 0.  0.
         13    1    3    3    0    0  0.11131340054E+02 -0.21236356267E+02  0.32178030098E+02  0.40128871700E+02  0.10566000000E+00 0. -1.
         22    1    1    0    0    0 -0.17712809816E+02 -0.25020699097E+02 -0.57458596651E+01  0.31189644406E+02  0.00000000000E+00 0.  1.
</event>
<event>
 5    1  0.1724235E-003  0.9118800E+02  0.7818608E-02  0.1130116E+00
         25   -1    0    0    0    0  0.00000000000E+00  0.00000000000E+00  0.99999998245E-14  0.12500000000E+03  0.12500000000E+03 0.  0.
        -13    1    3    3    0    0 -0.95156585768E+01  0.38984183757E+02  0.36258105479E+02  0.54083044647E+02  0.10566000000E+00 0.  1.
         23    2    1    0    0    0 -0.67812086284E+01 -0.22030144910E+01  0.27905963364E+02  0.96197554712E+02  0.91784468609E+02 0.  0.
         13    1    3    3    0    0  0.27344499484E+01 -0.41187198248E+02 -0.83521421153E+01  0.42114510064E+02  0.10566000000E+00 0. -1.
         22    1    1    0    0    0  0.67812086284E+01  0.22030144910E+01 -0.27905963364E+02  0.28802445288E+02  0.00000000000E+00 0.  1.
</event>
<event>
 5    1  0.1724235E-003  0.9118800E+02  0.7818608E-02  0.1130116E+00
         25   -1    0    0    0    0  0.00000000000E+00  0.00000000000E+00  0.99999998245E-14  0.12500000000E+03  0.12500000000E+03 0.  0.
        -13    1    3    3    0    0 -0.35340640099E+02 -0.20180781719E+02  0.65375087136E+01  0.41218624159E+02  0.10566000000E+00 0.  1.
         23    2    1    0    0    0  0.18549410613E+02 -0.12004672110E+02  0.17496564288E+02  0.96816271566E+02  0.92623257833E+02 0.  0.
         13    1    3    3    0    0  0.53890050712E+02  0.81761096091E+01  0.10959055574E+02  0.55597647407E+02  0.10566000000E+00 0. -1.
         22    1    1    0    0    0 -0.18549410613E+02  0.12004672110E+02 -0.17496564288E+02  0.28183728434E+02  0.00000000000E+00 0. -1.
</event>
<event>
 5    1  0.1724235E-003  0.9118800E+02  0.7818608E-02  0.1130116E+00
         25   -1    0    0    0    0  0.00000000000E+00  0.00000000000E+00  0.99999998245E-14  0.12500000000E+03  0.12500000000E+03 0.  0.
        -13    1    3    3    0    0 -0.33521099924E+02  0.49802404634E+02 -0.17224877404E+02  0.62455193643E+02  0.10566000000E+00 0. -1.
         23    2    1    0    0    0 -0.16425734788E+02  0.22247700060E+02 -0.91293749578E+01  0.95877664785E+02  0.91347776088E+02 0.  0.
         13    1    3    3    0    0  0.17095365136E+02 -0.27554704574E+02  0.80955024457E+01  0.33422471141E+02  0.10566000000E+00 0.  1.
         22    1    1    0    0    0  0.16425734788E+02 -0.22247700060E+02  0.91293749578E+01  0.29122335215E+02  0.00000000000E+00 0. -1.
</event>
<event>
 5    1  0.1724235E-003  0.9118800E+02  0.7818608E-02  0.1130116E+00
         25   -1    0    0    0    0  0.00000000000E+00  0.00000000000E+00  0.99999998245E-14  0.12500000000E+03  0.12500000000E+03 0.  0.
        -13    1    3    3    0    0 -0.58240039247E+02 -0.40056080933E+01  0.18732793397E+02  0.61309671180E+02  0.10566000000E+00 0.  1.
         23    2    1    0    0    0 -0.27244357211E+02 -0.74392057448E+01  0.20326675740E+01  0.96685189045E+02  0.92446185758E+02 0.  0.
         13    1    3    3    0    0  0.30995682035E+02 -0.34335976515E+01 -0.16700125823E+02  0.35375517865E+02  0.10566000000E+00 0. -1.
         22    1    1    0    0    0  0.27244357211E+02  0.74392057448E+01 -0.20326675740E+01  0.28314810955E+02  0.00000000000E+00 0.  1.
</event>
<event>
 5    1  0.1724235E-003  0.9118800E+02  0.7818608E-02  0.1130116E+00
         25   -1    0    0    0    0  0.00000000000E+00  0.00000000000E+00  0.99999998245E-14  0.12500000000E+03  0.12500000000E+03 0.  0.
        -13    1    3    3    0    0 -0.40066701242E+02 -0.43771255633E+02 -0.73909008825E+01  0.59798828985E+02  0.10566000000E+00 0. -1.
         23    2    1    0    0    0 -0.22861630099E+02 -0.11127125275E+02 -0.11813857441E+02  0.96963697189E+02  0.92822003304E+02 0.  0.
         13    1    3    3    0    0  0.17205071143E+02  0.32644130358E+02 -0.44229565583E+01  0.37164868204E+02  0.10566000000E+00 0.  1.
         22    1    1    0    0    0  0.22861630099E+02  0.11127125275E+02  0.11813857441E+02  0.28036302811E+02  0.00000000000E+00 0. -1.
</event>
<event>
 5    1  0.1724235E-003  0.9118800E+02  0.7818608E-02  0.1130116E+00
         25   -1    0    0    0    0  0.00000000000E+00  0.00000000000E+00  0.99999998245E-14  0.12500000000E+03  0.12500000000E+03 0.  0.
        -13    1    3    3    0    0 -0.28547120550E+02  0.29557335478E+02 -0.30604816529E+01  0.41206211720E+02  0.10566000000E+00 0. -1.
         23    2    1    0    0    0 -0.18139495830E+02 -0.21610422708E+02 -0.12279255756E+02  0.94229367889E+02  0.89063696152E+02 0.  0.
         13    1    3    3    0    0  0.10407624721E+02 -0.51167758187E+02 -0.92187741031E+01  0.53023156170E+02  0.10566000000E+00 0.  1.
         22    1    1    0    0    0  0.18139495830E+02  0.21610422708E+02  0.12279255756E+02  0.30770632111E+02  0.00000000000E+00 0.  1.
</event>
<event>
 5    1  0.1724235E-003  0.9118800E+02  0.7818608E-02  0.1130116E+00
         25   -1    0    0    0    0  0.00000000000E+00  0.00000000000E+00  0.99999998245E-14  0.12500000000E+03  0.12500000000E+03 0.  0.
        -13    1    3    3    0    0 -0.55538000096E+02 -0.16713517998E+02 -0.12524376286E+02  0.59335337733E+02  0.10566000000E+00 0. -1.
         23    2    1    0    0    0 -0.27424089042E+02 -0.10904437409E+02  0.77574063596E+01  0.94485007481E+02  0.89421763963E+02 0.  0.
         13    1    3    3    0    0  0.28113911054E+02  0.58090805886E+01  0.20281782646E+02  0.35149669748E+02  0.10566000000E+00 0.  1.
         22    1    1    0    0    0  0.27424089042E+02  0.10904437409E+02 -0.77574063596E+01  0.30514992519E+02  0.00000000000E+00 0. -1.
</event>
<event>
 5    1  0.1724235E-003  0.9118800E+02  0.7818608E-02  0.1130116E+00
         25   -1    0    0    0    0  0.00000000000E+00  0.00000000000E+00  0.99999998245E-14  0.12500000000E+03  0.12500000000E+03 0.  0.
        -13    1    3    3    0    0  0.15474043882E+02 -0.11399100355E+01  0.41731912628E+02  0.44523130220E+02  0.10566000000E+00 0. -1.
         23    2    1    0    0    0 -0.19643785284E+02  0.15892904335E+02  0.29239236002E+01  0.99563568691E+02  0.96259504325E+02 0.  0.
         13    1    3    3    0    0 -0.35117829167E+02  0.17032814371E+02 -0.38807989027E+02  0.55040438472E+02  0.10566000000E+00 0.  1.
         22    1    1    0    0    0  0.19643785284E+02 -0.15892904335E+02 -0.29239236002E+01  0.25436431309E+02  0.00000000000E+00 0.  1.
</event>
<event>
 5    1  0.1724235E-003  0.9118800E+02  0.7818608E-02  0.1130116E+00
         25   -1    0    0    0    0  0.00000000000E+00  0.00000000000E+00  0.99999998245E-14  0.12500000000E+03  0.12500000000E+03 0.  0.
        -13    1    3    3    0    0  0.27596672431E+02  0.29015925631E+02  0.42335006697E+02  0.58273186163E+02  0.10566000000E+00 0.  1.
         23    2    1    0    0    0  0.22389255827E+02  0.26969744713E+01  0.98863540421E+01  0.10037699360E+03  0.97310063204E+02 0.  0.
         13    1    3    3    0    0 -0.52074166042E+01 -0.26318951160E+02 -0.32448652655E+02  0.42103807440E+02  0.10566000000E+00 0. -1.
         22    1    1    0    0    0 -0.22389255827E+02 -0.26969744713E+01 -0.98863540421E+01  0.24623006397E+02  0.00000000000E+00 0.  1.
</event>
<event>
 5    1  0.1724235E-003  0.9118800E+02  0.7818608E-02  0.1130116E+00
         25   -1    0    0    0    0  0.00000000000E+00  0.00000000000E+00  0.99999998245E-14  0.12500000000E+03  0.12500000000E+03 0.  0.
        -13    1    3    3    0    0  0.44200270263E+02  0.34694029441E+02 -0.22840305840E+02  0.60655010552E+02  0.10566000000E+00 0.  1.
         23    2    1    0    0    0  0.24684504492E+02  0.85032782889E+01 -0.33829775460E+01  0.98673681596E+02  0.95096900049E+02 0.  0.
         13    1    3    3    0    0 -0.19515765771E+02 -0.26190751152E+02  0.19457328294E+02  0.38018671044E+02  0.10566000000E+00 0. -1.
         22    1    1    0    0    0 -0.24684504492E+02 -0.85032782889E+01  0.33829775460E+01  0.26326318404E+02  0.00000000000E+00 0.  1.
</event>
<event>
 5    1  0.1724235E-003  0.9118800E+02  0.7818608E-02  0.1130116E+00
         25   -1    0    0    0    0  0.00000000000E+00  0.00000000000E+00  0.99999998245E-14  0.12500000000E+03  0.12500000000E+03 0.  0.
        -13    1    3    3    0    0 -0.63093415612E+01  0.91740214923E+01  0.60870938949E+02  0.61880956956E+02  0.10566000000E+00 0.  1.
         23    2    1    0    0    0 -0.54063455377E+00  0.99880203639E+01  0.27938894539E+02  0.95324510711E+02  0.90587679503E+02 0.  0.
         13    1    3    3    0    0  0.57687070074E+01  0.81399887160E+00 -0.32932044410E+02  0.33443553755E+02  0.10566000000E+00 0. -1.
         22    1    1    0    0    0  0.54063455377E+00 -0.99880203639E+01 -0.27938894539E+02  0.29675489289E+02  0.00000000000E+00 0.  1.
</event>
<event>
 5    1  0.1724235E-003  0.9118800E+02  0.7818608E-02  0.1130116E+00
         25   -1    0    0    0    0  0.00000000000E+00  0.00000000000E+00  0.99999998245E-14  0.12500000000E+03  0.12500000000E+03 0.  0.
        -13    1    3    3    0    0  0.24906864873E+02 -0.16725403355E+02 -0.34098060126E+02  0.45417836845E+02  0.10566000000E+00 0. -1.
         23    2    1    0    0    0 -0.11881024836E+02 -0.25857981686E+02  0.20868052786E+00  0.96542355762E+02  0.92252853292E+02 0.  0.
         13    1    3    3    0    0 -0.36787889709E+02 -0.91325783301E+01  0.34306740654E+02  0.51124518918E+02  0.10566000000E+00 0.  1.
         22    1    1    0    0    0  0.11881024836E+02  0.25857981686E+02 -0.20868052786E+00  0.28457644238E+02  0.00000000000E+00 0.  1.
</event>
<event>
 5    1  0.1724235E-003  0.9118800E+02  0.7818608E-02  0.1130116E+00
         25   -1    0    0    0    0  0.00000000000E+00  0.00000000000E+00  0.99999998245E-14  0.12500000000E+03  0.12500000000E+03 0.  0.
        -13    1    3    3    0    0 -0.37179904424E+02  0.35923461193E+02  0.20960348136E+02  0.55786985177E+02  0.10566000000E+00 0.  1.
         23    2    1    0    0    0 -0.40403859817E+01  0.12822634358E+02  0.25233003246E+02  0.96408932801E+02  0.92071891477E+02 0.  0.
         13    1    3    3    0    0  0.33139518442E+02 -0.23100826835E+02  0.42726551104E+01  0.40621947624E+02  0.10566000000E+00 0. -1.
         22    1    1    0    0    0  0.40403859817E+01 -0.12822634358E+02 -0.25233003246E+02  0.28591067199E+02  0.00000000000E+00 0.  1.
</event>
<event>
 5    1  0.1724235E-003  0.9118800E+02  0.7818608E-02  0.1130116E+00
         25   -1    0    0    0    0  0.00000000000E+00  0.00000000000E+00  0.99999998245E-14  0.12500000000E+03  0.12500000000E+03 0.  0.
        -13    1    3    3    0    0  0.13787129221E+02 -0.97733009719E+01  0.32485835437E+02  0.36618888734E+02  0.10566000000E+00 0.  1.
         23    2    1    0    0    0 -0.23323917522E+02 -0.23070411748E+02  0.36117546389E+02  0.76207314237E+02  0.58539119905E+02 0.  0.
         13    1    3    3    0    0 -0.37111046743E+02 -0.13297110776E+02  0.36317109523E+01  0.39588425503E+02  0.10566000000E+00 0. -1.
         22    1    1    0    0    0  0.23323917522E+02  0.23070411748E+02 -0.36117546389E+02  0.48792685763E+02  0.00000000000E+00 0. -1.
</event>
<event>
 5    1  0.1724235E-003  0.9118800E+02  0.7818608E-02  0.1130116E+00
         25   -1    0    0    0    0  0.00000000000E+00  0.00000000000E+00  0.99999998245E-14  0.12500000000E+03  0.12500000000E+03 0.  0.
        -13    1    3    3    0    0 -0.10455818318E+02  0.24070072305E+02  0.20224909888E+02  0.33132320496E+02  0.10566000000E+00 0.  1.
         23    2    1    0    0    0  0.14910503967E+02 -0.19126520058E+02 -0.16863267041E+02  0.95461606791E+02  0.90776658331E+02 0.  0.
         13    1    3    3    0    0  0.25366322285E+02 -0.43196592362E+02 -0.37088176930E+02  0.62329286295E+02  0.10566000000E+00 0. -1.
         22    1    1    0    0    0 -0.14910503967E+02  0.19126520058E+02  0.16863267041E+02  0.29538393209E+02  0.00000000000E+00 0. -1.
</event>
<event>
 5    1  0.1724235E-003  0.9118800E+02  0.7818608E-02  0.1130116E+00
         25   -1    0    0    0    0  0.00000000000E+00  0.00000000000E+00  0.99999998245E-14  0.12500000000E+03  0.12500000000E+03 0.  0.
        -13    1    3    3    0    0  0.29476978387E+02 -0.43637274108E+02  0.33103257646E+02  0.62200810101E+02  0.10566000000E+00 0. -1.
         23    2    1    0    0    0  0.12915128866E+02 -0.18058594084E+02  0.18997709115E+02  0.95779693267E+02  0.91213613659E+02 0.  0.
         13    1    3    3    0    0 -0.16561849521E+02  0.25578680024E+02 -0.14105548531E+02  0.33578883166E+02  0.10566000000E+00 0.  1.
         22    1    1    0    0    0 -0.12915128866E+02  0.18058594084E+02 -0.18997709115E+02  0.29220306733E+02  0.00000000000E+00 0. -1.
</event>
<event>
 5    1  0.1724235E-003  0.9118800E+02  0.7818608E-02  0.1130116E+00
         25   -1    0    0    0    0  0.00000000000E+00  0.00000000000E+00  0.99999998245E-14  0.12500000000E+03  0.12500000000E+03 0.  0.
        -13    1    3    3    0    0  0.23476756223E+02  0.50239569868E+02  0.14806241993E+02  0.57396937455E+02  0.10566000000E+00 0.  1.
         23    2    1    0    0    0  0.11294597458E+02  0.24461176300E+02 -0.11042576464E+02  0.95882040376E+02  0.91353763436E+02 0.  0.
         13    1    3    3    0    0 -0.12182158765E+02 -0.25778393568E+02 -0.25848818457E+02  0.38485102920E+02  0.10566000000E+00 0. -1.
         22    1    1    0    0    0 -0.11294597458E+02 -0.24461176300E+02  0.11042576464E+02  0.29117959624E+02  0.00000000000E+00 0.  1.
</event>
<event>
 5    1  0.1724235E-003  0.9118800E+02  0.7818608E-02  0.1130116E+00
         25   -1    0    0    0    0  0.00000000000E+00  0.00000000000E+00  0.99999998245E-14  0.12500000000E+03  0.12500000000E+03 0.  0.
        -13    1    3    3    0    0  0.77365659376E+01 -0.35960512685E+02  0.10029154839E+02  0.38126211927E+02  0.10566000000E+00 0.  1.
         23    2    1    0    0    0  0.75709494109E+01  0.23108750196E+02  0.13294136446E+02  0.97285966110E+02  0.93254981248E+02 0.  0.
         13    1    3    3    0    0 -0.16561652678E+00  0.59069262881E+02  0.32649816074E+01  0.59159754184E+02  0.10566000000E+00 0. -1.
         22    1    1    0    0    0 -0.75709494109E+01 -0.23108750196E+02 -0.13294136446E+02  0.27714033890E+02  0.00000000000E+00 0. -1.
</event>
<event>
 5    1  0.1724235E-003  0.9118800E+02  0.7818608E-02  0.1130116E+00
         25   -1    0    0    0    0  0.00000000000E+00  0.00000000000E+00  0.99999998245E-14  0.12500000000E+03  0.12500000000E+03 0.  0.
        -13    1    3    3    0    0  0.11885044297E+02  0.10464837281E+02  0.30426540432E+02  0.34300912873E+02  0.10566000000E+00 0.  1.
         23    2    1    0    0    0 -0.25314287980E+01  0.22877599328E+02 -0.23873852517E+02  0.91837468179E+02  0.85640919220E+02 0.  0.
         13    1    3    3    0    0 -0.14416473095E+02  0.12412762047E+02 -0.54300392948E+02  0.57536555306E+02  0.10566000000E+00 0. -1.
         22    1    1    0    0    0  0.25314287980E+01 -0.22877599328E+02  0.23873852517E+02  0.33162531821E+02  0.00000000000E+00 0. -1.
</event>
<event>
 5    1  0.1724235E-003  0.9118800E+02  0.7818608E-02  0.1130116E+00
         25   -1    0    0    0    0  0.00000000000E+00  0.00000000000E+00  0.99999998245E-14  0.12500000000E+03  0.12500000000E+03 0.  0.
        -13    1    3    3    0    0  0.19178943345E+02 -0.37862633310E+02  0.16111347473E+02  0.45398210873E+02  0.10566000000E+00 0.  1.
         23    2    1    0    0    0  0.12444887885E+02 -0.10374824812E+02 -0.24939793347E+02  0.95259362540E+02  0.90497738287E+02 0.  0.
         13    1    3    3    0    0 -0.67340554606E+01  0.27487808499E+02 -0.41051140819E+02  0.49861151667E+02  0.10566000000E+00 0. -1.
         22    1    1    0    0    0 -0.12444887885E+02  0.10374824812E+02  0.24939793347E+02  0.29740637460E+02  0.00000000000E+00 0. -1.
</event>
<event>
 5    1  0.1724235E-003  0.9118800E+02  0.7818608E-02  0.1130116E+00
         25   -1    0    0    0    0  0.00000000000E+00  0.00000000000E+00  0.99999998245E-14  0.12500000000E+03  0.12500000000E+03 0.  0.
        -13    1    3    3    0    0  0.59176683080E+01 -0.61691720415E+02  0.72113586304E+01  0.62393124808E+02  0.10566000000E+00 0.  1.
         23    2    1    0    0    0  0.52498741404E+01 -0.29178600658E+02  0.25907038880E+01  0.95239898160E+02  0.90470849118E+02 0.  0.
         13    1    3    3    0    0 -0.66779416760E+00  0.32513119757E+02 -0.46206547424E+01  0.32846773352E+02  0.10566000000E+00 0. -1.
         22    1    1    0    0    0 -0.52498741404E+01  0.29178600658E+02 -0.25907038880E+01  0.29760101840E+02  0.00000000000E+00 0.  1.
</event>
<event>
 5    1  0.1724235E-003  0.9118800E+02  0.7818608E-02  0.1130116E+00
         25   -1    0    0    0    0  0.00000000000E+00  0.00000000000E+00  0.99999998245E-14  0.12500000000E+03  0.12500000000E+03 0.  0.
        -13    1    3    3    0    0 -0.40203801669E+02  0.61790397708E+01 -0.39059534177E+02  0.56393125249E+02  0.10566000000E+00 0.  1.
         23    2    1    0    0    0 -0.25820234045E+02 -0.13613783396E+02 -0.10549505042E+02  0.93962737861E+02  0.88688694123E+02 0.  0.
         13    1    3    3    0    0  0.14383567624E+02 -0.19792823167E+02  0.28510029135E+02  0.37569612612E+02  0.10566000000E+00 0. -1.
         22    1    1    0    0    0  0.25820234045E+02  0.13613783396E+02  0.10549505042E+02  0.31037262139E+02  0.00000000000E+00 0.  1.
</event>
<event>
 5    1  0.1724235E-003  0.9118800E+02  0.7818608E-02  0.1130116E+00
         25   -1    0    0    0    0  0.00000000000E+00  0.00000000000E+00  0.99999998245E-14  0.12500000000E+03  0.12500000000E+03 0.  0.
        -13    1    3    3    0    0 -0.33917762116E+02  0.37989562272E+02  0.35164183860E+02  0.61888225206E+02  0.10566000000E+00 0.  1.
         23    2    1    0    0    0 -0.16857657385E+02  0.23501825696E+02  0.13339879410E+02  0.93149273066E+02  0.87534668940E+02 0.  0.
         13    1    3    3    0    0  0.17060104731E+02 -0.14487736576E+02 -0.21824304450E+02  0.31261047860E+02  0.10566000000E+00 0. -1.
         22    1    1    0    0    0  0.16857657385E+02 -0.23501825696E+02 -0.13339879410E+02  0.31850726934E+02  0.00000000000E+00 0.  1.
</event>
<event>
 5    1  0.1724235E-003  0.9118800E+02  0.7818608E-02  0.1130116E+00
         25   -1    0    0    0    0  0.00000000000E+00  0.00000000000E+00  0.99999998245E-14  0.12500000000E+03  0.12500000000E+03 0.  0.
        -13    1    3    3    0    0 -0.11094966847E+01  0.37525209240E+02 -0.24005998382E+02  0.44560873350E+02  0.10566000000E+00 0. -1.
         23    2    1    0    0    0  0.17446913652E+02 -0.10780932025E+02 -0.19821872768E+02  0.96477553904E+02  0.92165006786E+02 0.  0.
         13    1    3    3    0    0  0.18556410336E+02 -0.48306141265E+02  0.41841256141E+01  0.51916680553E+02  0.10566000000E+00 0.  1.
         22    1    1    0    0    0 -0.17446913652E+02  0.10780932025E+02  0.19821872768E+02  0.28522446096E+02  0.00000000000E+00 0. -1.
</event>
<event>
 5    1  0.1724235E-003  0.9118800E+02  0.7818608E-02  0.1130116E+00
         25   -1    0    0    0    0  0.00000000000E+00  0.00000000000E+00  0.99999998245E-14  0.12500000000E+03  0.12500000000E+03 0.  0.
        -13    1    3    3    0    0 -0.13096671272E+02  0.55387728686E+02  0.24421002483E+01  0.56967519738E+02  0.10566000000E+00 0.  1.
         23    2    1    0    0    0  0.12522897328E+02  0.26683476490E+02 -0.66615190910E-01  0.95523987504E+02  0.90862516341E+02 0.  0.
         13    1    3    3    0    0  0.25619568600E+02 -0.28704252196E+02 -0.25087154392E+01  0.38556467766E+02  0.10566000000E+00 0. -1.
         22    1    1    0    0    0 -0.12522897328E+02 -0.26683476490E+02  0.66615190910E-01  0.29476012496E+02  0.00000000000E+00 0.  1.
</event>
<event>
 5    1  0.1724235E-003  0.9118800E+02  0.7818608E-02  0.1130116E+00
         25   -1    0    0    0    0  0.00000000000E+00  0.00000000000E+00  0.99999998245E-14  0.12500000000E+03  0.12500000000E+03 0.  0.
        -13    1    3    3    0    0  0.42931455959E+02  0.12690767839E+02  0.30042221206E+02  0.53913928795E+02  0.10566000000E+00 0.  1.
         23    2    1    0    0    0  0.25206456852E+02 -0.11346119149E+02 -0.14549890771E+01  0.97319377175E+02  0.93299755057E+02 0.  0.
         13    1    3    3    0    0 -0.17724999107E+02 -0.24036886988E+02 -0.31497210283E+02  0.43405448380E+02  0.10566000000E+00 0. -1.
         22    1    1    0    0    0 -0.25206456852E+02  0.11346119149E+02  0.14549890771E+01  0.27680622825E+02  0.00000000000E+00 0. -1.
</event>
<event>
 5    1  0.1724235E-003  0.9118800E+02  0.7818608E-02  0.1130116E+00
         25   -1    0    0    0    0  0.00000000000E+00  0.00000000000E+00  0.99999998245E-14  0.12500000000E+03  0.12500000000E+03 0.  0.
        -13    1    3    3    0    0  0.36291836749E+02  0.25699052223E+01 -0.23720360830E+02  0.43432344047E+02  0.10566000000E+00 0.  1.
         23    2    1    0    0    0  0.16735431612E+01 -0.30273073222E+02 -0.96294422048E+01  0.93188274706E+02  0.87590345795E+02 0.  0.
         13    1    3    3    0    0 -0.34618293588E+02 -0.32842978444E+02  0.14090918625E+02  0.49755930659E+02  0.10566000000E+00 0. -1.
         22    1    1    0    0    0 -0.16735431612E+01  0.30273073222E+02  0.96294422048E+01  0.31811725294E+02  0.00000000000E+00 0. -1.
</event>
<event>
 5    1  0.1724235E-003  0.9118800E+02  0.7818608E-02  0.1130116E+00
         25   -1    0    0    0    0  0.00000000000E+00  0.00000000000E+00  0.99999998245E-14  0.12500000000E+03  0.12500000000E+03 0.  0.
        -13    1    3    3    0    0 -0.40399079386E+01  0.19057480714E+02 -0.47536347437E+02  0.51373377532E+02  0.10566000000E+00 0. -1.
         23    2    1    0    0    0  0.15714947961E+02  0.24396701575E+02 -0.96776038035E+01  0.94408912204E+02  0.89315329317E+02 0.  0.
         13    1    3    3    0    0  0.19754855899E+02  0.53392208616E+01  0.37858743633E+02  0.43035534672E+02  0.10566000000E+00 0.  1.
         22    1    1    0    0    0 -0.15714947961E+02 -0.24396701575E+02  0.96776038035E+01  0.30591087796E+02  0.00000000000E+00 0. -1.
</event>
<event>
 5    1  0.1724235E-003  0.9118800E+02  0.7818608E-02  0.1130116E+00
         25   -1    0    0    0    0  0.00000000000E+00  0.00000000000E+00  0.99999998245E-14  0.12500000000E+03  0.12500000000E+03 0.  0.
        -13    1    3    3    0    0 -0.34783058147E+02 -0.10005214225E+02  0.26559179981E+02  0.44892835185E+02  0.10566000000E+00 0.  1.
         23    2    1    0    0    0 -0.13698889635E+02  0.21843564738E+02 -0.95978901590E+01  0.97487813733E+02  0.93525148667E+02 0.  0.
         13    1    3    3    0    0  0.21084168512E+02  0.31848778963E+02 -0.36157070140E+02  0.52594978547E+02  0.10566000000E+00 0. -1.
         22    1    1    0    0    0  0.13698889635E+02 -0.21843564738E+02  0.95978901590E+01  0.27512186267E+02  0.00000000000E+00 0. -1.
</event>
<event>
 5    1  0.1724235E-003  0.9118800E+02  0.7818608E-02  0.1130116E+00
         25   -1    0    0    0    0  0.00000000000E+00  0.00000000000E+00  0.99999998245E-14  0.12500000000E+03  0.12500000000E+03 0.  0.
        -13    1    3    3    0    0 -0.16908688833E+02  0.29129381129E+02 -0.10678388839E+02  0.35333606599E+02  0.10566000000E+00 0. -1.
         23    2    1    0    0    0  0.12497152356E+01 -0.28522588669E+02 -0.22665685433E+01  0.96360216734E+02  0.92005729080E+02 0.  0.
         13    1    3    3    0    0  0.18158404069E+02 -0.57651969798E+02  0.84118202956E+01  0.61026610136E+02  0.10566000000E+00 0.  1.
         22    1    1    0    0    0 -0.12497152356E+01  0.28522588669E+02  0.22665685433E+01  0.28639783266E+02  0.00000000000E+00 0.  1.
</event>
<event>
 5    1  0.1724235E-003  0.9118800E+02  0.7818608E-02  0.1130116E+00
         25   -1    0    0    0    0  0.00000000000E+00  0.00000000000E+00  0.99999998245E-14  0.12500000000E+03  0.12500000000E+03 0.  0.
        -13    1    3    3    0    0 -0.47037006154E+02  0.34125913007E+02 -0.65290600276E+01  0.58478181190E+02  0.10566000000E+00 0.  1.
         23    2    1    0    0    0 -0.12614163797E+02  0.26453476499E+02  0.43186636045E+01  0.95376455268E+02  0.90659328351E+02 0.  0.
         13    1    3    3    0    0  0.34422842357E+02 -0.76724365077E+01  0.10847723632E+02  0.36898274078E+02  0.10566000000E+00 0. -1.
         22    1    1    0    0    0  0.12614163797E+02 -0.26453476499E+02 -0.43186636045E+01  0.29623544732E+02  0.00000000000E+00 0.  1.
</event>
<event>
 5    1  0.1724235E-003  0.9118800E+02  0.7818608E-02  0.1130116E+00
         25   -1    0    0    0    0  0.00000000000E+00  0.00000000000E+00  0.99999998245E-14  0.12500000000E+03  0.12500000000E+03 0.  0.
        -13    1    3    3    0    0 -0.25453968136E+02 -0.32752780100E+02 -0.17634270340E+01  0.41518308456E+02  0.10566000000E+00 0. -1.
         23    2    1    0    0    0 -0.10617069181E+02  0.14663308258E+02  0.21930875403E+02  0.96562382959E+02  0.92279985585E+02 0.  0.
         13    1    3    3    0    0  0.14836898954E+02  0.47416088358E+02  0.23694302437E+02  0.55044074502E+02  0.10566000000E+00 0.  1.
         22    1    1    0    0    0  0.10617069181E+02 -0.14663308258E+02 -0.21930875403E+02  0.28437617041E+02  0.00000000000E+00 0.  1.
</event>
<event>
 5    1  0.1724235E-003  0.9118800E+02  0.7818608E-02  0.1130116E+00
         25   -1    0    0    0    0  0.00000000000E+00  0.00000000000E+00  0.99999998245E-14  0.12500000000E+03  0.12500000000E+03 0.  0.
        -13    1    3    3    0    0 -0.31363179276E+02 -0.46020114176E+02 -0.17521185098E+02  0.58382386165E+02  0.10566000000E+00 0. -1.
         23    2    1    0    0    0 -0.97406993075E+01 -0.32675992395E+02  0.26153760416E+01  0.90802896411E+02  0.84117323441E+02 0.  0.
         13    1    3    3    0    0  0.21622479968E+02  0.13344121781E+02  0.20136561139E+02  0.32420510246E+02  0.10566000000E+00 0.  1.
         22    1    1    0    0    0  0.97406993075E+01  0.32675992395E+02 -0.26153760416E+01  0.34197103589E+02  0.00000000000E+00 0. -1.
</event>
<event>
 5    1  0.1724235E-003  0.9118800E+02  0.7818608E-02  0.1130116E+00
         25   -1    0    0    0    0  0.00000000000E+00  0.00000000000E+00  0.99999998245E-14  0.12500000000E+03  0.12500000000E+03 0.  0.
        -13    1    3    3    0    0 -0.57049163234E+01  0.14236998909E+02  0.36126014265E+02  0.39247143577E+02  0.10566000000E+00 0.  1.
         23    2    1    0    0    0  0.28901212722E+02  0.28102726870E+01 -0.64131330427E+01  0.95262716923E+02  0.90502371410E+02 0.  0.
         13    1    3    3    0    0  0.34606129045E+02 -0.11426726222E+02 -0.42539147308E+02  0.56015573347E+02  0.10566000000E+00 0. -1.
         22    1    1    0    0    0 -0.28901212722E+02 -0.28102726870E+01  0.64131330427E+01  0.29737283077E+02  0.00000000000E+00 0. -1.
</event>
<event>
 5    1  0.1724235E-003  0.9118800E+02  0.7818608E-02  0.1130116E+00
         25   -1    0    0    0    0  0.00000000000E+00  0.00000000000E+00  0.99999998245E-14  0.12500000000E+03  0.12500000000E+03 0.  0.
        -13    1    3    3    0    0  0.11843352212E+02  0.64248799612E+01  0.59040924514E+02  0.60558946537E+02  0.10566000000E+00 0.  1.
         23    2    1    0    0    0 -0.19213350248E+01 -0.51669010832E+01  0.28200204813E+02  0.96266048886E+02  0.91877702527E+02 0.  0.
         13    1    3    3    0    0 -0.13764687237E+02 -0.11591781044E+02 -0.30840719701E+02  0.35707102350E+02  0.10566000000E+00 0. -1.
         22    1    1    0    0    0  0.19213350248E+01  0.51669010832E+01 -0.28200204813E+02  0.28733951114E+02  0.00000000000E+00 0.  1.
</event>
<event>
 5    1  0.1724235E-003  0.9118800E+02  0.7818608E-02  0.1130116E+00
         25   -1    0    0    0    0  0.00000000000E+00  0.00000000000E+00  0.99999998245E-14  0.12500000000E+03  0.12500000000E+03 0.  0.
        -13    1    3    3    0    0  0.48062524044E+02  0.30542923317E+02  0.21512883905E+02  0.60874392976E+02  0.10566000000E+00 0. -1.
         23    2    1    0    0    0  0.14689195975E+02  0.20618620374E+02  0.12092872165E+02  0.96944028412E+02  0.92795512300E+02 0.  0.
         13    1    3    3    0    0 -0.33373328069E+02 -0.99243029426E+01 -0.94200117397E+01  0.36069635436E+02  0.10566000000E+00 0.  1.
         22    1    1    0    0    0 -0.14689195975E+02 -0.20618620374E+02 -0.12092872165E+02  0.28055971588E+02  0.00000000000E+00 0. -1.
</event>
<event>
 5    1  0.1724235E-003  0.9118800E+02  0.7818608E-02  0.1130116E+00
         25   -1    0    0    0    0  0.00000000000E+00  0.00000000000E+00  0.99999998245E-14  0.12500000000E+03  0.12500000000E+03 0.  0.
        -13    1    3    3    0    0  0.24661587194E+02  0.36915375117E+02  0.23390074536E+02  0.50180131065E+02  0.10566000000E+00 0. -1.
         23    2    1    0    0    0 -0.16187922071E+02  0.17097564402E+02  0.16838167722E+02  0.96053507610E+02  0.91588082754E+02 0.  0.
         13    1    3    3    0    0 -0.40849509264E+02 -0.19817810715E+02 -0.65519068134E+01  0.45873376545E+02  0.10566000000E+00 0.  1.
         22    1    1    0    0    0  0.16187922071E+02 -0.17097564402E+02 -0.16838167722E+02  0.28946492390E+02  0.00000000000E+00 0. -1.
</event>
<event>
 5    1  0.1724235E-003  0.9118800E+02  0.7818608E-02  0.1130116E+00
         25   -1    0    0    0    0  0.00000000000E+00  0.00000000000E+00  0.99999998245E-14  0.12500000000E+03  0.12500000000E+03 0.  0.
        -13    1    3    3    0    0  0.36854187154E+02  0.11683978808E+02 -0.38337446714E+02  0.54447382455E+02  0.10566000000E+00 0. -1.
         23    2    1    0    0    0  0.34850196747E+01 -0.91013360372E+01 -0.28367250580E+02  0.95005324051E+02  0.90146164714E+02 0.  0.
         13    1    3    3    0    0 -0.33369167480E+02 -0.20785314845E+02  0.99701961340E+01  0.40557941596E+02  0.10566000000E+00 0.  1.
         22    1    1    0    0    0 -0.34850196747E+01  0.91013360372E+01  0.28367250580E+02  0.29994675949E+02  0.00000000000E+00 0. -1.
</event>
<event>
 5    1  0.1724235E-003  0.9118800E+02  0.7818608E-02  0.1130116E+00
         25   -1    0    0    0    0  0.00000000000E+00  0.00000000000E+00  0.99999998245E-14  0.12500000000E+03  0.12500000000E+03 0.  0.
        -13    1    3    3    0    0 -0.26176809403E+01 -0.23368803223E+02 -0.24157314318E+02  0.33712612131E+02  0.10566000000E+00 0.  1.
         23    2    1    0    0    0  0.24695096660E+02  0.19046947900E+02  0.70396871282E+01  0.93028274707E+02  0.87361711733E+02 0.  0.
         13    1    3    3    0    0  0.27312777600E+02  0.42415751123E+02  0.31197001447E+02  0.59315662576E+02  0.10566000000E+00 0. -1.
         22    1    1    0    0    0 -0.24695096660E+02 -0.19046947900E+02 -0.70396871282E+01  0.31971725293E+02  0.00000000000E+00 0. -1.
</event>
<event>
 5    1  0.1724235E-003  0.9118800E+02  0.7818608E-02  0.1130116E+00
         25   -1    0    0    0    0  0.00000000000E+00  0.00000000000E+00  0.99999998245E-14  0.12500000000E+03  0.12500000000E+03 0.  0.
        -13    1    3    3    0    0  0.17920969684E+02 -0.33244584592E+02 -0.88523361127E+01  0.38790960001E+02  0.10566000000E+00 0. -1.
         23    2    1    0    0    0 -0.93253794861E+01  0.25598188772E+01  0.26999581354E+02  0.96320865276E+02  0.91952250211E+02 0.  0.
         13    1    3    3    0    0 -0.27246349170E+02  0.35804403469E+02  0.35851917467E+02  0.57529905275E+02  0.10566000000E+00 0.  1.
         22    1    1    0    0    0  0.93253794861E+01 -0.25598188772E+01 -0.26999581354E+02  0.28679134724E+02  0.00000000000E+00 0.  1.
</event>
<event>
 5    1  0.1724235E-003  0.9118800E+02  0.7818608E-02  0.1130116E+00
         25   -1    0    0    0    0  0.00000000000E+00  0.00000000000E+00  0.99999998245E-14  0.12500000000E+03  0.12500000000E+03 0.  0.
        -13    1    3    3    0    0  0.38327138557E+02 -0.37490891952E+02 -0.29324300245E+02  0.61110246917E+02  0.10566000000E+00 0. -1.
         23    2    1    0    0    0  0.15100580951E+02 -0.26284514475E+02 -0.10974631923E+02  0.92761113666E+02  0.86978608959E+02 0.  0.
         13    1    3    3    0    0 -0.23226557606E+02  0.11206377477E+02  0.18349668322E+02  0.31650866749E+02  0.10566000000E+00 0.  1.
         22    1    1    0    0    0 -0.15100580951E+02  0.26284514475E+02  0.10974631923E+02  0.32238886334E+02  0.00000000000E+00 0. -1.
</event>
<event>
 4    1  0.1724235E-003  0.9118800E+02  0.7818608E-02  0.1130116E+00
         25   -1    0    0    0    0  0.00000000000E+00  0.00000000000E+00  0.99999998245E-14  0.12500000000E+03  0.12500000000E+03 0.  0.
        -13    1    1    0    0    0  0.16079992565E+02 -0.39428815748E+02  0.10468900298E+02  0.43849819950E+02  0.10566000000E+00 0. -1.
         13    1    1    0    0    0  0.55126527067E+01 -0.12990902083E+02 -0.19158627138E+02  0.23795315393E+02  0.10566000000E+00 0.  1.
         22    1    1    0    0    0 -0.21592645272E+02  0.52419717831E+02  0.86897268402E+01  0.57354864657E+02  0.00000000000E+00 0. -1.
</event>
<event>
 5    1  0.1724235E-003  0.9118800E+02  0.7818608E-02  0.1130116E+00
         25   -1    0    0    0    0  0.00000000000E+00  0.00000000000E+00  0.99999998245E-14  0.12500000000E+03  0.12500000000E+03 0.  0.
        -13    1    3    3    0    0  0.47921496881E+02  0.12516289549E+02  0.18002093776E+02  0.52699278095E+02  0.10566000000E+00 0.  1.
         23    2    1    0    0    0  0.22814596035E+02 -0.63848709564E+01 -0.13942301901E+02  0.97510726607E+02  0.93555767603E+02 0.  0.
         13    1    3    3    0    0 -0.25106900846E+02 -0.18901160506E+02 -0.31944395677E+02  0.44811448512E+02  0.10566000000E+00 0. -1.
         22    1    1    0    0    0 -0.22814596035E+02  0.63848709564E+01  0.13942301901E+02  0.27489273393E+02  0.00000000000E+00 0.  1.
</event>
<event>
 5    1  0.1724235E-003  0.9118800E+02  0.7818608E-02  0.1130116E+00
         25   -1    0    0    0    0  0.00000000000E+00  0.00000000000E+00  0.99999998245E-14  0.12500000000E+03  0.12500000000E+03 0.  0.
        -13    1    3    3    0    0 -0.46408569343E+02 -0.13133487469E+02  0.37847234526E+02  0.61307977677E+02  0.10566000000E+00 0. -1.
         23    2    1    0    0    0 -0.24397715114E+02  0.14337820176E+01  0.14273831106E+02  0.96697235327E+02  0.92462472560E+02 0.  0.
         13    1    3    3    0    0  0.22010854228E+02  0.14567269487E+02 -0.23573403421E+02  0.35389257650E+02  0.10566000000E+00 0.  1.
         22    1    1    0    0    0  0.24397715114E+02 -0.14337820176E+01 -0.14273831106E+02  0.28302764673E+02  0.00000000000E+00 0. -1.
</event>
<event>
 5    1  0.1724235E-003  0.9118800E+02  0.7818608E-02  0.1130116E+00
         25   -1    0    0    0    0  0.00000000000E+00  0.00000000000E+00  0.99999998245E-14  0.12500000000E+03  0.12500000000E+03 0.  0.
        -13    1    3    3    0    0 -0.52722111787E+01 -0.91979573525E+01  0.61167931552E+02  0.62079993916E+02  0.10566000000E+00 0. -1.
         23    2    1    0    0    0 -0.74198998238E+01 -0.30381520696E+01  0.28466959486E+02  0.95425465959E+02  0.90726878540E+02 0.  0.
         13    1    3    3    0    0 -0.21476886451E+01  0.61598052830E+01 -0.32700972066E+02  0.33345472043E+02  0.10566000000E+00 0.  1.
         22    1    1    0    0    0  0.74198998238E+01  0.30381520696E+01 -0.28466959486E+02  0.29574534041E+02  0.00000000000E+00 0. -1.
</event>
<event>
 5    1  0.1724235E-003  0.9118800E+02  0.7818608E-02  0.1130116E+00
         25   -1    0    0    0    0  0.00000000000E+00  0.00000000000E+00  0.99999998245E-14  0.12500000000E+03  0.12500000000E+03 0.  0.
        -13    1    3    3    0    0 -0.25017702248E+02 -0.16350192228E+02  0.32463134610E+02  0.44125734945E+02  0.10566000000E+00 0.  1.
         23    2    1    0    0    0 -0.22995742409E+02 -0.16072417701E+02 -0.16047212438E+02  0.92679111913E+02  0.86860681429E+02 0.  0.
         13    1    3    3    0    0  0.20219598391E+01  0.27777452697E+00 -0.48510347048E+02  0.48553376969E+02  0.10566000000E+00 0. -1.
         22    1    1    0    0    0  0.22995742409E+02  0.16072417701E+02  0.16047212438E+02  0.32320888087E+02  0.00000000000E+00 0. -1.
</event>
<event>
 5    1  0.1724235E-003  0.9118800E+02  0.7818608E-02  0.1130116E+00
         25   -1    0    0    0    0  0.00000000000E+00  0.00000000000E+00  0.99999998245E-14  0.12500000000E+03  0.12500000000E+03 0.  0.
        -13    1    3    3    0    0  0.44061907136E+02  0.49669223655E+01  0.17590002415E+02  0.47702634384E+02  0.10566000000E+00 0. -1.
         23    2    1    0    0    0  0.21292189952E+02 -0.14436435835E+02 -0.17555036282E+02  0.93856022550E+02  0.88538159216E+02 0.  0.
         13    1    3    3    0    0 -0.22769717183E+02 -0.19403358200E+02 -0.35145038697E+02  0.46153388165E+02  0.10566000000E+00 0.  1.
         22    1    1    0    0    0 -0.21292189952E+02  0.14436435835E+02  0.17555036282E+02  0.31143977450E+02  0.00000000000E+00 0. -1.
</event>
<event>
 5    1  0.1724235E-003  0.9118800E+02  0.7818608E-02  0.1130116E+00
         25   -1    0    0    0    0  0.00000000000E+00  0.00000000000E+00  0.99999998245E-14  0.12500000000E+03  0.12500000000E+03 0.  0.
        -13    1    3    3    0    0 -0.40120124514E+02 -0.39014106978E+02  0.95583373142E+01  0.56772334024E+02  0.10566000000E+00 0. -1.
         23    2    1    0    0    0 -0.22637305540E+02 -0.12296974021E+02 -0.13268715617E+02  0.96022043096E+02  0.91545129712E+02 0.  0.
         13    1    3    3    0    0  0.17482818974E+02  0.26717132957E+02 -0.22827052931E+02  0.39249709072E+02  0.10566000000E+00 0.  1.
         22    1    1    0    0    0  0.22637305540E+02  0.12296974021E+02  0.13268715617E+02  0.28977956904E+02  0.00000000000E+00 0. -1.
</event>
<event>
 5    1  0.1724235E-003  0.9118800E+02  0.7818608E-02  0.1130116E+00
         25   -1    0    0    0    0  0.00000000000E+00  0.00000000000E+00  0.99999998245E-14  0.12500000000E+03  0.12500000000E+03 0.  0.
        -13    1    3    3    0    0  0.32843315746E+01 -0.50117867424E+02  0.15257837205E+02  0.52491906321E+02  0.10566000000E+00 0. -1.
         23    2    1    0    0    0 -0.23335615293E+02 -0.21056976515E+02  0.80207403893E+01  0.92561142476E+02  0.86690747021E+02 0.  0.
         13    1    3    3    0    0 -0.26619946868E+02  0.29060890909E+02 -0.72370968157E+01  0.40069236155E+02  0.10566000000E+00 0.  1.
         22    1    1    0    0    0  0.23335615293E+02  0.21056976515E+02 -0.80207403893E+01  0.32438857524E+02  0.00000000000E+00 0. -1.
</event>
<event>
 5    1  0.1724235E-003  0.9118800E+02  0.7818608E-02  0.1130116E+00
         25   -1    0    0    0    0  0.00000000000E+00  0.00000000000E+00  0.99999998245E-14  0.12500000000E+03  0.12500000000E+03 0.  0.
        -13    1    3    3    0    0 -0.33333461084E+02  0.34098289376E+02 -0.44980528966E+01  0.47896311028E+02  0.10566000000E+00 0.  1.
         23    2    1    0    0    0 -0.17511387336E+02 -0.20526286746E+01  0.23018817750E+02  0.96004691043E+02  0.91521433341E+02 0.  0.
         13    1    3    3    0    0  0.15822073748E+02 -0.36150918050E+02  0.27516870646E+02  0.48108380016E+02  0.10566000000E+00 0. -1.
         22    1    1    0    0    0  0.17511387336E+02  0.20526286746E+01 -0.23018817750E+02  0.28995308957E+02  0.00000000000E+00 0. -1.
</event>
<event>
 5    1  0.1724235E-003  0.9118800E+02  0.7818608E-02  0.1130116E+00
         25   -1    0    0    0    0  0.00000000000E+00  0.00000000000E+00  0.99999998245E-14  0.12500000000E+03  0.12500000000E+03 0.  0.
        -13    1    3    3    0    0 -0.16975962886E+02 -0.86005857032E+01  0.57025946748E+02  0.60117577769E+02  0.10566000000E+00 0. -1.
         23    2    1    0    0    0 -0.13287572529E+02 -0.14721108604E+02  0.24200245058E+02  0.93712263055E+02  0.88334963428E+02 0.  0.
         13    1    3    3    0    0  0.36883903571E+01 -0.61205229012E+01 -0.32825701690E+02  0.33594685286E+02  0.10566000000E+00 0.  1.
         22    1    1    0    0    0  0.13287572529E+02  0.14721108604E+02 -0.24200245058E+02  0.31287736945E+02  0.00000000000E+00 0. -1.
</event>
<event>
 5    1  0.1724235E-003  0.9118800E+02  0.7818608E-02  0.1130116E+00
         25   -1    0    0    0    0  0.00000000000E+00  0.00000000000E+00  0.99999998245E-14  0.12500000000E+03  0.12500000000E+03 0.  0.
        -13    1    3    3    0    0  0.23623302476E+02  0.45326212988E+02  0.26227384704E+02  0.57449219979E+02  0.10566000000E+00 0.  1.
         23    2    1    0    0    0  0.84897700117E+01  0.13545666497E+02  0.28069539266E+02  0.92697363725E+02  0.86886943387E+02 0.  0.
         13    1    3    3    0    0 -0.15133532464E+02 -0.31780546491E+02  0.18421545620E+01  0.35248143746E+02  0.10566000000E+00 0. -1.
         22    1    1    0    0    0 -0.84897700117E+01 -0.13545666497E+02 -0.28069539266E+02  0.32302636275E+02  0.00000000000E+00 0.  1.
</event>
<event>
 5    1  0.1724235E-003  0.9118800E+02  0.7818608E-02  0.1130116E+00
         25   -1    0    0    0    0  0.00000000000E+00  0.00000000000E+00  0.99999998245E-14  0.12500000000E+03  0.12500000000E+03 0.  0.
        -13    1    3    3    0    0  0.28565879045E+00  0.32749893979E+02  0.17102729824E+02  0.36947959186E+02  0.10566000000E+00 0.  1.
         23    2    1    0    0    0  0.10696801381E+02 -0.24762778568E+01 -0.27887449324E+02  0.95028958283E+02  0.90178930858E+02 0.  0.
         13    1    3    3    0    0  0.10411142590E+02 -0.35226171835E+02 -0.44990179148E+02  0.58080999097E+02  0.10566000000E+00 0. -1.
         22    1    1    0    0    0 -0.10696801381E+02  0.24762778568E+01  0.27887449324E+02  0.29971041717E+02  0.00000000000E+00 0. -1.
</event>
<event>
 5    1  0.1724235E-003  0.9118800E+02  0.7818608E-02  0.1130116E+00
         25   -1    0    0    0    0  0.00000000000E+00  0.00000000000E+00  0.99999998245E-14  0.12500000000E+03  0.12500000000E+03 0.  0.
        -13    1    3    3    0    0  0.28566856108E+02 -0.52293094356E+01 -0.35893149338E+02  0.46170772990E+02  0.10566000000E+00 0.  1.
         23    2    1    0    0    0  0.86924033466E+01  0.27228937500E+02 -0.33971342958E+01  0.96216090697E+02  0.91809709041E+02 0.  0.
         13    1    3    3    0    0 -0.19874452761E+02  0.32458246936E+02  0.32496015042E+02  0.50045317707E+02  0.10566000000E+00 0. -1.
         22    1    1    0    0    0 -0.86924033466E+01 -0.27228937500E+02  0.33971342958E+01  0.28783909303E+02  0.00000000000E+00 0. -1.
</event>
<event>
 5    1  0.1724235E-003  0.9118800E+02  0.7818608E-02  0.1130116E+00
         25   -1    0    0    0    0  0.00000000000E+00  0.00000000000E+00  0.99999998245E-14  0.12500000000E+03  0.12500000000E+03 0.  0.
        -13    1    3    3    0    0 -0.11441238067E+02 -0.75211958945E+01 -0.35984356165E+02  0.38501368402E+02  0.10566000000E+00 0.  1.
         23    2    1    0    0    0 -0.12441835310E+01 -0.18171878824E+02  0.20906396445E+02  0.97271989163E+02  0.93236244512E+02 0.  0.
         13    1    3    3    0    0  0.10197054536E+02 -0.10650682930E+02  0.56890752610E+02  0.58770620761E+02  0.10566000000E+00 0. -1.
         22    1    1    0    0    0  0.12441835310E+01  0.18171878824E+02 -0.20906396445E+02  0.27728010837E+02  0.00000000000E+00 0. -1.
</event>
<event>
 5    1  0.1724235E-003  0.9118800E+02  0.7818608E-02  0.1130116E+00
         25   -1    0    0    0    0  0.00000000000E+00  0.00000000000E+00  0.99999998245E-14  0.12500000000E+03  0.12500000000E+03 0.  0.
        -13    1    3    3    0    0 -0.36471440853E+02  0.10851505087E+02 -0.19326524793E+02  0.42678412402E+02  0.10566000000E+00 0. -1.
         23    2    1    0    0    0 -0.83449973251E+01  0.13198278548E+02  0.25174867685E+02  0.95375559078E+02  0.90658092686E+02 0.  0.
         13    1    3    3    0    0  0.28126443528E+02  0.23467734612E+01  0.44501392478E+02  0.52697146675E+02  0.10566000000E+00 0.  1.
         22    1    1    0    0    0  0.83449973251E+01 -0.13198278548E+02 -0.25174867685E+02  0.29624440922E+02  0.00000000000E+00 0. -1.
</event>
<event>
 5    1  0.1724235E-003  0.9118800E+02  0.7818608E-02  0.1130116E+00
         25   -1    0    0    0    0  0.00000000000E+00  0.00000000000E+00  0.99999998245E-14  0.12500000000E+03  0.12500000000E+03 0.  0.
        -13    1    3    3    0    0 -0.28541679938E+01  0.11449911337E+02  0.54360615471E+02  0.55626741977E+02  0.10566000000E+00 0.  1.
         23    2    1    0    0    0 -0.15746177714E+02 -0.95681115917E+01  0.24221124309E+02  0.94567225975E+02  0.89536620965E+02 0.  0.
         13    1    3    3    0    0 -0.12892009721E+02 -0.21018022929E+02 -0.30139491162E+02  0.38940483998E+02  0.10566000000E+00 0. -1.
         22    1    1    0    0    0  0.15746177714E+02  0.95681115917E+01 -0.24221124309E+02  0.30432774025E+02  0.00000000000E+00 0.  1.
</event>
<event>
 5    1  0.1724235E-003  0.9118800E+02  0.7818608E-02  0.1130116E+00
         25   -1    0    0    0    0  0.00000000000E+00  0.00000000000E+00  0.99999998245E-14  0.12500000000E+03  0.12500000000E+03 0.  0.
        -13    1    3    3    0    0 -0.18906076400E+02 -0.76076552077E+01  0.29725660273E+02  0.36040840518E+02  0.10566000000E+00 0. -1.
         23    2    1    0    0    0  0.27704566548E+02  0.81720979078E+01 -0.42002621189E+01  0.95811502373E+02  0.91257194748E+02 0.  0.
         13    1    3    3    0    0  0.46610642948E+02  0.15779753115E+02 -0.33925922392E+02  0.59770661855E+02  0.10566000000E+00 0.  1.
         22    1    1    0    0    0 -0.27704566548E+02 -0.81720979078E+01  0.42002621189E+01  0.29188497627E+02  0.00000000000E+00 0.  1.
</event>
<event>
 5    1  0.1724235E-003  0.9118800E+02  0.7818608E-02  0.1130116E+00
         25   -1    0    0    0    0  0.00000000000E+00  0.00000000000E+00  0.99999998245E-14  0.12500000000E+03  0.12500000000E+03 0.  0.
        -13    1    3    3    0    0 -0.15698342028E+02  0.26283615562E+02 -0.89783989907E+01  0.31904375905E+02  0.10566000000E+00 0.  1.
         23    2    1    0    0    0 -0.97003108878E+01 -0.31293740180E+02 -0.12579494585E+02  0.89905301115E+02  0.82772732701E+02 0.  0.
         13    1    3    3    0    0  0.59980311399E+01 -0.57577355742E+02 -0.36010955944E+01  0.58000925211E+02  0.10566000000E+00 0. -1.
         22    1    1    0    0    0  0.97003108878E+01  0.31293740180E+02  0.12579494585E+02  0.35094698885E+02  0.00000000000E+00 0. -1.
</event>
<event>
 5    1  0.1724235E-003  0.9118800E+02  0.7818608E-02  0.1130116E+00
         25   -1    0    0    0    0  0.00000000000E+00  0.00000000000E+00  0.99999998245E-14  0.12500000000E+03  0.12500000000E+03 0.  0.
        -13    1    3    3    0    0 -0.31967863271E+02  0.26341649710E+02  0.12223730850E+02  0.43188627572E+02  0.10566000000E+00 0. -1.
         23    2    1    0    0    0  0.18510984488E+02  0.23161839443E+02 -0.50847320041E+00  0.95345558544E+02  0.90616718303E+02 0.  0.
         13    1    3    3    0    0  0.50478847759E+02 -0.31798102673E+01 -0.12732204051E+02  0.52156930972E+02  0.10566000000E+00 0.  1.
         22    1    1    0    0    0 -0.18510984488E+02 -0.23161839443E+02  0.50847320041E+00  0.29654441456E+02  0.00000000000E+00 0.  1.
</event>
<event>
 5    1  0.1724235E-003  0.9118800E+02  0.7818608E-02  0.1130116E+00
         25   -1    0    0    0    0  0.00000000000E+00  0.00000000000E+00  0.99999998245E-14  0.12500000000E+03  0.12500000000E+03 0.  0.
        -13    1    3    3    0    0  0.42267529521E+02  0.39421704037E+00 -0.10684221227E+02  0.43598889965E+02  0.10566000000E+00 0.  1.
         23    2    1    0    0    0  0.78336006329E+01  0.19043762867E+02  0.22189322712E+02  0.94727962648E+02  0.89760741207E+02 0.  0.
         13    1    3    3    0    0 -0.34433928889E+02  0.18649545826E+02  0.32873543940E+02  0.51129072683E+02  0.10566000000E+00 0. -1.
         22    1    1    0    0    0 -0.78336006329E+01 -0.19043762867E+02 -0.22189322712E+02  0.30272037352E+02  0.00000000000E+00 0. -1.
</event>
<event>
 5    1  0.1724235E-003  0.9118800E+02  0.7818608E-02  0.1130116E+00
         25   -1    0    0    0    0  0.00000000000E+00  0.00000000000E+00  0.99999998245E-14  0.12500000000E+03  0.12500000000E+03 0.  0.
        -13    1    3    3    0    0 -0.19105529626E+02  0.27991552165E+02 -0.29109309311E+02  0.44675623191E+02  0.10566000000E+00 0.  1.
         23    2    1    0    0    0 -0.22984931181E+02  0.53614933464E+01  0.16815656636E+02  0.96020369561E+02  0.91542844560E+02 0.  0.
         13    1    3    3    0    0 -0.38794015549E+01 -0.22630058819E+02  0.45924965947E+02  0.51344746370E+02  0.10566000000E+00 0. -1.
         22    1    1    0    0    0  0.22984931181E+02 -0.53614933464E+01 -0.16815656636E+02  0.28979630439E+02  0.00000000000E+00 0. -1.
</event>
<event>
 5    1  0.1724235E-003  0.9118800E+02  0.7818608E-02  0.1130116E+00
         25   -1    0    0    0    0  0.00000000000E+00  0.00000000000E+00  0.99999998245E-14  0.12500000000E+03  0.12500000000E+03 0.  0.
        -13    1    3    3    0    0  0.17333257099E+02 -0.37525007890E+02  0.12045796369E+02  0.43054388777E+02  0.10566000000E+00 0. -1.
         23    2    1    0    0    0 -0.19226161190E+02 -0.13306003909E+02 -0.17380670983E+02  0.95866123877E+02  0.91331982182E+02 0.  0.
         13    1    3    3    0    0 -0.36559418289E+02  0.24219003981E+02 -0.29426467352E+02  0.52811735100E+02  0.10566000000E+00 0.  1.
         22    1    1    0    0    0  0.19226161190E+02  0.13306003909E+02  0.17380670983E+02  0.29133876123E+02  0.00000000000E+00 0. -1.
</event>
<event>
 5    1  0.1724235E-003  0.9118800E+02  0.7818608E-02  0.1130116E+00
         25   -1    0    0    0    0  0.00000000000E+00  0.00000000000E+00  0.99999998245E-14  0.12500000000E+03  0.12500000000E+03 0.  0.
        -13    1    3    3    0    0 -0.26730388332E+02 -0.10704347743E+02  0.43637835578E+02  0.52281627546E+02  0.10566000000E+00 0.  1.
         23    2    1    0    0    0 -0.30060896036E+02  0.78697215401E+00  0.28431381895E+01  0.94794698637E+02  0.89853629083E+02 0.  0.
         13    1    3    3    0    0 -0.33305077042E+01  0.11491319897E+02 -0.40794697388E+02  0.42513071091E+02  0.10566000000E+00 0. -1.
         22    1    1    0    0    0  0.30060896036E+02 -0.78697215401E+00 -0.28431381895E+01  0.30205301363E+02  0.00000000000E+00 0. -1.
</event>
<event>
 5    1  0.1724235E-003  0.9118800E+02  0.7818608E-02  0.1130116E+00
         25   -1    0    0    0    0  0.00000000000E+00  0.00000000000E+00  0.99999998245E-14  0.12500000000E+03  0.12500000000E+03 0.  0.
        -13    1    3    3    0    0 -0.52859651770E+02 -0.22846924706E+02  0.15521742807E+02  0.59641096716E+02  0.10566000000E+00 0.  1.
         23    2    1    0    0    0 -0.23933809580E+02  0.10844229133E+00  0.15344804065E+02  0.96569347307E+02  0.92289418824E+02 0.  0.
         13    1    3    3    0    0  0.28925842190E+02  0.22955366997E+02 -0.17693874172E+00  0.36928250591E+02  0.10566000000E+00 0. -1.
         22    1    1    0    0    0  0.23933809580E+02 -0.10844229133E+00 -0.15344804065E+02  0.28430652693E+02  0.00000000000E+00 0.  1.
</event>
<event>
 5    1  0.1724235E-003  0.9118800E+02  0.7818608E-02  0.1130116E+00
         25   -1    0    0    0    0  0.00000000000E+00  0.00000000000E+00  0.99999998245E-14  0.12500000000E+03  0.12500000000E+03 0.  0.
        -13    1    3    3    0    0 -0.16432756123E+01  0.27128655618E+02  0.51218937635E+02  0.57983230739E+02  0.10566000000E+00 0.  1.
         23    2    1    0    0    0 -0.14821707538E+02  0.27946199001E+01  0.22904968904E+02  0.97575002001E+02  0.93641606673E+02 0.  0.
         13    1    3    3    0    0 -0.13178431926E+02 -0.24334035718E+02 -0.28313968731E+02  0.39591771262E+02  0.10566000000E+00 0. -1.
         22    1    1    0    0    0  0.14821707538E+02 -0.27946199001E+01 -0.22904968904E+02  0.27424997999E+02  0.00000000000E+00 0.  1.
</event>
<event>
 5    1  0.1724235E-003  0.9118800E+02  0.7818608E-02  0.1130116E+00
         25   -1    0    0    0    0  0.00000000000E+00  0.00000000000E+00  0.99999998245E-14  0.12500000000E+03  0.12500000000E+03 0.  0.
        -13    1    3    3    0    0  0.45529990107E+02  0.71923973292E+01  0.28453932480E+02  0.54169622632E+02  0.10566000000E+00 0.  1.
         23    2    1    0    0    0  0.28032549724E+02 -0.73154657549E+01 -0.59691896502E+01  0.95420089447E+02  0.90719470687E+02 0.  0.
         13    1    3    3    0    0 -0.17497440383E+02 -0.14507863084E+02 -0.34423122130E+02  0.41250466815E+02  0.10566000000E+00 0. -1.
         22    1    1    0    0    0 -0.28032549724E+02  0.73154657549E+01  0.59691896502E+01  0.29579910553E+02  0.00000000000E+00 0.  1.
</event>
<event>
 5    1  0.1724235E-003  0.9118800E+02  0.7818608E-02  0.1130116E+00
         25   -1    0    0    0    0  0.00000000000E+00  0.00000000000E+00  0.99999998245E-14  0.12500000000E+03  0.12500000000E+03 0.  0.
        -13    1    3    3    0    0 -0.32809421360E+02  0.97804264597E+01  0.57080267110E+01  0.34708898062E+02  0.10566000000E+00 0. -1.
         23    2    1    0    0    0  0.22718327086E+02  0.92692057925E+01 -0.17467272193E+02  0.94881132832E+02  0.89973791785E+02 0.  0.
         13    1    3    3    0    0  0.55527748445E+02 -0.51122066722E+00 -0.23175298904E+02  0.60172234771E+02  0.10566000000E+00 0.  1.
         22    1    1    0    0    0 -0.22718327086E+02 -0.92692057925E+01  0.17467272193E+02  0.30118867168E+02  0.00000000000E+00 0.  1.
</event>
<event>
 5    1  0.1724235E-003  0.9118800E+02  0.7818608E-02  0.1130116E+00
         25   -1    0    0    0    0  0.00000000000E+00  0.00000000000E+00  0.99999998245E-14  0.12500000000E+03  0.12500000000E+03 0.  0.
        -13    1    3    3    0    0  0.82823828220E+00  0.57205552880E+02 -0.15912020078E+02  0.59383203063E+02  0.10566000000E+00 0. -1.
         23    2    1    0    0    0  0.90306889059E+01  0.27726771071E+02  0.35155412514E+01  0.95628479672E+02  0.91006153187E+02 0.  0.
         13    1    3    3    0    0  0.82024506237E+01 -0.29478781810E+02  0.19427561329E+02  0.36245276609E+02  0.10566000000E+00 0.  1.
         22    1    1    0    0    0 -0.90306889059E+01 -0.27726771071E+02 -0.35155412514E+01  0.29371520328E+02  0.00000000000E+00 0. -1.
</event>
<event>
 5    1  0.1724235E-003  0.9118800E+02  0.7818608E-02  0.1130116E+00
         25   -1    0    0    0    0  0.00000000000E+00  0.00000000000E+00  0.99999998245E-14  0.12500000000E+03  0.12500000000E+03 0.  0.
        -13    1    3    3    0    0  0.76098118650E+01 -0.25486424874E+02 -0.54347996380E+02  0.60507709955E+02  0.10566000000E+00 0.  1.
         23    2    1    0    0    0 -0.53686272640E+01 -0.17783550097E+02 -0.21979184702E+02  0.96222206948E+02  0.91818036012E+02 0.  0.
         13    1    3    3    0    0 -0.12978439129E+02  0.77028747773E+01  0.32368811677E+02  0.35714496993E+02  0.10566000000E+00 0. -1.
         22    1    1    0    0    0  0.53686272640E+01  0.17783550097E+02  0.21979184702E+02  0.28777793052E+02  0.00000000000E+00 0.  1.
</event>
<event>
 5    1  0.1724235E-003  0.9118800E+02  0.7818608E-02  0.1130116E+00
         25   -1    0    0    0    0  0.00000000000E+00  0.00000000000E+00  0.99999998245E-14  0.12500000000E+03  0.12500000000E+03 0.  0.
        -13    1    3    3    0    0 -0.21015379473E+02  0.22879457364E+02  0.52483174218E+02  0.60988609459E+02  0.10566000000E+00 0. -1.
         23    2    1    0    0    0 -0.10019967655E+02  0.17938014964E+01  0.28386040408E+02  0.94843992876E+02  0.89922178682E+02 0.  0.
         13    1    3    3    0    0  0.10995411819E+02 -0.21085655868E+02 -0.24097133810E+02  0.33855383417E+02  0.10566000000E+00 0.  1.
         22    1    1    0    0    0  0.10019967655E+02 -0.17938014964E+01 -0.28386040408E+02  0.30156007124E+02  0.00000000000E+00 0. -1.
</event>
<event>
 5    1  0.1724235E-003  0.9118800E+02  0.7818608E-02  0.1130116E+00
         25   -1    0    0    0    0  0.00000000000E+00  0.00000000000E+00  0.99999998245E-14  0.12500000000E+03  0.12500000000E+03 0.  0.
        -13    1    3    3    0    0  0.28398008832E+02 -0.18615237534E+02 -0.16620829998E+02  0.37805252650E+02  0.10566000000E+00 0.  1.
         23    2    1    0    0    0 -0.49868269731E+01  0.26173786706E+02  0.53332136523E+01  0.97826875011E+02  0.93977224649E+02 0.  0.
         13    1    3    3    0    0 -0.33384835806E+02  0.44789024240E+02  0.21954043651E+02  0.60021622361E+02  0.10566000000E+00 0. -1.
         22    1    1    0    0    0  0.49868269731E+01 -0.26173786706E+02 -0.53332136523E+01  0.27173124989E+02  0.00000000000E+00 0. -1.
</event>
<event>
 5    1  0.1724235E-003  0.9118800E+02  0.7818608E-02  0.1130116E+00
         25   -1    0    0    0    0  0.00000000000E+00  0.00000000000E+00  0.99999998245E-14  0.12500000000E+03  0.12500000000E+03 0.  0.
        -13    1    3    3    0    0  0.31637810936E+02 -0.63704982566E+01 -0.44383676618E+01  0.32576749383E+02  0.10566000000E+00 0. -1.
         23    2    1    0    0    0 -0.12268908839E+02  0.30666399191E+02  0.72222907586E+01  0.91190006696E+02  0.84690623294E+02 0.  0.
         13    1    3    3    0    0 -0.43906719775E+02  0.37036897447E+02  0.11660658420E+02  0.58613257312E+02  0.10566000000E+00 0.  1.
         22    1    1    0    0    0  0.12268908839E+02 -0.30666399191E+02 -0.72222907586E+01  0.33809993304E+02  0.00000000000E+00 0.  1.
</event>
<event>
 5    1  0.1724235E-003  0.9118800E+02  0.7818608E-02  0.1130116E+00
         25   -1    0    0    0    0  0.00000000000E+00  0.00000000000E+00  0.99999998245E-14  0.12500000000E+03  0.12500000000E+03 0.  0.
        -13    1    3    3    0    0  0.12854041097E+02 -0.15361652389E+02 -0.54527855919E+02  0.58090489513E+02  0.10566000000E+00 0.  1.
         23    2    1    0    0    0  0.11269397750E+02  0.86456041630E+01 -0.25670259142E+02  0.95662174562E+02  0.91052422486E+02 0.  0.
         13    1    3    3    0    0 -0.15846433470E+01  0.24007256552E+02  0.28857596777E+02  0.37571685050E+02  0.10566000000E+00 0. -1.
         22    1    1    0    0    0 -0.11269397750E+02 -0.86456041630E+01  0.25670259142E+02  0.29337825438E+02  0.00000000000E+00 0.  1.
</event>
<event>
 5    1  0.1724235E-003  0.9118800E+02  0.7818608E-02  0.1130116E+00
         25   -1    0    0    0    0  0.00000000000E+00  0.00000000000E+00  0.99999998245E-14  0.12500000000E+03  0.12500000000E+03 0.  0.
        -13    1    3    3    0    0  0.41758461382E+02 -0.28009603987E+02  0.14968342770E+02  0.52463029476E+02  0.10566000000E+00 0.  1.
         23    2    1    0    0    0  0.20990489156E+02 -0.10351790071E+02 -0.18168153048E+02  0.95371601834E+02  0.90652636247E+02 0.  0.
         13    1    3    3    0    0 -0.20767972226E+02  0.17657813915E+02 -0.33136495818E+02  0.42908572358E+02  0.10566000000E+00 0. -1.
         22    1    1    0    0    0 -0.20990489156E+02  0.10351790071E+02  0.18168153048E+02  0.29628398166E+02  0.00000000000E+00 0.  1.
</event>
<event>
 5    1  0.1724235E-003  0.9118800E+02  0.7818608E-02  0.1130116E+00
         25   -1    0    0    0    0  0.00000000000E+00  0.00000000000E+00  0.99999998245E-14  0.12500000000E+03  0.12500000000E+03 0.  0.
        -13    1    3    3    0    0  0.29938273236E+01 -0.84643340960E+01 -0.32580779331E+02  0.33795359143E+02  0.10566000000E+00 0.  1.
         23    2    1    0    0    0  0.10452362231E+01  0.17845736252E+02  0.23324470722E+02  0.95613034257E+02  0.90984935919E+02 0.  0.
         13    1    3    3    0    0 -0.19485911005E+01  0.26310070348E+02  0.55905250053E+02  0.61817675114E+02  0.10566000000E+00 0. -1.
         22    1    1    0    0    0 -0.10452362231E+01 -0.17845736252E+02 -0.23324470722E+02  0.29386965743E+02  0.00000000000E+00 0. -1.
</event>
<event>
 5    1  0.1724235E-003  0.9118800E+02  0.7818608E-02  0.1130116E+00
         25   -1    0    0    0    0  0.00000000000E+00  0.00000000000E+00  0.99999998245E-14  0.12500000000E+03  0.12500000000E+03 0.  0.
        -13    1    3    3    0    0 -0.54429943467E+01  0.26857248396E+02  0.46703231605E+02  0.54149247319E+02  0.10566000000E+00 0.  1.
         23    2    1    0    0    0  0.85370154953E+01 -0.75000156137E+01  0.25991956098E+02  0.96632542420E+02  0.92374972828E+02 0.  0.
         13    1    3    3    0    0  0.13980009842E+02 -0.34357264010E+02 -0.20711275507E+02  0.42483295101E+02  0.10566000000E+00 0. -1.
         22    1    1    0    0    0 -0.85370154953E+01  0.75000156137E+01 -0.25991956098E+02  0.28367457580E+02  0.00000000000E+00 0. -1.
</event>
<event>
 5    1  0.1724235E-003  0.9118800E+02  0.7818608E-02  0.1130116E+00
         25   -1    0    0    0    0  0.00000000000E+00  0.00000000000E+00  0.99999998245E-14  0.12500000000E+03  0.12500000000E+03 0.  0.
        -13    1    3    3    0    0 -0.26563009739E+02  0.15836420409E+02 -0.17227624992E+02  0.35400394414E+02  0.10566000000E+00 0. -1.
         23    2    1    0    0    0  0.29397615413E+02 -0.12114241596E+01 -0.62336752572E+01  0.94924327976E+02  0.90033782516E+02 0.  0.
         13    1    3    3    0    0  0.55960625152E+02 -0.17047844569E+02  0.10993949735E+02  0.59523933562E+02  0.10566000000E+00 0.  1.
         22    1    1    0    0    0 -0.29397615413E+02  0.12114241596E+01  0.62336752572E+01  0.30075672024E+02  0.00000000000E+00 0.  1.
</event>
<event>
 5    1  0.1724235E-003  0.9118800E+02  0.7818608E-02  0.1130116E+00
         25   -1    0    0    0    0  0.00000000000E+00  0.00000000000E+00  0.99999998245E-14  0.12500000000E+03  0.12500000000E+03 0.  0.
        -13    1    3    3    0    0  0.33926428957E+02 -0.32926529265E+01  0.10170635518E+02  0.35571015391E+02  0.10566000000E+00 0.  1.
         23    2    1    0    0    0 -0.23436615760E+02 -0.56599680065E+01 -0.13147736521E+02  0.97537786474E+02  0.93591915348E+02 0.  0.
         13    1    3    3    0    0 -0.57363044717E+02 -0.23673150800E+01 -0.23318372039E+02  0.61966771083E+02  0.10566000000E+00 0. -1.
         22    1    1    0    0    0  0.23436615760E+02  0.56599680065E+01  0.13147736521E+02  0.27462213526E+02  0.00000000000E+00 0. -1.
</event>
<event>
 5    1  0.1724235E-003  0.9118800E+02  0.7818608E-02  0.1130116E+00
         25   -1    0    0    0    0  0.00000000000E+00  0.00000000000E+00  0.99999998245E-14  0.12500000000E+03  0.12500000000E+03 0.  0.
        -13    1    3    3    0    0 -0.29935886090E+02  0.32627070413E+02  0.34025646628E+02  0.55842983374E+02  0.10566000000E+00 0. -1.
         23    2    1    0    0    0  0.14597577263E+01  0.58502900019E+01  0.26544385472E+02  0.97779397769E+02  0.93914053487E+02 0.  0.
         13    1    3    3    0    0  0.31395643816E+02 -0.26776780411E+02 -0.74812611555E+01  0.41936414395E+02  0.10566000000E+00 0.  1.
         22    1    1    0    0    0 -0.14597577263E+01 -0.58502900019E+01 -0.26544385472E+02  0.27220602231E+02  0.00000000000E+00 0. -1.
</event>
<event>
 5    1  0.1724235E-003  0.9118800E+02  0.7818608E-02  0.1130116E+00
         25   -1    0    0    0    0  0.00000000000E+00  0.00000000000E+00  0.99999998245E-14  0.12500000000E+03  0.12500000000E+03 0.  0.
        -13    1    3    3    0    0 -0.23916523349E+02  0.24952586380E+02 -0.35491459250E+02  0.49540755948E+02  0.10566000000E+00 0. -1.
         23    2    1    0    0    0 -0.37030027961E+01  0.29413715558E+02  0.49230204279E+01  0.94948127799E+02  0.90066819361E+02 0.  0.
         13    1    3    3    0    0  0.20213520553E+02  0.44611291785E+01  0.40414479678E+02  0.45407371851E+02  0.10566000000E+00 0.  1.
         22    1    1    0    0    0  0.37030027961E+01 -0.29413715558E+02 -0.49230204279E+01  0.30051872201E+02  0.00000000000E+00 0.  1.
</event>
<event>
 5    1  0.1724235E-003  0.9118800E+02  0.7818608E-02  0.1130116E+00
         25   -1    0    0    0    0  0.00000000000E+00  0.00000000000E+00  0.99999998245E-14  0.12500000000E+03  0.12500000000E+03 0.  0.
        -13    1    3    3    0    0  0.41103644373E+02 -0.91059902080E+01  0.24985132356E+01  0.42174427926E+02  0.10566000000E+00 0. -1.
         23    2    1    0    0    0 -0.99733500690E+01 -0.26863068249E+02  0.23338772978E+01  0.96250406427E+02  0.91856418430E+02 0.  0.
         13    1    3    3    0    0 -0.51076994442E+02 -0.17757078041E+02 -0.16463593775E+00  0.54075978501E+02  0.10566000000E+00 0.  1.
         22    1    1    0    0    0  0.99733500690E+01  0.26863068249E+02 -0.23338772978E+01  0.28749593573E+02  0.00000000000E+00 0.  1.
</event>
<event>
 5    1  0.1724235E-003  0.9118800E+02  0.7818608E-02  0.1130116E+00
         25   -1    0    0    0    0  0.00000000000E+00  0.00000000000E+00  0.99999998245E-14  0.12500000000E+03  0.12500000000E+03 0.  0.
        -13    1    3    3    0    0  0.29275917934E+02 -0.39337623179E+02  0.94704253032E+01  0.49942247523E+02  0.10566000000E+00 0.  1.
         23    2    1    0    0    0 -0.13638061127E+02 -0.25571052153E+02 -0.11822070076E+00  0.96019154677E+02  0.91541185644E+02 0.  0.
         13    1    3    3    0    0 -0.42913979061E+02  0.13766571025E+02 -0.95886460039E+01  0.46076907154E+02  0.10566000000E+00 0. -1.
         22    1    1    0    0    0  0.13638061127E+02  0.25571052153E+02  0.11822070076E+00  0.28980845323E+02  0.00000000000E+00 0. -1.
</event>
<event>
 5    1  0.1724235E-003  0.9118800E+02  0.7818608E-02  0.1130116E+00
         25   -1    0    0    0    0  0.00000000000E+00  0.00000000000E+00  0.99999998245E-14  0.12500000000E+03  0.12500000000E+03 0.  0.
        -13    1    3    3    0    0  0.25589143500E+02 -0.32770460900E+02 -0.11660927048E+02  0.43182123110E+02  0.10566000000E+00 0.  1.
         23    2    1    0    0    0  0.19854142297E+02  0.11634162591E+02  0.17040963834E+02  0.96365490157E+02  0.92012893332E+02 0.  0.
         13    1    3    3    0    0 -0.57350012026E+01  0.44404623491E+02  0.28701890883E+02  0.53183367047E+02  0.10566000000E+00 0. -1.
         22    1    1    0    0    0 -0.19854142297E+02 -0.11634162591E+02 -0.17040963834E+02  0.28634509843E+02  0.00000000000E+00 0. -1.
</event>
<event>
 5    1  0.1724235E-003  0.9118800E+02  0.7818608E-02  0.1130116E+00
         25   -1    0    0    0    0  0.00000000000E+00  0.00000000000E+00  0.99999998245E-14  0.12500000000E+03  0.12500000000E+03 0.  0.
        -13    1    3    3    0    0 -0.32178804423E+02  0.33764547830E+01  0.37064040278E+01  0.32567230398E+02  0.10566000000E+00 0. -1.
         23    2    1    0    0    0  0.26463365469E+02  0.42690888997E+01 -0.15195579262E+02  0.94187008242E+02  0.89004224959E+02 0.  0.
         13    1    3    3    0    0  0.58642169891E+02  0.89263411669E+00 -0.18901983290E+02  0.61619777844E+02  0.10566000000E+00 0.  1.
         22    1    1    0    0    0 -0.26463365469E+02 -0.42690888997E+01  0.15195579262E+02  0.30812991758E+02  0.00000000000E+00 0.  1.
</event>
<event>
 5    1  0.1724235E-003  0.9118800E+02  0.7818608E-02  0.1130116E+00
         25   -1    0    0    0    0  0.00000000000E+00  0.00000000000E+00  0.99999998245E-14  0.12500000000E+03  0.12500000000E+03 0.  0.
        -13    1    3    3    0    0  0.26133181114E+01 -0.14897871721E+02  0.34102591899E+02  0.37306486723E+02  0.10566000000E+00 0. -1.
         23    2    1    0    0    0 -0.24762941127E+02  0.15113617847E+02 -0.70644590667E+01  0.95141478945E+02  0.90334764826E+02 0.  0.
         13    1    3    3    0    0 -0.27376259239E+02  0.30011489568E+02 -0.41167050966E+02  0.57834992221E+02  0.10566000000E+00 0.  1.
         22    1    1    0    0    0  0.24762941127E+02 -0.15113617847E+02  0.70644590667E+01  0.29858521055E+02  0.00000000000E+00 0.  1.
</event>
<event>
 5    1  0.1724235E-003  0.9118800E+02  0.7818608E-02  0.1130116E+00
         25   -1    0    0    0    0  0.00000000000E+00  0.00000000000E+00  0.99999998245E-14  0.12500000000E+03  0.12500000000E+03 0.  0.
        -13    1    3    3    0    0 -0.30713901972E+02  0.17282665483E+00  0.12582428826E+02  0.33191901461E+02  0.10566000000E+00 0.  1.
         23    2    1    0    0    0  0.26536777291E+02 -0.10759275742E+02 -0.84314437561E+01  0.95149509095E+02  0.90345875798E+02 0.  0.
         13    1    3    3    0    0  0.57250679262E+02 -0.10932102397E+02 -0.21013872582E+02  0.61957607634E+02  0.10566000000E+00 0. -1.
         22    1    1    0    0    0 -0.26536777291E+02  0.10759275742E+02  0.84314437561E+01  0.29850490905E+02  0.00000000000E+00 0. -1.
</event>
<event>
 5    1  0.1724235E-003  0.9118800E+02  0.7818608E-02  0.1130116E+00
         25   -1    0    0    0    0  0.00000000000E+00  0.00000000000E+00  0.99999998245E-14  0.12500000000E+03  0.12500000000E+03 0.  0.
        -13    1    3    3    0    0 -0.62576969384E+00  0.29441371918E+01 -0.35502705689E+02  0.35630223221E+02  0.10566000000E+00 0. -1.
         23    2    1    0    0    0 -0.24838458472E+01 -0.16932934646E+02  0.22361165457E+02  0.96841244940E+02  0.92656954597E+02 0.  0.
         13    1    3    3    0    0 -0.18580761534E+01 -0.19877071838E+02  0.57863871146E+02  0.61211021719E+02  0.10566000000E+00 0.  1.
         22    1    1    0    0    0  0.24838458472E+01  0.16932934646E+02 -0.22361165457E+02  0.28158755060E+02  0.00000000000E+00 0.  1.
</event>
<event>
 5    1  0.1724235E-003  0.9118800E+02  0.7818608E-02  0.1130116E+00
         25   -1    0    0    0    0  0.00000000000E+00  0.00000000000E+00  0.99999998245E-14  0.12500000000E+03  0.12500000000E+03 0.  0.
        -13    1    3    3    0    0 -0.65028712500E+01 -0.16227061729E+02  0.43599886273E+02  0.46974100459E+02  0.10566000000E+00 0.  1.
         23    2    1    0    0    0  0.15381295154E+02  0.18215711452E+02  0.17702195118E+02  0.95305487101E+02  0.90561425427E+02 0.  0.
         13    1    3    3    0    0  0.21884166404E+02  0.34442773181E+02 -0.25897691155E+02  0.48331386643E+02  0.10566000000E+00 0. -1.
         22    1    1    0    0    0 -0.15381295154E+02 -0.18215711452E+02 -0.17702195118E+02  0.29694512899E+02  0.00000000000E+00 0. -1.
</event>
<event>
 5    1  0.1724235E-003  0.9118800E+02  0.7818608E-02  0.1130116E+00
         25   -1    0    0    0    0  0.00000000000E+00  0.00000000000E+00  0.99999998245E-14  0.12500000000E+03  0.12500000000E+03 0.  0.
        -13    1    3    3    0    0  0.50444855308E+02  0.39308094184E+01 -0.94744707039E+01  0.51477290613E+02  0.10566000000E+00 0.  1.
         23    2    1    0    0    0  0.13778952190E+02  0.41464640128E+01  0.21264673070E+02  0.99324349900E+02  0.95948358376E+02 0.  0.
         13    1    3    3    0    0 -0.36665903118E+02  0.21565459439E+00  0.30739143774E+02  0.47847059287E+02  0.10566000000E+00 0. -1.
         22    1    1    0    0    0 -0.13778952190E+02 -0.41464640128E+01 -0.21264673070E+02  0.25675650100E+02  0.00000000000E+00 0.  1.
</event>
<event>
 5    1  0.1724235E-003  0.9118800E+02  0.7818608E-02  0.1130116E+00
         25   -1    0    0    0    0  0.00000000000E+00  0.00000000000E+00  0.99999998245E-14  0.12500000000E+03  0.12500000000E+03 0.  0.
        -13    1    3    3    0    0  0.36327962949E+02 -0.21560556487E+02  0.45887523545E+02  0.62371904486E+02  0.10566000000E+00 0.  1.
         23    2    1    0    0    0  0.16592657402E+02 -0.94509669306E+01  0.24885386589E+02  0.93632508528E+02  0.88222033143E+02 0.  0.
         13    1    3    3    0    0 -0.19735305547E+02  0.12109589557E+02 -0.21002136956E+02  0.31260604041E+02  0.10566000000E+00 0. -1.
         22    1    1    0    0    0 -0.16592657402E+02  0.94509669306E+01 -0.24885386589E+02  0.31367491472E+02  0.00000000000E+00 0.  1.
</event>
<event>
 5    1  0.1724235E-003  0.9118800E+02  0.7818608E-02  0.1130116E+00
         25   -1    0    0    0    0  0.00000000000E+00  0.00000000000E+00  0.99999998245E-14  0.12500000000E+03  0.12500000000E+03 0.  0.
        -13    1    3    3    0    0 -0.37376957146E+02 -0.10614348194E+02  0.29285830092E+02  0.48655650456E+02  0.10566000000E+00 0. -1.
         23    2    1    0    0    0 -0.14264281401E+02 -0.26841876169E+02 -0.61695054317E+01  0.93983571492E+02  0.88718052689E+02 0.  0.
         13    1    3    3    0    0  0.23112675745E+02 -0.16227527975E+02 -0.35455335524E+02  0.45327921035E+02  0.10566000000E+00 0.  1.
         22    1    1    0    0    0  0.14264281401E+02  0.26841876169E+02  0.61695054317E+01  0.31016428508E+02  0.00000000000E+00 0.  1.
</event>
<event>
 5    1  0.1724235E-003  0.9118800E+02  0.7818608E-02  0.1130116E+00
         25   -1    0    0    0    0  0.00000000000E+00  0.00000000000E+00  0.99999998245E-14  0.12500000000E+03  0.12500000000E+03 0.  0.
        -13    1    3    3    0    0  0.13479171989E+02 -0.29463456859E+02 -0.17735920496E+02  0.36937208983E+02  0.10566000000E+00 0.  1.
         23    2    1    0    0    0  0.14030778067E+02  0.23066629501E+02  0.98348966958E+01  0.96265746526E+02  0.91877291163E+02 0.  0.
         13    1    3    3    0    0  0.55160607881E+00  0.52530086360E+02  0.27570817192E+02  0.59328537542E+02  0.10566000000E+00 0. -1.
         22    1    1    0    0    0 -0.14030778067E+02 -0.23066629501E+02 -0.98348966958E+01  0.28734253474E+02  0.00000000000E+00 0. -1.
</event>
<event>
 5    1  0.1724235E-003  0.9118800E+02  0.7818608E-02  0.1130116E+00
         25   -1    0    0    0    0  0.00000000000E+00  0.00000000000E+00  0.99999998245E-14  0.12500000000E+03  0.12500000000E+03 0.  0.
        -13    1    3    3    0    0  0.19753943398E+00  0.16232986539E+02  0.46802708136E+02  0.49538404564E+02  0.10566000000E+00 0.  1.
         23    2    1    0    0    0  0.16004508361E+02  0.23137485735E+02  0.28887472349E+01  0.96718691780E+02  0.92491474986E+02 0.  0.
         13    1    3    3    0    0  0.15806968927E+02  0.69044991959E+01 -0.43913960901E+02  0.47180287217E+02  0.10566000000E+00 0. -1.
         22    1    1    0    0    0 -0.16004508361E+02 -0.23137485735E+02 -0.28887472349E+01  0.28281308220E+02  0.00000000000E+00 0.  1.
</event>
<event>
 5    1  0.1724235E-003  0.9118800E+02  0.7818608E-02  0.1130116E+00
         25   -1    0    0    0    0  0.00000000000E+00  0.00000000000E+00  0.99999998245E-14  0.12500000000E+03  0.12500000000E+03 0.  0.
        -13    1    3    3    0    0  0.30009981769E+02 -0.27524994593E+02 -0.80744140583E+00  0.40729442161E+02  0.10566000000E+00 0. -1.
         23    2    1    0    0    0 -0.20282673850E+02 -0.11949830270E+02 -0.17169714093E+02  0.95862663402E+02  0.91327245937E+02 0.  0.
         13    1    3    3    0    0 -0.50292655619E+02  0.15575164323E+02 -0.16362272687E+02  0.55133221241E+02  0.10566000000E+00 0.  1.
         22    1    1    0    0    0  0.20282673850E+02  0.11949830270E+02  0.17169714093E+02  0.29137336598E+02  0.00000000000E+00 0.  1.
</event>
<event>
 5    1  0.1724235E-003  0.9118800E+02  0.7818608E-02  0.1130116E+00
         25   -1    0    0    0    0  0.00000000000E+00  0.00000000000E+00  0.99999998245E-14  0.12500000000E+03  0.12500000000E+03 0.  0.
        -13    1    3    3    0    0 -0.36941867384E+02 -0.16076968905E+02  0.47750731014E+02  0.62476507356E+02  0.10566000000E+00 0. -1.
         23    2    1    0    0    0 -0.17398103465E+02 -0.85229408364E+01  0.24240185957E+02  0.93969029343E+02  0.88697561048E+02 0.  0.
         13    1    3    3    0    0  0.19543763919E+02  0.75540280684E+01 -0.23510545057E+02  0.31492521987E+02  0.10566000000E+00 0.  1.
         22    1    1    0    0    0  0.17398103465E+02  0.85229408364E+01 -0.24240185957E+02  0.31030970657E+02  0.00000000000E+00 0. -1.
</event>
<event>
 5    1  0.1724235E-003  0.9118800E+02  0.7818608E-02  0.1130116E+00
         25   -1    0    0    0    0  0.00000000000E+00  0.00000000000E+00  0.99999998245E-14  0.12500000000E+03  0.12500000000E+03 0.  0.
        -13    1    3    3    0    0 -0.14890167752E+02  0.31977376143E+02  0.15464214566E+02  0.38515227857E+02  0.10566000000E+00 0.  1.
         23    2    1    0    0    0  0.27456949925E+02 -0.56741350576E+01  0.90310819164E+01  0.95544264592E+02  0.90890407349E+02 0.  0.
         13    1    3    3    0    0  0.42347117677E+02 -0.37651511201E+02 -0.64331326494E+01  0.57029036735E+02  0.10566000000E+00 0. -1.
         22    1    1    0    0    0 -0.27456949925E+02  0.56741350576E+01 -0.90310819164E+01  0.29455735408E+02  0.00000000000E+00 0. -1.
</event>
<event>
 5    1  0.1724235E-003  0.9118800E+02  0.7818608E-02  0.1130116E+00
         25   -1    0    0    0    0  0.00000000000E+00  0.00000000000E+00  0.99999998245E-14  0.12500000000E+03  0.12500000000E+03 0.  0.
        -13    1    3    3    0    0 -0.24589005636E+00 -0.36406800150E+02 -0.32902906428E+01  0.36556158656E+02  0.10566000000E+00 0. -1.
         23    2    1    0    0    0 -0.20819602014E+02  0.18268650189E+02  0.82410626947E+01  0.96101651914E+02  0.91653766854E+02 0.  0.
         13    1    3    3    0    0 -0.20573711958E+02  0.54675450339E+02  0.11531353338E+02  0.59545493258E+02  0.10566000000E+00 0.  1.
         22    1    1    0    0    0  0.20819602014E+02 -0.18268650189E+02 -0.82410626947E+01  0.28898348086E+02  0.00000000000E+00 0.  1.
</event>
<event>
 5    1  0.1724235E-003  0.9118800E+02  0.7818608E-02  0.1130116E+00
         25   -1    0    0    0    0  0.00000000000E+00  0.00000000000E+00  0.99999998245E-14  0.12500000000E+03  0.12500000000E+03 0.  0.
        -13    1    3    3    0    0 -0.38963355203E+02 -0.25610418582E+02 -0.26838358038E+02  0.53799119090E+02  0.10566000000E+00 0. -1.
         23    2    1    0    0    0 -0.15037155395E+02 -0.19785040635E+02  0.10084881884E+02  0.98180814369E+02  0.94446829445E+02 0.  0.
         13    1    3    3    0    0  0.23926199807E+02  0.58253779472E+01  0.36923239922E+02  0.44381695279E+02  0.10566000000E+00 0.  1.
         22    1    1    0    0    0  0.15037155395E+02  0.19785040635E+02 -0.10084881884E+02  0.26819185631E+02  0.00000000000E+00 0. -1.
</event>
<event>
 5    1  0.1724235E-003  0.9118800E+02  0.7818608E-02  0.1130116E+00
         25   -1    0    0    0    0  0.00000000000E+00  0.00000000000E+00  0.99999998245E-14  0.12500000000E+03  0.12500000000E+03 0.  0.
        -13    1    3    3    0    0  0.20133637143E+01  0.42419011211E+02  0.28472407243E+02  0.51128419532E+02  0.10566000000E+00 0.  1.
         23    2    1    0    0    0 -0.12862365800E+02  0.17329819978E+01  0.27648808649E+02  0.94456583356E+02  0.89382021901E+02 0.  0.
         13    1    3    3    0    0 -0.14875729514E+02 -0.40686029213E+02 -0.82359859447E+00  0.43328163824E+02  0.10566000000E+00 0. -1.
         22    1    1    0    0    0  0.12862365800E+02 -0.17329819978E+01 -0.27648808649E+02  0.30543416644E+02  0.00000000000E+00 0.  1.
</event>
<event>
 5    1  0.1724235E-003  0.9118800E+02  0.7818608E-02  0.1130116E+00
         25   -1    0    0    0    0  0.00000000000E+00  0.00000000000E+00  0.99999998245E-14  0.12500000000E+03  0.12500000000E+03 0.  0.
        -13    1    3    3    0    0 -0.14446221068E+02  0.26862015961E+02 -0.95566255707E+01  0.31962500855E+02  0.10566000000E+00 0.  1.
         23    2    1    0    0    0 -0.68109349597E+01 -0.16560335688E+02  0.29254688339E+02  0.90700286548E+02  0.83964704709E+02 0.  0.
         13    1    3    3    0    0  0.76352861079E+01 -0.43422351648E+02  0.38811313910E+02  0.58737785692E+02  0.10566000000E+00 0. -1.
         22    1    1    0    0    0  0.68109349597E+01  0.16560335688E+02 -0.29254688339E+02  0.34299713452E+02  0.00000000000E+00 0. -1.
</event>
<event>
 5    1  0.1724235E-003  0.9118800E+02  0.7818608E-02  0.1130116E+00
         25   -1    0    0    0    0  0.00000000000E+00  0.00000000000E+00  0.99999998245E-14  0.12500000000E+03  0.12500000000E+03 0.  0.
        -13    1    3    3    0    0 -0.46340601593E+01  0.23777999193E+02 -0.23597002593E+02  0.33818596283E+02  0.10566000000E+00 0.  1.
         23    2    1    0    0    0  0.10364027563E+02 -0.55883963870E+01  0.27757531673E+02  0.94848320012E+02  0.89928193594E+02 0.  0.
         13    1    3    3    0    0  0.14998087723E+02 -0.29366395580E+02  0.51354534266E+02  0.61029723729E+02  0.10566000000E+00 0. -1.
         22    1    1    0    0    0 -0.10364027563E+02  0.55883963870E+01 -0.27757531673E+02  0.30151679988E+02  0.00000000000E+00 0. -1.
</event>
<event>
 5    1  0.1724235E-003  0.9118800E+02  0.7818608E-02  0.1130116E+00
         25   -1    0    0    0    0  0.00000000000E+00  0.00000000000E+00  0.99999998245E-14  0.12500000000E+03  0.12500000000E+03 0.  0.
        -13    1    3    3    0    0 -0.15154879620E+00 -0.49726315949E+01  0.38886242054E+02  0.39203329159E+02  0.10566000000E+00 0. -1.
         23    2    1    0    0    0 -0.19433895797E+02  0.19649028475E+02 -0.85945983353E+01  0.96058200705E+02  0.91594487696E+02 0.  0.
         13    1    3    3    0    0 -0.19282347001E+02  0.24621660070E+02 -0.47480840389E+02  0.56854871547E+02  0.10566000000E+00 0.  1.
         22    1    1    0    0    0  0.19433895797E+02 -0.19649028475E+02  0.85945983353E+01  0.28941799295E+02  0.00000000000E+00 0.  1.
</event>
<event>
 5    1  0.1724235E-003  0.9118800E+02  0.7818608E-02  0.1130116E+00
         25   -1    0    0    0    0  0.00000000000E+00  0.00000000000E+00  0.99999998245E-14  0.12500000000E+03  0.12500000000E+03 0.  0.
        -13    1    3    3    0    0  0.21998539818E+01  0.61457697324E+02  0.78493073114E+01  0.61996053965E+02  0.10566000000E+00 0.  1.
         23    2    1    0    0    0 -0.21899284602E+01  0.33405711374E+02  0.87290976272E+01  0.90403259048E+02  0.83521343153E+02 0.  0.
         13    1    3    3    0    0 -0.43897824420E+01 -0.28051985950E+02  0.87979031584E+00  0.28407205083E+02  0.10566000000E+00 0. -1.
         22    1    1    0    0    0  0.21899284602E+01 -0.33405711374E+02 -0.87290976272E+01  0.34596740952E+02  0.00000000000E+00 0.  1.
</event>
<event>
 5    1  0.1724235E-003  0.9118800E+02  0.7818608E-02  0.1130116E+00
         25   -1    0    0    0    0  0.00000000000E+00  0.00000000000E+00  0.99999998245E-14  0.12500000000E+03  0.12500000000E+03 0.  0.
        -13    1    3    3    0    0  0.42411296808E+02  0.22258439886E+02  0.25743355831E+02  0.54377272611E+02  0.10566000000E+00 0.  1.
         23    2    1    0    0    0  0.28640913718E+01 -0.37552105996E+01  0.22703113116E+02  0.10181086523E+03  0.99134839025E+02 0.  0.
         13    1    3    3    0    0 -0.39547205436E+02 -0.26013650485E+02 -0.30402427151E+01  0.47433592624E+02  0.10566000000E+00 0. -1.
         22    1    1    0    0    0 -0.28640913718E+01  0.37552105996E+01 -0.22703113116E+02  0.23189134766E+02  0.00000000000E+00 0.  1.
</event>
<event>
 5    1  0.1724235E-003  0.9118800E+02  0.7818608E-02  0.1130116E+00
         25   -1    0    0    0    0  0.00000000000E+00  0.00000000000E+00  0.99999998245E-14  0.12500000000E+03  0.12500000000E+03 0.  0.
        -13    1    3    3    0    0  0.11484221438E+02  0.34024769216E+02  0.11093299932E+02  0.37585166351E+02  0.10566000000E+00 0.  1.
         23    2    1    0    0    0  0.26377766779E+02 -0.14704380515E+02 -0.10640069096E+02  0.92980998502E+02  0.87294041179E+02 0.  0.
         13    1    3    3    0    0  0.14893545341E+02 -0.48729149731E+02 -0.21733369027E+02  0.55395832150E+02  0.10566000000E+00 0. -1.
         22    1    1    0    0    0 -0.26377766779E+02  0.14704380515E+02  0.10640069096E+02  0.32019001498E+02  0.00000000000E+00 0. -1.
</event>
<event>
 5    1  0.1724235E-003  0.9118800E+02  0.7818608E-02  0.1130116E+00
         25   -1    0    0    0    0  0.00000000000E+00  0.00000000000E+00  0.99999998245E-14  0.12500000000E+03  0.12500000000E+03 0.  0.
        -13    1    3    3    0    0 -0.29786119315E+02  0.24292935854E+01 -0.37249899757E+02  0.47756471468E+02  0.10566000000E+00 0.  1.
         23    2    1    0    0    0  0.15080274577E+02  0.93791543149E+01 -0.24174722800E+02  0.95003326194E+02  0.90143394370E+02 0.  0.
         13    1    3    3    0    0  0.44866393892E+02  0.69498607295E+01  0.13075176957E+02  0.47246854726E+02  0.10566000000E+00 0. -1.
         22    1    1    0    0    0 -0.15080274577E+02 -0.93791543149E+01  0.24174722800E+02  0.29996673806E+02  0.00000000000E+00 0.  1.
</event>
<event>
 5    1  0.1724235E-003  0.9118800E+02  0.7818608E-02  0.1130116E+00
         25   -1    0    0    0    0  0.00000000000E+00  0.00000000000E+00  0.99999998245E-14  0.12500000000E+03  0.12500000000E+03 0.  0.
        -13    1    3    3    0    0 -0.18309760362E+02 -0.28979063406E+02  0.14360270260E+02  0.37165332857E+02  0.10566000000E+00 0.  1.
         23    2    1    0    0    0 -0.88293514012E+01  0.14253998550E+02 -0.23991435216E+02  0.95730171088E+02  0.91145722730E+02 0.  0.
         13    1    3    3    0    0  0.94804089612E+01  0.43233061956E+02 -0.38351705475E+02  0.58564838231E+02  0.10566000000E+00 0. -1.
         22    1    1    0    0    0  0.88293514012E+01 -0.14253998550E+02  0.23991435216E+02  0.29269828912E+02  0.00000000000E+00 0. -1.
</event>
<event>
 5    1  0.1724235E-003  0.9118800E+02  0.7818608E-02  0.1130116E+00
         25   -1    0    0    0    0  0.00000000000E+00  0.00000000000E+00  0.99999998245E-14  0.12500000000E+03  0.12500000000E+03 0.  0.
        -13    1    3    3    0    0 -0.32914225717E+02  0.25406719094E+02 -0.19148243999E+02  0.45776784968E+02  0.10566000000E+00 0.  1.
         23    2    1    0    0    0 -0.29921200509E+02  0.35794270742E+02  0.10366475741E+02  0.77209081646E+02  0.60640501412E+02 0.  0.
         13    1    3    3    0    0  0.29930252084E+01  0.10387551647E+02  0.29514719740E+02  0.31432296678E+02  0.10566000000E+00 0. -1.
         22    1    1    0    0    0  0.29921200509E+02 -0.35794270742E+02 -0.10366475741E+02  0.47790918354E+02  0.00000000000E+00 0. -1.
</event>
<event>
 5    1  0.1724235E-003  0.9118800E+02  0.7818608E-02  0.1130116E+00
         25   -1    0    0    0    0  0.00000000000E+00  0.00000000000E+00  0.99999998245E-14  0.12500000000E+03  0.12500000000E+03 0.  0.
        -13    1    3    3    0    0 -0.17334812684E+02  0.48879295476E+02 -0.17505120619E+02  0.54736840144E+02  0.10566000000E+00 0. -1.
         23    2    1    0    0    0 -0.19734876024E+01  0.11261733811E+02 -0.26309981545E+02  0.96313131390E+02  0.91941736157E+02 0.  0.
         13    1    3    3    0    0  0.15361325081E+02 -0.37617561665E+02 -0.88048609263E+01  0.41576291246E+02  0.10566000000E+00 0.  1.
         22    1    1    0    0    0  0.19734876024E+01 -0.11261733811E+02  0.26309981545E+02  0.28686868610E+02  0.00000000000E+00 0. -1.
</event>
<event>
 5    1  0.1724235E-003  0.9118800E+02  0.7818608E-02  0.1130116E+00
         25   -1    0    0    0    0  0.00000000000E+00  0.00000000000E+00  0.99999998245E-14  0.12500000000E+03  0.12500000000E+03 0.  0.
        -13    1    3    3    0    0  0.16374111624E+02  0.47289544175E+01  0.35982648110E+02  0.39815030709E+02  0.10566000000E+00 0.  1.
         23    2    1    0    0    0 -0.24592918023E+02  0.17442016171E+02  0.15673307219E+01  0.94809073042E+02  0.89873623831E+02 0.  0.
         13    1    3    3    0    0 -0.40967029647E+02  0.12713061753E+02 -0.34415317388E+02  0.54994042333E+02  0.10566000000E+00 0. -1.
         22    1    1    0    0    0  0.24592918023E+02 -0.17442016171E+02 -0.15673307219E+01  0.30190926958E+02  0.00000000000E+00 0. -1.
</event>
<event>
 5    1  0.1724235E-003  0.9118800E+02  0.7818608E-02  0.1130116E+00
         25   -1    0    0    0    0  0.00000000000E+00  0.00000000000E+00  0.99999998245E-14  0.12500000000E+03  0.12500000000E+03 0.  0.
        -13    1    3    3    0    0  0.14431908976E+02 -0.11476210037E+01  0.25645364572E+02  0.29449837330E+02  0.10566000000E+00 0. -1.
         23    2    1    0    0    0 -0.26802310915E+02 -0.78614207293E+00 -0.20435139190E+02  0.91286845246E+02  0.84833432747E+02 0.  0.
         13    1    3    3    0    0 -0.41234219892E+02  0.36147893072E+00 -0.46080503762E+02  0.61837007917E+02  0.10566000000E+00 0.  1.
         22    1    1    0    0    0  0.26802310915E+02  0.78614207293E+00  0.20435139190E+02  0.33713154754E+02  0.00000000000E+00 0.  1.
</event>
<event>
 5    1  0.1724235E-003  0.9118800E+02  0.7818608E-02  0.1130116E+00
         25   -1    0    0    0    0  0.00000000000E+00  0.00000000000E+00  0.99999998245E-14  0.12500000000E+03  0.12500000000E+03 0.  0.
        -13    1    3    3    0    0  0.51457089308E+01 -0.33643340971E+02 -0.21284448715E+02  0.40142142858E+02  0.10566000000E+00 0. -1.
         23    2    1    0    0    0  0.25296893194E+02  0.14850354054E+02 -0.41890462840E+01  0.95368700171E+02  0.90648635085E+02 0.  0.
         13    1    3    3    0    0  0.20151184263E+02  0.48493695025E+02  0.17095402431E+02  0.55226557313E+02  0.10566000000E+00 0.  1.
         22    1    1    0    0    0 -0.25296893194E+02 -0.14850354054E+02  0.41890462840E+01  0.29631299829E+02  0.00000000000E+00 0. -1.
</event>
<event>
 5    1  0.1724235E-003  0.9118800E+02  0.7818608E-02  0.1130116E+00
         25   -1    0    0    0    0  0.00000000000E+00  0.00000000000E+00  0.99999998245E-14  0.12500000000E+03  0.12500000000E+03 0.  0.
        -13    1    3    3    0    0 -0.20200863209E+02  0.30268142803E+02  0.17705252371E+02  0.40468783879E+02  0.10566000000E+00 0. -1.
         23    2    1    0    0    0  0.17457454006E+02  0.14385526740E+02  0.33745200426E+02  0.84374335307E+02  0.73949873744E+02 0.  0.
         13    1    3    3    0    0  0.37658317215E+02 -0.15882616063E+02  0.16039948055E+02  0.43905551427E+02  0.10566000000E+00 0.  1.
         22    1    1    0    0    0 -0.17457454006E+02 -0.14385526740E+02 -0.33745200426E+02  0.40625664693E+02  0.00000000000E+00 0. -1.
</event>
<event>
 5    1  0.1724235E-003  0.9118800E+02  0.7818608E-02  0.1130116E+00
         25   -1    0    0    0    0  0.00000000000E+00  0.00000000000E+00  0.99999998245E-14  0.12500000000E+03  0.12500000000E+03 0.  0.
        -13    1    3    3    0    0  0.63242773509E+01 -0.39331316057E+02 -0.25840360500E+02  0.47483516104E+02  0.10566000000E+00 0.  1.
         23    2    1    0    0    0 -0.25176412808E+02 -0.13868010627E+02  0.12774982672E+01  0.96228391035E+02  0.91826454569E+02 0.  0.
         13    1    3    3    0    0 -0.31500690159E+02  0.25463305430E+02  0.27117858767E+02  0.48744874931E+02  0.10566000000E+00 0. -1.
         22    1    1    0    0    0  0.25176412808E+02  0.13868010627E+02 -0.12774982672E+01  0.28771608965E+02  0.00000000000E+00 0. -1.
</event>
<event>
 5    1  0.1724235E-003  0.9118800E+02  0.7818608E-02  0.1130116E+00
         25   -1    0    0    0    0  0.00000000000E+00  0.00000000000E+00  0.99999998245E-14  0.12500000000E+03  0.12500000000E+03 0.  0.
        -13    1    3    3    0    0  0.54965267096E+01 -0.29416029028E+02  0.47445563827E+02  0.56094627734E+02  0.10566000000E+00 0. -1.
         23    2    1    0    0    0 -0.11767323915E+02 -0.38483241755E+00  0.26917856761E+02  0.95619921363E+02  0.90994397304E+02 0.  0.
         13    1    3    3    0    0 -0.17263850625E+02  0.29031196610E+02 -0.20527707067E+02  0.39525293629E+02  0.10566000000E+00 0.  1.
         22    1    1    0    0    0  0.11767323915E+02  0.38483241755E+00 -0.26917856761E+02  0.29380078637E+02  0.00000000000E+00 0. -1.
</event>
<event>
 5    1  0.1724235E-003  0.9118800E+02  0.7818608E-02  0.1130116E+00
         25   -1    0    0    0    0  0.00000000000E+00  0.00000000000E+00  0.99999998245E-14  0.12500000000E+03  0.12500000000E+03 0.  0.
        -13    1    3    3    0    0 -0.71441274176E+01  0.32942127233E+02  0.30696489507E+02  0.45590656227E+02  0.10566000000E+00 0.  1.
         23    2    1    0    0    0  0.23978842752E+02 -0.29004644363E+01  0.18426491196E+02  0.94620184802E+02  0.89610525055E+02 0.  0.
         13    1    3    3    0    0  0.31122970169E+02 -0.35842591669E+02 -0.12269998311E+02  0.49029528575E+02  0.10566000000E+00 0. -1.
         22    1    1    0    0    0 -0.23978842752E+02  0.29004644363E+01 -0.18426491196E+02  0.30379815198E+02  0.00000000000E+00 0. -1.
</event>
<event>
 5    1  0.1724235E-003  0.9118800E+02  0.7818608E-02  0.1130116E+00
         25   -1    0    0    0    0  0.00000000000E+00  0.00000000000E+00  0.99999998245E-14  0.12500000000E+03  0.12500000000E+03 0.  0.
        -13    1    3    3    0    0 -0.44251845989E+02 -0.41532141767E+01 -0.57846461295E+01  0.44821293559E+02  0.10566000000E+00 0. -1.
         23    2    1    0    0    0  0.34269220807E+01 -0.79324236891E+00 -0.27468599641E+02  0.97307094868E+02  0.93283298167E+02 0.  0.
         13    1    3    3    0    0  0.47678768069E+02  0.33599718078E+01 -0.21683953512E+02  0.52485801309E+02  0.10566000000E+00 0.  1.
         22    1    1    0    0    0 -0.34269220807E+01  0.79324236891E+00  0.27468599641E+02  0.27692905132E+02  0.00000000000E+00 0.  1.
</event>
<event>
 5    1  0.1724235E-003  0.9118800E+02  0.7818608E-02  0.1130116E+00
         25   -1    0    0    0    0  0.00000000000E+00  0.00000000000E+00  0.99999998245E-14  0.12500000000E+03  0.12500000000E+03 0.  0.
        -13    1    3    3    0    0 -0.16856478482E+02 -0.17031100851E+01 -0.54639247302E+02  0.57205768596E+02  0.10566000000E+00 0.  1.
         23    2    1    0    0    0 -0.21169703777E+02 -0.93121655328E+01 -0.15865708592E+02  0.96953725844E+02  0.92808574285E+02 0.  0.
         13    1    3    3    0    0 -0.43132252947E+01 -0.76090554477E+01  0.38773538710E+02  0.39747957248E+02  0.10566000000E+00 0. -1.
         22    1    1    0    0    0  0.21169703777E+02  0.93121655328E+01  0.15865708592E+02  0.28046274156E+02  0.00000000000E+00 0.  1.
</event>
<event>
 5    1  0.1724235E-003  0.9118800E+02  0.7818608E-02  0.1130116E+00
         25   -1    0    0    0    0  0.00000000000E+00  0.00000000000E+00  0.99999998245E-14  0.12500000000E+03  0.12500000000E+03 0.  0.
        -13    1    3    3    0    0 -0.40888264808E+02  0.87995744081E+01 -0.17844812517E+02  0.45472312527E+02  0.10566000000E+00 0.  1.
         23    2    1    0    0    0 -0.16969672507E+02  0.52966869308E+01  0.24796632895E+02  0.94489384136E+02  0.89427881749E+02 0.  0.
         13    1    3    3    0    0  0.23918592301E+02 -0.35028874773E+01  0.42641445412E+02  0.49017071610E+02  0.10566000000E+00 0. -1.
         22    1    1    0    0    0  0.16969672507E+02 -0.52966869308E+01 -0.24796632895E+02  0.30510615864E+02  0.00000000000E+00 0. -1.
</event>
<event>
 5    1  0.1724235E-003  0.9118800E+02  0.7818608E-02  0.1130116E+00
         25   -1    0    0    0    0  0.00000000000E+00  0.00000000000E+00  0.99999998245E-14  0.12500000000E+03  0.12500000000E+03 0.  0.
        -13    1    3    3    0    0  0.43747205228E+02  0.10018986691E+02  0.39912513032E+02  0.60060119215E+02  0.10566000000E+00 0. -1.
         23    2    1    0    0    0  0.25634489057E+02 -0.64151188349E+01  0.24473672509E+02  0.88982762114E+02  0.81367625801E+02 0.  0.
         13    1    3    3    0    0 -0.18112716171E+02 -0.16434105526E+02 -0.15438840523E+02  0.28922642899E+02  0.10566000000E+00 0.  1.
         22    1    1    0    0    0 -0.25634489057E+02  0.64151188349E+01 -0.24473672509E+02  0.36017237886E+02  0.00000000000E+00 0. -1.
</event>
<event>
 5    1  0.1724235E-003  0.9118800E+02  0.7818608E-02  0.1130116E+00
         25   -1    0    0    0    0  0.00000000000E+00  0.00000000000E+00  0.99999998245E-14  0.12500000000E+03  0.12500000000E+03 0.  0.
        -13    1    3    3    0    0  0.23836082169E+01  0.41412863921E+02  0.18554735947E+02  0.45442230099E+02  0.10566000000E+00 0.  1.
         23    2    1    0    0    0  0.17640365336E+02 -0.52059525567E+01  0.23963882169E+02  0.94791523047E+02  0.89849211247E+02 0.  0.
         13    1    3    3    0    0  0.15256757119E+02 -0.46618816478E+02  0.54091462223E+01  0.49349292948E+02  0.10566000000E+00 0. -1.
         22    1    1    0    0    0 -0.17640365336E+02  0.52059525567E+01 -0.23963882169E+02  0.30208476953E+02  0.00000000000E+00 0.  1.
</event>
<event>
 5    1  0.1724235E-003  0.9118800E+02  0.7818608E-02  0.1130116E+00
         25   -1    0    0    0    0  0.00000000000E+00  0.00000000000E+00  0.99999998245E-14  0.12500000000E+03  0.12500000000E+03 0.  0.
        -13    1    3    3    0    0  0.47399770901E+01 -0.28643220101E+02 -0.32748073256E+02  0.43764699320E+02  0.10566000000E+00 0.  1.
         23    2    1    0    0    0 -0.28501738395E+02 -0.19002096530E+01 -0.19789268497E+01  0.96366522395E+02  0.92014295622E+02 0.  0.
         13    1    3    3    0    0 -0.33241715485E+02  0.26743010448E+02  0.30769146406E+02  0.52601823075E+02  0.10566000000E+00 0. -1.
         22    1    1    0    0    0  0.28501738395E+02  0.19002096530E+01  0.19789268497E+01  0.28633477605E+02  0.00000000000E+00 0. -1.
</event>
<event>
 5    1  0.1724235E-003  0.9118800E+02  0.7818608E-02  0.1130116E+00
         25   -1    0    0    0    0  0.00000000000E+00  0.00000000000E+00  0.99999998245E-14  0.12500000000E+03  0.12500000000E+03 0.  0.
        -13    1    3    3    0    0 -0.67729647878E-01 -0.48752463648E+02 -0.36080697996E+02  0.60651753733E+02  0.10566000000E+00 0. -1.
         23    2    1    0    0    0 -0.71605687469E+01 -0.25083891395E+02 -0.87740460506E+01  0.97478022666E+02  0.93512061609E+02 0.  0.
         13    1    3    3    0    0 -0.70928390990E+01  0.23668572253E+02  0.27306651945E+02  0.36826268932E+02  0.10566000000E+00 0.  1.
         22    1    1    0    0    0  0.71605687469E+01  0.25083891395E+02  0.87740460506E+01  0.27521977334E+02  0.00000000000E+00 0. -1.
</event>
<event>
 5    1  0.1724235E-003  0.9118800E+02  0.7818608E-02  0.1130116E+00
         25   -1    0    0    0    0  0.00000000000E+00  0.00000000000E+00  0.99999998245E-14  0.12500000000E+03  0.12500000000E+03 0.  0.
        -13    1    3    3    0    0  0.11201652218E+02  0.17547448480E+02  0.28083251151E+02  0.34958119512E+02  0.10566000000E+00 0.  1.
         23    2    1    0    0    0 -0.19320084153E+02 -0.10034978325E+02 -0.18014055824E+02  0.96742741660E+02  0.92523972110E+02 0.  0.
         13    1    3    3    0    0 -0.30521736371E+02 -0.27582426805E+02 -0.46097306975E+02  0.61784622148E+02  0.10566000000E+00 0. -1.
         22    1    1    0    0    0  0.19320084153E+02  0.10034978325E+02  0.18014055824E+02  0.28257258340E+02  0.00000000000E+00 0. -1.
</event>
<event>
 5    1  0.1724235E-003  0.9118800E+02  0.7818608E-02  0.1130116E+00
         25   -1    0    0    0    0  0.00000000000E+00  0.00000000000E+00  0.99999998245E-14  0.12500000000E+03  0.12500000000E+03 0.  0.
        -13    1    3    3    0    0  0.50197140324E+01 -0.60666734009E+01  0.37182402473E+02  0.38007160810E+02  0.10566000000E+00 0.  1.
         23    2    1    0    0    0  0.15778368470E+02  0.20555057018E+02 -0.13140683291E+02  0.95945829250E+02  0.91441004547E+02 0.  0.
         13    1    3    3    0    0  0.10758654438E+02  0.26621730419E+02 -0.50323085764E+02  0.57938668441E+02  0.10566000000E+00 0. -1.
         22    1    1    0    0    0 -0.15778368470E+02 -0.20555057018E+02  0.13140683291E+02  0.29054170750E+02  0.00000000000E+00 0. -1.
</event>
<event>
 5    1  0.1724235E-003  0.9118800E+02  0.7818608E-02  0.1130116E+00
         25   -1    0    0    0    0  0.00000000000E+00  0.00000000000E+00  0.99999998245E-14  0.12500000000E+03  0.12500000000E+03 0.  0.
        -13    1    3    3    0    0  0.26532379692E+02 -0.12119764320E+02  0.48725832804E+02  0.56789733278E+02  0.10566000000E+00 0.  1.
         23    2    1    0    0    0 -0.30924004300E+01  0.29281356499E+01  0.29531695237E+02  0.95162809408E+02  0.90364275862E+02 0.  0.
         13    1    3    3    0    0 -0.29624780122E+02  0.15047899970E+02 -0.19194137566E+02  0.38373076131E+02  0.10566000000E+00 0. -1.
         22    1    1    0    0    0  0.30924004300E+01 -0.29281356499E+01 -0.29531695237E+02  0.29837190592E+02  0.00000000000E+00 0.  1.
</event>
<event>
 5    1  0.1724235E-003  0.9118800E+02  0.7818608E-02  0.1130116E+00
         25   -1    0    0    0    0  0.00000000000E+00  0.00000000000E+00  0.99999998245E-14  0.12500000000E+03  0.12500000000E+03 0.  0.
        -13    1    3    3    0    0 -0.36390316020E+02  0.39961214947E+01 -0.45453724951E+02  0.58363313502E+02  0.10566000000E+00 0.  1.
         23    2    1    0    0    0 -0.14618190731E+02  0.17472076111E+02 -0.17486711531E+02  0.96281538620E+02  0.91898773958E+02 0.  0.
         13    1    3    3    0    0  0.21772125289E+02  0.13475954616E+02  0.27967013420E+02  0.37918225117E+02  0.10566000000E+00 0. -1.
         22    1    1    0    0    0  0.14618190731E+02 -0.17472076111E+02  0.17486711531E+02  0.28718461380E+02  0.00000000000E+00 0.  1.
</event>
<event>
 5    1  0.1724235E-003  0.9118800E+02  0.7818608E-02  0.1130116E+00
         25   -1    0    0    0    0  0.00000000000E+00  0.00000000000E+00  0.99999998245E-14  0.12500000000E+03  0.12500000000E+03 0.  0.
        -13    1    3    3    0    0  0.26153143607E+02 -0.13363461573E+02  0.21052928631E+02  0.36135937703E+02  0.10566000000E+00 0.  1.
         23    2    1    0    0    0 -0.76268322840E+01  0.29528489048E+02  0.42560789663E+00  0.94499485607E+02  0.89442000211E+02 0.  0.
         13    1    3    3    0    0 -0.33779975891E+02  0.42891950621E+02 -0.20627320734E+02  0.58363547904E+02  0.10566000000E+00 0. -1.
         22    1    1    0    0    0  0.76268322840E+01 -0.29528489048E+02 -0.42560789663E+00  0.30500514393E+02  0.00000000000E+00 0. -1.
</event>
<event>
 5    1  0.1724235E-003  0.9118800E+02  0.7818608E-02  0.1130116E+00
         25   -1    0    0    0    0  0.00000000000E+00  0.00000000000E+00  0.99999998245E-14  0.12500000000E+03  0.12500000000E+03 0.  0.
        -13    1    3    3    0    0 -0.31105752867E+01  0.48344187012E+02  0.78456379195E+01  0.49075465305E+02  0.10566000000E+00 0. -1.
         23    2    1    0    0    0 -0.18414784076E+02  0.60348183872E+01  0.21462774295E+02  0.96083326852E+02  0.91628771207E+02 0.  0.
         13    1    3    3    0    0 -0.15304208789E+02 -0.42309368625E+02  0.13617136376E+02  0.47007861547E+02  0.10566000000E+00 0.  1.
         22    1    1    0    0    0  0.18414784076E+02 -0.60348183872E+01 -0.21462774295E+02  0.28916673148E+02  0.00000000000E+00 0. -1.
</event>
<event>
 5    1  0.1724235E-003  0.9118800E+02  0.7818608E-02  0.1130116E+00
         25   -1    0    0    0    0  0.00000000000E+00  0.00000000000E+00  0.99999998245E-14  0.12500000000E+03  0.12500000000E+03 0.  0.
        -13    1    3    3    0    0  0.19060418752E+02 -0.10798481933E+02  0.51661107147E+02  0.56114061792E+02  0.10566000000E+00 0.  1.
         23    2    1    0    0    0 -0.92560216812E+01  0.21566717267E+01  0.28597735932E+02  0.94864378707E+02  0.89950512376E+02 0.  0.
         13    1    3    3    0    0 -0.28316440433E+02  0.12955153660E+02 -0.23063371215E+02  0.38750316915E+02  0.10566000000E+00 0. -1.
         22    1    1    0    0    0  0.92560216812E+01 -0.21566717267E+01 -0.28597735932E+02  0.30135621293E+02  0.00000000000E+00 0.  1.
</event>
<event>
 5    1  0.1724235E-003  0.9118800E+02  0.7818608E-02  0.1130116E+00
         25   -1    0    0    0    0  0.00000000000E+00  0.00000000000E+00  0.99999998245E-14  0.12500000000E+03  0.12500000000E+03 0.  0.
        -13    1    3    3    0    0 -0.29924185920E+02 -0.98330269481E+01 -0.38799109723E+02  0.49975267896E+02  0.10566000000E+00 0. -1.
         23    2    1    0    0    0 -0.11139083495E+02  0.23451793029E+02 -0.14564751816E+02  0.95230925898E+02  0.90458451648E+02 0.  0.
         13    1    3    3    0    0  0.18785102425E+02  0.33284819978E+02  0.24234357907E+02  0.45255658003E+02  0.10566000000E+00 0.  1.
         22    1    1    0    0    0  0.11139083495E+02 -0.23451793029E+02  0.14564751816E+02  0.29769074102E+02  0.00000000000E+00 0. -1.
</event>
<event>
 5    1  0.1724235E-003  0.9118800E+02  0.7818608E-02  0.1130116E+00
         25   -1    0    0    0    0  0.00000000000E+00  0.00000000000E+00  0.99999998245E-14  0.12500000000E+03  0.12500000000E+03 0.  0.
        -13    1    3    3    0    0  0.27617369580E+02  0.18568786076E+02  0.74896542678E+01  0.34111948112E+02  0.10566000000E+00 0. -1.
         23    2    1    0    0    0 -0.23299851410E+02 -0.14099571621E+02 -0.81047188814E+01  0.96585787645E+02  0.92311683503E+02 0.  0.
         13    1    3    3    0    0 -0.50917220991E+02 -0.32668357697E+02 -0.15594373149E+02  0.62473839533E+02  0.10566000000E+00 0.  1.
         22    1    1    0    0    0  0.23299851410E+02  0.14099571621E+02  0.81047188814E+01  0.28414212355E+02  0.00000000000E+00 0.  1.
</event>
<event>
 5    1  0.1724235E-003  0.9118800E+02  0.7818608E-02  0.1130116E+00
         25   -1    0    0    0    0  0.00000000000E+00  0.00000000000E+00  0.99999998245E-14  0.12500000000E+03  0.12500000000E+03 0.  0.
        -13    1    3    3    0    0  0.26570367717E+02 -0.15894022017E+02 -0.16027790673E+02  0.34864102088E+02  0.10566000000E+00 0.  1.
         23    2    1    0    0    0 -0.42786050966E+01  0.23128308739E+02  0.18212045455E+02  0.95252668584E+02  0.90488491788E+02 0.  0.
         13    1    3    3    0    0 -0.30848972814E+02  0.39022330756E+02  0.34239836128E+02  0.60388566496E+02  0.10566000000E+00 0. -1.
         22    1    1    0    0    0  0.42786050966E+01 -0.23128308739E+02 -0.18212045455E+02  0.29747331416E+02  0.00000000000E+00 0. -1.
</event>
<event>
 5    1  0.1724235E-003  0.9118800E+02  0.7818608E-02  0.1130116E+00
         25   -1    0    0    0    0  0.00000000000E+00  0.00000000000E+00  0.99999998245E-14  0.12500000000E+03  0.12500000000E+03 0.  0.
        -13    1    3    3    0    0  0.59969733032E+01 -0.33526326902E+02  0.17452668757E+02  0.38269898029E+02  0.10566000000E+00 0. -1.
         23    2    1    0    0    0  0.22180508371E+02  0.17925827170E+02 -0.37719423158E+01  0.96233043606E+02  0.91832787726E+02 0.  0.
         13    1    3    3    0    0  0.16183535068E+02  0.51452154072E+02 -0.21224611073E+02  0.57963145577E+02  0.10566000000E+00 0.  1.
         22    1    1    0    0    0 -0.22180508371E+02 -0.17925827170E+02  0.37719423158E+01  0.28766956394E+02  0.00000000000E+00 0.  1.
</event>
<event>
 5    1  0.1724235E-003  0.9118800E+02  0.7818608E-02  0.1130116E+00
         25   -1    0    0    0    0  0.00000000000E+00  0.00000000000E+00  0.99999998245E-14  0.12500000000E+03  0.12500000000E+03 0.  0.
        -13    1    3    3    0    0 -0.16126383072E+02  0.17565289303E+02 -0.27672223825E+02  0.36528930380E+02  0.10566000000E+00 0.  1.
         23    2    1    0    0    0  0.21676701550E+02 -0.16793391780E+02  0.49431961260E+01  0.97137254523E+02  0.93055433107E+02 0.  0.
         13    1    3    3    0    0  0.37803084622E+02 -0.34358681083E+02  0.32615419951E+02  0.60608324142E+02  0.10566000000E+00 0. -1.
         22    1    1    0    0    0 -0.21676701550E+02  0.16793391780E+02 -0.49431961260E+01  0.27862745477E+02  0.00000000000E+00 0. -1.
</event>
<event>
 5    1  0.1724235E-003  0.9118800E+02  0.7818608E-02  0.1130116E+00
         25   -1    0    0    0    0  0.00000000000E+00  0.00000000000E+00  0.99999998245E-14  0.12500000000E+03  0.12500000000E+03 0.  0.
        -13    1    3    3    0    0  0.18626399239E+02  0.43710001078E+02 -0.23459289440E+02  0.52989209920E+02  0.10566000000E+00 0. -1.
         23    2    1    0    0    0 -0.11920239366E+02  0.13478373228E+02 -0.22778592907E+02  0.95972031655E+02  0.91476816263E+02 0.  0.
         13    1    3    3    0    0 -0.30546638605E+02 -0.30231627850E+02  0.68069653345E+00  0.42982821735E+02  0.10566000000E+00 0.  1.
         22    1    1    0    0    0  0.11920239366E+02 -0.13478373228E+02  0.22778592907E+02  0.29027968345E+02  0.00000000000E+00 0. -1.
</event>
<event>
 5    1  0.1724235E-003  0.9118800E+02  0.7818608E-02  0.1130116E+00
         25   -1    0    0    0    0  0.00000000000E+00  0.00000000000E+00  0.99999998245E-14  0.12500000000E+03  0.12500000000E+03 0.  0.
        -13    1    3    3    0    0  0.17683904364E+01 -0.22295295655E+02 -0.39201317120E+02  0.45132713646E+02  0.10566000000E+00 0. -1.
         23    2    1    0    0    0  0.21739671638E+00  0.23631032739E+02 -0.13247699753E+02  0.97908035907E+02  0.94085115597E+02 0.  0.
         13    1    3    3    0    0 -0.15509937201E+01  0.45926328394E+02  0.25953617367E+02  0.52775322261E+02  0.10566000000E+00 0.  1.
         22    1    1    0    0    0 -0.21739671638E+00 -0.23631032739E+02  0.13247699753E+02  0.27091964093E+02  0.00000000000E+00 0.  1.
</event>
<event>
 5    1  0.1724235E-003  0.9118800E+02  0.7818608E-02  0.1130116E+00
         25   -1    0    0    0    0  0.00000000000E+00  0.00000000000E+00  0.99999998245E-14  0.12500000000E+03  0.12500000000E+03 0.  0.
        -13    1    3    3    0    0 -0.36746481125E+02 -0.26799368909E+02 -0.19669114392E+02  0.49551945209E+02  0.10566000000E+00 0.  1.
         23    2    1    0    0    0  0.13746807751E+02  0.42649823775E+00 -0.10612311502E+02  0.10762824766E+03  0.10621705096E+03 0.  0.
         13    1    3    3    0    0  0.50493288875E+02  0.27225867147E+02  0.90568028900E+01  0.58076302447E+02  0.10566000000E+00 0. -1.
         22    1    1    0    0    0 -0.13746807751E+02 -0.42649823775E+00  0.10612311502E+02  0.17371752344E+02  0.00000000000E+00 0. -1.
</event>
<event>
 5    1  0.1724235E-003  0.9118800E+02  0.7818608E-02  0.1130116E+00
         25   -1    0    0    0    0  0.00000000000E+00  0.00000000000E+00  0.99999998245E-14  0.12500000000E+03  0.12500000000E+03 0.  0.
        -13    1    3    3    0    0  0.26957274277E+02  0.84094812396E+01 -0.44314400579E+02  0.52547038678E+02  0.10566000000E+00 0. -1.
         23    2    1    0    0    0  0.86080573660E+00 -0.18350383544E+02 -0.22960453152E+02  0.95594898883E+02  0.90960017155E+02 0.  0.
         13    1    3    3    0    0 -0.26096468540E+02 -0.26759864783E+02  0.21353947427E+02  0.43047860205E+02  0.10566000000E+00 0.  1.
         22    1    1    0    0    0 -0.86080573660E+00  0.18350383544E+02  0.22960453152E+02  0.29405101117E+02  0.00000000000E+00 0. -1.
</event>
<event>
 5    1  0.1724235E-003  0.9118800E+02  0.7818608E-02  0.1130116E+00
         25   -1    0    0    0    0  0.00000000000E+00  0.00000000000E+00  0.99999998245E-14  0.12500000000E+03  0.12500000000E+03 0.  0.
        -13    1    3    3    0    0  0.38363787368E+02  0.41243736906E+02 -0.11199742946E+02  0.57430579147E+02  0.10566000000E+00 0. -1.
         23    2    1    0    0    0  0.23639004963E+02  0.87031631863E+01  0.87398871602E+01  0.98336668763E+02  0.94652877351E+02 0.  0.
         13    1    3    3    0    0 -0.14724782405E+02 -0.32540573719E+02  0.19939630106E+02  0.40906089616E+02  0.10566000000E+00 0.  1.
         22    1    1    0    0    0 -0.23639004963E+02 -0.87031631863E+01 -0.87398871602E+01  0.26663331237E+02  0.00000000000E+00 0. -1.
</event>
<event>
 5    1  0.1724235E-003  0.9118800E+02  0.7818608E-02  0.1130116E+00
         25   -1    0    0    0    0  0.00000000000E+00  0.00000000000E+00  0.99999998245E-14  0.12500000000E+03  0.12500000000E+03 0.  0.
        -13    1    3    3    0    0  0.43593076912E+02 -0.14772395726E+02 -0.40319627661E+02  0.61190387879E+02  0.10566000000E+00 0.  1.
         23    2    1    0    0    0  0.16104268230E+02 -0.87476324122E+00 -0.24097468496E+02  0.96003437206E+02  0.91519720834E+02 0.  0.
         13    1    3    3    0    0 -0.27488808682E+02  0.13897632485E+02  0.16222159165E+02  0.34813049327E+02  0.10566000000E+00 0. -1.
         22    1    1    0    0    0 -0.16104268230E+02  0.87476324122E+00  0.24097468496E+02  0.28996562794E+02  0.00000000000E+00 0.  1.
</event>
<event>
 5    1  0.1724235E-003  0.9118800E+02  0.7818608E-02  0.1130116E+00
         25   -1    0    0    0    0  0.00000000000E+00  0.00000000000E+00  0.99999998245E-14  0.12500000000E+03  0.12500000000E+03 0.  0.
        -13    1    3    3    0    0  0.40959798371E+02 -0.35316495588E+02 -0.33355943592E+01  0.54185766553E+02  0.10566000000E+00 0. -1.
         23    2    1    0    0    0  0.15888385518E+02 -0.12079415194E+02  0.20908782067E+02  0.96094460161E+02  0.91643958013E+02 0.  0.
         13    1    3    3    0    0 -0.25071412852E+02  0.23237080393E+02  0.24244376427E+02  0.41908693608E+02  0.10566000000E+00 0.  1.
         22    1    1    0    0    0 -0.15888385518E+02  0.12079415194E+02 -0.20908782067E+02  0.28905539839E+02  0.00000000000E+00 0. -1.
</event>
<event>
 5    1  0.1724235E-003  0.9118800E+02  0.7818608E-02  0.1130116E+00
         25   -1    0    0    0    0  0.00000000000E+00  0.00000000000E+00  0.99999998245E-14  0.12500000000E+03  0.12500000000E+03 0.  0.
        -13    1    3    3    0    0  0.21702577975E+02  0.16296444451E+02  0.37323294136E+02  0.46147756627E+02  0.10566000000E+00 0. -1.
         23    2    1    0    0    0 -0.22524404969E+02  0.75249520374E+01  0.17993482729E+02  0.95205048363E+02  0.90422685708E+02 0.  0.
         13    1    3    3    0    0 -0.44226982943E+02 -0.87714924132E+01 -0.19329811407E+02  0.49057291736E+02  0.10566000000E+00 0.  1.
         22    1    1    0    0    0  0.22524404969E+02 -0.75249520374E+01 -0.17993482729E+02  0.29794951637E+02  0.00000000000E+00 0. -1.
</event>
<event>
 5    1  0.1724235E-003  0.9118800E+02  0.7818608E-02  0.1130116E+00
         25   -1    0    0    0    0  0.00000000000E+00  0.00000000000E+00  0.99999998245E-14  0.12500000000E+03  0.12500000000E+03 0.  0.
        -13    1    3    3    0    0  0.15056861391E+00  0.14805610910E+02  0.31071204561E+02  0.34418885836E+02  0.10566000000E+00 0. -1.
         23    2    1    0    0    0 -0.11016852879E+02  0.14629473550E+01 -0.27404171886E+02  0.95428055541E+02  0.90730446298E+02 0.  0.
         13    1    3    3    0    0 -0.11167421493E+02 -0.13342663555E+02 -0.58475376446E+02  0.61009169705E+02  0.10566000000E+00 0.  1.
         22    1    1    0    0    0  0.11016852879E+02 -0.14629473550E+01  0.27404171886E+02  0.29571944459E+02  0.00000000000E+00 0.  1.
</event>
<event>
 5    1  0.1724235E-003  0.9118800E+02  0.7818608E-02  0.1130116E+00
         25   -1    0    0    0    0  0.00000000000E+00  0.00000000000E+00  0.99999998245E-14  0.12500000000E+03  0.12500000000E+03 0.  0.
        -13    1    3    3    0    0  0.52476572338E+02 -0.15760869159E+02  0.20221383883E+02  0.58404718741E+02  0.10566000000E+00 0. -1.
         23    2    1    0    0    0  0.16454377163E+02 -0.20177131889E+02  0.14660544904E+02  0.95120328717E+02  0.90305493627E+02 0.  0.
         13    1    3    3    0    0 -0.36022195175E+02 -0.44162627306E+01 -0.55608389792E+01  0.36715609976E+02  0.10566000000E+00 0.  1.
         22    1    1    0    0    0 -0.16454377163E+02  0.20177131889E+02 -0.14660544904E+02  0.29879671283E+02  0.00000000000E+00 0. -1.
</event>
<event>
 5    1  0.1724235E-003  0.9118800E+02  0.7818608E-02  0.1130116E+00
         25   -1    0    0    0    0  0.00000000000E+00  0.00000000000E+00  0.99999998245E-14  0.12500000000E+03  0.12500000000E+03 0.  0.
        -13    1    3    3    0    0  0.20438518261E+02  0.23289092015E+02 -0.12593878676E+02  0.33447448030E+02  0.10566000000E+00 0. -1.
         23    2    1    0    0    0 -0.10539805089E+02 -0.27341385281E+02  0.48170441397E+01  0.95304162671E+02  0.90559597326E+02 0.  0.
         13    1    3    3    0    0 -0.30978323351E+02 -0.50630477296E+02  0.17410922816E+02  0.61856714641E+02  0.10566000000E+00 0.  1.
         22    1    1    0    0    0  0.10539805089E+02  0.27341385281E+02 -0.48170441397E+01  0.29695837329E+02  0.00000000000E+00 0.  1.
</event>
<event>
 5    1  0.1724235E-003  0.9118800E+02  0.7818608E-02  0.1130116E+00
         25   -1    0    0    0    0  0.00000000000E+00  0.00000000000E+00  0.99999998245E-14  0.12500000000E+03  0.12500000000E+03 0.  0.
        -13    1    3    3    0    0 -0.21782390923E+02 -0.34567979733E+02  0.37066122682E+02  0.55166351990E+02  0.10566000000E+00 0.  1.
         23    2    1    0    0    0 -0.12020534503E+02 -0.25750583818E+02 -0.21213372290E+01  0.96502879297E+02  0.92199348285E+02 0.  0.
         13    1    3    3    0    0  0.97618564207E+01  0.88173959142E+01 -0.39187459911E+02  0.41336527307E+02  0.10566000000E+00 0. -1.
         22    1    1    0    0    0  0.12020534503E+02  0.25750583818E+02  0.21213372290E+01  0.28497120703E+02  0.00000000000E+00 0.  1.
</event>
<event>
 5    1  0.1724235E-003  0.9118800E+02  0.7818608E-02  0.1130116E+00
         25   -1    0    0    0    0  0.00000000000E+00  0.00000000000E+00  0.99999998245E-14  0.12500000000E+03  0.12500000000E+03 0.  0.
        -13    1    3    3    0    0 -0.18530957107E+02  0.22255820419E+02 -0.41435489042E+02  0.50553227692E+02  0.10566000000E+00 0. -1.
         23    2    1    0    0    0  0.19205897017E+02  0.11791065135E+02 -0.17677705458E+02  0.96357427359E+02  0.92001939326E+02 0.  0.
         13    1    3    3    0    0  0.37736854124E+02 -0.10464755284E+02  0.23757783585E+02  0.45804199668E+02  0.10566000000E+00 0.  1.
         22    1    1    0    0    0 -0.19205897017E+02 -0.11791065135E+02  0.17677705458E+02  0.28642572641E+02  0.00000000000E+00 0. -1.
</event>
<event>
 5    1  0.1724235E-003  0.9118800E+02  0.7818608E-02  0.1130116E+00
         25   -1    0    0    0    0  0.00000000000E+00  0.00000000000E+00  0.99999998245E-14  0.12500000000E+03  0.12500000000E+03 0.  0.
        -13    1    3    3    0    0 -0.77886584945E-01 -0.20927844544E+02  0.26142581197E+02  0.33487706091E+02  0.10566000000E+00 0. -1.
         23    2    1    0    0    0 -0.35320650304E+01  0.13337851910E+02 -0.25760312204E+02  0.95777278329E+02  0.91210304146E+02 0.  0.
         13    1    3    3    0    0 -0.34541784455E+01  0.34265696454E+02 -0.51902893401E+02  0.62289572239E+02  0.10566000000E+00 0.  1.
         22    1    1    0    0    0  0.35320650304E+01 -0.13337851910E+02  0.25760312204E+02  0.29222721671E+02  0.00000000000E+00 0.  1.
</event>
<event>
 5    1  0.1724235E-003  0.9118800E+02  0.7818608E-02  0.1130116E+00
         25   -1    0    0    0    0  0.00000000000E+00  0.00000000000E+00  0.99999998245E-14  0.12500000000E+03  0.12500000000E+03 0.  0.
        -13    1    3    3    0    0  0.94539187597E+01 -0.34575676772E+02 -0.61678115415E+00  0.35850321996E+02  0.10566000000E+00 0.  1.
         23    2    1    0    0    0 -0.12443297564E+01  0.21070645747E+02 -0.20180293078E+02  0.95797864848E+02  0.91238512767E+02 0.  0.
         13    1    3    3    0    0 -0.10698248516E+02  0.55646322519E+02 -0.19563511924E+02  0.59947542852E+02  0.10566000000E+00 0. -1.
         22    1    1    0    0    0  0.12443297564E+01 -0.21070645747E+02  0.20180293078E+02  0.29202135152E+02  0.00000000000E+00 0. -1.
</event>
<event>
 5    1  0.1724235E-003  0.9118800E+02  0.7818608E-02  0.1130116E+00
         25   -1    0    0    0    0  0.00000000000E+00  0.00000000000E+00  0.99999998245E-14  0.12500000000E+03  0.12500000000E+03 0.  0.
        -13    1    3    3    0    0  0.39800991841E+02  0.11200970015E+02 -0.17284963524E+01  0.41383324474E+02  0.10566000000E+00 0. -1.
         23    2    1    0    0    0 -0.26669773224E+01 -0.79684206402E+01  0.27404981894E+02  0.96335709879E+02  0.91972427769E+02 0.  0.
         13    1    3    3    0    0 -0.42467969163E+02 -0.19169390655E+02  0.29133478246E+02  0.54952385405E+02  0.10566000000E+00 0.  1.
         22    1    1    0    0    0  0.26669773224E+01  0.79684206402E+01 -0.27404981894E+02  0.28664290121E+02  0.00000000000E+00 0.  1.
</event>
<event>
 5    1  0.1724235E-003  0.9118800E+02  0.7818608E-02  0.1130116E+00
         25   -1    0    0    0    0  0.00000000000E+00  0.00000000000E+00  0.99999998245E-14  0.12500000000E+03  0.12500000000E+03 0.  0.
        -13    1    3    3    0    0  0.11491801749E+02  0.35455808007E+02  0.25857162824E+01  0.37361382758E+02  0.10566000000E+00 0.  1.
         23    2    1    0    0    0  0.13613896768E+02 -0.22701469486E+02 -0.96416165668E+01  0.96828104926E+02  0.92639226203E+02 0.  0.
         13    1    3    3    0    0  0.21220950189E+01 -0.58157277493E+02 -0.12227332849E+02  0.59466722168E+02  0.10566000000E+00 0. -1.
         22    1    1    0    0    0 -0.13613896768E+02  0.22701469486E+02  0.96416165668E+01  0.28171895074E+02  0.00000000000E+00 0. -1.
</event>
<event>
 5    1  0.1724235E-003  0.9118800E+02  0.7818608E-02  0.1130116E+00
         25   -1    0    0    0    0  0.00000000000E+00  0.00000000000E+00  0.99999998245E-14  0.12500000000E+03  0.12500000000E+03 0.  0.
        -13    1    3    3    0    0 -0.13221710057E+02  0.37277809322E+02  0.21375164527E+02  0.44959509642E+02  0.10566000000E+00 0. -1.
         23    2    1    0    0    0  0.16543403665E+02  0.16618693738E+02 -0.15685183444E+02  0.96788474588E+02  0.92585736737E+02 0.  0.
         13    1    3    3    0    0  0.29765113721E+02 -0.20659115584E+02 -0.37060347972E+02  0.51828964946E+02  0.10566000000E+00 0.  1.
         22    1    1    0    0    0 -0.16543403665E+02 -0.16618693738E+02  0.15685183444E+02  0.28211525412E+02  0.00000000000E+00 0. -1.
</event>
<event>
 5    1  0.1724235E-003  0.9118800E+02  0.7818608E-02  0.1130116E+00
         25   -1    0    0    0    0  0.00000000000E+00  0.00000000000E+00  0.99999998245E-14  0.12500000000E+03  0.12500000000E+03 0.  0.
        -13    1    3    3    0    0 -0.37311587599E+02  0.10646616128E+02 -0.13625094791E+02  0.41123708201E+02  0.10566000000E+00 0. -1.
         23    2    1    0    0    0  0.12788238219E+02  0.33475247645E+01 -0.28239506734E+02  0.93819642411E+02  0.88486782080E+02 0.  0.
         13    1    3    3    0    0  0.50099825819E+02 -0.72990913631E+01 -0.14614411943E+02  0.52695934210E+02  0.10566000000E+00 0.  1.
         22    1    1    0    0    0 -0.12788238219E+02 -0.33475247645E+01  0.28239506734E+02  0.31180357589E+02  0.00000000000E+00 0. -1.
</event>
<event>
 5    1  0.1724235E-003  0.9118800E+02  0.7818608E-02  0.1130116E+00
         25   -1    0    0    0    0  0.00000000000E+00  0.00000000000E+00  0.99999998245E-14  0.12500000000E+03  0.12500000000E+03 0.  0.
        -13    1    3    3    0    0  0.22704339460E+02  0.19786598341E+02  0.29983828362E+02  0.42497501474E+02  0.10566000000E+00 0. -1.
         23    2    1    0    0    0  0.13156925954E+02 -0.15119106844E+02 -0.14807685153E+02  0.10008093838E+03  0.96929018335E+02 0.  0.
         13    1    3    3    0    0 -0.95474135059E+01 -0.34905705185E+02 -0.44791513515E+02  0.57583436908E+02  0.10566000000E+00 0.  1.
         22    1    1    0    0    0 -0.13156925954E+02  0.15119106844E+02  0.14807685153E+02  0.24919061618E+02  0.00000000000E+00 0.  1.
</event>
<event>
 5    1  0.1724235E-003  0.9118800E+02  0.7818608E-02  0.1130116E+00
         25   -1    0    0    0    0  0.00000000000E+00  0.00000000000E+00  0.99999998245E-14  0.12500000000E+03  0.12500000000E+03 0.  0.
        -13    1    3    3    0    0 -0.62362538225E+01 -0.10362380464E+02 -0.34429289981E+02  0.36491875304E+02  0.10566000000E+00 0.  1.
         23    2    1    0    0    0  0.16448961306E+02  0.21171336364E+02  0.10784979656E+02  0.96101737117E+02  0.91653883056E+02 0.  0.
         13    1    3    3    0    0  0.22685215128E+02  0.31533716829E+02  0.45214269637E+02  0.59609861812E+02  0.10566000000E+00 0. -1.
         22    1    1    0    0    0 -0.16448961306E+02 -0.21171336364E+02 -0.10784979656E+02  0.28898262883E+02  0.00000000000E+00 0. -1.
</event>
<event>
 5    1  0.1724235E-003  0.9118800E+02  0.7818608E-02  0.1130116E+00
         25   -1    0    0    0    0  0.00000000000E+00  0.00000000000E+00  0.99999998245E-14  0.12500000000E+03  0.12500000000E+03 0.  0.
        -13    1    3    3    0    0  0.46336728211E+02  0.54795758501E+01  0.15157606911E+02  0.49059987200E+02  0.10566000000E+00 0. -1.
         23    2    1    0    0    0  0.18026723404E+02 -0.43306297455E+01 -0.21634426914E+02  0.96508500591E+02  0.92206969085E+02 0.  0.
         13    1    3    3    0    0 -0.28310004807E+02 -0.98102055956E+01 -0.36792033825E+02  0.47448513391E+02  0.10566000000E+00 0.  1.
         22    1    1    0    0    0 -0.18026723404E+02  0.43306297455E+01  0.21634426914E+02  0.28491499409E+02  0.00000000000E+00 0.  1.
</event>
<event>
 5    1  0.1724235E-003  0.9118800E+02  0.7818608E-02  0.1130116E+00
         25   -1    0    0    0    0  0.00000000000E+00  0.00000000000E+00  0.99999998245E-14  0.12500000000E+03  0.12500000000E+03 0.  0.
        -13    1    3    3    0    0 -0.50350844737E+01  0.29017203368E+01 -0.59101421753E+02  0.59386541184E+02  0.10566000000E+00 0.  1.
         23    2    1    0    0    0 -0.82956488890E+01 -0.10967111725E+02 -0.22929759753E+02  0.98262961787E+02  0.94555488718E+02 0.  0.
         13    1    3    3    0    0 -0.32605644153E+01 -0.13868832062E+02  0.36171661999E+02  0.38876420603E+02  0.10566000000E+00 0. -1.
         22    1    1    0    0    0  0.82956488890E+01  0.10967111725E+02  0.22929759753E+02  0.26737038213E+02  0.00000000000E+00 0.  1.
</event>
<event>
 5    1  0.1724235E-003  0.9118800E+02  0.7818608E-02  0.1130116E+00
         25   -1    0    0    0    0  0.00000000000E+00  0.00000000000E+00  0.99999998245E-14  0.12500000000E+03  0.12500000000E+03 0.  0.
        -13    1    3    3    0    0  0.36938810879E+02  0.46680086756E+02 -0.76685659372E+01  0.60019366176E+02  0.10566000000E+00 0. -1.
         23    2    1    0    0    0  0.15268877206E+02  0.20973220637E+02  0.89925286485E+01  0.97543121690E+02  0.93599040714E+02 0.  0.
         13    1    3    3    0    0 -0.21669933673E+02 -0.25706866119E+02  0.16661094586E+02  0.37523755514E+02  0.10566000000E+00 0.  1.
         22    1    1    0    0    0 -0.15268877206E+02 -0.20973220637E+02 -0.89925286485E+01  0.27456878310E+02  0.00000000000E+00 0. -1.
</event>
<event>
 5    1  0.1724235E-003  0.9118800E+02  0.7818608E-02  0.1130116E+00
         25   -1    0    0    0    0  0.00000000000E+00  0.00000000000E+00  0.99999998245E-14  0.12500000000E+03  0.12500000000E+03 0.  0.
        -13    1    3    3    0    0 -0.26212853369E+02  0.16139005792E+02  0.52431346769E+02  0.60799987481E+02  0.10566000000E+00 0.  1.
         23    2    1    0    0    0 -0.20414254128E+02  0.78282421822E+01  0.18036503384E+02  0.96656771503E+02  0.92407753332E+02 0.  0.
         13    1    3    3    0    0  0.57985992409E+01 -0.83107636099E+01 -0.34394843384E+02  0.35856784022E+02  0.10566000000E+00 0. -1.
         22    1    1    0    0    0  0.20414254128E+02 -0.78282421822E+01 -0.18036503384E+02  0.28343228497E+02  0.00000000000E+00 0.  1.
</event>
<event>
 4    1  0.1724235E-003  0.9118800E+02  0.7818608E-02  0.1130116E+00
         25   -1    0    0    0    0  0.00000000000E+00  0.00000000000E+00  0.99999998245E-14  0.12500000000E+03  0.12500000000E+03 0.  0.
        -13    1    1    0    0    0  0.21799382486E+01 -0.31112432207E+01 -0.12066623832E+02  0.12650950157E+02  0.10566000000E+00 0.  1.
         13    1    1    0    0    0  0.29670721483E+02  0.21333409193E+02  0.48441838568E+02  0.60680218762E+02  0.10566000000E+00 0. -1.
         22    1    1    0    0    0 -0.31850659732E+02 -0.18222165972E+02 -0.36375214736E+02  0.51668831080E+02  0.00000000000E+00 0. -1.
</event>
<event>
 5    1  0.1724235E-003  0.9118800E+02  0.7818608E-02  0.1130116E+00
         25   -1    0    0    0    0  0.00000000000E+00  0.00000000000E+00  0.99999998245E-14  0.12500000000E+03  0.12500000000E+03 0.  0.
        -13    1    3    3    0    0  0.31425991844E+02 -0.21335783115E+02  0.12271142238E+02  0.39917423519E+02  0.10566000000E+00 0.  1.
         23    2    1    0    0    0 -0.83287437366E+01  0.74477975283E+01 -0.22371984903E+02  0.99993133568E+02  0.96815718723E+02 0.  0.
         13    1    3    3    0    0 -0.39754735581E+02  0.28783580643E+02 -0.34643127141E+02  0.60075710049E+02  0.10566000000E+00 0. -1.
         22    1    1    0    0    0  0.83287437366E+01 -0.74477975283E+01  0.22371984903E+02  0.25006866432E+02  0.00000000000E+00 0. -1.
</event>
<event>
 5    1  0.1724235E-003  0.9118800E+02  0.7818608E-02  0.1130116E+00
         25   -1    0    0    0    0  0.00000000000E+00  0.00000000000E+00  0.99999998245E-14  0.12500000000E+03  0.12500000000E+03 0.  0.
        -13    1    3    3    0    0  0.42971384105E+02  0.15386292097E+02  0.65093054177E+01  0.46104881059E+02  0.10566000000E+00 0.  1.
         23    2    1    0    0    0  0.40570802208E+01 -0.41522908770E+01 -0.24666997575E+02  0.99659080743E+02  0.96383453900E+02 0.  0.
         13    1    3    3    0    0 -0.38914303884E+02 -0.19538582974E+02 -0.31176302993E+02  0.53554199684E+02  0.10566000000E+00 0. -1.
         22    1    1    0    0    0 -0.40570802208E+01  0.41522908770E+01  0.24666997575E+02  0.25340919257E+02  0.00000000000E+00 0. -1.
</event>
<event>
 5    1  0.1724235E-003  0.9118800E+02  0.7818608E-02  0.1130116E+00
         25   -1    0    0    0    0  0.00000000000E+00  0.00000000000E+00  0.99999998245E-14  0.12500000000E+03  0.12500000000E+03 0.  0.
        -13    1    3    3    0    0 -0.55755271813E+02 -0.16135377167E+02 -0.10027853284E+02  0.58903053714E+02  0.10566000000E+00 0.  1.
         23    2    1    0    0    0 -0.20121521996E+02 -0.14852621022E+02 -0.16355664311E+02  0.95117166237E+02  0.90301116046E+02 0.  0.
         13    1    3    3    0    0  0.35633749818E+02  0.12827561446E+01 -0.63278110269E+01  0.36214112523E+02  0.10566000000E+00 0. -1.
         22    1    1    0    0    0  0.20121521996E+02  0.14852621022E+02  0.16355664311E+02  0.29882833763E+02  0.00000000000E+00 0.  1.
</event>
<event>
 5    1  0.1724235E-003  0.9118800E+02  0.7818608E-02  0.1130116E+00
         25   -1    0    0    0    0  0.00000000000E+00  0.00000000000E+00  0.99999998245E-14  0.12500000000E+03  0.12500000000E+03 0.  0.
        -13    1    3    3    0    0 -0.13803695158E+02 -0.18754221484E+02 -0.31291473293E+02  0.39005516128E+02  0.10566000000E+00 0. -1.
         23    2    1    0    0    0  0.73884588599E+01 -0.12610980676E+02  0.23078701155E+02  0.97682375562E+02  0.93784827613E+02 0.  0.
         13    1    3    3    0    0  0.21192154018E+02  0.61432408078E+01  0.54370174448E+02  0.58676859434E+02  0.10566000000E+00 0.  1.
         22    1    1    0    0    0 -0.73884588599E+01  0.12610980676E+02 -0.23078701155E+02  0.27317624438E+02  0.00000000000E+00 0.  1.
</event>
<event>
 5    1  0.1724235E-003  0.9118800E+02  0.7818608E-02  0.1130116E+00
         25   -1    0    0    0    0  0.00000000000E+00  0.00000000000E+00  0.99999998245E-14  0.12500000000E+03  0.12500000000E+03 0.  0.
        -13    1    3    3    0    0 -0.14185034795E+02  0.50550733095E+02  0.76451699353E+01  0.53057060001E+02  0.10566000000E+00 0. -1.
         23    2    1    0    0    0 -0.25689052309E+02  0.80146823079E+01  0.72778038809E+01  0.97122966974E+02  0.93036238872E+02 0.  0.
         13    1    3    3    0    0 -0.11504017514E+02 -0.42536050787E+02 -0.36736605438E+00  0.44065906973E+02  0.10566000000E+00 0.  1.
         22    1    1    0    0    0  0.25689052309E+02 -0.80146823079E+01 -0.72778038809E+01  0.27877033026E+02  0.00000000000E+00 0. -1.
</event>
<event>
 5    1  0.1724235E-003  0.9118800E+02  0.7818608E-02  0.1130116E+00
         25   -1    0    0    0    0  0.00000000000E+00  0.00000000000E+00  0.99999998245E-14  0.12500000000E+03  0.12500000000E+03 0.  0.
        -13    1    3    3    0    0 -0.24506819191E+02 -0.29870604718E+00 -0.52085288806E+02  0.57563546505E+02  0.10566000000E+00 0.  1.
         23    2    1    0    0    0 -0.51701792715E+01 -0.15645777672E+02 -0.30395550026E+02  0.90425289965E+02  0.83554308633E+02 0.  0.
         13    1    3    3    0    0  0.19336639919E+02 -0.15347071625E+02  0.21689738780E+02  0.32861743460E+02  0.10566000000E+00 0. -1.
         22    1    1    0    0    0  0.51701792715E+01  0.15645777672E+02  0.30395550026E+02  0.34574710035E+02  0.00000000000E+00 0.  1.
</event>
<event>
 5    1  0.1724235E-003  0.9118800E+02  0.7818608E-02  0.1130116E+00
         25   -1    0    0    0    0  0.00000000000E+00  0.00000000000E+00  0.99999998245E-14  0.12500000000E+03  0.12500000000E+03 0.  0.
        -13    1    3    3    0    0  0.13435591561E+02  0.32086815144E+02 -0.27243528930E+02  0.44184837436E+02  0.10566000000E+00 0.  1.
         23    2    1    0    0    0 -0.15553515908E+02  0.26990021632E+02  0.10570915441E+02  0.92104447443E+02  0.86029714986E+02 0.  0.
         13    1    3    3    0    0 -0.28989107470E+02 -0.50967935119E+01  0.37814444371E+02  0.47919610006E+02  0.10566000000E+00 0. -1.
         22    1    1    0    0    0  0.15553515908E+02 -0.26990021632E+02 -0.10570915441E+02  0.32895552557E+02  0.00000000000E+00 0.  1.
</event>
<event>
 5    1  0.1724235E-003  0.9118800E+02  0.7818608E-02  0.1130116E+00
         25   -1    0    0    0    0  0.00000000000E+00  0.00000000000E+00  0.99999998245E-14  0.12500000000E+03  0.12500000000E+03 0.  0.
        -13    1    3    3    0    0  0.10416267046E+02 -0.13115911153E+02 -0.35024699847E+02  0.38823530338E+02  0.10566000000E+00 0.  1.
         23    2    1    0    0    0  0.47435355560E+01  0.31451380372E+02 -0.51446652663E+01  0.92779540078E+02  0.87005086170E+02 0.  0.
         13    1    3    3    0    0 -0.56727314900E+01  0.44567291525E+02  0.29880034580E+02  0.53956009740E+02  0.10566000000E+00 0. -1.
         22    1    1    0    0    0 -0.47435355560E+01 -0.31451380372E+02  0.51446652663E+01  0.32220459922E+02  0.00000000000E+00 0. -1.
</event>
<event>
 5    1  0.1724235E-003  0.9118800E+02  0.7818608E-02  0.1130116E+00
         25   -1    0    0    0    0  0.00000000000E+00  0.00000000000E+00  0.99999998245E-14  0.12500000000E+03  0.12500000000E+03 0.  0.
        -13    1    3    3    0    0 -0.48312966025E+01  0.83162477334E+01  0.43703363953E+02  0.44749263547E+02  0.10566000000E+00 0. -1.
         23    2    1    0    0    0 -0.23777486501E+02 -0.16572020094E+02  0.33229597072E+01  0.95827362554E+02  0.91278916726E+02 0.  0.
         13    1    3    3    0    0 -0.18946189899E+02 -0.24888267827E+02 -0.40380404245E+02  0.51078099007E+02  0.10566000000E+00 0.  1.
         22    1    1    0    0    0  0.23777486501E+02  0.16572020094E+02 -0.33229597072E+01  0.29172637446E+02  0.00000000000E+00 0.  1.
</event>
<event>
 5    1  0.1724235E-003  0.9118800E+02  0.7818608E-02  0.1130116E+00
         25   -1    0    0    0    0  0.00000000000E+00  0.00000000000E+00  0.99999998245E-14  0.12500000000E+03  0.12500000000E+03 0.  0.
        -13    1    3    3    0    0 -0.99400208434E+01  0.10802880229E+02  0.36028076935E+02  0.38904237909E+02  0.10566000000E+00 0. -1.
         23    2    1    0    0    0  0.31167393443E+02  0.87260556668E+01  0.15494760824E+01  0.92597047393E+02  0.86742503124E+02 0.  0.
         13    1    3    3    0    0  0.41107414286E+02 -0.20768245619E+01 -0.34478600852E+02  0.53692809484E+02  0.10566000000E+00 0.  1.
         22    1    1    0    0    0 -0.31167393443E+02 -0.87260556668E+01 -0.15494760824E+01  0.32402952607E+02  0.00000000000E+00 0.  1.
</event>
<event>
 5    1  0.1724235E-003  0.9118800E+02  0.7818608E-02  0.1130116E+00
         25   -1    0    0    0    0  0.00000000000E+00  0.00000000000E+00  0.99999998245E-14  0.12500000000E+03  0.12500000000E+03 0.  0.
        -13    1    3    3    0    0  0.59448711165E+02 -0.11715832058E+02 -0.13406874733E+02  0.62057758856E+02  0.10566000000E+00 0. -1.
         23    2    1    0    0    0  0.26088532917E+02 -0.49989525277E+01 -0.11240453917E+02  0.96156475936E+02  0.91728506932E+02 0.  0.
         13    1    3    3    0    0 -0.33360178248E+02  0.67168795308E+01  0.21664208157E+01  0.34098717081E+02  0.10566000000E+00 0.  1.
         22    1    1    0    0    0 -0.26088532917E+02  0.49989525277E+01  0.11240453917E+02  0.28843524064E+02  0.00000000000E+00 0. -1.
</event>
<event>
 5    1  0.1724235E-003  0.9118800E+02  0.7818608E-02  0.1130116E+00
         25   -1    0    0    0    0  0.00000000000E+00  0.00000000000E+00  0.99999998245E-14  0.12500000000E+03  0.12500000000E+03 0.  0.
        -13    1    3    3    0    0 -0.11345192411E+02  0.10332121571E+02  0.32329248621E+02  0.35786276804E+02  0.10566000000E+00 0. -1.
         23    2    1    0    0    0 -0.90330464334E+01 -0.18221608489E+02 -0.20651052250E+02  0.96015712828E+02  0.91536485661E+02 0.  0.
         13    1    3    3    0    0  0.23121459774E+01 -0.28553730060E+02 -0.52980300872E+02  0.60229436025E+02  0.10566000000E+00 0.  1.
         22    1    1    0    0    0  0.90330464334E+01  0.18221608489E+02  0.20651052250E+02  0.28984287172E+02  0.00000000000E+00 0.  1.
</event>
<event>
 5    1  0.1724235E-003  0.9118800E+02  0.7818608E-02  0.1130116E+00
         25   -1    0    0    0    0  0.00000000000E+00  0.00000000000E+00  0.99999998245E-14  0.12500000000E+03  0.12500000000E+03 0.  0.
        -13    1    3    3    0    0  0.16423242780E+00 -0.30847392481E+02 -0.39421699322E+02  0.50056669252E+02  0.10566000000E+00 0. -1.
         23    2    1    0    0    0  0.21773846581E+02 -0.17890630109E+02 -0.28304591908E-01  0.96818874369E+02  0.92626770387E+02 0.  0.
         13    1    3    3    0    0  0.21609614154E+02  0.12956762371E+02  0.39393394730E+02  0.46762205117E+02  0.10566000000E+00 0.  1.
         22    1    1    0    0    0 -0.21773846581E+02  0.17890630109E+02  0.28304591908E-01  0.28181125631E+02  0.00000000000E+00 0. -1.
</event>
<event>
 5    1  0.1724235E-003  0.9118800E+02  0.7818608E-02  0.1130116E+00
         25   -1    0    0    0    0  0.00000000000E+00  0.00000000000E+00  0.99999998245E-14  0.12500000000E+03  0.12500000000E+03 0.  0.
        -13    1    3    3    0    0 -0.45252972297E+02  0.26617131215E+02 -0.38602766117E+01  0.52642341090E+02  0.10566000000E+00 0.  1.
         23    2    1    0    0    0 -0.32960099424E+01  0.29473480548E+02 -0.59637121390E+01  0.94749122333E+02  0.89790203158E+02 0.  0.
         13    1    3    3    0    0  0.41956962355E+02  0.28563493335E+01 -0.21034355272E+01  0.42106781243E+02  0.10566000000E+00 0. -1.
         22    1    1    0    0    0  0.32960099424E+01 -0.29473480548E+02  0.59637121390E+01  0.30250877667E+02  0.00000000000E+00 0.  1.
</event>
<event>
 5    1  0.1724235E-003  0.9118800E+02  0.7818608E-02  0.1130116E+00
         25   -1    0    0    0    0  0.00000000000E+00  0.00000000000E+00  0.99999998245E-14  0.12500000000E+03  0.12500000000E+03 0.  0.
        -13    1    3    3    0    0  0.26796743883E+02  0.16671361840E+02  0.51349120218E+02  0.60272241534E+02  0.10566000000E+00 0. -1.
         23    2    1    0    0    0  0.28801417090E+01  0.12872596692E+02  0.28628444033E+02  0.93478788576E+02  0.88003960957E+02 0.  0.
         13    1    3    3    0    0 -0.23916602174E+02 -0.37987651482E+01 -0.22720676185E+02  0.33206547043E+02  0.10566000000E+00 0.  1.
         22    1    1    0    0    0 -0.28801417090E+01 -0.12872596692E+02 -0.28628444033E+02  0.31521211424E+02  0.00000000000E+00 0. -1.
</event>
<event>
 5    1  0.1724235E-003  0.9118800E+02  0.7818608E-02  0.1130116E+00
         25   -1    0    0    0    0  0.00000000000E+00  0.00000000000E+00  0.99999998245E-14  0.12500000000E+03  0.12500000000E+03 0.  0.
        -13    1    3    3    0    0 -0.11590519923E+02  0.15929974250E+02  0.51418196493E+02  0.55063112211E+02  0.10566000000E+00 0. -1.
         23    2    1    0    0    0 -0.25670117894E+02  0.73213844197E+01  0.16676765720E+02  0.93525055403E+02  0.88069653404E+02 0.  0.
         13    1    3    3    0    0 -0.14079597971E+02 -0.86085898307E+01 -0.34741430773E+02  0.38461943192E+02  0.10566000000E+00 0.  1.
         22    1    1    0    0    0  0.25670117894E+02 -0.73213844197E+01 -0.16676765720E+02  0.31474944597E+02  0.00000000000E+00 0. -1.
</event>
<event>
 5    1  0.1724235E-003  0.9118800E+02  0.7818608E-02  0.1130116E+00
         25   -1    0    0    0    0  0.00000000000E+00  0.00000000000E+00  0.99999998245E-14  0.12500000000E+03  0.12500000000E+03 0.  0.
        -13    1    3    3    0    0 -0.15011314357E+02  0.18914455030E+02 -0.29275809646E+02  0.37949708329E+02  0.10566000000E+00 0. -1.
         23    2    1    0    0    0  0.18127405392E+02  0.11756595136E+02  0.18515886766E+02  0.96545502672E+02  0.92257117168E+02 0.  0.
         13    1    3    3    0    0  0.33138719748E+02 -0.71578598939E+01  0.47791696412E+02  0.58595794344E+02  0.10566000000E+00 0.  1.
         22    1    1    0    0    0 -0.18127405392E+02 -0.11756595136E+02 -0.18515886766E+02  0.28454497328E+02  0.00000000000E+00 0.  1.
</event>
<event>
 5    1  0.1724235E-003  0.9118800E+02  0.7818608E-02  0.1130116E+00
         25   -1    0    0    0    0  0.00000000000E+00  0.00000000000E+00  0.99999998245E-14  0.12500000000E+03  0.12500000000E+03 0.  0.
        -13    1    3    3    0    0  0.17188827691E+01 -0.26875704881E+02 -0.13487415869E+01  0.26964575627E+02  0.10566000000E+00 0.  1.
         23    2    1    0    0    0  0.47037024420E+00  0.29672889343E+02  0.21898947679E+02  0.88118222391E+02  0.80028467421E+02 0.  0.
         13    1    3    3    0    0 -0.12485125249E+01  0.56548594224E+02  0.23247689266E+02  0.61153646764E+02  0.10566000000E+00 0. -1.
         22    1    1    0    0    0 -0.47037024420E+00 -0.29672889343E+02 -0.21898947679E+02  0.36881777609E+02  0.00000000000E+00 0. -1.
</event>
<event>
 5    1  0.1724235E-003  0.9118800E+02  0.7818608E-02  0.1130116E+00
         25   -1    0    0    0    0  0.00000000000E+00  0.00000000000E+00  0.99999998245E-14  0.12500000000E+03  0.12500000000E+03 0.  0.
        -13    1    3    3    0    0  0.23227895560E+02  0.11525492325E+02  0.39175250663E+02  0.46979607640E+02  0.10566000000E+00 0.  1.
         23    2    1    0    0    0 -0.13386920361E+02  0.25045907510E+02  0.15151693109E+02  0.92811789055E+02  0.87051405869E+02 0.  0.
         13    1    3    3    0    0 -0.36614815921E+02  0.13520415185E+02 -0.24023557553E+02  0.45832181415E+02  0.10566000000E+00 0. -1.
         22    1    1    0    0    0  0.13386920361E+02 -0.25045907510E+02 -0.15151693109E+02  0.32188210945E+02  0.00000000000E+00 0. -1.
</event>
<event>
 5    1  0.1724235E-003  0.9118800E+02  0.7818608E-02  0.1130116E+00
         25   -1    0    0    0    0  0.00000000000E+00  0.00000000000E+00  0.99999998245E-14  0.12500000000E+03  0.12500000000E+03 0.  0.
        -13    1    3    3    0    0 -0.13844879605E+02  0.42539913074E+02  0.37589645409E+01  0.44893940283E+02  0.10566000000E+00 0. -1.
         23    2    1    0    0    0 -0.16252908834E+02 -0.52580743533E+01  0.22893249263E+02  0.96435944733E+02  0.92108556515E+02 0.  0.
         13    1    3    3    0    0 -0.24080292282E+01 -0.47797987428E+02  0.19134284722E+02  0.51542004450E+02  0.10566000000E+00 0.  1.
         22    1    1    0    0    0  0.16252908834E+02  0.52580743533E+01 -0.22893249263E+02  0.28564055267E+02  0.00000000000E+00 0.  1.
</event>
<event>
 5    1  0.1724235E-003  0.9118800E+02  0.7818608E-02  0.1130116E+00
         25   -1    0    0    0    0  0.00000000000E+00  0.00000000000E+00  0.99999998245E-14  0.12500000000E+03  0.12500000000E+03 0.  0.
        -13    1    3    3    0    0 -0.37792605211E+02 -0.14725662715E+02 -0.59391809350E+01  0.40992818703E+02  0.10566000000E+00 0.  1.
         23    2    1    0    0    0 -0.68363648379E+01  0.24160035081E+02  0.15898003415E+02  0.95281492435E+02  0.90528300043E+02 0.  0.
         13    1    3    3    0    0  0.30956240373E+02  0.38885697796E+02  0.21837184350E+02  0.54288673731E+02  0.10566000000E+00 0. -1.
         22    1    1    0    0    0  0.68363648379E+01 -0.24160035081E+02 -0.15898003415E+02  0.29718507565E+02  0.00000000000E+00 0. -1.
</event>
<event>
 5    1  0.1724235E-003  0.9118800E+02  0.7818608E-02  0.1130116E+00
         25   -1    0    0    0    0  0.00000000000E+00  0.00000000000E+00  0.99999998245E-14  0.12500000000E+03  0.12500000000E+03 0.  0.
        -13    1    3    3    0    0 -0.33357470868E+02  0.38052175632E+02  0.36304118903E+02  0.62279122878E+02  0.10566000000E+00 0. -1.
         23    2    1    0    0    0 -0.17734775173E+02  0.14636700477E+02  0.16019661060E+02  0.96975282485E+02  0.92837603487E+02 0.  0.
         13    1    3    3    0    0  0.15622695695E+02 -0.23415475155E+02 -0.20284457843E+02  0.34696159608E+02  0.10566000000E+00 0.  1.
         22    1    1    0    0    0  0.17734775173E+02 -0.14636700477E+02 -0.16019661060E+02  0.28024717515E+02  0.00000000000E+00 0. -1.
</event>
<event>
 5    1  0.1724235E-003  0.9118800E+02  0.7818608E-02  0.1130116E+00
         25   -1    0    0    0    0  0.00000000000E+00  0.00000000000E+00  0.99999998245E-14  0.12500000000E+03  0.12500000000E+03 0.  0.
        -13    1    3    3    0    0  0.26830220632E+02  0.35039968904E+02 -0.16991288535E+02  0.47290328927E+02  0.10566000000E+00 0.  1.
         23    2    1    0    0    0  0.18456173313E+02  0.11148480060E+02  0.22267244115E+02  0.94004047015E+02  0.88746897150E+02 0.  0.
         13    1    3    3    0    0 -0.83740473187E+01 -0.23891488845E+02  0.39258532650E+02  0.46713718087E+02  0.10566000000E+00 0. -1.
         22    1    1    0    0    0 -0.18456173313E+02 -0.11148480060E+02 -0.22267244115E+02  0.30995952985E+02  0.00000000000E+00 0.  1.
</event>
<event>
 5    1  0.1724235E-003  0.9118800E+02  0.7818608E-02  0.1130116E+00
         25   -1    0    0    0    0  0.00000000000E+00  0.00000000000E+00  0.99999998245E-14  0.12500000000E+03  0.12500000000E+03 0.  0.
        -13    1    3    3    0    0 -0.50507777473E+02 -0.26486430665E+02 -0.25130057812E+02  0.62322528546E+02  0.10566000000E+00 0.  1.
         23    2    1    0    0    0 -0.23284240472E+02 -0.85428877967E+01 -0.10227671198E+02  0.98171991420E+02  0.94435151585E+02 0.  0.
         13    1    3    3    0    0  0.27223537001E+02  0.17943542868E+02  0.14902386615E+02  0.35849462874E+02  0.10566000000E+00 0. -1.
         22    1    1    0    0    0  0.23284240472E+02  0.85428877967E+01  0.10227671198E+02  0.26828008580E+02  0.00000000000E+00 0.  1.
</event>
<event>
 5    1  0.1724235E-003  0.9118800E+02  0.7818608E-02  0.1130116E+00
         25   -1    0    0    0    0  0.00000000000E+00  0.00000000000E+00  0.99999998245E-14  0.12500000000E+03  0.12500000000E+03 0.  0.
        -13    1    3    3    0    0  0.14944524903E+02 -0.67352107672E+01 -0.30654642404E+02  0.34762338149E+02  0.10566000000E+00 0.  1.
         23    2    1    0    0    0 -0.26170833534E+02 -0.19564889800E+01  0.13670418313E+02  0.95409110965E+02  0.90704342461E+02 0.  0.
         13    1    3    3    0    0 -0.41115358438E+02  0.47787217872E+01  0.44325060717E+02  0.60646772816E+02  0.10566000000E+00 0. -1.
         22    1    1    0    0    0  0.26170833534E+02  0.19564889800E+01 -0.13670418313E+02  0.29590889035E+02  0.00000000000E+00 0. -1.
</event>
<event>
 5    1  0.1724235E-003  0.9118800E+02  0.7818608E-02  0.1130116E+00
         25   -1    0    0    0    0  0.00000000000E+00  0.00000000000E+00  0.99999998245E-14  0.12500000000E+03  0.12500000000E+03 0.  0.
        -13    1    3    3    0    0 -0.14234460416E+02  0.31915092754E+02 -0.15716296470E+02  0.38317178231E+02  0.10566000000E+00 0.  1.
         23    2    1    0    0    0  0.24976761625E+02 -0.41575238263E+01  0.10367327461E+02  0.97639351171E+02  0.93727465520E+02 0.  0.
         13    1    3    3    0    0  0.39211222041E+02 -0.36072616580E+02  0.26083623931E+02  0.59322172940E+02  0.10566000000E+00 0. -1.
         22    1    1    0    0    0 -0.24976761625E+02  0.41575238263E+01 -0.10367327461E+02  0.27360648829E+02  0.00000000000E+00 0. -1.
</event>
<event>
 5    1  0.1724235E-003  0.9118800E+02  0.7818608E-02  0.1130116E+00
         25   -1    0    0    0    0  0.00000000000E+00  0.00000000000E+00  0.99999998245E-14  0.12500000000E+03  0.12500000000E+03 0.  0.
        -13    1    3    3    0    0  0.13457196582E+02 -0.40757206572E+02 -0.27824097918E+01  0.43011614661E+02  0.10566000000E+00 0. -1.
         23    2    1    0    0    0 -0.11946782417E+01  0.18873535392E+02 -0.76306927646E+01  0.10460723005E+03  0.10260023154E+03 0.  0.
         13    1    3    3    0    0 -0.14651874824E+02  0.59630741964E+02 -0.48482829728E+01  0.61595615387E+02  0.10566000000E+00 0.  1.
         22    1    1    0    0    0  0.11946782417E+01 -0.18873535392E+02  0.76306927646E+01  0.20392769953E+02  0.00000000000E+00 0.  1.
</event>
<event>
 5    1  0.1724235E-003  0.9118800E+02  0.7818608E-02  0.1130116E+00
         25   -1    0    0    0    0  0.00000000000E+00  0.00000000000E+00  0.99999998245E-14  0.12500000000E+03  0.12500000000E+03 0.  0.
        -13    1    3    3    0    0  0.19866375085E+02 -0.22664031480E+02 -0.52781601247E+02  0.60780258112E+02  0.10566000000E+00 0. -1.
         23    2    1    0    0    0  0.68573086952E+01 -0.18657518026E+02 -0.17799038553E+02  0.98317956697E+02  0.94628162691E+02 0.  0.
         13    1    3    3    0    0 -0.13009066389E+02  0.40065134535E+01  0.34982562694E+02  0.37537698585E+02  0.10566000000E+00 0.  1.
         22    1    1    0    0    0 -0.68573086952E+01  0.18657518026E+02  0.17799038553E+02  0.26682043303E+02  0.00000000000E+00 0. -1.
</event>
<event>
 5    1  0.1724235E-003  0.9118800E+02  0.7818608E-02  0.1130116E+00
         25   -1    0    0    0    0  0.00000000000E+00  0.00000000000E+00  0.99999998245E-14  0.12500000000E+03  0.12500000000E+03 0.  0.
        -13    1    3    3    0    0  0.39167148654E+02 -0.28493429026E+02  0.28640717440E+02  0.56269377914E+02  0.10566000000E+00 0.  1.
         23    2    1    0    0    0  0.26564659197E+02  0.45126381538E+01  0.96599126846E+01  0.96375553552E+02  0.92026563492E+02 0.  0.
         13    1    3    3    0    0 -0.12602489457E+02  0.33006067179E+02 -0.18980804755E+02  0.40106175639E+02  0.10566000000E+00 0. -1.
         22    1    1    0    0    0 -0.26564659197E+02 -0.45126381538E+01 -0.96599126846E+01  0.28624446448E+02  0.00000000000E+00 0.  1.
</event>
<event>
 5    1  0.1724235E-003  0.9118800E+02  0.7818608E-02  0.1130116E+00
         25   -1    0    0    0    0  0.00000000000E+00  0.00000000000E+00  0.99999998245E-14  0.12500000000E+03  0.12500000000E+03 0.  0.
        -13    1    3    3    0    0  0.13647673861E+02 -0.11328319787E+02  0.35509711586E+02  0.39693080152E+02  0.10566000000E+00 0.  1.
         23    2    1    0    0    0  0.17431352844E+01  0.28727029576E+02 -0.24084192145E+01  0.96119535461E+02  0.91678153696E+02 0.  0.
         13    1    3    3    0    0 -0.11904538577E+02  0.40055349363E+02 -0.37918130800E+02  0.56426455309E+02  0.10566000000E+00 0. -1.
         22    1    1    0    0    0 -0.17431352844E+01 -0.28727029576E+02  0.24084192145E+01  0.28880464539E+02  0.00000000000E+00 0. -1.
</event>
<event>
 5    1  0.1724235E-003  0.9118800E+02  0.7818608E-02  0.1130116E+00
         25   -1    0    0    0    0  0.00000000000E+00  0.00000000000E+00  0.99999998245E-14  0.12500000000E+03  0.12500000000E+03 0.  0.
        -13    1    3    3    0    0 -0.33932915361E+02  0.10401951672E+02  0.96532691129E+01  0.36780974866E+02  0.10566000000E+00 0.  1.
         23    2    1    0    0    0  0.23842499111E+02 -0.39223569332E+01  0.15023238822E+02  0.96547454376E+02  0.92259761511E+02 0.  0.
         13    1    3    3    0    0  0.57775414472E+02 -0.14324308606E+02  0.53699697088E+01  0.59766479511E+02  0.10566000000E+00 0. -1.
         22    1    1    0    0    0 -0.23842499111E+02  0.39223569332E+01 -0.15023238822E+02  0.28452545624E+02  0.00000000000E+00 0. -1.
</event>
<event>
 5    1  0.1724235E-003  0.9118800E+02  0.7818608E-02  0.1130116E+00
         25   -1    0    0    0    0  0.00000000000E+00  0.00000000000E+00  0.99999998245E-14  0.12500000000E+03  0.12500000000E+03 0.  0.
        -13    1    3    3    0    0  0.15641681407E+02 -0.47435400292E+02  0.42879561454E+01  0.50131598120E+02  0.10566000000E+00 0.  1.
         23    2    1    0    0    0 -0.20140198393E+02 -0.20273522903E+02 -0.49563886685E+01  0.95996394865E+02  0.91510101716E+02 0.  0.
         13    1    3    3    0    0 -0.35781879800E+02  0.27161877389E+02 -0.92443448139E+01  0.45864796745E+02  0.10566000000E+00 0. -1.
         22    1    1    0    0    0  0.20140198393E+02  0.20273522903E+02  0.49563886685E+01  0.29003605135E+02  0.00000000000E+00 0.  1.
</event>
<event>
 5    1  0.1724235E-003  0.9118800E+02  0.7818608E-02  0.1130116E+00
         25   -1    0    0    0    0  0.00000000000E+00  0.00000000000E+00  0.99999998245E-14  0.12500000000E+03  0.12500000000E+03 0.  0.
        -13    1    3    3    0    0  0.28911760978E+01 -0.36139225991E+01  0.57616732535E+02  0.57802407976E+02  0.10566000000E+00 0.  1.
         23    2    1    0    0    0 -0.12544455432E+02  0.66420638369E+01  0.14620658861E+02  0.10462246238E+03  0.10261878772E+03 0.  0.
         13    1    3    3    0    0 -0.15435631530E+02  0.10255986436E+02 -0.42996073674E+02  0.46820054399E+02  0.10566000000E+00 0. -1.
         22    1    1    0    0    0  0.12544455432E+02 -0.66420638369E+01 -0.14620658861E+02  0.20377537624E+02  0.00000000000E+00 0.  1.
</event>
<event>
 5    1  0.1724235E-003  0.9118800E+02  0.7818608E-02  0.1130116E+00
         25   -1    0    0    0    0  0.00000000000E+00  0.00000000000E+00  0.99999998245E-14  0.12500000000E+03  0.12500000000E+03 0.  0.
        -13    1    3    3    0    0 -0.23625430959E+02 -0.24400843474E+02 -0.10977690956E+02  0.35694299446E+02  0.10566000000E+00 0.  1.
         23    2    1    0    0    0  0.24201050665E+02  0.13056327781E+02 -0.72734906276E+01  0.96555981045E+02  0.92271313317E+02 0.  0.
         13    1    3    3    0    0  0.47826481623E+02  0.37457171255E+02  0.37042003287E+01  0.60861681598E+02  0.10566000000E+00 0. -1.
         22    1    1    0    0    0 -0.24201050665E+02 -0.13056327781E+02  0.72734906276E+01  0.28444018955E+02  0.00000000000E+00 0. -1.
</event>
<event>
 5    1  0.1724235E-003  0.9118800E+02  0.7818608E-02  0.1130116E+00
         25   -1    0    0    0    0  0.00000000000E+00  0.00000000000E+00  0.99999998245E-14  0.12500000000E+03  0.12500000000E+03 0.  0.
        -13    1    3    3    0    0  0.14785778839E+02  0.16019046005E+02  0.29279057630E+02  0.36503472033E+02  0.10566000000E+00 0.  1.
         23    2    1    0    0    0  0.62467744602E+01 -0.73629375732E+01 -0.26073652937E+02  0.97195856094E+02  0.93134118472E+02 0.  0.
         13    1    3    3    0    0 -0.85390043787E+01 -0.23381983578E+02 -0.55352710567E+02  0.60692384061E+02  0.10566000000E+00 0. -1.
         22    1    1    0    0    0 -0.62467744602E+01  0.73629375732E+01  0.26073652937E+02  0.27804143906E+02  0.00000000000E+00 0. -1.
</event>
<event>
 5    1  0.1724235E-003  0.9118800E+02  0.7818608E-02  0.1130116E+00
         25   -1    0    0    0    0  0.00000000000E+00  0.00000000000E+00  0.99999998245E-14  0.12500000000E+03  0.12500000000E+03 0.  0.
        -13    1    3    3    0    0 -0.34493336688E+02 -0.49430120881E+01 -0.43672669084E+02  0.55870715347E+02  0.10566000000E+00 0.  1.
         23    2    1    0    0    0  0.17685651104E+01 -0.60337349438E+01 -0.29529446588E+02  0.94808577448E+02  0.89872934536E+02 0.  0.
         13    1    3    3    0    0  0.36261901799E+02 -0.10907228556E+01  0.14143222497E+02  0.38937862101E+02  0.10566000000E+00 0. -1.
         22    1    1    0    0    0 -0.17685651104E+01  0.60337349438E+01  0.29529446588E+02  0.30191422552E+02  0.00000000000E+00 0.  1.
</event>
<event>
 5    1  0.1724235E-003  0.9118800E+02  0.7818608E-02  0.1130116E+00
         25   -1    0    0    0    0  0.00000000000E+00  0.00000000000E+00  0.99999998245E-14  0.12500000000E+03  0.12500000000E+03 0.  0.
        -13    1    3    3    0    0  0.96963985526E+01 -0.42635171320E+02  0.38891327462E+01  0.43896634221E+02  0.10566000000E+00 0.  1.
         23    2    1    0    0    0  0.15618977919E+02 -0.27892998705E+00 -0.25009087904E+02  0.95512973175E+02  0.90847362613E+02 0.  0.
         13    1    3    3    0    0  0.59225793666E+01  0.42356241333E+02 -0.28898220650E+02  0.51616338954E+02  0.10566000000E+00 0. -1.
         22    1    1    0    0    0 -0.15618977919E+02  0.27892998705E+00  0.25009087904E+02  0.29487026825E+02  0.00000000000E+00 0. -1.
</event>
<event>
 5    1  0.1724235E-003  0.9118800E+02  0.7818608E-02  0.1130116E+00
         25   -1    0    0    0    0  0.00000000000E+00  0.00000000000E+00  0.99999998245E-14  0.12500000000E+03  0.12500000000E+03 0.  0.
        -13    1    3    3    0    0  0.37306023728E+02 -0.25980871259E+02 -0.21568000795E+02  0.50318335625E+02  0.10566000000E+00 0.  1.
         23    2    1    0    0    0  0.13375539842E+02 -0.13386635131E+02  0.18419823961E+02  0.98591725142E+02  0.94989111405E+02 0.  0.
         13    1    3    3    0    0 -0.23930483886E+02  0.12594236128E+02  0.39987824756E+02  0.48273389517E+02  0.10566000000E+00 0. -1.
         22    1    1    0    0    0 -0.13375539842E+02  0.13386635131E+02 -0.18419823961E+02  0.26408274858E+02  0.00000000000E+00 0.  1.
</event>
<event>
 5    1  0.1724235E-003  0.9118800E+02  0.7818608E-02  0.1130116E+00
         25   -1    0    0    0    0  0.00000000000E+00  0.00000000000E+00  0.99999998245E-14  0.12500000000E+03  0.12500000000E+03 0.  0.
        -13    1    3    3    0    0  0.13522363487E+02  0.17362777293E+02 -0.30755586427E+02  0.37818482388E+02  0.10566000000E+00 0.  1.
         23    2    1    0    0    0  0.28107923435E+02  0.91726395327E+01  0.18692851523E+02  0.90019785966E+02  0.82945442861E+02 0.  0.
         13    1    3    3    0    0  0.14585559948E+02 -0.81901377600E+01  0.49448437950E+02  0.52201303578E+02  0.10566000000E+00 0. -1.
         22    1    1    0    0    0 -0.28107923435E+02 -0.91726395327E+01 -0.18692851523E+02  0.34980214034E+02  0.00000000000E+00 0.  1.
</event>
<event>
 5    1  0.1724235E-003  0.9118800E+02  0.7818608E-02  0.1130116E+00
         25   -1    0    0    0    0  0.00000000000E+00  0.00000000000E+00  0.99999998245E-14  0.12500000000E+03  0.12500000000E+03 0.  0.
        -13    1    3    3    0    0 -0.95668570833E+00 -0.17380439821E+02 -0.30294241474E+02  0.34939192413E+02  0.10566000000E+00 0.  1.
         23    2    1    0    0    0  0.68858626349E+01  0.10375713342E+02  0.24868738972E+02  0.97187687805E+02  0.93123154754E+02 0.  0.
         13    1    3    3    0    0  0.78425483432E+01  0.27756153163E+02  0.55162980446E+02  0.62248495393E+02  0.10566000000E+00 0. -1.
         22    1    1    0    0    0 -0.68858626349E+01 -0.10375713342E+02 -0.24868738972E+02  0.27812312195E+02  0.00000000000E+00 0. -1.
</event>
<event>
 5    1  0.1724235E-003  0.9118800E+02  0.7818608E-02  0.1130116E+00
         25   -1    0    0    0    0  0.00000000000E+00  0.00000000000E+00  0.99999998245E-14  0.12500000000E+03  0.12500000000E+03 0.  0.
        -13    1    3    3    0    0 -0.15596055482E+01 -0.27570407783E+02 -0.43963496374E+02  0.51916855954E+02  0.10566000000E+00 0.  1.
         23    2    1    0    0    0 -0.22644364950E+02  0.10347907946E+01 -0.19922525402E+02  0.94821446781E+02  0.89890832098E+02 0.  0.
         13    1    3    3    0    0 -0.21084759402E+02  0.28605198577E+02  0.24040970972E+02  0.42904590827E+02  0.10566000000E+00 0. -1.
         22    1    1    0    0    0  0.22644364950E+02 -0.10347907946E+01  0.19922525402E+02  0.30178553219E+02  0.00000000000E+00 0.  1.
</event>
<event>
 5    1  0.1724235E-003  0.9118800E+02  0.7818608E-02  0.1130116E+00
         25   -1    0    0    0    0  0.00000000000E+00  0.00000000000E+00  0.99999998245E-14  0.12500000000E+03  0.12500000000E+03 0.  0.
        -13    1    3    3    0    0  0.29982763973E+02  0.30664163030E+02 -0.26855131181E+02  0.50601050034E+02  0.10566000000E+00 0.  1.
         23    2    1    0    0    0 -0.64387035150E+01  0.28031329080E+02  0.51116861570E+00  0.96234159037E+02  0.91834306004E+02 0.  0.
         13    1    3    3    0    0 -0.36421467488E+02 -0.26328339492E+01  0.27366299797E+02  0.45633109002E+02  0.10566000000E+00 0. -1.
         22    1    1    0    0    0  0.64387035150E+01 -0.28031329080E+02 -0.51116861570E+00  0.28765840963E+02  0.00000000000E+00 0. -1.
</event>
<event>
 5    1  0.1724235E-003  0.9118800E+02  0.7818608E-02  0.1130116E+00
         25   -1    0    0    0    0  0.00000000000E+00  0.00000000000E+00  0.99999998245E-14  0.12500000000E+03  0.12500000000E+03 0.  0.
        -13    1    3    3    0    0  0.17345760690E+02  0.12479823743E+02 -0.54573455676E+02  0.58607974227E+02  0.10566000000E+00 0.  1.
         23    2    1    0    0    0  0.18841590590E+02  0.13708408644E+02 -0.17183037349E+02  0.96048613572E+02  0.91581403096E+02 0.  0.
         13    1    3    3    0    0  0.14958299005E+01  0.12285849008E+01  0.37390418326E+02  0.37440639345E+02  0.10566000000E+00 0. -1.
         22    1    1    0    0    0 -0.18841590590E+02 -0.13708408644E+02  0.17183037349E+02  0.28951386428E+02  0.00000000000E+00 0.  1.
</event>
<event>
 5    1  0.1724235E-003  0.9118800E+02  0.7818608E-02  0.1130116E+00
         25   -1    0    0    0    0  0.00000000000E+00  0.00000000000E+00  0.99999998245E-14  0.12500000000E+03  0.12500000000E+03 0.  0.
        -13    1    3    3    0    0  0.29151513850E+02 -0.46146228083E+02 -0.17595857815E+02  0.57349023552E+02  0.10566000000E+00 0.  1.
         23    2    1    0    0    0  0.17016893591E+02 -0.13555110330E+02 -0.23886994353E+02  0.92690493926E+02  0.86877059581E+02 0.  0.
         13    1    3    3    0    0 -0.12134620259E+02  0.32591117753E+02 -0.62911365373E+01  0.35341470374E+02  0.10566000000E+00 0. -1.
         22    1    1    0    0    0 -0.17016893591E+02  0.13555110330E+02  0.23886994353E+02  0.32309506074E+02  0.00000000000E+00 0.  1.
</event>
<event>
 5    1  0.1724235E-003  0.9118800E+02  0.7818608E-02  0.1130116E+00
         25   -1    0    0    0    0  0.00000000000E+00  0.00000000000E+00  0.99999998245E-14  0.12500000000E+03  0.12500000000E+03 0.  0.
        -13    1    3    3    0    0 -0.43897357026E+02  0.38516574233E+02  0.40430021717E+01  0.58539401049E+02  0.10566000000E+00 0.  1.
         23    2    1    0    0    0 -0.78084404797E+01  0.26306818722E+02  0.67718910782E+01  0.96735553026E+02  0.92514259746E+02 0.  0.
         13    1    3    3    0    0  0.36088916547E+02 -0.12209755511E+02  0.27288889064E+01  0.38196151977E+02  0.10566000000E+00 0. -1.
         22    1    1    0    0    0  0.78084404797E+01 -0.26306818722E+02 -0.67718910782E+01  0.28264446974E+02  0.00000000000E+00 0.  1.
</event>
<event>
 5    1  0.1724235E-003  0.9118800E+02  0.7818608E-02  0.1130116E+00
         25   -1    0    0    0    0  0.00000000000E+00  0.00000000000E+00  0.99999998245E-14  0.12500000000E+03  0.12500000000E+03 0.  0.
        -13    1    3    3    0    0  0.19668890881E+02  0.10291788822E+01  0.36677090974E+02  0.41631053842E+02  0.10566000000E+00 0.  1.
         23    2    1    0    0    0 -0.13497669403E+01  0.28003030637E+02 -0.60112070910E+01  0.96327256735E+02  0.91960938358E+02 0.  0.
         13    1    3    3    0    0 -0.21018657821E+02  0.26973851755E+02 -0.42688298065E+02  0.54696202892E+02  0.10566000000E+00 0. -1.
         22    1    1    0    0    0  0.13497669403E+01 -0.28003030637E+02  0.60112070910E+01  0.28672743265E+02  0.00000000000E+00 0. -1.
</event>
<event>
 5    1  0.1724235E-003  0.9118800E+02  0.7818608E-02  0.1130116E+00
         25   -1    0    0    0    0  0.00000000000E+00  0.00000000000E+00  0.99999998245E-14  0.12500000000E+03  0.12500000000E+03 0.  0.
        -13    1    3    3    0    0  0.10910800514E+02 -0.50615544560E+02 -0.11063750272E+02  0.52947111849E+02  0.10566000000E+00 0. -1.
         23    2    1    0    0    0 -0.11681425383E+02 -0.41194091836E+02  0.44869110175E+01  0.81947226900E+02  0.69726657205E+02 0.  0.
         13    1    3    3    0    0 -0.22592225896E+02  0.94214527246E+01  0.15550661290E+02  0.29000115051E+02  0.10566000000E+00 0.  1.
         22    1    1    0    0    0  0.11681425383E+02  0.41194091836E+02 -0.44869110175E+01  0.43052773100E+02  0.00000000000E+00 0. -1.
</event>
<event>
 5    1  0.1724235E-003  0.9118800E+02  0.7818608E-02  0.1130116E+00
         25   -1    0    0    0    0  0.00000000000E+00  0.00000000000E+00  0.99999998245E-14  0.12500000000E+03  0.12500000000E+03 0.  0.
        -13    1    3    3    0    0 -0.43511214153E+02 -0.12079202368E+02  0.72811780753E+01  0.45740131232E+02  0.10566000000E+00 0. -1.
         23    2    1    0    0    0 -0.74479048819E+01  0.21092286650E+02  0.18459378783E+02  0.95998198189E+02  0.91512564969E+02 0.  0.
         13    1    3    3    0    0  0.36063309271E+02  0.33171489017E+02  0.11178200707E+02  0.50258066957E+02  0.10566000000E+00 0.  1.
         22    1    1    0    0    0  0.74479048819E+01 -0.21092286650E+02 -0.18459378783E+02  0.29001801811E+02  0.00000000000E+00 0. -1.
</event>
<event>
 5    1  0.1724235E-003  0.9118800E+02  0.7818608E-02  0.1130116E+00
         25   -1    0    0    0    0  0.00000000000E+00  0.00000000000E+00  0.99999998245E-14  0.12500000000E+03  0.12500000000E+03 0.  0.
        -13    1    3    3    0    0  0.64453757207E+01  0.26771044047E+02  0.20000637190E+02  0.34033341293E+02  0.10566000000E+00 0. -1.
         23    2    1    0    0    0 -0.17027845217E+02 -0.25763933796E+02  0.10673621598E+02  0.92325024937E+02  0.86349616295E+02 0.  0.
         13    1    3    3    0    0 -0.23473220937E+02 -0.52534977843E+02 -0.93270155919E+01  0.58291683644E+02  0.10566000000E+00 0.  1.
         22    1    1    0    0    0  0.17027845217E+02  0.25763933796E+02 -0.10673621598E+02  0.32674975063E+02  0.00000000000E+00 0.  1.
</event>
<event>
 5    1  0.1724235E-003  0.9118800E+02  0.7818608E-02  0.1130116E+00
         25   -1    0    0    0    0  0.00000000000E+00  0.00000000000E+00  0.99999998245E-14  0.12500000000E+03  0.12500000000E+03 0.  0.
        -13    1    3    3    0    0 -0.15981941534E+02 -0.40499611183E+02  0.26628612017E+02  0.51036605522E+02  0.10566000000E+00 0. -1.
         23    2    1    0    0    0  0.19660107796E+02 -0.18999187598E+02  0.11767267304E+02  0.95234960982E+02  0.90464027357E+02 0.  0.
         13    1    3    3    0    0  0.35642049329E+02  0.21500423585E+02 -0.14861344714E+02  0.44198355461E+02  0.10566000000E+00 0.  1.
         22    1    1    0    0    0 -0.19660107796E+02  0.18999187598E+02 -0.11767267304E+02  0.29765039018E+02  0.00000000000E+00 0. -1.
</event>
<event>
 5    1  0.1724235E-003  0.9118800E+02  0.7818608E-02  0.1130116E+00
         25   -1    0    0    0    0  0.00000000000E+00  0.00000000000E+00  0.99999998245E-14  0.12500000000E+03  0.12500000000E+03 0.  0.
        -13    1    3    3    0    0 -0.24465080303E+02  0.13858647703E+02  0.24075210958E+02  0.37016607314E+02  0.10566000000E+00 0. -1.
         23    2    1    0    0    0  0.28539056760E+02 -0.32788957555E+01  0.53961320439E+01  0.95770782440E+02  0.91201401360E+02 0.  0.
         13    1    3    3    0    0  0.53004137063E+02 -0.17137543459E+02 -0.18679078914E+02  0.58754175126E+02  0.10566000000E+00 0.  1.
         22    1    1    0    0    0 -0.28539056760E+02  0.32788957555E+01 -0.53961320439E+01  0.29229217560E+02  0.00000000000E+00 0.  1.
</event>
<event>
 5    1  0.1724235E-003  0.9118800E+02  0.7818608E-02  0.1130116E+00
         25   -1    0    0    0    0  0.00000000000E+00  0.00000000000E+00  0.99999998245E-14  0.12500000000E+03  0.12500000000E+03 0.  0.
        -13    1    3    3    0    0 -0.38741064887E+02  0.72755185005E+01  0.38550337076E+01  0.39606511169E+02  0.10566000000E+00 0.  1.
         23    2    1    0    0    0  0.15156164501E+02  0.12043910259E+02 -0.18567312535E+02  0.98176312865E+02  0.94440871535E+02 0.  0.
         13    1    3    3    0    0  0.53897229388E+02  0.47683917585E+01 -0.22422346243E+02  0.58569801697E+02  0.10566000000E+00 0. -1.
         22    1    1    0    0    0 -0.15156164501E+02 -0.12043910259E+02  0.18567312535E+02  0.26823687135E+02  0.00000000000E+00 0. -1.
</event>
<event>
 5    1  0.1724235E-003  0.9118800E+02  0.7818608E-02  0.1130116E+00
         25   -1    0    0    0    0  0.00000000000E+00  0.00000000000E+00  0.99999998245E-14  0.12500000000E+03  0.12500000000E+03 0.  0.
        -13    1    3    3    0    0 -0.11491520120E+02  0.39875746093E+02  0.12153619554E+01  0.41516483833E+02  0.10566000000E+00 0.  1.
         23    2    1    0    0    0 -0.15196889725E+02 -0.34229802157E+01 -0.27352509162E+02  0.93522674695E+02  0.88066274327E+02 0.  0.
         13    1    3    3    0    0 -0.37053696053E+01 -0.43298726308E+02 -0.28567871117E+02  0.52006190863E+02  0.10566000000E+00 0. -1.
         22    1    1    0    0    0  0.15196889725E+02  0.34229802157E+01  0.27352509162E+02  0.31477325305E+02  0.00000000000E+00 0. -1.
</event>
<event>
 5    1  0.1724235E-003  0.9118800E+02  0.7818608E-02  0.1130116E+00
         25   -1    0    0    0    0  0.00000000000E+00  0.00000000000E+00  0.99999998245E-14  0.12500000000E+03  0.12500000000E+03 0.  0.
        -13    1    3    3    0    0 -0.87617541734E+01 -0.59161500245E+02  0.18022702548E+02  0.62463432652E+02  0.10566000000E+00 0.  1.
         23    2    1    0    0    0 -0.55967013038E+01 -0.27498516365E+02  0.84724649531E+01  0.95686621994E+02  0.91085978605E+02 0.  0.
         13    1    3    3    0    0  0.31650528696E+01  0.31662983881E+02 -0.95502375954E+01  0.33223189342E+02  0.10566000000E+00 0. -1.
         22    1    1    0    0    0  0.55967013038E+01  0.27498516365E+02 -0.84724649531E+01  0.29313378006E+02  0.00000000000E+00 0.  1.
</event>
<event>
 5    1  0.1724235E-003  0.9118800E+02  0.7818608E-02  0.1130116E+00
         25   -1    0    0    0    0  0.00000000000E+00  0.00000000000E+00  0.99999998245E-14  0.12500000000E+03  0.12500000000E+03 0.  0.
        -13    1    3    3    0    0 -0.42994864592E+02  0.12724288175E+02  0.14951074161E+01  0.44863263379E+02  0.10566000000E+00 0.  1.
         23    2    1    0    0    0 -0.42456517894E+01  0.10554696009E+02 -0.28759150979E+02  0.94072408241E+02  0.88843131757E+02 0.  0.
         13    1    3    3    0    0  0.38749212802E+02 -0.21695921661E+01 -0.30254258395E+02  0.49209144862E+02  0.10566000000E+00 0. -1.
         22    1    1    0    0    0  0.42456517894E+01 -0.10554696009E+02  0.28759150979E+02  0.30927591759E+02  0.00000000000E+00 0.  1.
</event>
<event>
 5    1  0.1724235E-003  0.9118800E+02  0.7818608E-02  0.1130116E+00
         25   -1    0    0    0    0  0.00000000000E+00  0.00000000000E+00  0.99999998245E-14  0.12500000000E+03  0.12500000000E+03 0.  0.
        -13    1    3    3    0    0 -0.29906518822E+01  0.18694062707E+02 -0.24374214013E+02  0.30863011064E+02  0.10566000000E+00 0.  1.
         23    2    1    0    0    0  0.11040697699E+02  0.53981181262E+01  0.32139287492E+02  0.90591127808E+02  0.83802040262E+02 0.  0.
         13    1    3    3    0    0  0.14031349581E+02 -0.13295944581E+02  0.56513501505E+02  0.59728116744E+02  0.10566000000E+00 0. -1.
         22    1    1    0    0    0 -0.11040697699E+02 -0.53981181262E+01 -0.32139287492E+02  0.34408872192E+02  0.00000000000E+00 0. -1.
</event>
<event>
 5    1  0.1724235E-003  0.9118800E+02  0.7818608E-02  0.1130116E+00
         25   -1    0    0    0    0  0.00000000000E+00  0.00000000000E+00  0.99999998245E-14  0.12500000000E+03  0.12500000000E+03 0.  0.
        -13    1    3    3    0    0  0.31354472012E+02 -0.25739998621E+02  0.19174080198E+02  0.44869889231E+02  0.10566000000E+00 0.  1.
         23    2    1    0    0    0  0.23430845185E+02  0.10077775286E+02 -0.15338670263E+02  0.95236921089E+02  0.90466735723E+02 0.  0.
         13    1    3    3    0    0 -0.79236268270E+01  0.35817773907E+02 -0.34512750461E+02  0.50367031858E+02  0.10566000000E+00 0. -1.
         22    1    1    0    0    0 -0.23430845185E+02 -0.10077775286E+02  0.15338670263E+02  0.29763078911E+02  0.00000000000E+00 0. -1.
</event>
<event>
 5    1  0.1724235E-003  0.9118800E+02  0.7818608E-02  0.1130116E+00
         25   -1    0    0    0    0  0.00000000000E+00  0.00000000000E+00  0.99999998245E-14  0.12500000000E+03  0.12500000000E+03 0.  0.
        -13    1    3    3    0    0  0.24410110062E+02  0.18195859529E+02 -0.26600987825E+02  0.40429772378E+02  0.10566000000E+00 0. -1.
         23    2    1    0    0    0 -0.22183498933E+02 -0.87887276702E+01 -0.18343415360E+02  0.94902986094E+02  0.90004147258E+02 0.  0.
         13    1    3    3    0    0 -0.46593608995E+02 -0.26984587199E+02  0.82575724654E+01  0.54473213716E+02  0.10566000000E+00 0.  1.
         22    1    1    0    0    0  0.22183498933E+02  0.87887276702E+01  0.18343415360E+02  0.30097013906E+02  0.00000000000E+00 0.  1.
</event>
<event>
 5    1  0.1724235E-003  0.9118800E+02  0.7818608E-02  0.1130116E+00
         25   -1    0    0    0    0  0.00000000000E+00  0.00000000000E+00  0.99999998245E-14  0.12500000000E+03  0.12500000000E+03 0.  0.
        -13    1    3    3    0    0 -0.21432368062E+02  0.16483347577E+02  0.20825252323E+02  0.34128425783E+02  0.10566000000E+00 0.  1.
         23    2    1    0    0    0  0.26219703902E+02  0.15756889105E+01 -0.14221254751E+02  0.95130286996E+02  0.90319276730E+02 0.  0.
         13    1    3    3    0    0  0.47652071964E+02 -0.14907658666E+02 -0.35046507074E+02  0.61001861213E+02  0.10566000000E+00 0. -1.
         22    1    1    0    0    0 -0.26219703902E+02 -0.15756889105E+01  0.14221254751E+02  0.29869713004E+02  0.00000000000E+00 0. -1.
</event>
<event>
 5    1  0.1724235E-003  0.9118800E+02  0.7818608E-02  0.1130116E+00
         25   -1    0    0    0    0  0.00000000000E+00  0.00000000000E+00  0.99999998245E-14  0.12500000000E+03  0.12500000000E+03 0.  0.
        -13    1    3    3    0    0 -0.25018754949E+01  0.35617910661E+02  0.33202873721E+01  0.35859871906E+02  0.10566000000E+00 0.  1.
         23    2    1    0    0    0  0.18512892506E+02 -0.20665332317E+02 -0.58799537704E+01  0.96638811642E+02  0.92383455827E+02 0.  0.
         13    1    3    3    0    0  0.21014768001E+02 -0.56283242978E+02 -0.92002411425E+01  0.60778939736E+02  0.10566000000E+00 0. -1.
         22    1    1    0    0    0 -0.18512892506E+02  0.20665332317E+02  0.58799537704E+01  0.28361188358E+02  0.00000000000E+00 0. -1.
</event>
<event>
 5    1  0.1724235E-003  0.9118800E+02  0.7818608E-02  0.1130116E+00
         25   -1    0    0    0    0  0.00000000000E+00  0.00000000000E+00  0.99999998245E-14  0.12500000000E+03  0.12500000000E+03 0.  0.
        -13    1    3    3    0    0  0.24943060643E+00 -0.77223587268E+01 -0.35892483784E+02  0.36714828015E+02  0.10566000000E+00 0. -1.
         23    2    1    0    0    0  0.20576201923E+02  0.60087727932E+01  0.18692831167E+02  0.96558703034E+02  0.92275000723E+02 0.  0.
         13    1    3    3    0    0  0.20326771317E+02  0.13731131520E+02  0.54585314951E+02  0.59843875019E+02  0.10566000000E+00 0.  1.
         22    1    1    0    0    0 -0.20576201923E+02 -0.60087727932E+01 -0.18692831167E+02  0.28441296966E+02  0.00000000000E+00 0.  1.
</event>
<event>
 5    1  0.1724235E-003  0.9118800E+02  0.7818608E-02  0.1130116E+00
         25   -1    0    0    0    0  0.00000000000E+00  0.00000000000E+00  0.99999998245E-14  0.12500000000E+03  0.12500000000E+03 0.  0.
        -13    1    3    3    0    0  0.77445547642E+01  0.32070973448E+02  0.83894822577E+01  0.34042914725E+02  0.10566000000E+00 0.  1.
         23    2    1    0    0    0  0.25129561335E+01 -0.21293315896E+02 -0.20829164277E+02  0.95107286258E+02  0.90287438576E+02 0.  0.
         13    1    3    3    0    0 -0.52315986306E+01 -0.53364289344E+02 -0.29218646535E+02  0.61064371533E+02  0.10566000000E+00 0. -1.
         22    1    1    0    0    0 -0.25129561335E+01  0.21293315896E+02  0.20829164277E+02  0.29892713742E+02  0.00000000000E+00 0. -1.
</event>
<event>
 5    1  0.1724235E-003  0.9118800E+02  0.7818608E-02  0.1130116E+00
         25   -1    0    0    0    0  0.00000000000E+00  0.00000000000E+00  0.99999998245E-14  0.12500000000E+03  0.12500000000E+03 0.  0.
        -13    1    3    3    0    0  0.37835282576E+02  0.44560122469E+01  0.16039984297E+01  0.38130678301E+02  0.10566000000E+00 0. -1.
         23    2    1    0    0    0 -0.20202655738E+02  0.87727710250E+01  0.15626503441E+02  0.97994511296E+02  0.94199935372E+02 0.  0.
         13    1    3    3    0    0 -0.58037938314E+02  0.43167587781E+01  0.14022505011E+02  0.59863832995E+02  0.10566000000E+00 0.  1.
         22    1    1    0    0    0  0.20202655738E+02 -0.87727710250E+01 -0.15626503441E+02  0.27005488704E+02  0.00000000000E+00 0.  1.
</event>
<event>
 5    1  0.1724235E-003  0.9118800E+02  0.7818608E-02  0.1130116E+00
         25   -1    0    0    0    0  0.00000000000E+00  0.00000000000E+00  0.99999998245E-14  0.12500000000E+03  0.12500000000E+03 0.  0.
        -13    1    3    3    0    0 -0.47143066209E+02 -0.40900744414E+01 -0.17943534139E+02  0.50608092060E+02  0.10566000000E+00 0.  1.
         23    2    1    0    0    0 -0.42267877667E+01  0.28173797092E+01 -0.29079157690E+02  0.95480501779E+02  0.90802673115E+02 0.  0.
         13    1    3    3    0    0  0.42916278442E+02  0.69074541507E+01 -0.11135623550E+02  0.44872409720E+02  0.10566000000E+00 0. -1.
         22    1    1    0    0    0  0.42267877667E+01 -0.28173797092E+01  0.29079157690E+02  0.29519498221E+02  0.00000000000E+00 0. -1.
</event>
<event>
 5    1  0.1724235E-003  0.9118800E+02  0.7818608E-02  0.1130116E+00
         25   -1    0    0    0    0  0.00000000000E+00  0.00000000000E+00  0.99999998245E-14  0.12500000000E+03  0.12500000000E+03 0.  0.
        -13    1    3    3    0    0  0.28598699285E+02 -0.52919621818E+02  0.16553047947E+02  0.62388993697E+02  0.10566000000E+00 0.  1.
         23    2    1    0    0    0  0.14745826103E+02 -0.22308775968E+02  0.84946749222E+01  0.96941483028E+02  0.92792083482E+02 0.  0.
         13    1    3    3    0    0 -0.13852873182E+02  0.30610845851E+02 -0.80583730249E+01  0.34552489331E+02  0.10566000000E+00 0. -1.
         22    1    1    0    0    0 -0.14745826103E+02  0.22308775968E+02 -0.84946749222E+01  0.28058516972E+02  0.00000000000E+00 0.  1.
</event>
<event>
 5    1  0.1724235E-003  0.9118800E+02  0.7818608E-02  0.1130116E+00
         25   -1    0    0    0    0  0.00000000000E+00  0.00000000000E+00  0.99999998245E-14  0.12500000000E+03  0.12500000000E+03 0.  0.
        -13    1    3    3    0    0 -0.46196028242E+02 -0.49982297279E+01  0.25158353519E+02  0.52839466704E+02  0.10566000000E+00 0. -1.
         23    2    1    0    0    0 -0.25954289175E+02  0.11552511782E+02 -0.83938072384E+01  0.95376670427E+02  0.90659625008E+02 0.  0.
         13    1    3    3    0    0  0.20241739067E+02  0.16550741510E+02 -0.33552160758E+02  0.42537203723E+02  0.10566000000E+00 0.  1.
         22    1    1    0    0    0  0.25954289175E+02 -0.11552511782E+02  0.83938072384E+01  0.29623329573E+02  0.00000000000E+00 0. -1.
</event>
<event>
 5    1  0.1724235E-003  0.9118800E+02  0.7818608E-02  0.1130116E+00
         25   -1    0    0    0    0  0.00000000000E+00  0.00000000000E+00  0.99999998245E-14  0.12500000000E+03  0.12500000000E+03 0.  0.
        -13    1    3    3    0    0  0.47579775664E+02  0.40127087214E+01  0.12181353054E+02  0.49278123035E+02  0.10566000000E+00 0. -1.
         23    2    1    0    0    0  0.19159135543E+02 -0.34736652159E+01 -0.22832690536E+02  0.94992157993E+02  0.90127906324E+02 0.  0.
         13    1    3    3    0    0 -0.28420640121E+02 -0.74863739372E+01 -0.35014043590E+02  0.45714034959E+02  0.10566000000E+00 0.  1.
         22    1    1    0    0    0 -0.19159135543E+02  0.34736652159E+01  0.22832690536E+02  0.30007842007E+02  0.00000000000E+00 0. -1.
</event>
<event>
 5    1  0.1724235E-003  0.9118800E+02  0.7818608E-02  0.1130116E+00
         25   -1    0    0    0    0  0.00000000000E+00  0.00000000000E+00  0.99999998245E-14  0.12500000000E+03  0.12500000000E+03 0.  0.
        -13    1    3    3    0    0  0.35412377075E+02  0.43924053612E+02 -0.50654048131E+01  0.56648287051E+02  0.10566000000E+00 0. -1.
         23    2    1    0    0    0  0.12743683053E+02  0.22956172097E+02  0.16206112360E+02  0.94145091591E+02  0.88945336571E+02 0.  0.
         13    1    3    3    0    0 -0.22668694022E+02 -0.20967881515E+02  0.21271517173E+02  0.37496804540E+02  0.10566000000E+00 0.  1.
         22    1    1    0    0    0 -0.12743683053E+02 -0.22956172097E+02 -0.16206112360E+02  0.30854908409E+02  0.00000000000E+00 0. -1.
</event>
<event>
 5    1  0.1724235E-003  0.9118800E+02  0.7818608E-02  0.1130116E+00
         25   -1    0    0    0    0  0.00000000000E+00  0.00000000000E+00  0.99999998245E-14  0.12500000000E+03  0.12500000000E+03 0.  0.
        -13    1    3    3    0    0  0.28357605421E+02 -0.12164364580E+02  0.36030729344E+02  0.47437855895E+02  0.10566000000E+00 0. -1.
         23    2    1    0    0    0  0.15050759752E+02 -0.22762316027E+02 -0.95493728839E+01  0.96089121035E+02  0.91636675293E+02 0.  0.
         13    1    3    3    0    0 -0.13306845669E+02 -0.10597951448E+02 -0.45580102228E+02  0.48651265140E+02  0.10566000000E+00 0.  1.
         22    1    1    0    0    0 -0.15050759752E+02  0.22762316027E+02  0.95493728839E+01  0.28910878965E+02  0.00000000000E+00 0.  1.
</event>
<event>
 5    1  0.1724235E-003  0.9118800E+02  0.7818608E-02  0.1130116E+00
         25   -1    0    0    0    0  0.00000000000E+00  0.00000000000E+00  0.99999998245E-14  0.12500000000E+03  0.12500000000E+03 0.  0.
        -13    1    3    3    0    0  0.51250182407E+02  0.15699912475E+02 -0.18263300113E+01  0.53632220668E+02  0.10566000000E+00 0.  1.
         23    2    1    0    0    0  0.20152744236E+02  0.19955686804E+01  0.21971149004E+02  0.95119458118E+02  0.90304288544E+02 0.  0.
         13    1    3    3    0    0 -0.31097438171E+02 -0.13704343795E+02  0.23797479016E+02  0.41487237450E+02  0.10566000000E+00 0. -1.
         22    1    1    0    0    0 -0.20152744236E+02 -0.19955686804E+01 -0.21971149004E+02  0.29880541882E+02  0.00000000000E+00 0.  1.
</event>
<event>
 5    1  0.1724235E-003  0.9118800E+02  0.7818608E-02  0.1130116E+00
         25   -1    0    0    0    0  0.00000000000E+00  0.00000000000E+00  0.99999998245E-14  0.12500000000E+03  0.12500000000E+03 0.  0.
        -13    1    3    3    0    0  0.31518276520E+02  0.37612300366E+02 -0.38251324899E+02  0.62219465718E+02  0.10566000000E+00 0. -1.
         23    2    1    0    0    0  0.10005230018E+02  0.18369734476E+02 -0.15914285025E+02  0.98716616651E+02  0.95153319242E+02 0.  0.
         13    1    3    3    0    0 -0.21513046503E+02 -0.19242565890E+02  0.22337039874E+02  0.36497150933E+02  0.10566000000E+00 0.  1.
         22    1    1    0    0    0 -0.10005230018E+02 -0.18369734476E+02  0.15914285025E+02  0.26283383349E+02  0.00000000000E+00 0. -1.
</event>
<event>
 5    1  0.1724235E-003  0.9118800E+02  0.7818608E-02  0.1130116E+00
         25   -1    0    0    0    0  0.00000000000E+00  0.00000000000E+00  0.99999998245E-14  0.12500000000E+03  0.12500000000E+03 0.  0.
        -13    1    3    3    0    0 -0.10493818812E+02  0.21520651035E+02 -0.25118160441E+02  0.34701466860E+02  0.10566000000E+00 0.  1.
         23    2    1    0    0    0  0.11222839777E+02 -0.68481745227E+01  0.25296000694E+02  0.96491452543E+02  0.92183855072E+02 0.  0.
         13    1    3    3    0    0  0.21716658590E+02 -0.28368825558E+02  0.50414161135E+02  0.61789985684E+02  0.10566000000E+00 0. -1.
         22    1    1    0    0    0 -0.11222839777E+02  0.68481745227E+01 -0.25296000694E+02  0.28508547457E+02  0.00000000000E+00 0. -1.
</event>
<event>
 5    1  0.1724235E-003  0.9118800E+02  0.7818608E-02  0.1130116E+00
         25   -1    0    0    0    0  0.00000000000E+00  0.00000000000E+00  0.99999998245E-14  0.12500000000E+03  0.12500000000E+03 0.  0.
        -13    1    3    3    0    0  0.14678847696E+02 -0.19226599147E+02 -0.27634355927E+02  0.36726005446E+02  0.10566000000E+00 0. -1.
         23    2    1    0    0    0 -0.24446943993E+02 -0.47251108291E+01  0.14632187501E+02  0.96119545467E+02  0.91678167340E+02 0.  0.
         13    1    3    3    0    0 -0.39125791689E+02  0.14501488318E+02  0.42266543429E+02  0.59393540021E+02  0.10566000000E+00 0.  1.
         22    1    1    0    0    0  0.24446943993E+02  0.47251108291E+01 -0.14632187501E+02  0.28880454533E+02  0.00000000000E+00 0.  1.
</event>
<event>
 5    1  0.1724235E-003  0.9118800E+02  0.7818608E-02  0.1130116E+00
         25   -1    0    0    0    0  0.00000000000E+00  0.00000000000E+00  0.99999998245E-14  0.12500000000E+03  0.12500000000E+03 0.  0.
        -13    1    3    3    0    0 -0.32662865665E+02  0.13658090982E+02  0.14941529665E+02  0.38427421400E+02  0.10566000000E+00 0. -1.
         23    2    1    0    0    0 -0.17732497560E+02 -0.32093450808E+02  0.19240409773E+01  0.88283069462E+02  0.80285536465E+02 0.  0.
         13    1    3    3    0    0  0.14930368105E+02 -0.45751541790E+02 -0.13017488687E+02  0.49855648062E+02  0.10566000000E+00 0.  1.
         22    1    1    0    0    0  0.17732497560E+02  0.32093450808E+02 -0.19240409773E+01  0.36716930538E+02  0.00000000000E+00 0. -1.
</event>
<event>
 5    1  0.1724235E-003  0.9118800E+02  0.7818608E-02  0.1130116E+00
         25   -1    0    0    0    0  0.00000000000E+00  0.00000000000E+00  0.99999998245E-14  0.12500000000E+03  0.12500000000E+03 0.  0.
        -13    1    3    3    0    0  0.26883031124E+02  0.27665439166E+01 -0.23023595036E+02  0.35502791722E+02  0.10566000000E+00 0.  1.
         23    2    1    0    0    0 -0.16314276408E+02 -0.92186769719E+00  0.21729497697E+02  0.97812198969E+02  0.93957701878E+02 0.  0.
         13    1    3    3    0    0 -0.43197307532E+02 -0.36884116138E+01  0.44753092732E+02  0.62309407247E+02  0.10566000000E+00 0. -1.
         22    1    1    0    0    0  0.16314276408E+02  0.92186769719E+00 -0.21729497697E+02  0.27187801031E+02  0.00000000000E+00 0. -1.
</event>
<event>
 5    1  0.1724235E-003  0.9118800E+02  0.7818608E-02  0.1130116E+00
         25   -1    0    0    0    0  0.00000000000E+00  0.00000000000E+00  0.99999998245E-14  0.12500000000E+03  0.12500000000E+03 0.  0.
        -13    1    3    3    0    0 -0.38760327369E+02  0.27470517335E+02  0.15545457036E+02  0.49986645205E+02  0.10566000000E+00 0. -1.
         23    2    1    0    0    0  0.34405540770E+01  0.20339456770E+02  0.23725580639E+02  0.93560628335E+02  0.88120128709E+02 0.  0.
         13    1    3    3    0    0  0.42200881446E+02 -0.71310605647E+01  0.81801236032E+01  0.43573983130E+02  0.10566000000E+00 0.  1.
         22    1    1    0    0    0 -0.34405540770E+01 -0.20339456770E+02 -0.23725580639E+02  0.31439371665E+02  0.00000000000E+00 0. -1.
</event>
<event>
 5    1  0.1724235E-003  0.9118800E+02  0.7818608E-02  0.1130116E+00
         25   -1    0    0    0    0  0.00000000000E+00  0.00000000000E+00  0.99999998245E-14  0.12500000000E+03  0.12500000000E+03 0.  0.
        -13    1    3    3    0    0 -0.17314332056E+02 -0.58810821975E+02  0.14210199776E+00  0.61306853067E+02  0.10566000000E+00 0.  1.
         23    2    1    0    0    0 -0.68474730540E+01 -0.41327162109E+02  0.63992724321E+01  0.82623439228E+02  0.70928554243E+02 0.  0.
         13    1    3    3    0    0  0.10466859002E+02  0.17483659867E+02  0.62571704344E+01  0.21316586161E+02  0.10566000000E+00 0. -1.
         22    1    1    0    0    0  0.68474730540E+01  0.41327162109E+02 -0.63992724321E+01  0.42376560772E+02  0.00000000000E+00 0.  1.
</event>
<event>
 5    1  0.1724235E-003  0.9118800E+02  0.7818608E-02  0.1130116E+00
         25   -1    0    0    0    0  0.00000000000E+00  0.00000000000E+00  0.99999998245E-14  0.12500000000E+03  0.12500000000E+03 0.  0.
        -13    1    3    3    0    0 -0.17948121385E+02  0.32621063660E+02  0.15329335291E+02  0.40264979077E+02  0.10566000000E+00 0.  1.
         23    2    1    0    0    0  0.16501270425E+02 -0.15717851089E+02 -0.20596422630E+01  0.10211802249E+03  0.99521382741E+02 0.  0.
         13    1    3    3    0    0  0.34449391810E+02 -0.48338914749E+02 -0.17388977554E+02  0.61853043414E+02  0.10566000000E+00 0. -1.
         22    1    1    0    0    0 -0.16501270425E+02  0.15717851089E+02  0.20596422630E+01  0.22881977509E+02  0.00000000000E+00 0. -1.
</event>
<event>
 5    1  0.1724235E-003  0.9118800E+02  0.7818608E-02  0.1130116E+00
         25   -1    0    0    0    0  0.00000000000E+00  0.00000000000E+00  0.99999998245E-14  0.12500000000E+03  0.12500000000E+03 0.  0.
        -13    1    3    3    0    0 -0.49491426739E+02  0.26870140331E+02 -0.13978916768E+02  0.58024365918E+02  0.10566000000E+00 0.  1.
         23    2    1    0    0    0 -0.12802411372E+02  0.23559773124E+02  0.18572962833E+01  0.98122236029E+02  0.94369269401E+02 0.  0.
         13    1    3    3    0    0  0.36689015367E+02 -0.33103672071E+01  0.15836213051E+02  0.40097870112E+02  0.10566000000E+00 0. -1.
         22    1    1    0    0    0  0.12802411372E+02 -0.23559773124E+02 -0.18572962833E+01  0.26877763971E+02  0.00000000000E+00 0.  1.
</event>
<event>
 5    1  0.1724235E-003  0.9118800E+02  0.7818608E-02  0.1130116E+00
         25   -1    0    0    0    0  0.00000000000E+00  0.00000000000E+00  0.99999998245E-14  0.12500000000E+03  0.12500000000E+03 0.  0.
        -13    1    3    3    0    0 -0.33339207204E+02  0.11139154058E+02 -0.29549365578E+01  0.35275009628E+02  0.10566000000E+00 0. -1.
         23    2    1    0    0    0  0.16211289501E+02 -0.23158886653E+02 -0.76310478358E+01  0.95719070552E+02  0.91130497848E+02 0.  0.
         13    1    3    3    0    0  0.49550496705E+02 -0.34298040710E+02 -0.46761112780E+01  0.60444060924E+02  0.10566000000E+00 0.  1.
         22    1    1    0    0    0 -0.16211289501E+02  0.23158886653E+02  0.76310478358E+01  0.29280929448E+02  0.00000000000E+00 0.  1.
</event>
<event>
 5    1  0.1724235E-003  0.9118800E+02  0.7818608E-02  0.1130116E+00
         25   -1    0    0    0    0  0.00000000000E+00  0.00000000000E+00  0.99999998245E-14  0.12500000000E+03  0.12500000000E+03 0.  0.
        -13    1    3    3    0    0  0.22847443363E+02  0.28764499683E+02 -0.18969148407E+02  0.41342978431E+02  0.10566000000E+00 0.  1.
         23    2    1    0    0    0 -0.23229569505E+02  0.17958293417E+02  0.62650027899E+01  0.94977284237E+02  0.90107275285E+02 0.  0.
         13    1    3    3    0    0 -0.46077012868E+02 -0.10806206266E+02  0.25234151196E+02  0.53634305806E+02  0.10566000000E+00 0. -1.
         22    1    1    0    0    0  0.23229569505E+02 -0.17958293417E+02 -0.62650027899E+01  0.30022715763E+02  0.00000000000E+00 0. -1.
</event>
<event>
 5    1  0.1724235E-003  0.9118800E+02  0.7818608E-02  0.1130116E+00
         25   -1    0    0    0    0  0.00000000000E+00  0.00000000000E+00  0.99999998245E-14  0.12500000000E+03  0.12500000000E+03 0.  0.
        -13    1    3    3    0    0  0.22049645353E+02 -0.40352862414E+02  0.70419090828E+01  0.46520318278E+02  0.10566000000E+00 0.  1.
         23    2    1    0    0    0 -0.16062065658E+02 -0.51575700033E+01  0.18828583424E+02  0.99719453422E+02  0.96461719638E+02 0.  0.
         13    1    3    3    0    0 -0.38111711010E+02  0.35195292410E+02  0.11786674341E+02  0.53199135144E+02  0.10566000000E+00 0. -1.
         22    1    1    0    0    0  0.16062065658E+02  0.51575700033E+01 -0.18828583424E+02  0.25280546578E+02  0.00000000000E+00 0. -1.
</event>
<event>
 5    1  0.1724235E-003  0.9118800E+02  0.7818608E-02  0.1130116E+00
         25   -1    0    0    0    0  0.00000000000E+00  0.00000000000E+00  0.99999998245E-14  0.12500000000E+03  0.12500000000E+03 0.  0.
        -13    1    3    3    0    0  0.15513379100E+02  0.21306892563E+01  0.17420929928E+02  0.23424447302E+02  0.10566000000E+00 0.  1.
         23    2    1    0    0    0 -0.39857392973E+02 -0.14211638932E+02  0.84454980558E+01  0.81850157670E+02  0.69552422082E+02 0.  0.
         13    1    3    3    0    0 -0.55370772073E+02 -0.16342328188E+02 -0.89754318725E+01  0.58425710367E+02  0.10566000000E+00 0. -1.
         22    1    1    0    0    0  0.39857392973E+02  0.14211638932E+02 -0.84454980558E+01  0.43149842330E+02  0.00000000000E+00 0. -1.
</event>
<event>
 5    1  0.1724235E-003  0.9118800E+02  0.7818608E-02  0.1130116E+00
         25   -1    0    0    0    0  0.00000000000E+00  0.00000000000E+00  0.99999998245E-14  0.12500000000E+03  0.12500000000E+03 0.  0.
        -13    1    3    3    0    0 -0.27100561754E+02 -0.17594470260E+02  0.86581888613E+01  0.33451176803E+02  0.10566000000E+00 0.  1.
         23    2    1    0    0    0  0.23770036776E+02 -0.83050263321E+01 -0.20244109430E+02  0.92691919318E+02  0.86879110433E+02 0.  0.
         13    1    3    3    0    0  0.50870598529E+02  0.92894439281E+01 -0.28902298292E+02  0.59240742516E+02  0.10566000000E+00 0. -1.
         22    1    1    0    0    0 -0.23770036776E+02  0.83050263321E+01  0.20244109430E+02  0.32308080682E+02  0.00000000000E+00 0. -1.
</event>
<event>
 5    1  0.1724235E-003  0.9118800E+02  0.7818608E-02  0.1130116E+00
         25   -1    0    0    0    0  0.00000000000E+00  0.00000000000E+00  0.99999998245E-14  0.12500000000E+03  0.12500000000E+03 0.  0.
        -13    1    3    3    0    0  0.12641333026E+01  0.34393048376E+02 -0.75613176184E+01  0.35237260077E+02  0.10566000000E+00 0. -1.
         23    2    1    0    0    0 -0.21990263152E+02 -0.20285212116E+02 -0.45183747855E+00  0.95079009690E+02  0.90248282102E+02 0.  0.
         13    1    3    3    0    0 -0.23254396454E+02 -0.54678260491E+02  0.71094801399E+01  0.59841749613E+02  0.10566000000E+00 0.  1.
         22    1    1    0    0    0  0.21990263152E+02  0.20285212116E+02  0.45183747855E+00  0.29920990310E+02  0.00000000000E+00 0.  1.
</event>
<event>
 5    1  0.1724235E-003  0.9118800E+02  0.7818608E-02  0.1130116E+00
         25   -1    0    0    0    0  0.00000000000E+00  0.00000000000E+00  0.99999998245E-14  0.12500000000E+03  0.12500000000E+03 0.  0.
        -13    1    3    3    0    0  0.19852414144E+02 -0.15962640154E+02 -0.28399612495E+02  0.38150666861E+02  0.10566000000E+00 0.  1.
         23    2    1    0    0    0  0.97776513080E+01  0.25923906393E+02  0.96822459220E+01  0.95650429750E+02  0.91036297363E+02 0.  0.
         13    1    3    3    0    0 -0.10074762836E+02  0.41886546546E+02  0.38081858417E+02  0.57499762889E+02  0.10566000000E+00 0. -1.
         22    1    1    0    0    0 -0.97776513080E+01 -0.25923906393E+02 -0.96822459220E+01  0.29349570250E+02  0.00000000000E+00 0. -1.
</event>
<event>
 5    1  0.1724235E-003  0.9118800E+02  0.7818608E-02  0.1130116E+00
         25   -1    0    0    0    0  0.00000000000E+00  0.00000000000E+00  0.99999998245E-14  0.12500000000E+03  0.12500000000E+03 0.  0.
        -13    1    3    3    0    0  0.38104640239E+02 -0.23942537071E+02  0.11357309387E+02  0.46413449879E+02  0.10566000000E+00 0. -1.
         23    2    1    0    0    0 -0.59929961760E+01 -0.26193610368E+02 -0.11070899460E+02  0.95938237456E+02  0.91430625964E+02 0.  0.
         13    1    3    3    0    0 -0.44097636415E+02 -0.22510732976E+01 -0.22428208847E+02  0.49524787577E+02  0.10566000000E+00 0.  1.
         22    1    1    0    0    0  0.59929961760E+01  0.26193610368E+02  0.11070899460E+02  0.29061762544E+02  0.00000000000E+00 0. -1.
</event>
<event>
 5    1  0.1724235E-003  0.9118800E+02  0.7818608E-02  0.1130116E+00
         25   -1    0    0    0    0  0.00000000000E+00  0.00000000000E+00  0.99999998245E-14  0.12500000000E+03  0.12500000000E+03 0.  0.
        -13    1    3    3    0    0 -0.21943118797E+02  0.48854316596E+02  0.12510203955E+01  0.53570709615E+02  0.10566000000E+00 0.  1.
         23    2    1    0    0    0 -0.23551738227E+02  0.97610741928E+01 -0.14409910604E+02  0.95715047098E+02  0.91124978872E+02 0.  0.
         13    1    3    3    0    0 -0.16086194294E+01 -0.39093242403E+02 -0.15660930999E+02  0.42144337482E+02  0.10566000000E+00 0. -1.
         22    1    1    0    0    0  0.23551738227E+02 -0.97610741928E+01  0.14409910604E+02  0.29284952902E+02  0.00000000000E+00 0.  1.
</event>
<event>
 5    1  0.1724235E-003  0.9118800E+02  0.7818608E-02  0.1130116E+00
         25   -1    0    0    0    0  0.00000000000E+00  0.00000000000E+00  0.99999998245E-14  0.12500000000E+03  0.12500000000E+03 0.  0.
        -13    1    3    3    0    0  0.52419539948E+02 -0.16067828241E+02 -0.36051601308E+00  0.54828135192E+02  0.10566000000E+00 0. -1.
         23    2    1    0    0    0  0.20367469323E+02  0.25395786768E+01  0.19338223457E+02  0.96799819984E+02  0.92601052888E+02 0.  0.
         13    1    3    3    0    0 -0.32052070625E+02  0.18607406918E+02  0.19698739470E+02  0.41971684792E+02  0.10566000000E+00 0.  1.
         22    1    1    0    0    0 -0.20367469323E+02 -0.25395786768E+01 -0.19338223457E+02  0.28200180016E+02  0.00000000000E+00 0. -1.
</event>
<event>
 5    1  0.1724235E-003  0.9118800E+02  0.7818608E-02  0.1130116E+00
         25   -1    0    0    0    0  0.00000000000E+00  0.00000000000E+00  0.99999998245E-14  0.12500000000E+03  0.12500000000E+03 0.  0.
        -13    1    3    3    0    0  0.91553768995E+01  0.44691243783E+02 -0.45744088278E+01  0.45848277799E+02  0.10566000000E+00 0.  1.
         23    2    1    0    0    0  0.23622578001E+02 -0.99797390380E+00  0.14313734714E+02  0.97361166002E+02  0.93355725590E+02 0.  0.
         13    1    3    3    0    0  0.14467201101E+02 -0.45689217686E+02  0.18888143541E+02  0.51512888203E+02  0.10566000000E+00 0. -1.
         22    1    1    0    0    0 -0.23622578001E+02  0.99797390380E+00 -0.14313734714E+02  0.27638833998E+02  0.00000000000E+00 0.  1.
</event>
<event>
 5    1  0.1724235E-003  0.9118800E+02  0.7818608E-02  0.1130116E+00
         25   -1    0    0    0    0  0.00000000000E+00  0.00000000000E+00  0.99999998245E-14  0.12500000000E+03  0.12500000000E+03 0.  0.
        -13    1    3    3    0    0  0.88936265828E+01 -0.22605204062E+02 -0.30390966734E+02  0.38906475908E+02  0.10566000000E+00 0. -1.
         23    2    1    0    0    0 -0.21508785978E+02  0.19201860501E+02 -0.11919799512E+02  0.93800305428E+02  0.88459461660E+02 0.  0.
         13    1    3    3    0    0 -0.30402412561E+02  0.41807064563E+02  0.18471167222E+02  0.54893829521E+02  0.10566000000E+00 0.  1.
         22    1    1    0    0    0  0.21508785978E+02 -0.19201860501E+02  0.11919799512E+02  0.31199694572E+02  0.00000000000E+00 0.  1.
</event>
<event>
 5    1  0.1724235E-003  0.9118800E+02  0.7818608E-02  0.1130116E+00
         25   -1    0    0    0    0  0.00000000000E+00  0.00000000000E+00  0.99999998245E-14  0.12500000000E+03  0.12500000000E+03 0.  0.
        -13    1    3    3    0    0  0.23853913169E+02 -0.23583697427E+02 -0.20336212774E+02  0.39227193015E+02  0.10566000000E+00 0. -1.
         23    2    1    0    0    0  0.15642910220E+02  0.21091389378E+02  0.13123592053E+02  0.95643978226E+02  0.91027438481E+02 0.  0.
         13    1    3    3    0    0 -0.82110029491E+01  0.44675086805E+02  0.33459804827E+02  0.56416785211E+02  0.10566000000E+00 0.  1.
         22    1    1    0    0    0 -0.15642910220E+02 -0.21091389378E+02 -0.13123592053E+02  0.29356021774E+02  0.00000000000E+00 0.  1.
</event>
<event>
 5    1  0.1724235E-003  0.9118800E+02  0.7818608E-02  0.1130116E+00
         25   -1    0    0    0    0  0.00000000000E+00  0.00000000000E+00  0.99999998245E-14  0.12500000000E+03  0.12500000000E+03 0.  0.
        -13    1    3    3    0    0 -0.33361105683E+02 -0.37683899966E+02 -0.15130985997E+02  0.52554710449E+02  0.10566000000E+00 0.  1.
         23    2    1    0    0    0  0.81912388446E+01 -0.25598624019E+02 -0.10759176919E+02  0.96049251591E+02  0.91582273928E+02 0.  0.
         13    1    3    3    0    0  0.41552344528E+02  0.12085275948E+02  0.43718090774E+01  0.43494541142E+02  0.10566000000E+00 0. -1.
         22    1    1    0    0    0 -0.81912388446E+01  0.25598624019E+02  0.10759176919E+02  0.28950748409E+02  0.00000000000E+00 0.  1.
</event>
<event>
 5    1  0.1724235E-003  0.9118800E+02  0.7818608E-02  0.1130116E+00
         25   -1    0    0    0    0  0.00000000000E+00  0.00000000000E+00  0.99999998245E-14  0.12500000000E+03  0.12500000000E+03 0.  0.
        -13    1    3    3    0    0 -0.46840406561E+02  0.13323218922E+01 -0.84708848884E+01  0.47618964954E+02  0.10566000000E+00 0.  1.
         23    2    1    0    0    0 -0.68386412645E+01  0.27309871698E+02  0.30346095253E+01  0.96683839217E+02  0.92444360587E+02 0.  0.
         13    1    3    3    0    0  0.40001765297E+02  0.25977549806E+02  0.11505494414E+02  0.49064874264E+02  0.10566000000E+00 0. -1.
         22    1    1    0    0    0  0.68386412645E+01 -0.27309871698E+02 -0.30346095253E+01  0.28316160783E+02  0.00000000000E+00 0. -1.
</event>
<event>
 5    1  0.1724235E-003  0.9118800E+02  0.7818608E-02  0.1130116E+00
         25   -1    0    0    0    0  0.00000000000E+00  0.00000000000E+00  0.99999998245E-14  0.12500000000E+03  0.12500000000E+03 0.  0.
        -13    1    3    3    0    0 -0.45924951012E+02 -0.30720909240E+02  0.21308620569E+02  0.59219455118E+02  0.10566000000E+00 0.  1.
         23    2    1    0    0    0 -0.20738922555E+02 -0.43158400638E+01  0.20203538237E+02  0.95726934881E+02  0.91141284389E+02 0.  0.
         13    1    3    3    0    0  0.25186028457E+02  0.26405069176E+02 -0.11050823323E+01  0.36507479762E+02  0.10566000000E+00 0. -1.
         22    1    1    0    0    0  0.20738922555E+02  0.43158400638E+01 -0.20203538237E+02  0.29273065119E+02  0.00000000000E+00 0.  1.
</event>
<event>
 5    1  0.1724235E-003  0.9118800E+02  0.7818608E-02  0.1130116E+00
         25   -1    0    0    0    0  0.00000000000E+00  0.00000000000E+00  0.99999998245E-14  0.12500000000E+03  0.12500000000E+03 0.  0.
        -13    1    3    3    0    0  0.13241597386E+02  0.29202644521E+02 -0.16215778269E+02  0.35931837933E+02  0.10566000000E+00 0.  1.
         23    2    1    0    0    0 -0.90388139889E+01 -0.26232143302E+02 -0.32795782623E+01  0.97061117880E+02  0.92953103606E+02 0.  0.
         13    1    3    3    0    0 -0.22280411375E+02 -0.55434787823E+02  0.12936200007E+02  0.61129279946E+02  0.10566000000E+00 0. -1.
         22    1    1    0    0    0  0.90388139889E+01  0.26232143302E+02  0.32795782623E+01  0.27938882120E+02  0.00000000000E+00 0. -1.
</event>
<event>
 5    1  0.1724235E-003  0.9118800E+02  0.7818608E-02  0.1130116E+00
         25   -1    0    0    0    0  0.00000000000E+00  0.00000000000E+00  0.99999998245E-14  0.12500000000E+03  0.12500000000E+03 0.  0.
        -13    1    3    3    0    0 -0.28595374142E+02 -0.10179125596E+02  0.31050757838E+02  0.43422007629E+02  0.10566000000E+00 0. -1.
         23    2    1    0    0    0  0.19558999163E+02 -0.17517413531E+02  0.15274966608E+02  0.94623383501E+02  0.89614986890E+02 0.  0.
         13    1    3    3    0    0  0.48154373305E+02 -0.73382879346E+01 -0.15775791230E+02  0.51201375872E+02  0.10566000000E+00 0.  1.
         22    1    1    0    0    0 -0.19558999163E+02  0.17517413531E+02 -0.15274966608E+02  0.30376616499E+02  0.00000000000E+00 0. -1.
</event>
<event>
 5    1  0.1724235E-003  0.9118800E+02  0.7818608E-02  0.1130116E+00
         25   -1    0    0    0    0  0.00000000000E+00  0.00000000000E+00  0.99999998245E-14  0.12500000000E+03  0.12500000000E+03 0.  0.
        -13    1    3    3    0    0  0.17817195555E+02  0.39317356911E+02  0.44775643393E+02  0.62194665504E+02  0.10566000000E+00 0.  1.
         23    2    1    0    0    0  0.65171033023E+01  0.15427571031E+02  0.23609516207E+02  0.96053638590E+02  0.91588261515E+02 0.  0.
         13    1    3    3    0    0 -0.11300092252E+02 -0.23889785880E+02 -0.21166127186E+02  0.33858973085E+02  0.10566000000E+00 0. -1.
         22    1    1    0    0    0 -0.65171033023E+01 -0.15427571031E+02 -0.23609516207E+02  0.28946361410E+02  0.00000000000E+00 0.  1.
</event>
<event>
 5    1  0.1724235E-003  0.9118800E+02  0.7818608E-02  0.1130116E+00
         25   -1    0    0    0    0  0.00000000000E+00  0.00000000000E+00  0.99999998245E-14  0.12500000000E+03  0.12500000000E+03 0.  0.
        -13    1    3    3    0    0  0.63317084803E+01 -0.90542062054E+01 -0.41100545083E+02  0.42559783275E+02  0.10566000000E+00 0.  1.
         23    2    1    0    0    0  0.13799986216E+02 -0.25011063403E+02  0.85000952925E+01  0.95196568451E+02  0.90410962348E+02 0.  0.
         13    1    3    3    0    0  0.74682777353E+01 -0.15956857198E+02  0.49600640375E+02  0.52636785176E+02  0.10566000000E+00 0. -1.
         22    1    1    0    0    0 -0.13799986216E+02  0.25011063403E+02 -0.85000952925E+01  0.29803431549E+02  0.00000000000E+00 0. -1.
</event>
<event>
 5    1  0.1724235E-003  0.9118800E+02  0.7818608E-02  0.1130116E+00
         25   -1    0    0    0    0  0.00000000000E+00  0.00000000000E+00  0.99999998245E-14  0.12500000000E+03  0.12500000000E+03 0.  0.
        -13    1    3    3    0    0  0.32231959315E+02  0.21127104101E+02 -0.58343093694E+01  0.38978251100E+02  0.10566000000E+00 0.  1.
         23    2    1    0    0    0 -0.12539776438E+01 -0.24388663913E+02  0.11392477954E+02  0.98052496566E+02  0.94276848386E+02 0.  0.
         13    1    3    3    0    0 -0.33485936959E+02 -0.45515768014E+02  0.17226787323E+02  0.59074245466E+02  0.10566000000E+00 0. -1.
         22    1    1    0    0    0  0.12539776438E+01  0.24388663913E+02 -0.11392477954E+02  0.26947503434E+02  0.00000000000E+00 0. -1.
</event>
<event>
 5    1  0.1724235E-003  0.9118800E+02  0.7818608E-02  0.1130116E+00
         25   -1    0    0    0    0  0.00000000000E+00  0.00000000000E+00  0.99999998245E-14  0.12500000000E+03  0.12500000000E+03 0.  0.
        -13    1    3    3    0    0  0.13651077866E+02  0.28506449312E+02  0.16694062030E+02  0.35744544344E+02  0.10566000000E+00 0. -1.
         23    2    1    0    0    0  0.19733228408E+02 -0.18954245801E+02 -0.15630194979E+02  0.93488625349E+02  0.88017931907E+02 0.  0.
         13    1    3    3    0    0  0.60821505425E+01 -0.47460695113E+02 -0.32324257009E+02  0.57744081005E+02  0.10566000000E+00 0.  1.
         22    1    1    0    0    0 -0.19733228408E+02  0.18954245801E+02  0.15630194979E+02  0.31511374651E+02  0.00000000000E+00 0.  1.
</event>
<event>
 5    1  0.1724235E-003  0.9118800E+02  0.7818608E-02  0.1130116E+00
         25   -1    0    0    0    0  0.00000000000E+00  0.00000000000E+00  0.99999998245E-14  0.12500000000E+03  0.12500000000E+03 0.  0.
        -13    1    3    3    0    0  0.83531362586E+01 -0.57929040992E+02 -0.14822544467E+02  0.60376052075E+02  0.10566000000E+00 0.  1.
         23    2    1    0    0    0  0.14496482313E+02 -0.28242782627E+02 -0.23167261615E+01  0.93169668709E+02  0.87563789190E+02 0.  0.
         13    1    3    3    0    0  0.61433460545E+01  0.29686258365E+02  0.12505818305E+02  0.32793616635E+02  0.10566000000E+00 0. -1.
         22    1    1    0    0    0 -0.14496482313E+02  0.28242782627E+02  0.23167261615E+01  0.31830331291E+02  0.00000000000E+00 0.  1.
</event>
<event>
 5    1  0.1724235E-003  0.9118800E+02  0.7818608E-02  0.1130116E+00
         25   -1    0    0    0    0  0.00000000000E+00  0.00000000000E+00  0.99999998245E-14  0.12500000000E+03  0.12500000000E+03 0.  0.
        -13    1    3    3    0    0  0.22919821393E+02  0.31640453973E+02 -0.41026733059E+02  0.56653689464E+02  0.10566000000E+00 0. -1.
         23    2    1    0    0    0  0.10243461475E+01  0.81084698539E+00 -0.28473165869E+02  0.96496878549E+02  0.92191212365E+02 0.  0.
         13    1    3    3    0    0 -0.21895475246E+02 -0.30829606987E+02  0.12553567191E+02  0.39843189085E+02  0.10566000000E+00 0.  1.
         22    1    1    0    0    0 -0.10243461475E+01 -0.81084698539E+00  0.28473165869E+02  0.28503121451E+02  0.00000000000E+00 0. -1.
</event>
<event>
 5    1  0.1724235E-003  0.9118800E+02  0.7818608E-02  0.1130116E+00
         25   -1    0    0    0    0  0.00000000000E+00  0.00000000000E+00  0.99999998245E-14  0.12500000000E+03  0.12500000000E+03 0.  0.
        -13    1    3    3    0    0 -0.21337073189E+02  0.24563909773E+02 -0.21421005429E+02  0.38955448826E+02  0.10566000000E+00 0.  1.
         23    2    1    0    0    0  0.24819099408E+02  0.10851868803E+02  0.96322521178E+01  0.96250547261E+02  0.91856610079E+02 0.  0.
         13    1    3    3    0    0  0.46156172597E+02 -0.13712040970E+02  0.31053257546E+02  0.57295098435E+02  0.10566000000E+00 0. -1.
         22    1    1    0    0    0 -0.24819099408E+02 -0.10851868803E+02 -0.96322521178E+01  0.28749452739E+02  0.00000000000E+00 0. -1.
</event>
<event>
 5    1  0.1724235E-003  0.9118800E+02  0.7818608E-02  0.1130116E+00
         25   -1    0    0    0    0  0.00000000000E+00  0.00000000000E+00  0.99999998245E-14  0.12500000000E+03  0.12500000000E+03 0.  0.
        -13    1    3    3    0    0  0.16046154318E+02 -0.33361790405E+02  0.89511684553E+01  0.38087041211E+02  0.10566000000E+00 0.  1.
         23    2    1    0    0    0 -0.11093622090E+02 -0.87939729077E-01 -0.28092369428E+02  0.94796400802E+02  0.89855997020E+02 0.  0.
         13    1    3    3    0    0 -0.27139776408E+02  0.33273850676E+02 -0.37043537883E+02  0.56709359591E+02  0.10566000000E+00 0. -1.
         22    1    1    0    0    0  0.11093622090E+02  0.87939729077E-01  0.28092369428E+02  0.30203599198E+02  0.00000000000E+00 0. -1.
</event>
<event>
 5    1  0.1724235E-003  0.9118800E+02  0.7818608E-02  0.1130116E+00
         25   -1    0    0    0    0  0.00000000000E+00  0.00000000000E+00  0.99999998245E-14  0.12500000000E+03  0.12500000000E+03 0.  0.
        -13    1    3    3    0    0 -0.25720121728E+02 -0.37342577691E+02 -0.26970223012E+02  0.52757908068E+02  0.10566000000E+00 0. -1.
         23    2    1    0    0    0  0.50122056986E+01 -0.86417204176E+01 -0.28463044809E+02  0.94834681212E+02  0.89909233692E+02 0.  0.
         13    1    3    3    0    0  0.30732327427E+02  0.28700857274E+02 -0.14928217975E+01  0.42076773145E+02  0.10566000000E+00 0.  1.
         22    1    1    0    0    0 -0.50122056986E+01  0.86417204176E+01  0.28463044809E+02  0.30165318788E+02  0.00000000000E+00 0. -1.
</event>
<event>
 5    1  0.1724235E-003  0.9118800E+02  0.7818608E-02  0.1130116E+00
         25   -1    0    0    0    0  0.00000000000E+00  0.00000000000E+00  0.99999998245E-14  0.12500000000E+03  0.12500000000E+03 0.  0.
        -13    1    3    3    0    0  0.30435561697E+02  0.14817921390E+02  0.24978988570E+02  0.42069647540E+02  0.10566000000E+00 0.  1.
         23    2    1    0    0    0  0.79499130234E+01 -0.27892606335E+02  0.96710397663E+00  0.95980456666E+02  0.91488328034E+02 0.  0.
         13    1    3    3    0    0 -0.22485648674E+02 -0.42710527725E+02 -0.24011884593E+02  0.53910809126E+02  0.10566000000E+00 0. -1.
         22    1    1    0    0    0 -0.79499130234E+01  0.27892606335E+02 -0.96710397663E+00  0.29019543334E+02  0.00000000000E+00 0. -1.
</event>
<event>
 5    1  0.1724235E-003  0.9118800E+02  0.7818608E-02  0.1130116E+00
         25   -1    0    0    0    0  0.00000000000E+00  0.00000000000E+00  0.99999998245E-14  0.12500000000E+03  0.12500000000E+03 0.  0.
        -13    1    3    3    0    0  0.89004499419E+01  0.55534543610E+02  0.71261621812E+00  0.56247866884E+02  0.10566000000E+00 0. -1.
         23    2    1    0    0    0 -0.15784248435E+02  0.23418059684E+02  0.15327076379E+00  0.96758691426E+02  0.92545517755E+02 0.  0.
         13    1    3    3    0    0 -0.24684698377E+02 -0.32116483926E+02 -0.55934545433E+00  0.40510824542E+02  0.10566000000E+00 0.  1.
         22    1    1    0    0    0  0.15784248435E+02 -0.23418059684E+02 -0.15327076379E+00  0.28241308574E+02  0.00000000000E+00 0. -1.
</event>
<event>
 5    1  0.1724235E-003  0.9118800E+02  0.7818608E-02  0.1130116E+00
         25   -1    0    0    0    0  0.00000000000E+00  0.00000000000E+00  0.99999998245E-14  0.12500000000E+03  0.12500000000E+03 0.  0.
        -13    1    3    3    0    0  0.20050727194E+02 -0.52155142794E+01  0.30265950778E+02  0.36677952379E+02  0.10566000000E+00 0. -1.
         23    2    1    0    0    0 -0.27143351804E+02  0.11334683771E+02 -0.83782527604E+00  0.95573166080E+02  0.90930146376E+02 0.  0.
         13    1    3    3    0    0 -0.47194078998E+02  0.16550198050E+02 -0.31103776054E+02  0.58895213701E+02  0.10566000000E+00 0.  1.
         22    1    1    0    0    0  0.27143351804E+02 -0.11334683771E+02  0.83782527604E+00  0.29426833920E+02  0.00000000000E+00 0.  1.
</event>
<event>
 5    1  0.1724235E-003  0.9118800E+02  0.7818608E-02  0.1130116E+00
         25   -1    0    0    0    0  0.00000000000E+00  0.00000000000E+00  0.99999998245E-14  0.12500000000E+03  0.12500000000E+03 0.  0.
        -13    1    3    3    0    0 -0.38881009183E+01  0.45738215616E+01  0.33737736612E+02  0.34267815924E+02  0.10566000000E+00 0.  1.
         23    2    1    0    0    0 -0.22220891896E+02 -0.15380476935E+02 -0.17900911922E+02  0.92584421106E+02  0.86724306146E+02 0.  0.
         13    1    3    3    0    0 -0.18332790978E+02 -0.19954298496E+02 -0.51638648534E+02  0.58316605182E+02  0.10566000000E+00 0. -1.
         22    1    1    0    0    0  0.22220891896E+02  0.15380476935E+02  0.17900911922E+02  0.32415578894E+02  0.00000000000E+00 0. -1.
</event>
<event>
 5    1  0.1724235E-003  0.9118800E+02  0.7818608E-02  0.1130116E+00
         25   -1    0    0    0    0  0.00000000000E+00  0.00000000000E+00  0.99999998245E-14  0.12500000000E+03  0.12500000000E+03 0.  0.
        -13    1    3    3    0    0  0.21586337719E+02 -0.75480304510E+00  0.45238012318E+02  0.50130116958E+02  0.10566000000E+00 0. -1.
         23    2    1    0    0    0 -0.15303262860E+02  0.10866682542E+02  0.24870046336E+02  0.93842435134E+02  0.88518974144E+02 0.  0.
         13    1    3    3    0    0 -0.36889600578E+02  0.11621485587E+02 -0.20367965981E+02  0.43712318176E+02  0.10566000000E+00 0.  1.
         22    1    1    0    0    0  0.15303262860E+02 -0.10866682542E+02 -0.24870046336E+02  0.31157564866E+02  0.00000000000E+00 0. -1.
</event>
<event>
 4    1  0.1724235E-003  0.9118800E+02  0.7818608E-02  0.1130116E+00
         25   -1    0    0    0    0  0.00000000000E+00  0.00000000000E+00  0.99999998245E-14  0.12500000000E+03  0.12500000000E+03 0.  0.
        -13    1    1    0    0    0 -0.10674344906E+02  0.41135002652E+01 -0.11738259309E+02  0.16390863895E+02  0.10566000000E+00 0. -1.
         13    1    1    0    0    0  0.18044639285E+02  0.38640243370E+02 -0.26976824567E+02  0.50462239768E+02  0.10566000000E+00 0.  1.
         22    1    1    0    0    0 -0.73702943790E+01 -0.42753743635E+02  0.38715083876E+02  0.58146896337E+02  0.00000000000E+00 0.  1.
</event>
<event>
 5    1  0.1724235E-003  0.9118800E+02  0.7818608E-02  0.1130116E+00
         25   -1    0    0    0    0  0.00000000000E+00  0.00000000000E+00  0.99999998245E-14  0.12500000000E+03  0.12500000000E+03 0.  0.
        -13    1    3    3    0    0  0.18651835746E+02 -0.54540069969E+02 -0.15866897865E+01  0.57663150776E+02  0.10566000000E+00 0.  1.
         23    2    1    0    0    0  0.29682821065E+01 -0.25414766725E+02  0.15692336548E+02  0.94983829480E+02  0.90116354620E+02 0.  0.
         13    1    3    3    0    0 -0.15683553639E+02  0.29125303244E+02  0.17279026334E+02  0.37320678704E+02  0.10566000000E+00 0. -1.
         22    1    1    0    0    0 -0.29682821065E+01  0.25414766725E+02 -0.15692336548E+02  0.30016170520E+02  0.00000000000E+00 0.  1.
</event>
<event>
 5    1  0.1724235E-003  0.9118800E+02  0.7818608E-02  0.1130116E+00
         25   -1    0    0    0    0  0.00000000000E+00  0.00000000000E+00  0.99999998245E-14  0.12500000000E+03  0.12500000000E+03 0.  0.
        -13    1    3    3    0    0  0.17324153675E+02 -0.27714121714E+02  0.26574724432E+02  0.42123936017E+02  0.10566000000E+00 0.  1.
         23    2    1    0    0    0  0.24395818367E+02  0.53435013354E+01 -0.15123063961E+02  0.95803835459E+02  0.91246692350E+02 0.  0.
         13    1    3    3    0    0  0.70716646921E+01  0.33057623050E+02 -0.41697788393E+02  0.53679899442E+02  0.10566000000E+00 0. -1.
         22    1    1    0    0    0 -0.24395818367E+02 -0.53435013354E+01  0.15123063961E+02  0.29196164541E+02  0.00000000000E+00 0. -1.
</event>
<event>
 5    1  0.1724235E-003  0.9118800E+02  0.7818608E-02  0.1130116E+00
         25   -1    0    0    0    0  0.00000000000E+00  0.00000000000E+00  0.99999998245E-14  0.12500000000E+03  0.12500000000E+03 0.  0.
        -13    1    3    3    0    0 -0.16952409795E+02  0.36982186160E+02  0.45253778061E+02  0.60852131301E+02  0.10566000000E+00 0.  1.
         23    2    1    0    0    0 -0.97897077506E+01  0.94392534021E+01  0.27297398550E+02  0.94502691099E+02  0.89446479946E+02 0.  0.
         13    1    3    3    0    0  0.71627020440E+01 -0.27542932758E+02 -0.17956379512E+02  0.33650559797E+02  0.10566000000E+00 0. -1.
         22    1    1    0    0    0  0.97897077506E+01 -0.94392534021E+01 -0.27297398550E+02  0.30497308901E+02  0.00000000000E+00 0.  1.
</event>
<event>
 5    1  0.1724235E-003  0.9118800E+02  0.7818608E-02  0.1130116E+00
         25   -1    0    0    0    0  0.00000000000E+00  0.00000000000E+00  0.99999998245E-14  0.12500000000E+03  0.12500000000E+03 0.  0.
        -13    1    3    3    0    0  0.25444329935E+02 -0.56346774372E+02 -0.75821637961E+01  0.62288628817E+02  0.10566000000E+00 0. -1.
         23    2    1    0    0    0  0.10056483090E+02 -0.23500273115E+02 -0.67135559669E+01  0.98571463863E+02  0.94962445028E+02 0.  0.
         13    1    3    3    0    0 -0.15387846845E+02  0.32846501257E+02  0.86860782919E+00  0.36282835046E+02  0.10566000000E+00 0.  1.
         22    1    1    0    0    0 -0.10056483090E+02  0.23500273115E+02  0.67135559669E+01  0.26428536137E+02  0.00000000000E+00 0. -1.
</event>
<event>
 5    1  0.1724235E-003  0.9118800E+02  0.7818608E-02  0.1130116E+00
         25   -1    0    0    0    0  0.00000000000E+00  0.00000000000E+00  0.99999998245E-14  0.12500000000E+03  0.12500000000E+03 0.  0.
        -13    1    3    3    0    0  0.28213490237E+02 -0.28491143672E+02 -0.69375795708E+01  0.40692597281E+02  0.10566000000E+00 0. -1.
         23    2    1    0    0    0  0.14713607751E+01  0.23637775192E+02 -0.98423418856E+01  0.99352758192E+02  0.95985361114E+02 0.  0.
         13    1    3    3    0    0 -0.26742129462E+02  0.52128918863E+02 -0.29047623148E+01  0.58660160912E+02  0.10566000000E+00 0.  1.
         22    1    1    0    0    0 -0.14713607751E+01 -0.23637775192E+02  0.98423418856E+01  0.25647241808E+02  0.00000000000E+00 0.  1.
</event>
<event>
 5    1  0.1724235E-003  0.9118800E+02  0.7818608E-02  0.1130116E+00
         25   -1    0    0    0    0  0.00000000000E+00  0.00000000000E+00  0.99999998245E-14  0.12500000000E+03  0.12500000000E+03 0.  0.
        -13    1    3    3    0    0 -0.59428879737E+01 -0.16285939742E+02  0.45738407137E+02  0.48913830377E+02  0.10566000000E+00 0. -1.
         23    2    1    0    0    0 -0.23963874626E+02 -0.15068148336E+02  0.15514128362E+01  0.96649986540E+02  0.92398574854E+02 0.  0.
         13    1    3    3    0    0 -0.18020986653E+02  0.12177914061E+01 -0.44186994300E+02  0.47736156163E+02  0.10566000000E+00 0.  1.
         22    1    1    0    0    0  0.23963874626E+02  0.15068148336E+02 -0.15514128362E+01  0.28350013460E+02  0.00000000000E+00 0. -1.
</event>
<event>
 5    1  0.1724235E-003  0.9118800E+02  0.7818608E-02  0.1130116E+00
         25   -1    0    0    0    0  0.00000000000E+00  0.00000000000E+00  0.99999998245E-14  0.12500000000E+03  0.12500000000E+03 0.  0.
        -13    1    3    3    0    0 -0.53629145178E+01  0.39501769792E+02 -0.38456980529E+02  0.55390443077E+02  0.10566000000E+00 0.  1.
         23    2    1    0    0    0  0.10969086453E+02  0.51907273075E+01 -0.27504681170E+02  0.94937199168E+02  0.90051650690E+02 0.  0.
         13    1    3    3    0    0  0.16332000970E+02 -0.34311042484E+02  0.10952299359E+02  0.39546756091E+02  0.10566000000E+00 0. -1.
         22    1    1    0    0    0 -0.10969086453E+02 -0.51907273075E+01  0.27504681170E+02  0.30062800832E+02  0.00000000000E+00 0.  1.
</event>
<event>
 5    1  0.1724235E-003  0.9118800E+02  0.7818608E-02  0.1130116E+00
         25   -1    0    0    0    0  0.00000000000E+00  0.00000000000E+00  0.99999998245E-14  0.12500000000E+03  0.12500000000E+03 0.  0.
        -13    1    3    3    0    0  0.30210190352E+02 -0.33734504670E+02 -0.35287264553E+02  0.57409708326E+02  0.10566000000E+00 0.  1.
         23    2    1    0    0    0  0.14661495521E+02 -0.62449521031E+01 -0.32111778131E+02  0.89151357453E+02  0.81626217378E+02 0.  0.
         13    1    3    3    0    0 -0.15548694831E+02  0.27489552567E+02  0.31754864218E+01  0.31741649127E+02  0.10566000000E+00 0. -1.
         22    1    1    0    0    0 -0.14661495521E+02  0.62449521031E+01  0.32111778131E+02  0.35848642547E+02  0.00000000000E+00 0.  1.
</event>
<event>
 5    1  0.1724235E-003  0.9118800E+02  0.7818608E-02  0.1130116E+00
         25   -1    0    0    0    0  0.00000000000E+00  0.00000000000E+00  0.99999998245E-14  0.12500000000E+03  0.12500000000E+03 0.  0.
        -13    1    3    3    0    0  0.60338216832E+01  0.40575471103E+02 -0.36477363145E+02  0.54894307951E+02  0.10566000000E+00 0. -1.
         23    2    1    0    0    0 -0.11944954763E+02  0.52661281917E+01 -0.26043009864E+02  0.95868360616E+02  0.91335043406E+02 0.  0.
         13    1    3    3    0    0 -0.17978776446E+02 -0.35309342911E+02  0.10434353281E+02  0.40974052665E+02  0.10566000000E+00 0.  1.
         22    1    1    0    0    0  0.11944954763E+02 -0.52661281917E+01  0.26043009864E+02  0.29131639384E+02  0.00000000000E+00 0. -1.
</event>
<event>
 5    1  0.1724235E-003  0.9118800E+02  0.7818608E-02  0.1130116E+00
         25   -1    0    0    0    0  0.00000000000E+00  0.00000000000E+00  0.99999998245E-14  0.12500000000E+03  0.12500000000E+03 0.  0.
        -13    1    3    3    0    0  0.20349201463E+02  0.23548387797E+02  0.41889814460E+02  0.52186054531E+02  0.10566000000E+00 0.  1.
         23    2    1    0    0    0 -0.10860131170E+02 -0.59413031050E+01  0.22543679968E+02  0.99281154029E+02  0.95892066967E+02 0.  0.
         13    1    3    3    0    0 -0.31209332632E+02 -0.29489690902E+02 -0.19346134492E+02  0.47095099498E+02  0.10566000000E+00 0. -1.
         22    1    1    0    0    0  0.10860131170E+02  0.59413031050E+01 -0.22543679968E+02  0.25718845971E+02  0.00000000000E+00 0.  1.
</event>
<event>
 5    1  0.1724235E-003  0.9118800E+02  0.7818608E-02  0.1130116E+00
         25   -1    0    0    0    0  0.00000000000E+00  0.00000000000E+00  0.99999998245E-14  0.12500000000E+03  0.12500000000E+03 0.  0.
        -13    1    3    3    0    0  0.34855758879E+01 -0.37441172909E+02  0.14195362937E+01  0.37630000204E+02  0.10566000000E+00 0.  1.
         23    2    1    0    0    0  0.46967870475E+01  0.12764033751E+02 -0.26590480738E+02  0.95133061221E+02  0.90323116118E+02 0.  0.
         13    1    3    3    0    0  0.12112111596E+01  0.50205206660E+02 -0.28010017031E+02  0.57503061017E+02  0.10566000000E+00 0. -1.
         22    1    1    0    0    0 -0.46967870475E+01 -0.12764033751E+02  0.26590480738E+02  0.29866938779E+02  0.00000000000E+00 0. -1.
</event>
<event>
 5    1  0.1724235E-003  0.9118800E+02  0.7818608E-02  0.1130116E+00
         25   -1    0    0    0    0  0.00000000000E+00  0.00000000000E+00  0.99999998245E-14  0.12500000000E+03  0.12500000000E+03 0.  0.
        -13    1    3    3    0    0 -0.60053082457E+01 -0.24378595871E+02 -0.22651132793E+02  0.33815154068E+02  0.10566000000E+00 0. -1.
         23    2    1    0    0    0  0.23420455790E+00  0.29293215547E+02  0.61826709428E+01  0.95060515221E+02  0.90222662371E+02 0.  0.
         13    1    3    3    0    0  0.62395128036E+01  0.53671811418E+02  0.28833803736E+02  0.61245361153E+02  0.10566000000E+00 0.  1.
         22    1    1    0    0    0 -0.23420455790E+00 -0.29293215547E+02 -0.61826709428E+01  0.29939484779E+02  0.00000000000E+00 0.  1.
</event>
<event>
 5    1  0.1724235E-003  0.9118800E+02  0.7818608E-02  0.1130116E+00
         25   -1    0    0    0    0  0.00000000000E+00  0.00000000000E+00  0.99999998245E-14  0.12500000000E+03  0.12500000000E+03 0.  0.
        -13    1    3    3    0    0 -0.45708404909E+02 -0.85004526266E+00 -0.18720442375E+02  0.49400880387E+02  0.10566000000E+00 0. -1.
         23    2    1    0    0    0 -0.24126820071E+02 -0.87777225674E+01  0.18642674043E+02  0.93271445736E+02  0.87708958688E+02 0.  0.
         13    1    3    3    0    0  0.21581584839E+02 -0.79276773048E+01  0.37363116418E+02  0.43870565349E+02  0.10566000000E+00 0.  1.
         22    1    1    0    0    0  0.24126820071E+02  0.87777225674E+01 -0.18642674043E+02  0.31728554264E+02  0.00000000000E+00 0.  1.
</event>
<event>
 5    1  0.1724235E-003  0.9118800E+02  0.7818608E-02  0.1130116E+00
         25   -1    0    0    0    0  0.00000000000E+00  0.00000000000E+00  0.99999998245E-14  0.12500000000E+03  0.12500000000E+03 0.  0.
        -13    1    3    3    0    0  0.37088092602E+02 -0.45600021860E+02 -0.17151523512E+02  0.61229686667E+02  0.10566000000E+00 0. -1.
         23    2    1    0    0    0  0.15222630795E+02 -0.18643587512E+02 -0.16265097592E+02  0.95950641258E+02  0.91447582333E+02 0.  0.
         13    1    3    3    0    0 -0.21865461807E+02  0.26956434349E+02  0.88642591930E+00  0.34720954592E+02  0.10566000000E+00 0.  1.
         22    1    1    0    0    0 -0.15222630795E+02  0.18643587512E+02  0.16265097592E+02  0.29049358742E+02  0.00000000000E+00 0. -1.
</event>
<event>
 5    1  0.1724235E-003  0.9118800E+02  0.7818608E-02  0.1130116E+00
         25   -1    0    0    0    0  0.00000000000E+00  0.00000000000E+00  0.99999998245E-14  0.12500000000E+03  0.12500000000E+03 0.  0.
        -13    1    3    3    0    0  0.91625104544E+01 -0.16190827510E+01 -0.35576853390E+02  0.36773586824E+02  0.10566000000E+00 0.  1.
         23    2    1    0    0    0 -0.19935734433E+02 -0.31755023048E+02 -0.88154304332E+01  0.86483421623E+02  0.77432909062E+02 0.  0.
         13    1    3    3    0    0 -0.29098244887E+02 -0.30135940296E+02  0.26761422956E+02  0.49709834799E+02  0.10566000000E+00 0. -1.
         22    1    1    0    0    0  0.19935734433E+02  0.31755023048E+02  0.88154304332E+01  0.38516578377E+02  0.00000000000E+00 0. -1.
</event>
<event>
 5    1  0.1724235E-003  0.9118800E+02  0.7818608E-02  0.1130116E+00
         25   -1    0    0    0    0  0.00000000000E+00  0.00000000000E+00  0.99999998245E-14  0.12500000000E+03  0.12500000000E+03 0.  0.
        -13    1    3    3    0    0  0.36281570665E+02  0.22841528771E+02  0.52321548823E+01  0.43191138157E+02  0.10566000000E+00 0.  1.
         23    2    1    0    0    0 -0.65864771995E+01  0.22823448804E+02 -0.20868989103E+02  0.93380287741E+02  0.87863939902E+02 0.  0.
         13    1    3    3    0    0 -0.42868047865E+02 -0.18079967078E-01 -0.26101143985E+02  0.50189149584E+02  0.10566000000E+00 0. -1.
         22    1    1    0    0    0  0.65864771995E+01 -0.22823448804E+02  0.20868989103E+02  0.31619712259E+02  0.00000000000E+00 0. -1.
</event>
<event>
 5    1  0.1724235E-003  0.9118800E+02  0.7818608E-02  0.1130116E+00
         25   -1    0    0    0    0  0.00000000000E+00  0.00000000000E+00  0.99999998245E-14  0.12500000000E+03  0.12500000000E+03 0.  0.
        -13    1    3    3    0    0 -0.16262161635E+02 -0.25231893687E+02 -0.22248285370E+02  0.37364471440E+02  0.10566000000E+00 0. -1.
         23    2    1    0    0    0  0.68919145986E+01 -0.84849890374E+01  0.27873293737E+02  0.95059825826E+02  0.90221707236E+02 0.  0.
         13    1    3    3    0    0  0.23154076233E+02  0.16746904649E+02  0.50121579107E+02  0.57695354386E+02  0.10566000000E+00 0.  1.
         22    1    1    0    0    0 -0.68919145986E+01  0.84849890374E+01 -0.27873293737E+02  0.29940174174E+02  0.00000000000E+00 0.  1.
</event>
<event>
 5    1  0.1724235E-003  0.9118800E+02  0.7818608E-02  0.1130116E+00
         25   -1    0    0    0    0  0.00000000000E+00  0.00000000000E+00  0.99999998245E-14  0.12500000000E+03  0.12500000000E+03 0.  0.
        -13    1    3    3    0    0 -0.94256866050E+01 -0.23468065456E+02  0.36509140178E+02  0.44413085288E+02  0.10566000000E+00 0.  1.
         23    2    1    0    0    0 -0.17366327456E+02  0.20638109177E+02  0.12205223986E+02  0.95394453691E+02  0.90684140966E+02 0.  0.
         13    1    3    3    0    0 -0.79406408513E+01  0.44106174633E+02 -0.24303916192E+02  0.50981368403E+02  0.10566000000E+00 0. -1.
         22    1    1    0    0    0  0.17366327456E+02 -0.20638109177E+02 -0.12205223986E+02  0.29605546309E+02  0.00000000000E+00 0. -1.
</event>
<event>
 5    1  0.1724235E-003  0.9118800E+02  0.7818608E-02  0.1130116E+00
         25   -1    0    0    0    0  0.00000000000E+00  0.00000000000E+00  0.99999998245E-14  0.12500000000E+03  0.12500000000E+03 0.  0.
        -13    1    3    3    0    0  0.43877188117E+02 -0.27196098333E+02 -0.93631199100E+01  0.52464412511E+02  0.10566000000E+00 0.  1.
         23    2    1    0    0    0  0.25935095350E+02  0.10545567290E+02 -0.12432724466E+02  0.94366508558E+02  0.89255964168E+02 0.  0.
         13    1    3    3    0    0 -0.17942092768E+02  0.37741665624E+02 -0.30696045564E+01  0.41902096047E+02  0.10566000000E+00 0. -1.
         22    1    1    0    0    0 -0.25935095350E+02 -0.10545567290E+02  0.12432724466E+02  0.30633491442E+02  0.00000000000E+00 0.  1.
</event>
<event>
 5    1  0.1724235E-003  0.9118800E+02  0.7818608E-02  0.1130116E+00
         25   -1    0    0    0    0  0.00000000000E+00  0.00000000000E+00  0.99999998245E-14  0.12500000000E+03  0.12500000000E+03 0.  0.
        -13    1    3    3    0    0 -0.50258184616E+01 -0.11086147540E+02  0.47977404191E+02  0.49497515043E+02  0.10566000000E+00 0.  1.
         23    2    1    0    0    0 -0.29481901711E+02  0.15897525130E+01  0.17081652315E+02  0.90889991390E+02  0.84246648880E+02 0.  0.
         13    1    3    3    0    0 -0.24456083250E+02  0.12675900053E+02 -0.30895751876E+02  0.41392476346E+02  0.10566000000E+00 0. -1.
         22    1    1    0    0    0  0.29481901711E+02 -0.15897525130E+01 -0.17081652315E+02  0.34110008610E+02  0.00000000000E+00 0.  1.
</event>
<event>
 5    1  0.1724235E-003  0.9118800E+02  0.7818608E-02  0.1130116E+00
         25   -1    0    0    0    0  0.00000000000E+00  0.00000000000E+00  0.99999998245E-14  0.12500000000E+03  0.12500000000E+03 0.  0.
        -13    1    3    3    0    0 -0.41320484274E+02 -0.25213342403E+01 -0.27525061130E+02  0.49712973168E+02  0.10566000000E+00 0. -1.
         23    2    1    0    0    0 -0.24000012706E+02 -0.85423434523E+01  0.14587041482E+02  0.95644352831E+02  0.91027952892E+02 0.  0.
         13    1    3    3    0    0  0.17320471568E+02 -0.60210092119E+01  0.42112102612E+02  0.45931379663E+02  0.10566000000E+00 0.  1.
         22    1    1    0    0    0  0.24000012706E+02  0.85423434523E+01 -0.14587041482E+02  0.29355647169E+02  0.00000000000E+00 0.  1.
</event>
<event>
 5    1  0.1724235E-003  0.9118800E+02  0.7818608E-02  0.1130116E+00
         25   -1    0    0    0    0  0.00000000000E+00  0.00000000000E+00  0.99999998245E-14  0.12500000000E+03  0.12500000000E+03 0.  0.
        -13    1    3    3    0    0  0.44454074439E+02 -0.31559660148E+01  0.22582079671E+02  0.49960848091E+02  0.10566000000E+00 0.  1.
         23    2    1    0    0    0  0.16627834153E+02  0.42698060412E+01 -0.18260697939E+02  0.99936696118E+02  0.96742824176E+02 0.  0.
         13    1    3    3    0    0 -0.27826240285E+02  0.74257720560E+01 -0.40842777610E+02  0.49975848027E+02  0.10566000000E+00 0. -1.
         22    1    1    0    0    0 -0.16627834153E+02 -0.42698060412E+01  0.18260697939E+02  0.25063303882E+02  0.00000000000E+00 0. -1.
</event>
<event>
 5    1  0.1724235E-003  0.9118800E+02  0.7818608E-02  0.1130116E+00
         25   -1    0    0    0    0  0.00000000000E+00  0.00000000000E+00  0.99999998245E-14  0.12500000000E+03  0.12500000000E+03 0.  0.
        -13    1    3    3    0    0  0.25112927454E+02 -0.26752433605E+02  0.22213313955E+01  0.36759996005E+02  0.10566000000E+00 0.  1.
         23    2    1    0    0    0 -0.11815886708E+02  0.16233815009E+02 -0.19079838724E+02  0.97301765865E+02  0.93276157009E+02 0.  0.
         13    1    3    3    0    0 -0.36928814162E+02  0.42986248614E+02 -0.21301170120E+02  0.60541769860E+02  0.10566000000E+00 0. -1.
         22    1    1    0    0    0  0.11815886708E+02 -0.16233815009E+02  0.19079838724E+02  0.27698234135E+02  0.00000000000E+00 0. -1.
</event>
<event>
 5    1  0.1724235E-003  0.9118800E+02  0.7818608E-02  0.1130116E+00
         25   -1    0    0    0    0  0.00000000000E+00  0.00000000000E+00  0.99999998245E-14  0.12500000000E+03  0.12500000000E+03 0.  0.
        -13    1    3    3    0    0  0.34611716296E+02 -0.13133561249E+02 -0.26904930410E+02  0.45764044625E+02  0.10566000000E+00 0.  1.
         23    2    1    0    0    0  0.79326352555E+01  0.21679791421E+02  0.66361693585E+01  0.10097961695E+03  0.98081110502E+02 0.  0.
         13    1    3    3    0    0 -0.26679081041E+02  0.34813352670E+02  0.33541099769E+02  0.55215572324E+02  0.10566000000E+00 0. -1.
         22    1    1    0    0    0 -0.79326352555E+01 -0.21679791421E+02 -0.66361693585E+01  0.24020383051E+02  0.00000000000E+00 0. -1.
</event>
<event>
 5    1  0.1724235E-003  0.9118800E+02  0.7818608E-02  0.1130116E+00
         25   -1    0    0    0    0  0.00000000000E+00  0.00000000000E+00  0.99999998245E-14  0.12500000000E+03  0.12500000000E+03 0.  0.
        -13    1    3    3    0    0  0.19194278481E+02 -0.19989140000E+02 -0.32223549812E+02  0.42501227875E+02  0.10566000000E+00 0. -1.
         23    2    1    0    0    0  0.26117540362E+02  0.12166738363E+02  0.86038216884E+01  0.94930394339E+02  0.90042204464E+02 0.  0.
         13    1    3    3    0    0  0.69232618811E+01  0.32155878363E+02  0.40827371501E+02  0.52429166464E+02  0.10566000000E+00 0.  1.
         22    1    1    0    0    0 -0.26117540362E+02 -0.12166738363E+02 -0.86038216884E+01  0.30069605661E+02  0.00000000000E+00 0.  1.
</event>
<event>
 5    1  0.1724235E-003  0.9118800E+02  0.7818608E-02  0.1130116E+00
         25   -1    0    0    0    0  0.00000000000E+00  0.00000000000E+00  0.99999998245E-14  0.12500000000E+03  0.12500000000E+03 0.  0.
        -13    1    3    3    0    0 -0.36176401610E+02  0.29712507726E+02  0.39840712646E+02  0.61472422248E+02  0.10566000000E+00 0. -1.
         23    2    1    0    0    0 -0.14463163181E+02  0.81453240844E+01  0.23680399255E+02  0.96081308769E+02  0.91626018096E+02 0.  0.
         13    1    3    3    0    0  0.21713238429E+02 -0.21567183642E+02 -0.16160313390E+02  0.34608886521E+02  0.10566000000E+00 0.  1.
         22    1    1    0    0    0  0.14463163181E+02 -0.81453240844E+01 -0.23680399255E+02  0.28918691231E+02  0.00000000000E+00 0. -1.
</event>
<event>
 5    1  0.1724235E-003  0.9118800E+02  0.7818608E-02  0.1130116E+00
         25   -1    0    0    0    0  0.00000000000E+00  0.00000000000E+00  0.99999998245E-14  0.12500000000E+03  0.12500000000E+03 0.  0.
        -13    1    3    3    0    0 -0.33126755902E+02 -0.87569520235E+01  0.35329776146E+02  0.49216566437E+02  0.10566000000E+00 0. -1.
         23    2    1    0    0    0  0.59598742898E+01 -0.16549400167E+02  0.31065894929E+02  0.89299963933E+02  0.81853472641E+02 0.  0.
         13    1    3    3    0    0  0.39086630192E+02 -0.77924481430E+01 -0.42638812168E+01  0.40083397496E+02  0.10566000000E+00 0.  1.
         22    1    1    0    0    0 -0.59598742898E+01  0.16549400167E+02 -0.31065894929E+02  0.35700036067E+02  0.00000000000E+00 0. -1.
</event>
<event>
 5    1  0.1724235E-003  0.9118800E+02  0.7818608E-02  0.1130116E+00
         25   -1    0    0    0    0  0.00000000000E+00  0.00000000000E+00  0.99999998245E-14  0.12500000000E+03  0.12500000000E+03 0.  0.
        -13    1    3    3    0    0  0.28053306196E+02  0.11900146576E+02  0.39555719230E+02  0.49932630262E+02  0.10566000000E+00 0.  1.
         23    2    1    0    0    0 -0.13061650143E+02  0.16534030935E+02  0.20908424783E+02  0.95315945184E+02  0.90575859345E+02 0.  0.
         13    1    3    3    0    0 -0.41114956339E+02  0.46338843590E+01 -0.18647294448E+02  0.45383314922E+02  0.10566000000E+00 0. -1.
         22    1    1    0    0    0  0.13061650143E+02 -0.16534030935E+02 -0.20908424783E+02  0.29684054816E+02  0.00000000000E+00 0.  1.
</event>
<event>
 5    1  0.1724235E-003  0.9118800E+02  0.7818608E-02  0.1130116E+00
         25   -1    0    0    0    0  0.00000000000E+00  0.00000000000E+00  0.99999998245E-14  0.12500000000E+03  0.12500000000E+03 0.  0.
        -13    1    3    3    0    0 -0.84946202014E+01  0.13981127409E+01  0.33134813077E+02  0.34235074021E+02  0.10566000000E+00 0.  1.
         23    2    1    0    0    0  0.20593386619E+02 -0.66946341650E+01 -0.20112119809E+02  0.95446606587E+02  0.90756000610E+02 0.  0.
         13    1    3    3    0    0  0.29088006820E+02 -0.80927469059E+01 -0.53246932885E+02  0.61211532565E+02  0.10566000000E+00 0. -1.
         22    1    1    0    0    0 -0.20593386619E+02  0.66946341650E+01  0.20112119809E+02  0.29553393413E+02  0.00000000000E+00 0. -1.
</event>
<event>
 5    1  0.1724235E-003  0.9118800E+02  0.7818608E-02  0.1130116E+00
         25   -1    0    0    0    0  0.00000000000E+00  0.00000000000E+00  0.99999998245E-14  0.12500000000E+03  0.12500000000E+03 0.  0.
        -13    1    3    3    0    0 -0.24883575776E+02 -0.91361065686E+01 -0.20958415372E+02  0.33792412249E+02  0.10566000000E+00 0. -1.
         23    2    1    0    0    0  0.19740394462E+02 -0.43987755615E+01  0.21438169626E+02  0.95527512544E+02  0.90867365627E+02 0.  0.
         13    1    3    3    0    0  0.44623970238E+02  0.47373310071E+01  0.42396584998E+02  0.61735100295E+02  0.10566000000E+00 0.  1.
         22    1    1    0    0    0 -0.19740394462E+02  0.43987755615E+01 -0.21438169626E+02  0.29472487456E+02  0.00000000000E+00 0.  1.
</event>
<event>
 5    1  0.1724235E-003  0.9118800E+02  0.7818608E-02  0.1130116E+00
         25   -1    0    0    0    0  0.00000000000E+00  0.00000000000E+00  0.99999998245E-14  0.12500000000E+03  0.12500000000E+03 0.  0.
        -13    1    3    3    0    0  0.65928034414E+01 -0.32025220173E+02  0.24658169200E+02  0.40952609888E+02  0.10566000000E+00 0.  1.
         23    2    1    0    0    0 -0.13892423517E+02  0.14577977578E+02  0.26287767714E+02  0.91885598408E+02  0.85711140477E+02 0.  0.
         13    1    3    3    0    0 -0.20485226958E+02  0.46603197751E+02  0.16295985143E+01  0.50932988519E+02  0.10566000000E+00 0. -1.
         22    1    1    0    0    0  0.13892423517E+02 -0.14577977578E+02 -0.26287767714E+02  0.33114401592E+02  0.00000000000E+00 0. -1.
</event>
<event>
 5    1  0.1724235E-003  0.9118800E+02  0.7818608E-02  0.1130116E+00
         25   -1    0    0    0    0  0.00000000000E+00  0.00000000000E+00  0.99999998245E-14  0.12500000000E+03  0.12500000000E+03 0.  0.
        -13    1    3    3    0    0  0.10243588813E+02  0.49867859244E+02  0.21490235237E+02  0.55259170026E+02  0.10566000000E+00 0.  1.
         23    2    1    0    0    0  0.61532595295E+01  0.24520138264E+02 -0.11635410631E+02  0.97170473164E+02  0.93100044528E+02 0.  0.
         13    1    3    3    0    0 -0.40903292839E+01 -0.25347720980E+02 -0.33125645868E+02  0.41911303138E+02  0.10566000000E+00 0. -1.
         22    1    1    0    0    0 -0.61532595295E+01 -0.24520138264E+02  0.11635410631E+02  0.27829526836E+02  0.00000000000E+00 0.  1.
</event>
<event>
 5    1  0.1724235E-003  0.9118800E+02  0.7818608E-02  0.1130116E+00
         25   -1    0    0    0    0  0.00000000000E+00  0.00000000000E+00  0.99999998245E-14  0.12500000000E+03  0.12500000000E+03 0.  0.
        -13    1    3    3    0    0 -0.41546609059E+01  0.17792211623E+02 -0.41423463476E+02  0.45274037727E+02  0.10566000000E+00 0.  1.
         23    2    1    0    0    0 -0.85961878178E+01 -0.23945982725E+02 -0.10192753701E+02  0.97592031055E+02  0.93664335602E+02 0.  0.
         13    1    3    3    0    0 -0.44415269118E+01 -0.41738194349E+02  0.31230709775E+02  0.52317993328E+02  0.10566000000E+00 0. -1.
         22    1    1    0    0    0  0.85961878178E+01  0.23945982725E+02  0.10192753701E+02  0.27407968945E+02  0.00000000000E+00 0. -1.
</event>
<event>
 5    1  0.1724235E-003  0.9118800E+02  0.7818608E-02  0.1130116E+00
         25   -1    0    0    0    0  0.00000000000E+00  0.00000000000E+00  0.99999998245E-14  0.12500000000E+03  0.12500000000E+03 0.  0.
        -13    1    3    3    0    0 -0.15378222990E+02 -0.15616947586E+02 -0.29274077884E+02  0.36569954802E+02  0.10566000000E+00 0.  1.
         23    2    1    0    0    0  0.31874153298E+02  0.82382920757E+00 -0.32905179634E+01  0.92945860618E+02  0.87243711261E+02 0.  0.
         13    1    3    3    0    0  0.47252376288E+02  0.16440776793E+02  0.25983559920E+02  0.56375905816E+02  0.10566000000E+00 0. -1.
         22    1    1    0    0    0 -0.31874153298E+02 -0.82382920757E+00  0.32905179634E+01  0.32054139382E+02  0.00000000000E+00 0. -1.
</event>
<event>
 5    1  0.1724235E-003  0.9118800E+02  0.7818608E-02  0.1130116E+00
         25   -1    0    0    0    0  0.00000000000E+00  0.00000000000E+00  0.99999998245E-14  0.12500000000E+03  0.12500000000E+03 0.  0.
        -13    1    3    3    0    0  0.19112455732E+02 -0.11083321161E+02 -0.27015300120E+02  0.34899334904E+02  0.10566000000E+00 0.  1.
         23    2    1    0    0    0 -0.27687998472E+02 -0.29944995274E+01  0.10307852723E+02  0.95304139774E+02  0.90559565720E+02 0.  0.
         13    1    3    3    0    0 -0.46800454205E+02  0.80888216339E+01  0.37323152843E+02  0.60404804870E+02  0.10566000000E+00 0. -1.
         22    1    1    0    0    0  0.27687998472E+02  0.29944995274E+01 -0.10307852723E+02  0.29695860226E+02  0.00000000000E+00 0. -1.
</event>
<event>
 5    1  0.1724235E-003  0.9118800E+02  0.7818608E-02  0.1130116E+00
         25   -1    0    0    0    0  0.00000000000E+00  0.00000000000E+00  0.99999998245E-14  0.12500000000E+03  0.12500000000E+03 0.  0.
        -13    1    3    3    0    0  0.26919985055E+01 -0.58122616003E+02 -0.42274931568E+01  0.58338393957E+02  0.10566000000E+00 0.  1.
         23    2    1    0    0    0 -0.99171305729E+01 -0.25460875804E+02  0.96816335512E+01  0.96011386654E+02  0.91530577751E+02 0.  0.
         13    1    3    3    0    0 -0.12609129078E+02  0.32661740199E+02  0.13909126708E+02  0.37672992697E+02  0.10566000000E+00 0. -1.
         22    1    1    0    0    0  0.99171305729E+01  0.25460875804E+02 -0.96816335512E+01  0.28988613346E+02  0.00000000000E+00 0.  1.
</event>
<event>
 5    1  0.1724235E-003  0.9118800E+02  0.7818608E-02  0.1130116E+00
         25   -1    0    0    0    0  0.00000000000E+00  0.00000000000E+00  0.99999998245E-14  0.12500000000E+03  0.12500000000E+03 0.  0.
        -13    1    3    3    0    0 -0.24691449572E+02 -0.57241226337E+02 -0.22010768514E+01  0.62378534593E+02  0.10566000000E+00 0.  1.
         23    2    1    0    0    0 -0.10594332159E+02 -0.28801860554E+02  0.11020641391E+01  0.94291669035E+02  0.89151092303E+02 0.  0.
         13    1    3    3    0    0  0.14097117413E+02  0.28439365783E+02  0.33031409905E+01  0.31913134442E+02  0.10566000000E+00 0. -1.
         22    1    1    0    0    0  0.10594332159E+02  0.28801860554E+02 -0.11020641391E+01  0.30708330965E+02  0.00000000000E+00 0.  1.
</event>
<event>
 5    1  0.1724235E-003  0.9118800E+02  0.7818608E-02  0.1130116E+00
         25   -1    0    0    0    0  0.00000000000E+00  0.00000000000E+00  0.99999998245E-14  0.12500000000E+03  0.12500000000E+03 0.  0.
        -13    1    3    3    0    0 -0.22331689487E+02  0.37885482017E+02  0.12868375172E+02  0.45821614405E+02  0.10566000000E+00 0.  1.
         23    2    1    0    0    0 -0.23358986683E+02 -0.12326583321E+02  0.11842247832E+02  0.96054780206E+02  0.91589819585E+02 0.  0.
         13    1    3    3    0    0 -0.10272971952E+01 -0.50212065338E+02 -0.10261273407E+01  0.50233165801E+02  0.10566000000E+00 0. -1.
         22    1    1    0    0    0  0.23358986683E+02  0.12326583321E+02 -0.11842247832E+02  0.28945219794E+02  0.00000000000E+00 0. -1.
</event>
<event>
 5    1  0.1724235E-003  0.9118800E+02  0.7818608E-02  0.1130116E+00
         25   -1    0    0    0    0  0.00000000000E+00  0.00000000000E+00  0.99999998245E-14  0.12500000000E+03  0.12500000000E+03 0.  0.
        -13    1    3    3    0    0  0.55173169834E+01  0.70047362862E+01  0.50632811810E+02  0.51412059996E+02  0.10566000000E+00 0.  1.
         23    2    1    0    0    0 -0.10112472800E+02 -0.19813104894E+02  0.18778757476E+02  0.95888782849E+02  0.91362988745E+02 0.  0.
         13    1    3    3    0    0 -0.15629789783E+02 -0.26817841180E+02 -0.31854054335E+02  0.44476722854E+02  0.10566000000E+00 0. -1.
         22    1    1    0    0    0  0.10112472800E+02  0.19813104894E+02 -0.18778757476E+02  0.29111217151E+02  0.00000000000E+00 0.  1.
</event>
<event>
 5    1  0.1724235E-003  0.9118800E+02  0.7818608E-02  0.1130116E+00
         25   -1    0    0    0    0  0.00000000000E+00  0.00000000000E+00  0.99999998245E-14  0.12500000000E+03  0.12500000000E+03 0.  0.
        -13    1    3    3    0    0  0.78346711939E+01 -0.39315158490E+01 -0.57090517382E+02  0.57759650523E+02  0.10566000000E+00 0.  1.
         23    2    1    0    0    0  0.19166898703E+02 -0.68945912501E+01 -0.20827077011E+02  0.95868015323E+02  0.91334570842E+02 0.  0.
         13    1    3    3    0    0  0.11332227509E+02 -0.29630754012E+01  0.36263440371E+02  0.38108364800E+02  0.10566000000E+00 0. -1.
         22    1    1    0    0    0 -0.19166898703E+02  0.68945912501E+01  0.20827077011E+02  0.29131984677E+02  0.00000000000E+00 0.  1.
</event>
<event>
 5    1  0.1724235E-003  0.9118800E+02  0.7818608E-02  0.1130116E+00
         25   -1    0    0    0    0  0.00000000000E+00  0.00000000000E+00  0.99999998245E-14  0.12500000000E+03  0.12500000000E+03 0.  0.
        -13    1    3    3    0    0 -0.35482158092E+02  0.23324954405E+02  0.61944120307E+01  0.42911757658E+02  0.10566000000E+00 0.  1.
         23    2    1    0    0    0  0.17091951394E+02  0.11382575968E+02 -0.13628256893E+02  0.10035396129E+03  0.97280472463E+02 0.  0.
         13    1    3    3    0    0  0.52574109485E+02 -0.11942378436E+02 -0.19822668924E+02  0.57442203633E+02  0.10566000000E+00 0. -1.
         22    1    1    0    0    0 -0.17091951394E+02 -0.11382575968E+02  0.13628256893E+02  0.24646038709E+02  0.00000000000E+00 0. -1.
</event>
<event>
 5    1  0.1724235E-003  0.9118800E+02  0.7818608E-02  0.1130116E+00
         25   -1    0    0    0    0  0.00000000000E+00  0.00000000000E+00  0.99999998245E-14  0.12500000000E+03  0.12500000000E+03 0.  0.
        -13    1    3    3    0    0  0.23514637977E+02  0.15776049861E+02 -0.16346723944E+02  0.32696307072E+02  0.10566000000E+00 0.  1.
         23    2    1    0    0    0 -0.27671016928E+02 -0.13556694993E+02 -0.12275223809E+02  0.91831486670E+02  0.85632188268E+02 0.  0.
         13    1    3    3    0    0 -0.51185654905E+02 -0.29332744854E+02  0.40715001353E+01  0.59135179598E+02  0.10566000000E+00 0. -1.
         22    1    1    0    0    0  0.27671016928E+02  0.13556694993E+02  0.12275223809E+02  0.33168513330E+02  0.00000000000E+00 0. -1.
</event>
<event>
 5    1  0.1724235E-003  0.9118800E+02  0.7818608E-02  0.1130116E+00
         25   -1    0    0    0    0  0.00000000000E+00  0.00000000000E+00  0.99999998245E-14  0.12500000000E+03  0.12500000000E+03 0.  0.
        -13    1    3    3    0    0 -0.34559171151E+02  0.73639560844E+01 -0.57738111766E+01  0.35803801745E+02  0.10566000000E+00 0.  1.
         23    2    1    0    0    0  0.23925481632E+02 -0.76600636241E+00 -0.16645912485E+02  0.95843494045E+02  0.91301004985E+02 0.  0.
         13    1    3    3    0    0  0.58484652783E+02 -0.81299624468E+01 -0.10872101308E+02  0.60039692300E+02  0.10566000000E+00 0. -1.
         22    1    1    0    0    0 -0.23925481632E+02  0.76600636241E+00  0.16645912485E+02  0.29156505955E+02  0.00000000000E+00 0. -1.
</event>
<event>
 5    1  0.1724235E-003  0.9118800E+02  0.7818608E-02  0.1130116E+00
         25   -1    0    0    0    0  0.00000000000E+00  0.00000000000E+00  0.99999998245E-14  0.12500000000E+03  0.12500000000E+03 0.  0.
        -13    1    3    3    0    0 -0.22814169065E+02 -0.13503057674E+02 -0.47086487826E+02  0.54036722481E+02  0.10566000000E+00 0. -1.
         23    2    1    0    0    0 -0.17135686073E+02 -0.25444469857E+02 -0.11097977687E+02  0.92377647353E+02  0.86425759113E+02 0.  0.
         13    1    3    3    0    0  0.56784829922E+01 -0.11941412183E+02  0.35988510139E+02  0.38340924872E+02  0.10566000000E+00 0.  1.
         22    1    1    0    0    0  0.17135686073E+02  0.25444469857E+02  0.11097977687E+02  0.32622352647E+02  0.00000000000E+00 0. -1.
</event>
<event>
 5    1  0.1724235E-003  0.9118800E+02  0.7818608E-02  0.1130116E+00
         25   -1    0    0    0    0  0.00000000000E+00  0.00000000000E+00  0.99999998245E-14  0.12500000000E+03  0.12500000000E+03 0.  0.
        -13    1    3    3    0    0  0.21332358705E+02 -0.28649150022E+02 -0.12446235293E+02  0.37825431418E+02  0.10566000000E+00 0.  1.
         23    2    1    0    0    0 -0.77754074453E-01  0.15935022028E+02  0.21809903356E+02  0.97988838286E+02  0.94192407185E+02 0.  0.
         13    1    3    3    0    0 -0.21410112780E+02  0.44584172051E+02  0.34256138650E+02  0.60163406868E+02  0.10566000000E+00 0. -1.
         22    1    1    0    0    0  0.77754074453E-01 -0.15935022028E+02 -0.21809903356E+02  0.27011161714E+02  0.00000000000E+00 0. -1.
</event>
<event>
 5    1  0.1724235E-003  0.9118800E+02  0.7818608E-02  0.1130116E+00
         25   -1    0    0    0    0  0.00000000000E+00  0.00000000000E+00  0.99999998245E-14  0.12500000000E+03  0.12500000000E+03 0.  0.
        -13    1    3    3    0    0  0.25062354501E+02  0.17204365621E+02 -0.27483862559E+02  0.40981528458E+02  0.10566000000E+00 0. -1.
         23    2    1    0    0    0 -0.25867376225E+02  0.19546328730E+01 -0.12423375090E+02  0.96237489834E+02  0.91838839597E+02 0.  0.
         13    1    3    3    0    0 -0.50929730726E+02 -0.15249732748E+02  0.15060487470E+02  0.55255961376E+02  0.10566000000E+00 0.  1.
         22    1    1    0    0    0  0.25867376225E+02 -0.19546328730E+01  0.12423375090E+02  0.28762510166E+02  0.00000000000E+00 0.  1.
</event>
<event>
 5    1  0.1724235E-003  0.9118800E+02  0.7818608E-02  0.1130116E+00
         25   -1    0    0    0    0  0.00000000000E+00  0.00000000000E+00  0.99999998245E-14  0.12500000000E+03  0.12500000000E+03 0.  0.
        -13    1    3    3    0    0 -0.10109337958E+02  0.62904085840E+01  0.45645745261E+02  0.47173225230E+02  0.10566000000E+00 0.  1.
         23    2    1    0    0    0  0.24439938272E+02 -0.78468533456E+01  0.17296697393E+02  0.94047464871E+02  0.88808030143E+02 0.  0.
         13    1    3    3    0    0  0.34549276230E+02 -0.14137261930E+02 -0.28349047868E+02  0.46874239641E+02  0.10566000000E+00 0. -1.
         22    1    1    0    0    0 -0.24439938272E+02  0.78468533456E+01 -0.17296697393E+02  0.30952535129E+02  0.00000000000E+00 0. -1.
</event>
<event>
 5    1  0.1724235E-003  0.9118800E+02  0.7818608E-02  0.1130116E+00
         25   -1    0    0    0    0  0.00000000000E+00  0.00000000000E+00  0.99999998245E-14  0.12500000000E+03  0.12500000000E+03 0.  0.
        -13    1    3    3    0    0 -0.13082963799E+02  0.35612644464E+02 -0.17197619710E+02  0.41655655981E+02  0.10566000000E+00 0. -1.
         23    2    1    0    0    0  0.25500020256E+02 -0.16686963173E+01 -0.15033286466E+02  0.95351470822E+02  0.90624873547E+02 0.  0.
         13    1    3    3    0    0  0.38582984055E+02 -0.37281340781E+02  0.21643332433E+01  0.53695814841E+02  0.10566000000E+00 0.  1.
         22    1    1    0    0    0 -0.25500020256E+02  0.16686963173E+01  0.15033286466E+02  0.29648529178E+02  0.00000000000E+00 0.  1.
</event>
<event>
 5    1  0.1724235E-003  0.9118800E+02  0.7818608E-02  0.1130116E+00
         25   -1    0    0    0    0  0.00000000000E+00  0.00000000000E+00  0.99999998245E-14  0.12500000000E+03  0.12500000000E+03 0.  0.
        -13    1    3    3    0    0  0.45860283712E+02  0.67653599877E+01 -0.22868650666E+02  0.51690638081E+02  0.10566000000E+00 0. -1.
         23    2    1    0    0    0  0.17845756613E+02 -0.22386360145E+02 -0.48157892689E+01  0.95968775846E+02  0.91472367201E+02 0.  0.
         13    1    3    3    0    0 -0.28014527099E+02 -0.29151720133E+02  0.18052861397E+02  0.44278137765E+02  0.10566000000E+00 0.  1.
         22    1    1    0    0    0 -0.17845756613E+02  0.22386360145E+02  0.48157892689E+01  0.29031224154E+02  0.00000000000E+00 0.  1.
</event>
<event>
 5    1  0.1724235E-003  0.9118800E+02  0.7818608E-02  0.1130116E+00
         25   -1    0    0    0    0  0.00000000000E+00  0.00000000000E+00  0.99999998245E-14  0.12500000000E+03  0.12500000000E+03 0.  0.
        -13    1    3    3    0    0  0.11780222446E+02  0.26536037263E+02  0.24594216162E+02  0.38050250290E+02  0.10566000000E+00 0. -1.
         23    2    1    0    0    0 -0.19476889382E+02 -0.11027190349E+02 -0.12465613784E+02  0.99380872887E+02  0.96021967392E+02 0.  0.
         13    1    3    3    0    0 -0.31257111828E+02 -0.37563227612E+02 -0.37059829946E+02  0.61330622597E+02  0.10566000000E+00 0.  1.
         22    1    1    0    0    0  0.19476889382E+02  0.11027190349E+02  0.12465613784E+02  0.25619127113E+02  0.00000000000E+00 0.  1.
</event>
<event>
 5    1  0.1724235E-003  0.9118800E+02  0.7818608E-02  0.1130116E+00
         25   -1    0    0    0    0  0.00000000000E+00  0.00000000000E+00  0.99999998245E-14  0.12500000000E+03  0.12500000000E+03 0.  0.
        -13    1    3    3    0    0  0.18477185171E+02  0.49141695407E+01  0.47741583812E+02  0.51427866211E+02  0.10566000000E+00 0. -1.
         23    2    1    0    0    0  0.32614497096E+02 -0.10857525221E+02  0.33844040692E+02  0.76760904185E+02  0.59709513867E+02 0.  0.
         13    1    3    3    0    0  0.14137311925E+02 -0.15771694762E+02 -0.13897543121E+02  0.25333037973E+02  0.10566000000E+00 0.  1.
         22    1    1    0    0    0 -0.32614497096E+02  0.10857525221E+02 -0.33844040692E+02  0.48239095815E+02  0.00000000000E+00 0. -1.
</event>
<event>
 5    1  0.1724235E-003  0.9118800E+02  0.7818608E-02  0.1130116E+00
         25   -1    0    0    0    0  0.00000000000E+00  0.00000000000E+00  0.99999998245E-14  0.12500000000E+03  0.12500000000E+03 0.  0.
        -13    1    3    3    0    0 -0.80544456943E+01  0.49943416590E+02 -0.33402661191E+02  0.60621513465E+02  0.10566000000E+00 0.  1.
         23    2    1    0    0    0 -0.12808013803E+02  0.25341579253E+02 -0.10032987266E+02  0.94885191515E+02  0.89979430309E+02 0.  0.
         13    1    3    3    0    0 -0.47535681086E+01 -0.24601837337E+02  0.23369673925E+02  0.34263678050E+02  0.10566000000E+00 0. -1.
         22    1    1    0    0    0  0.12808013803E+02 -0.25341579253E+02  0.10032987266E+02  0.30114808485E+02  0.00000000000E+00 0.  1.
</event>
<event>
 5    1  0.1724235E-003  0.9118800E+02  0.7818608E-02  0.1130116E+00
         25   -1    0    0    0    0  0.00000000000E+00  0.00000000000E+00  0.99999998245E-14  0.12500000000E+03  0.12500000000E+03 0.  0.
        -13    1    3    3    0    0  0.15054002025E+02  0.11731260583E+02 -0.41763002253E+02  0.45917371147E+02  0.10566000000E+00 0.  1.
         23    2    1    0    0    0 -0.20664683638E+02  0.20462272500E+02 -0.10833961496E+02  0.93966011094E+02  0.88693307378E+02 0.  0.
         13    1    3    3    0    0 -0.35718685663E+02  0.87310119171E+01  0.30929040758E+02  0.48048639947E+02  0.10566000000E+00 0. -1.
         22    1    1    0    0    0  0.20664683638E+02 -0.20462272500E+02  0.10833961496E+02  0.31033988906E+02  0.00000000000E+00 0.  1.
</event>
<event>
 5    1  0.1724235E-003  0.9118800E+02  0.7818608E-02  0.1130116E+00
         25   -1    0    0    0    0  0.00000000000E+00  0.00000000000E+00  0.99999998245E-14  0.12500000000E+03  0.12500000000E+03 0.  0.
        -13    1    3    3    0    0  0.33636128883E+02  0.29928181219E+01  0.10690499819E+02  0.35420955337E+02  0.10566000000E+00 0. -1.
         23    2    1    0    0    0 -0.17481626722E+02 -0.14457318826E+02 -0.17499976734E+02  0.96349161859E+02  0.91990708578E+02 0.  0.
         13    1    3    3    0    0 -0.51117755605E+02 -0.17450136948E+02 -0.28190476553E+02  0.60928206522E+02  0.10566000000E+00 0.  1.
         22    1    1    0    0    0  0.17481626722E+02  0.14457318826E+02  0.17499976734E+02  0.28650838141E+02  0.00000000000E+00 0.  1.
</event>
<event>
 5    1  0.1724235E-003  0.9118800E+02  0.7818608E-02  0.1130116E+00
         25   -1    0    0    0    0  0.00000000000E+00  0.00000000000E+00  0.99999998245E-14  0.12500000000E+03  0.12500000000E+03 0.  0.
        -13    1    3    3    0    0 -0.15878975703E+02  0.43238000941E+02  0.15327994524E+01  0.46087169939E+02  0.10566000000E+00 0. -1.
         23    2    1    0    0    0 -0.71287245667E+01  0.52290558416E+01 -0.28402059169E+02  0.95253761515E+02  0.90490001541E+02 0.  0.
         13    1    3    3    0    0  0.87502511362E+01 -0.38008945100E+02 -0.29934858621E+02  0.49166591577E+02  0.10566000000E+00 0.  1.
         22    1    1    0    0    0  0.71287245667E+01 -0.52290558416E+01  0.28402059169E+02  0.29746238485E+02  0.00000000000E+00 0. -1.
</event>
<event>
 5    1  0.1724235E-003  0.9118800E+02  0.7818608E-02  0.1130116E+00
         25   -1    0    0    0    0  0.00000000000E+00  0.00000000000E+00  0.99999998245E-14  0.12500000000E+03  0.12500000000E+03 0.  0.
        -13    1    3    3    0    0 -0.29032709409E+02 -0.37610634077E+02  0.64630509220E+01  0.47950393143E+02  0.10566000000E+00 0. -1.
         23    2    1    0    0    0 -0.27591701251E+02 -0.83920955657E+01 -0.21969695647E+02  0.88745389635E+02  0.81002144470E+02 0.  0.
         13    1    3    3    0    0  0.14410081581E+01  0.29218538511E+02 -0.28432746569E+02  0.40794996491E+02  0.10566000000E+00 0.  1.
         22    1    1    0    0    0  0.27591701251E+02  0.83920955657E+01  0.21969695647E+02  0.36254610365E+02  0.00000000000E+00 0. -1.
</event>
<event>
 5    1  0.1724235E-003  0.9118800E+02  0.7818608E-02  0.1130116E+00
         25   -1    0    0    0    0  0.00000000000E+00  0.00000000000E+00  0.99999998245E-14  0.12500000000E+03  0.12500000000E+03 0.  0.
        -13    1    3    3    0    0  0.11282848138E+02  0.29558967467E+02  0.16263831338E+02  0.35574690352E+02  0.10566000000E+00 0. -1.
         23    2    1    0    0    0 -0.40971723577E+01 -0.10820066558E+02 -0.26325107125E+02  0.96244619168E+02  0.91848542678E+02 0.  0.
         13    1    3    3    0    0 -0.15380020496E+02 -0.40379034024E+02 -0.42588938463E+02  0.60669928817E+02  0.10566000000E+00 0.  1.
         22    1    1    0    0    0  0.40971723577E+01  0.10820066558E+02  0.26325107125E+02  0.28755380832E+02  0.00000000000E+00 0.  1.
</event>
<event>
 5    1  0.1724235E-003  0.9118800E+02  0.7818608E-02  0.1130116E+00
         25   -1    0    0    0    0  0.00000000000E+00  0.00000000000E+00  0.99999998245E-14  0.12500000000E+03  0.12500000000E+03 0.  0.
        -13    1    3    3    0    0 -0.18675739455E+02 -0.31932898072E+02 -0.46052087922E+02  0.59070290244E+02  0.10566000000E+00 0.  1.
         23    2    1    0    0    0 -0.17545233581E+02 -0.25219512284E+01 -0.18275861755E+02  0.99540177096E+02  0.96229123835E+02 0.  0.
         13    1    3    3    0    0  0.11305058748E+01  0.29410946844E+02  0.27776226167E+02  0.40469886853E+02  0.10566000000E+00 0. -1.
         22    1    1    0    0    0  0.17545233581E+02  0.25219512284E+01  0.18275861755E+02  0.25459822904E+02  0.00000000000E+00 0.  1.
</event>
<event>
 5    1  0.1724235E-003  0.9118800E+02  0.7818608E-02  0.1130116E+00
         25   -1    0    0    0    0  0.00000000000E+00  0.00000000000E+00  0.99999998245E-14  0.12500000000E+03  0.12500000000E+03 0.  0.
        -13    1    3    3    0    0 -0.57074550350E+01 -0.15637885303E+02 -0.29917180045E+02  0.34236929266E+02  0.10566000000E+00 0.  1.
         23    2    1    0    0    0 -0.35673220775E+01 -0.80479762952E+01  0.29520156034E+02  0.94195206193E+02  0.89015737643E+02 0.  0.
         13    1    3    3    0    0  0.21401329575E+01  0.75899090081E+01  0.59437336078E+02  0.59958276926E+02  0.10566000000E+00 0. -1.
         22    1    1    0    0    0  0.35673220775E+01  0.80479762952E+01 -0.29520156034E+02  0.30804793807E+02  0.00000000000E+00 0. -1.
</event>
<event>
 5    1  0.1724235E-003  0.9118800E+02  0.7818608E-02  0.1130116E+00
         25   -1    0    0    0    0  0.00000000000E+00  0.00000000000E+00  0.99999998245E-14  0.12500000000E+03  0.12500000000E+03 0.  0.
        -13    1    3    3    0    0 -0.31212497678E+02 -0.21436422647E+02 -0.22716702239E+02  0.44156539175E+02  0.10566000000E+00 0.  1.
         23    2    1    0    0    0  0.18587465092E+02 -0.63414049320E+01 -0.21035929692E+02  0.96221229821E+02  0.91816705752E+02 0.  0.
         13    1    3    3    0    0  0.49799962770E+02  0.15095017715E+02  0.16807725476E+01  0.52064690646E+02  0.10566000000E+00 0. -1.
         22    1    1    0    0    0 -0.18587465092E+02  0.63414049320E+01  0.21035929692E+02  0.28778770179E+02  0.00000000000E+00 0. -1.
</event>
<event>
 5    1  0.1724235E-003  0.9118800E+02  0.7818608E-02  0.1130116E+00
         25   -1    0    0    0    0  0.00000000000E+00  0.00000000000E+00  0.99999998245E-14  0.12500000000E+03  0.12500000000E+03 0.  0.
        -13    1    3    3    0    0  0.72375474740E+01 -0.54800806200E+02  0.21302577131E+02  0.59239525742E+02  0.10566000000E+00 0. -1.
         23    2    1    0    0    0  0.14645377243E+02 -0.25708515772E+02  0.11633461226E+01  0.95389727593E+02  0.90677626228E+02 0.  0.
         13    1    3    3    0    0  0.74078297689E+01  0.29092290428E+02 -0.20139231009E+02  0.36150201852E+02  0.10566000000E+00 0.  1.
         22    1    1    0    0    0 -0.14645377243E+02  0.25708515772E+02 -0.11633461226E+01  0.29610272407E+02  0.00000000000E+00 0. -1.
</event>
<event>
 5    1  0.1724235E-003  0.9118800E+02  0.7818608E-02  0.1130116E+00
         25   -1    0    0    0    0  0.00000000000E+00  0.00000000000E+00  0.99999998245E-14  0.12500000000E+03  0.12500000000E+03 0.  0.
        -13    1    3    3    0    0  0.49586827356E+02 -0.15892223986E+02 -0.40377268041E+01  0.52227680709E+02  0.10566000000E+00 0.  1.
         23    2    1    0    0    0  0.13065647772E+02 -0.25074865709E+02  0.13380649055E+02  0.93718986411E+02  0.88344476923E+02 0.  0.
         13    1    3    3    0    0 -0.36521179585E+02 -0.91826417226E+01  0.17418375859E+02  0.41491305702E+02  0.10566000000E+00 0. -1.
         22    1    1    0    0    0 -0.13065647772E+02  0.25074865709E+02 -0.13380649055E+02  0.31281013589E+02  0.00000000000E+00 0.  1.
</event>
<event>
 5    1  0.1724235E-003  0.9118800E+02  0.7818608E-02  0.1130116E+00
         25   -1    0    0    0    0  0.00000000000E+00  0.00000000000E+00  0.99999998245E-14  0.12500000000E+03  0.12500000000E+03 0.  0.
        -13    1    3    3    0    0 -0.41537844179E+02  0.37824997145E+02  0.26636497645E+02  0.62174247714E+02  0.10566000000E+00 0. -1.
         23    2    1    0    0    0 -0.21683688965E+02  0.13756389953E+02  0.12846278938E+02  0.96286805921E+02  0.91905938220E+02 0.  0.
         13    1    3    3    0    0  0.19854155214E+02 -0.24068607191E+02 -0.13790218706E+02  0.34112558206E+02  0.10566000000E+00 0.  1.
         22    1    1    0    0    0  0.21683688965E+02 -0.13756389953E+02 -0.12846278938E+02  0.28713194079E+02  0.00000000000E+00 0. -1.
</event>
<event>
 5    1  0.1724235E-003  0.9118800E+02  0.7818608E-02  0.1130116E+00
         25   -1    0    0    0    0  0.00000000000E+00  0.00000000000E+00  0.99999998245E-14  0.12500000000E+03  0.12500000000E+03 0.  0.
        -13    1    3    3    0    0 -0.95629845401E+01 -0.39006922138E+02  0.14649953616E+02  0.42750707047E+02  0.10566000000E+00 0. -1.
         23    2    1    0    0    0 -0.22159386919E+02  0.56052958119E+01 -0.14891186405E+02  0.97719875325E+02  0.93834795418E+02 0.  0.
         13    1    3    3    0    0 -0.12596402379E+02  0.44612217950E+02 -0.29541140022E+02  0.54969168278E+02  0.10566000000E+00 0.  1.
         22    1    1    0    0    0  0.22159386919E+02 -0.56052958119E+01  0.14891186405E+02  0.27280124675E+02  0.00000000000E+00 0.  1.
</event>
<event>
 5    1  0.1724235E-003  0.9118800E+02  0.7818608E-02  0.1130116E+00
         25   -1    0    0    0    0  0.00000000000E+00  0.00000000000E+00  0.99999998245E-14  0.12500000000E+03  0.12500000000E+03 0.  0.
        -13    1    3    3    0    0 -0.13417565928E+02 -0.48105220439E+02  0.29517746935E+02  0.58012514659E+02  0.10566000000E+00 0.  1.
         23    2    1    0    0    0 -0.24425925338E+01 -0.13246987312E+02  0.27219250049E+02  0.94630006514E+02  0.89624224563E+02 0.  0.
         13    1    3    3    0    0  0.10974973394E+02  0.34858233127E+02 -0.22984968866E+01  0.36617491855E+02  0.10566000000E+00 0. -1.
         22    1    1    0    0    0  0.24425925338E+01  0.13246987312E+02 -0.27219250049E+02  0.30369993486E+02  0.00000000000E+00 0.  1.
</event>
<event>
 5    1  0.1724235E-003  0.9118800E+02  0.7818608E-02  0.1130116E+00
         25   -1    0    0    0    0  0.00000000000E+00  0.00000000000E+00  0.99999998245E-14  0.12500000000E+03  0.12500000000E+03 0.  0.
        -13    1    3    3    0    0 -0.45917160202E+01  0.49995324861E+02 -0.28327973297E+02  0.57646349400E+02  0.10566000000E+00 0.  1.
         23    2    1    0    0    0 -0.17884978761E+02  0.27062045900E+02 -0.66549825248E+01  0.91886323280E+02  0.85712197614E+02 0.  0.
         13    1    3    3    0    0 -0.13293262741E+02 -0.22933278962E+02  0.21672990772E+02  0.34239973880E+02  0.10566000000E+00 0. -1.
         22    1    1    0    0    0  0.17884978761E+02 -0.27062045900E+02  0.66549825248E+01  0.33113676720E+02  0.00000000000E+00 0.  1.
</event>
<event>
 5    1  0.1724235E-003  0.9118800E+02  0.7818608E-02  0.1130116E+00
         25   -1    0    0    0    0  0.00000000000E+00  0.00000000000E+00  0.99999998245E-14  0.12500000000E+03  0.12500000000E+03 0.  0.
        -13    1    3    3    0    0 -0.22609054265E+02  0.45026581245E+02  0.17288187506E+02  0.53267766470E+02  0.10566000000E+00 0. -1.
         23    2    1    0    0    0 -0.25635973305E+02  0.11731934796E+02 -0.85702975548E+01  0.95533214944E+02  0.90875209689E+02 0.  0.
         13    1    3    3    0    0 -0.30269190405E+01 -0.33294646449E+02 -0.25858485061E+02  0.42265448474E+02  0.10566000000E+00 0.  1.
         22    1    1    0    0    0  0.25635973305E+02 -0.11731934796E+02  0.85702975548E+01  0.29466785056E+02  0.00000000000E+00 0. -1.
</event>
<event>
 5    1  0.1724235E-003  0.9118800E+02  0.7818608E-02  0.1130116E+00
         25   -1    0    0    0    0  0.00000000000E+00  0.00000000000E+00  0.99999998245E-14  0.12500000000E+03  0.12500000000E+03 0.  0.
        -13    1    3    3    0    0 -0.14313193688E+02 -0.18850987323E+02  0.23869978775E+02  0.33615685139E+02  0.10566000000E+00 0.  1.
         23    2    1    0    0    0 -0.14982452256E+01  0.20113490602E+02 -0.22002283981E+02  0.95152089799E+02  0.90349446317E+02 0.  0.
         13    1    3    3    0    0  0.12814948463E+02  0.38964477925E+02 -0.45872262757E+02  0.61536404660E+02  0.10566000000E+00 0. -1.
         22    1    1    0    0    0  0.14982452256E+01 -0.20113490602E+02  0.22002283981E+02  0.29847910201E+02  0.00000000000E+00 0. -1.
</event>
<event>
 5    1  0.1724235E-003  0.9118800E+02  0.7818608E-02  0.1130116E+00
         25   -1    0    0    0    0  0.00000000000E+00  0.00000000000E+00  0.99999998245E-14  0.12500000000E+03  0.12500000000E+03 0.  0.
        -13    1    3    3    0    0  0.14158619450E+02 -0.37274076660E+02  0.31811129574E+02  0.51007670250E+02  0.10566000000E+00 0.  1.
         23    2    1    0    0    0 -0.20579453490E+02 -0.15783411679E+02  0.13271576470E+02  0.95866432896E+02  0.91332405115E+02 0.  0.
         13    1    3    3    0    0 -0.34738072939E+02  0.21490664980E+02 -0.18539553103E+02  0.44858762646E+02  0.10566000000E+00 0. -1.
         22    1    1    0    0    0  0.20579453490E+02  0.15783411679E+02 -0.13271576470E+02  0.29133567104E+02  0.00000000000E+00 0.  1.
</event>
<event>
 5    1  0.1724235E-003  0.9118800E+02  0.7818608E-02  0.1130116E+00
         25   -1    0    0    0    0  0.00000000000E+00  0.00000000000E+00  0.99999998245E-14  0.12500000000E+03  0.12500000000E+03 0.  0.
        -13    1    3    3    0    0  0.48492259999E+02  0.17861284784E+02 -0.42608796535E-01  0.51677245994E+02  0.10566000000E+00 0. -1.
         23    2    1    0    0    0  0.93268755057E+01  0.19277227899E+02 -0.20035915582E+02  0.95673560813E+02  0.91068052594E+02 0.  0.
         13    1    3    3    0    0 -0.39165384493E+02  0.14159431152E+01 -0.19993306786E+02  0.43996314819E+02  0.10566000000E+00 0.  1.
         22    1    1    0    0    0 -0.93268755057E+01 -0.19277227899E+02  0.20035915582E+02  0.29326439187E+02  0.00000000000E+00 0.  1.
</event>
<event>
 5    1  0.1724235E-003  0.9118800E+02  0.7818608E-02  0.1130116E+00
         25   -1    0    0    0    0  0.00000000000E+00  0.00000000000E+00  0.99999998245E-14  0.12500000000E+03  0.12500000000E+03 0.  0.
        -13    1    3    3    0    0  0.19258961288E+02  0.62426625340E+01  0.24538075462E+02  0.31812053326E+02  0.10566000000E+00 0.  1.
         23    2    1    0    0    0 -0.21395421212E+02 -0.17988821868E+02 -0.14815031611E+02  0.93363835210E+02  0.87840530522E+02 0.  0.
         13    1    3    3    0    0 -0.40654382500E+02 -0.24231484402E+02 -0.39353107073E+02  0.61551781884E+02  0.10566000000E+00 0. -1.
         22    1    1    0    0    0  0.21395421212E+02  0.17988821868E+02  0.14815031611E+02  0.31636164790E+02  0.00000000000E+00 0. -1.
</event>
<event>
 4    1  0.1724235E-003  0.9118800E+02  0.7818608E-02  0.1130116E+00
         25   -1    0    0    0    0  0.00000000000E+00  0.00000000000E+00  0.99999998245E-14  0.12500000000E+03  0.12500000000E+03 0.  0.
        -13    1    1    0    0    0 -0.37093337899E+02 -0.43566981244E+02  0.17866563897E+02  0.59943497067E+02  0.10566000000E+00 0. -1.
         13    1    1    0    0    0  0.47181471764E+00  0.10903134995E+02  0.36032877818E+01  0.11493294077E+02  0.10566000000E+00 0.  1.
         22    1    1    0    0    0  0.36621523181E+02  0.32663846248E+02 -0.21469851679E+02  0.53563208856E+02  0.00000000000E+00 0. -1.
</event>
<event>
 5    1  0.1724235E-003  0.9118800E+02  0.7818608E-02  0.1130116E+00
         25   -1    0    0    0    0  0.00000000000E+00  0.00000000000E+00  0.99999998245E-14  0.12500000000E+03  0.12500000000E+03 0.  0.
        -13    1    3    3    0    0 -0.21472487188E+02  0.32790367131E+02  0.29512595414E+02  0.49064043196E+02  0.10566000000E+00 0. -1.
         23    2    1    0    0    0 -0.19113906397E+02  0.15987870854E+02 -0.14454982127E+02  0.96192016029E+02  0.91776925244E+02 0.  0.
         13    1    3    3    0    0  0.23585807913E+01 -0.16802496277E+02 -0.43967577541E+02  0.47127972833E+02  0.10566000000E+00 0.  1.
         22    1    1    0    0    0  0.19113906397E+02 -0.15987870854E+02  0.14454982127E+02  0.28807983971E+02  0.00000000000E+00 0.  1.
</event>
<event>
 5    1  0.1724235E-003  0.9118800E+02  0.7818608E-02  0.1130116E+00
         25   -1    0    0    0    0  0.00000000000E+00  0.00000000000E+00  0.99999998245E-14  0.12500000000E+03  0.12500000000E+03 0.  0.
        -13    1    3    3    0    0  0.20549940575E+02  0.38546809428E+02  0.13226597525E+02  0.45641106700E+02  0.10566000000E+00 0.  1.
         23    2    1    0    0    0  0.25393503977E+02 -0.11312829699E+02  0.83563717232E+01  0.95971753266E+02  0.91476435854E+02 0.  0.
         13    1    3    3    0    0  0.48435634025E+01 -0.49859639128E+02 -0.48702258017E+01  0.50330646566E+02  0.10566000000E+00 0. -1.
         22    1    1    0    0    0 -0.25393503977E+02  0.11312829699E+02 -0.83563717232E+01  0.29028246734E+02  0.00000000000E+00 0. -1.
</event>
<event>
 5    1  0.1724235E-003  0.9118800E+02  0.7818608E-02  0.1130116E+00
         25   -1    0    0    0    0  0.00000000000E+00  0.00000000000E+00  0.99999998245E-14  0.12500000000E+03  0.12500000000E+03 0.  0.
        -13    1    3    3    0    0  0.17705317583E+02  0.14494613523E+02  0.55597298060E+02  0.60121899567E+02  0.10566000000E+00 0. -1.
         23    2    1    0    0    0 -0.40535654115E+01  0.10519304991E+02  0.20395031350E+02  0.10169668535E+03  0.98990763897E+02 0.  0.
         13    1    3    3    0    0 -0.21758882994E+02 -0.39753085319E+01 -0.35202266711E+02  0.41574785780E+02  0.10566000000E+00 0.  1.
         22    1    1    0    0    0  0.40535654115E+01 -0.10519304991E+02 -0.20395031350E+02  0.23303314653E+02  0.00000000000E+00 0. -1.
</event>
<event>
 5    1  0.1724235E-003  0.9118800E+02  0.7818608E-02  0.1130116E+00
         25   -1    0    0    0    0  0.00000000000E+00  0.00000000000E+00  0.99999998245E-14  0.12500000000E+03  0.12500000000E+03 0.  0.
        -13    1    3    3    0    0 -0.21771831542E+02  0.97435390982E+01  0.34203857179E+02  0.41699690800E+02  0.10566000000E+00 0.  1.
         23    2    1    0    0    0 -0.11940897482E+02 -0.20096058750E+02 -0.12885581836E+02  0.98307775867E+02  0.94614713267E+02 0.  0.
         13    1    3    3    0    0  0.98309340604E+01 -0.29839597848E+02 -0.47089439014E+02  0.56608085067E+02  0.10566000000E+00 0. -1.
         22    1    1    0    0    0  0.11940897482E+02  0.20096058750E+02  0.12885581836E+02  0.26692224133E+02  0.00000000000E+00 0. -1.
</event>
<event>
 5    1  0.1724235E-003  0.9118800E+02  0.7818608E-02  0.1130116E+00
         25   -1    0    0    0    0  0.00000000000E+00  0.00000000000E+00  0.99999998245E-14  0.12500000000E+03  0.12500000000E+03 0.  0.
        -13    1    3    3    0    0  0.33116941864E+02  0.33589405617E+02 -0.34906031408E+02  0.58680679962E+02  0.10566000000E+00 0. -1.
         23    2    1    0    0    0 -0.26155652552E+01  0.12520388939E+02 -0.16655982412E+02  0.10399945070E+03  0.10185706983E+03 0.  0.
         13    1    3    3    0    0 -0.35732507119E+02 -0.21069016678E+02  0.18250048997E+02  0.45318770738E+02  0.10566000000E+00 0.  1.
         22    1    1    0    0    0  0.26155652552E+01 -0.12520388939E+02  0.16655982412E+02  0.21000549299E+02  0.00000000000E+00 0. -1.
</event>
<event>
 5    1  0.1724235E-003  0.9118800E+02  0.7818608E-02  0.1130116E+00
         25   -1    0    0    0    0  0.00000000000E+00  0.00000000000E+00  0.99999998245E-14  0.12500000000E+03  0.12500000000E+03 0.  0.
        -13    1    3    3    0    0 -0.11445327615E+02 -0.41434309190E+02  0.31423045738E+02  0.53246750790E+02  0.10566000000E+00 0.  1.
         23    2    1    0    0    0  0.52708827420E+00 -0.28995953322E+02 -0.68217155024E+01  0.95207737019E+02  0.90426402421E+02 0.  0.
         13    1    3    3    0    0  0.11972415889E+02  0.12438355867E+02 -0.38244761241E+02  0.41960986229E+02  0.10566000000E+00 0. -1.
         22    1    1    0    0    0 -0.52708827420E+00  0.28995953322E+02  0.68217155024E+01  0.29792262981E+02  0.00000000000E+00 0.  1.
</event>
<event>
 5    1  0.1724235E-003  0.9118800E+02  0.7818608E-02  0.1130116E+00
         25   -1    0    0    0    0  0.00000000000E+00  0.00000000000E+00  0.99999998245E-14  0.12500000000E+03  0.12500000000E+03 0.  0.
        -13    1    3    3    0    0 -0.46591094816E+01 -0.41251911478E+01  0.42645327434E+02  0.43097095252E+02  0.10566000000E+00 0. -1.
         23    2    1    0    0    0  0.17612532195E+02  0.22818265907E+02  0.28975170434E+01  0.96029840277E+02  0.91555775729E+02 0.  0.
         13    1    3    3    0    0  0.22271641677E+02  0.26943457055E+02 -0.39747810391E+02  0.52932745025E+02  0.10566000000E+00 0.  1.
         22    1    1    0    0    0 -0.17612532195E+02 -0.22818265907E+02 -0.28975170434E+01  0.28970159723E+02  0.00000000000E+00 0.  1.
</event>
<event>
 5    1  0.1724235E-003  0.9118800E+02  0.7818608E-02  0.1130116E+00
         25   -1    0    0    0    0  0.00000000000E+00  0.00000000000E+00  0.99999998245E-14  0.12500000000E+03  0.12500000000E+03 0.  0.
        -13    1    3    3    0    0 -0.39461645073E+01 -0.49185703955E+02 -0.14176818057E+02  0.51340033329E+02  0.10566000000E+00 0. -1.
         23    2    1    0    0    0 -0.19872280223E+02 -0.40575049745E+01 -0.15901749538E+02  0.99227213844E+02  0.95821727499E+02 0.  0.
         13    1    3    3    0    0 -0.15926115716E+02  0.45128198981E+02 -0.17249314806E+01  0.47887180515E+02  0.10566000000E+00 0.  1.
         22    1    1    0    0    0  0.19872280223E+02  0.40575049745E+01  0.15901749538E+02  0.25772786156E+02  0.00000000000E+00 0. -1.
</event>
<event>
 5    1  0.1724235E-003  0.9118800E+02  0.7818608E-02  0.1130116E+00
         25   -1    0    0    0    0  0.00000000000E+00  0.00000000000E+00  0.99999998245E-14  0.12500000000E+03  0.12500000000E+03 0.  0.
        -13    1    3    3    0    0 -0.22574478904E+02  0.25974456421E+02 -0.72706660882E+01  0.35173189130E+02  0.10566000000E+00 0.  1.
         23    2    1    0    0    0  0.21709257440E+02 -0.16580811432E+02  0.32706526321E+01  0.97487960181E+02  0.93525344401E+02 0.  0.
         13    1    3    3    0    0  0.44283736345E+02 -0.42555267854E+02  0.10541318720E+02  0.62314771051E+02  0.10566000000E+00 0. -1.
         22    1    1    0    0    0 -0.21709257440E+02  0.16580811432E+02 -0.32706526321E+01  0.27512039819E+02  0.00000000000E+00 0. -1.
</event>
<event>
 5    1  0.1724235E-003  0.9118800E+02  0.7818608E-02  0.1130116E+00
         25   -1    0    0    0    0  0.00000000000E+00  0.00000000000E+00  0.99999998245E-14  0.12500000000E+03  0.12500000000E+03 0.  0.
        -13    1    3    3    0    0 -0.10291284501E+02  0.40968035012E+02 -0.36854769192E+02  0.56058680021E+02  0.10566000000E+00 0.  1.
         23    2    1    0    0    0 -0.10876910474E+02  0.31319282297E+01 -0.27823553186E+02  0.94962252618E+02  0.90086420477E+02 0.  0.
         13    1    3    3    0    0 -0.58562597360E+00 -0.37836106782E+02  0.90312160062E+01  0.38903572597E+02  0.10566000000E+00 0. -1.
         22    1    1    0    0    0  0.10876910474E+02 -0.31319282297E+01  0.27823553186E+02  0.30037747382E+02  0.00000000000E+00 0.  1.
</event>
<event>
 5    1  0.1724235E-003  0.9118800E+02  0.7818608E-02  0.1130116E+00
         25   -1    0    0    0    0  0.00000000000E+00  0.00000000000E+00  0.99999998245E-14  0.12500000000E+03  0.12500000000E+03 0.  0.
        -13    1    3    3    0    0 -0.45025480706E+02 -0.25376724316E+02  0.24867246132E+01  0.51744246184E+02  0.10566000000E+00 0. -1.
         23    2    1    0    0    0 -0.10956571657E+02 -0.13147976447E+02  0.25244186103E+02  0.94501070853E+02  0.89444215650E+02 0.  0.
         13    1    3    3    0    0  0.34068909049E+02  0.12228747869E+02  0.22757461490E+02  0.42756824668E+02  0.10566000000E+00 0.  1.
         22    1    1    0    0    0  0.10956571657E+02  0.13147976447E+02 -0.25244186103E+02  0.30498929147E+02  0.00000000000E+00 0. -1.
</event>
<event>
 5    1  0.1724235E-003  0.9118800E+02  0.7818608E-02  0.1130116E+00
         25   -1    0    0    0    0  0.00000000000E+00  0.00000000000E+00  0.99999998245E-14  0.12500000000E+03  0.12500000000E+03 0.  0.
        -13    1    3    3    0    0  0.31582636750E+02 -0.30004344438E+02  0.42491530181E+02  0.60854456947E+02  0.10566000000E+00 0.  1.
         23    2    1    0    0    0  0.98616751218E+01 -0.78791608546E+01  0.26287810305E+02  0.95838676597E+02  0.91294409189E+02 0.  0.
         13    1    3    3    0    0 -0.21720961628E+02  0.22125183583E+02 -0.16203719876E+02  0.34984219650E+02  0.10566000000E+00 0. -1.
         22    1    1    0    0    0 -0.98616751218E+01  0.78791608546E+01 -0.26287810305E+02  0.29161323403E+02  0.00000000000E+00 0.  1.
</event>
<event>
 5    1  0.1724235E-003  0.9118800E+02  0.7818608E-02  0.1130116E+00
         25   -1    0    0    0    0  0.00000000000E+00  0.00000000000E+00  0.99999998245E-14  0.12500000000E+03  0.12500000000E+03 0.  0.
        -13    1    3    3    0    0  0.22661049656E+02  0.30925089258E+02  0.34389308106E+01  0.38493138691E+02  0.10566000000E+00 0. -1.
         23    2    1    0    0    0 -0.28762193143E+02  0.67420877801E+01  0.28378722475E+01  0.95322179647E+02  0.90584462860E+02 0.  0.
         13    1    3    3    0    0 -0.51423242800E+02 -0.24183001478E+02 -0.60105856310E+00  0.56829040956E+02  0.10566000000E+00 0.  1.
         22    1    1    0    0    0  0.28762193143E+02 -0.67420877801E+01 -0.28378722475E+01  0.29677820353E+02  0.00000000000E+00 0.  1.
</event>
<event>
 5    1  0.1724235E-003  0.9118800E+02  0.7818608E-02  0.1130116E+00
         25   -1    0    0    0    0  0.00000000000E+00  0.00000000000E+00  0.99999998245E-14  0.12500000000E+03  0.12500000000E+03 0.  0.
        -13    1    3    3    0    0  0.12653667270E+02 -0.37880323709E+02 -0.10659811360E+02  0.41336145949E+02  0.10566000000E+00 0. -1.
         23    2    1    0    0    0 -0.24226799455E+02  0.30593891889E+01 -0.14548746370E+02  0.96575297803E+02  0.92297478031E+02 0.  0.
         13    1    3    3    0    0 -0.36880466725E+02  0.40939712898E+02 -0.38889350095E+01  0.55239151854E+02  0.10566000000E+00 0.  1.
         22    1    1    0    0    0  0.24226799455E+02 -0.30593891889E+01  0.14548746370E+02  0.28424702197E+02  0.00000000000E+00 0.  1.
</event>
<event>
 5    1  0.1724235E-003  0.9118800E+02  0.7818608E-02  0.1130116E+00
         25   -1    0    0    0    0  0.00000000000E+00  0.00000000000E+00  0.99999998245E-14  0.12500000000E+03  0.12500000000E+03 0.  0.
        -13    1    3    3    0    0  0.12589469128E+02 -0.45722614083E+02  0.35716915217E+02  0.59369700759E+02  0.10566000000E+00 0. -1.
         23    2    1    0    0    0  0.18467895729E+02 -0.15902194008E+02  0.12543895485E+02  0.97590288931E+02  0.93662010617E+02 0.  0.
         13    1    3    3    0    0  0.58784266008E+01  0.29820420075E+02 -0.23173019732E+02  0.38220588173E+02  0.10566000000E+00 0.  1.
         22    1    1    0    0    0 -0.18467895729E+02  0.15902194008E+02 -0.12543895485E+02  0.27409711069E+02  0.00000000000E+00 0. -1.
</event>
<event>
 5    1  0.1724235E-003  0.9118800E+02  0.7818608E-02  0.1130116E+00
         25   -1    0    0    0    0  0.00000000000E+00  0.00000000000E+00  0.99999998245E-14  0.12500000000E+03  0.12500000000E+03 0.  0.
        -13    1    3    3    0    0  0.10013527797E+02 -0.47075904196E+02  0.18108072111E+02  0.51423000052E+02  0.10566000000E+00 0. -1.
         23    2    1    0    0    0  0.27077529090E+02 -0.96408579288E+01  0.29195957840E+00  0.96255888192E+02  0.91863877819E+02 0.  0.
         13    1    3    3    0    0  0.17064001293E+02  0.37435046267E+02 -0.17816112532E+02  0.44832888140E+02  0.10566000000E+00 0.  1.
         22    1    1    0    0    0 -0.27077529090E+02  0.96408579288E+01 -0.29195957840E+00  0.28744111808E+02  0.00000000000E+00 0. -1.
</event>
<event>
 5    1  0.1724235E-003  0.9118800E+02  0.7818608E-02  0.1130116E+00
         25   -1    0    0    0    0  0.00000000000E+00  0.00000000000E+00  0.99999998245E-14  0.12500000000E+03  0.12500000000E+03 0.  0.
        -13    1    3    3    0    0  0.50743985907E+02  0.28845182384E+02  0.22023054238E+02  0.62386078050E+02  0.10566000000E+00 0.  1.
         23    2    1    0    0    0  0.22030868942E+02  0.14650722466E+02  0.12002908937E+02  0.95947071093E+02  0.91442702133E+02 0.  0.
         13    1    3    3    0    0 -0.28713116964E+02 -0.14194459918E+02 -0.10020145301E+02  0.33560993044E+02  0.10566000000E+00 0. -1.
         22    1    1    0    0    0 -0.22030868942E+02 -0.14650722466E+02 -0.12002908937E+02  0.29052928907E+02  0.00000000000E+00 0.  1.
</event>
<event>
 5    1  0.1724235E-003  0.9118800E+02  0.7818608E-02  0.1130116E+00
         25   -1    0    0    0    0  0.00000000000E+00  0.00000000000E+00  0.99999998245E-14  0.12500000000E+03  0.12500000000E+03 0.  0.
        -13    1    3    3    0    0  0.77049660820E+01 -0.15782006427E+02  0.34929967508E+02  0.39096700926E+02  0.10566000000E+00 0. -1.
         23    2    1    0    0    0 -0.30935924630E+02  0.53558135246E+01  0.30749506859E+01  0.93453661180E+02  0.87968262999E+02 0.  0.
         13    1    3    3    0    0 -0.38640890712E+02  0.21137819952E+02 -0.31855016822E+02  0.54356960254E+02  0.10566000000E+00 0.  1.
         22    1    1    0    0    0  0.30935924630E+02 -0.53558135246E+01 -0.30749506859E+01  0.31546338820E+02  0.00000000000E+00 0.  1.
</event>
<event>
 5    1  0.1724235E-003  0.9118800E+02  0.7818608E-02  0.1130116E+00
         25   -1    0    0    0    0  0.00000000000E+00  0.00000000000E+00  0.99999998245E-14  0.12500000000E+03  0.12500000000E+03 0.  0.
        -13    1    3    3    0    0 -0.20283476308E+02 -0.17997872912E+02 -0.19908932166E+02  0.33641040182E+02  0.10566000000E+00 0.  1.
         23    2    1    0    0    0  0.26463945578E+02  0.44126950668E+01  0.13144735788E+02  0.95123648612E+02  0.90310088877E+02 0.  0.
         13    1    3    3    0    0  0.46747421886E+02  0.22410567979E+02  0.33053667953E+02  0.61482608430E+02  0.10566000000E+00 0. -1.
         22    1    1    0    0    0 -0.26463945578E+02 -0.44126950668E+01 -0.13144735788E+02  0.29876351388E+02  0.00000000000E+00 0. -1.
</event>
<event>
 5    1  0.1724235E-003  0.9118800E+02  0.7818608E-02  0.1130116E+00
         25   -1    0    0    0    0  0.00000000000E+00  0.00000000000E+00  0.99999998245E-14  0.12500000000E+03  0.12500000000E+03 0.  0.
        -13    1    3    3    0    0  0.21230482094E+02 -0.31461577022E+02 -0.22384104601E+02  0.44063857088E+02  0.10566000000E+00 0.  1.
         23    2    1    0    0    0 -0.20981234749E+02 -0.97314765182E+00 -0.19698997004E+02  0.96203998352E+02  0.91793243695E+02 0.  0.
         13    1    3    3    0    0 -0.42211716843E+02  0.30488429370E+02  0.26851075972E+01  0.52140141265E+02  0.10566000000E+00 0. -1.
         22    1    1    0    0    0  0.20981234749E+02  0.97314765182E+00  0.19698997004E+02  0.28796001648E+02  0.00000000000E+00 0. -1.
</event>
<event>
 5    1  0.1724235E-003  0.9118800E+02  0.7818608E-02  0.1130116E+00
         25   -1    0    0    0    0  0.00000000000E+00  0.00000000000E+00  0.99999998245E-14  0.12500000000E+03  0.12500000000E+03 0.  0.
        -13    1    3    3    0    0 -0.30917382640E+02  0.33717818088E+02 -0.10306712051E+02  0.46893659308E+02  0.10566000000E+00 0. -1.
         23    2    1    0    0    0  0.14716964598E+02  0.25636105442E+02  0.34559736852E+01  0.95238570207E+02  0.90469014319E+02 0.  0.
         13    1    3    3    0    0  0.45634347238E+02 -0.80817126466E+01  0.13762685736E+02  0.48344910899E+02  0.10566000000E+00 0.  1.
         22    1    1    0    0    0 -0.14716964598E+02 -0.25636105442E+02 -0.34559736852E+01  0.29761429793E+02  0.00000000000E+00 0.  1.
</event>
<event>
 5    1  0.1724235E-003  0.9118800E+02  0.7818608E-02  0.1130116E+00
         25   -1    0    0    0    0  0.00000000000E+00  0.00000000000E+00  0.99999998245E-14  0.12500000000E+03  0.12500000000E+03 0.  0.
        -13    1    3    3    0    0  0.21520404191E+02  0.37638515004E+02  0.32352657066E+02  0.54097053446E+02  0.10566000000E+00 0.  1.
         23    2    1    0    0    0  0.26954112836E+02  0.33136378440E+01  0.74849979417E+01  0.96830342766E+02  0.92642245716E+02 0.  0.
         13    1    3    3    0    0  0.54337086448E+01 -0.34324877160E+02 -0.24867659125E+02  0.42733289320E+02  0.10566000000E+00 0. -1.
         22    1    1    0    0    0 -0.26954112836E+02 -0.33136378440E+01 -0.74849979417E+01  0.28169657234E+02  0.00000000000E+00 0.  1.
</event>
<event>
 5    1  0.1724235E-003  0.9118800E+02  0.7818608E-02  0.1130116E+00
         25   -1    0    0    0    0  0.00000000000E+00  0.00000000000E+00  0.99999998245E-14  0.12500000000E+03  0.12500000000E+03 0.  0.
        -13    1    3    3    0    0  0.30185634290E+02  0.51293380154E+02 -0.17702446600E+02  0.62093245565E+02  0.10566000000E+00 0. -1.
         23    2    1    0    0    0  0.18495361062E+02  0.21781966717E+02 -0.96248015890E+01  0.94847566259E+02  0.89927145873E+02 0.  0.
         13    1    3    3    0    0 -0.11690273228E+02 -0.29511413437E+02  0.80776450111E+01  0.32754320695E+02  0.10566000000E+00 0.  1.
         22    1    1    0    0    0 -0.18495361062E+02 -0.21781966717E+02  0.96248015890E+01  0.30152433741E+02  0.00000000000E+00 0. -1.
</event>
<event>
 5    1  0.1724235E-003  0.9118800E+02  0.7818608E-02  0.1130116E+00
         25   -1    0    0    0    0  0.00000000000E+00  0.00000000000E+00  0.99999998245E-14  0.12500000000E+03  0.12500000000E+03 0.  0.
        -13    1    3    3    0    0 -0.33706869356E+02  0.28928761562E+02  0.42411431751E+01  0.44620900336E+02  0.10566000000E+00 0. -1.
         23    2    1    0    0    0  0.41070751081E+01  0.11820643566E+02 -0.26114998104E+02  0.96041602147E+02  0.91571832660E+02 0.  0.
         13    1    3    3    0    0  0.37813944464E+02 -0.17108117996E+02 -0.30356141279E+02  0.51420701811E+02  0.10566000000E+00 0.  1.
         22    1    1    0    0    0 -0.41070751081E+01 -0.11820643566E+02  0.26114998104E+02  0.28958397853E+02  0.00000000000E+00 0.  1.
</event>
<event>
 5    1  0.1724235E-003  0.9118800E+02  0.7818608E-02  0.1130116E+00
         25   -1    0    0    0    0  0.00000000000E+00  0.00000000000E+00  0.99999998245E-14  0.12500000000E+03  0.12500000000E+03 0.  0.
        -13    1    3    3    0    0  0.56979610522E+02 -0.67968071694E+01  0.30008738604E+01  0.57462065843E+02  0.10566000000E+00 0.  1.
         23    2    1    0    0    0  0.18380002215E+02 -0.51353874879E+01  0.17865670510E+02  0.98858483807E+02  0.95339503626E+02 0.  0.
         13    1    3    3    0    0 -0.38599608307E+02  0.16614196814E+01  0.14864796650E+02  0.41396417964E+02  0.10566000000E+00 0. -1.
         22    1    1    0    0    0 -0.18380002215E+02  0.51353874879E+01 -0.17865670510E+02  0.26141516193E+02  0.00000000000E+00 0.  1.
</event>
<event>
 5    1  0.1724235E-003  0.9118800E+02  0.7818608E-02  0.1130116E+00
         25   -1    0    0    0    0  0.00000000000E+00  0.00000000000E+00  0.99999998245E-14  0.12500000000E+03  0.12500000000E+03 0.  0.
        -13    1    3    3    0    0  0.34524939559E+02  0.24124723686E+01 -0.39752307515E+02  0.52707196769E+02  0.10566000000E+00 0.  1.
         23    2    1    0    0    0 -0.83471482724E+01 -0.70904485315E+01 -0.22665400141E+02  0.99827203011E+02  0.96601246125E+02 0.  0.
         13    1    3    3    0    0 -0.42872087831E+02 -0.95029209000E+01  0.17086907374E+02  0.47120006242E+02  0.10566000000E+00 0. -1.
         22    1    1    0    0    0  0.83471482724E+01  0.70904485315E+01  0.22665400141E+02  0.25172796989E+02  0.00000000000E+00 0. -1.
</event>
<event>
 5    1  0.1724235E-003  0.9118800E+02  0.7818608E-02  0.1130116E+00
         25   -1    0    0    0    0  0.00000000000E+00  0.00000000000E+00  0.99999998245E-14  0.12500000000E+03  0.12500000000E+03 0.  0.
        -13    1    3    3    0    0  0.30756454266E+02  0.35361956294E+02  0.10460012169E+02  0.48019271658E+02  0.10566000000E+00 0.  1.
         23    2    1    0    0    0  0.96074904654E+01  0.11649309371E+02 -0.25100801358E+02  0.95707330087E+02  0.91114392505E+02 0.  0.
         13    1    3    3    0    0 -0.21148963801E+02 -0.23712646923E+02 -0.35560813527E+02  0.47688058428E+02  0.10566000000E+00 0. -1.
         22    1    1    0    0    0 -0.96074904654E+01 -0.11649309371E+02  0.25100801358E+02  0.29292669913E+02  0.00000000000E+00 0.  1.
</event>
<event>
 5    1  0.1724235E-003  0.9118800E+02  0.7818608E-02  0.1130116E+00
         25   -1    0    0    0    0  0.00000000000E+00  0.00000000000E+00  0.99999998245E-14  0.12500000000E+03  0.12500000000E+03 0.  0.
        -13    1    3    3    0    0  0.37013349533E+02 -0.40542925533E+02  0.15419735083E+02  0.57021892713E+02  0.10566000000E+00 0. -1.
         23    2    1    0    0    0  0.15909532927E+02 -0.23934772847E+02 -0.10554484136E+02  0.94383277044E+02  0.89279444784E+02 0.  0.
         13    1    3    3    0    0 -0.21103816606E+02  0.16608152686E+02 -0.25974219220E+02  0.37361384331E+02  0.10566000000E+00 0.  1.
         22    1    1    0    0    0 -0.15909532927E+02  0.23934772847E+02  0.10554484136E+02  0.30616722956E+02  0.00000000000E+00 0. -1.
</event>
<event>
 5    1  0.1724235E-003  0.9118800E+02  0.7818608E-02  0.1130116E+00
         25   -1    0    0    0    0  0.00000000000E+00  0.00000000000E+00  0.99999998245E-14  0.12500000000E+03  0.12500000000E+03 0.  0.
        -13    1    3    3    0    0 -0.35429509024E+02  0.26207090491E+02  0.16902924080E+01  0.44101360003E+02  0.10566000000E+00 0.  1.
         23    2    1    0    0    0 -0.19693288098E+02 -0.14527613453E+02  0.21844591660E+02  0.92196595702E+02  0.86163501121E+02 0.  0.
         13    1    3    3    0    0  0.15736220927E+02 -0.40734703944E+02  0.20154299252E+02  0.48095235698E+02  0.10566000000E+00 0. -1.
         22    1    1    0    0    0  0.19693288098E+02  0.14527613453E+02 -0.21844591660E+02  0.32803404298E+02  0.00000000000E+00 0.  1.
</event>
<event>
 5    1  0.1724235E-003  0.9118800E+02  0.7818608E-02  0.1130116E+00
         25   -1    0    0    0    0  0.00000000000E+00  0.00000000000E+00  0.99999998245E-14  0.12500000000E+03  0.12500000000E+03 0.  0.
        -13    1    3    3    0    0 -0.39551413205E+02  0.41910784745E+01  0.29287847439E+02  0.49393001497E+02  0.10566000000E+00 0. -1.
         23    2    1    0    0    0  0.71529851916E+01 -0.36605214928E+01  0.27023720067E+02  0.96806985599E+02  0.92610725079E+02 0.  0.
         13    1    3    3    0    0  0.46704398396E+02 -0.78515999672E+01 -0.22641273713E+01  0.47413984102E+02  0.10566000000E+00 0.  1.
         22    1    1    0    0    0 -0.71529851916E+01  0.36605214928E+01 -0.27023720067E+02  0.28193014401E+02  0.00000000000E+00 0.  1.
</event>
<event>
 5    1  0.1724235E-003  0.9118800E+02  0.7818608E-02  0.1130116E+00
         25   -1    0    0    0    0  0.00000000000E+00  0.00000000000E+00  0.99999998245E-14  0.12500000000E+03  0.12500000000E+03 0.  0.
        -13    1    3    3    0    0  0.15460413545E+02 -0.66048804442E+01  0.41569247358E+02  0.44840409483E+02  0.10566000000E+00 0.  1.
         23    2    1    0    0    0 -0.16379386602E+02 -0.24060385760E+02  0.68079685477E+01  0.95107945803E+02  0.90288351690E+02 0.  0.
         13    1    3    3    0    0 -0.31839800147E+02 -0.17455505315E+02 -0.34761278810E+02  0.50267536321E+02  0.10566000000E+00 0. -1.
         22    1    1    0    0    0  0.16379386602E+02  0.24060385760E+02 -0.68079685477E+01  0.29892054197E+02  0.00000000000E+00 0. -1.
</event>
<event>
 5    1  0.1724235E-003  0.9118800E+02  0.7818608E-02  0.1130116E+00
         25   -1    0    0    0    0  0.00000000000E+00  0.00000000000E+00  0.99999998245E-14  0.12500000000E+03  0.12500000000E+03 0.  0.
        -13    1    3    3    0    0  0.26358502005E+02  0.20068835572E+02  0.22676376259E+01  0.33206657971E+02  0.10566000000E+00 0. -1.
         23    2    1    0    0    0 -0.20757661242E+02 -0.20728747207E+02  0.27763774164E+01  0.95533582970E+02  0.90875715912E+02 0.  0.
         13    1    3    3    0    0 -0.47116163247E+02 -0.40797582779E+02  0.50873979052E+00  0.62326925000E+02  0.10566000000E+00 0.  1.
         22    1    1    0    0    0  0.20757661242E+02  0.20728747207E+02 -0.27763774164E+01  0.29466417030E+02  0.00000000000E+00 0.  1.
</event>
<event>
 5    1  0.1724235E-003  0.9118800E+02  0.7818608E-02  0.1130116E+00
         25   -1    0    0    0    0  0.00000000000E+00  0.00000000000E+00  0.99999998245E-14  0.12500000000E+03  0.12500000000E+03 0.  0.
        -13    1    3    3    0    0  0.61534931246E+02 -0.24571754084E+01 -0.32699658748E+01  0.61670814129E+02  0.10566000000E+00 0. -1.
         23    2    1    0    0    0  0.27402267197E+02 -0.67981473276E+01 -0.58217594571E+01  0.96173069227E+02  0.91751116106E+02 0.  0.
         13    1    3    3    0    0 -0.34132664049E+02 -0.43409719191E+01 -0.25517935824E+01  0.34502255098E+02  0.10566000000E+00 0.  1.
         22    1    1    0    0    0 -0.27402267197E+02  0.67981473276E+01  0.58217594571E+01  0.28826930773E+02  0.00000000000E+00 0. -1.
</event>
<event>
 5    1  0.1724235E-003  0.9118800E+02  0.7818608E-02  0.1130116E+00
         25   -1    0    0    0    0  0.00000000000E+00  0.00000000000E+00  0.99999998245E-14  0.12500000000E+03  0.12500000000E+03 0.  0.
        -13    1    3    3    0    0  0.10520780861E+02 -0.91612232015E+01  0.30966739852E+02  0.33964172028E+02  0.10566000000E+00 0.  1.
         23    2    1    0    0    0 -0.17124983734E+02  0.14687277005E+02 -0.18762249617E+02  0.95657144235E+02  0.91045516413E+02 0.  0.
         13    1    3    3    0    0 -0.27645764595E+02  0.23848500207E+02 -0.49728989469E+02  0.61692972207E+02  0.10566000000E+00 0. -1.
         22    1    1    0    0    0  0.17124983734E+02 -0.14687277005E+02  0.18762249617E+02  0.29342855765E+02  0.00000000000E+00 0. -1.
</event>
<event>
 5    1  0.1724235E-003  0.9118800E+02  0.7818608E-02  0.1130116E+00
         25   -1    0    0    0    0  0.00000000000E+00  0.00000000000E+00  0.99999998245E-14  0.12500000000E+03  0.12500000000E+03 0.  0.
        -13    1    3    3    0    0  0.96964296175E+01 -0.20623182395E+02  0.17150959468E+02  0.28521973532E+02  0.10566000000E+00 0.  1.
         23    2    1    0    0    0 -0.10430744023E+02 -0.97369344984E+01 -0.35938166820E+02  0.86332699232E+02  0.77189214324E+02 0.  0.
         13    1    3    3    0    0 -0.20127173640E+02  0.10886247897E+02 -0.53089126288E+02  0.57810725701E+02  0.10566000000E+00 0. -1.
         22    1    1    0    0    0  0.10430744023E+02  0.97369344984E+01  0.35938166820E+02  0.38667300768E+02  0.00000000000E+00 0. -1.
</event>
<event>
 4    1  0.1724235E-003  0.9118800E+02  0.7818608E-02  0.1130116E+00
         25   -1    0    0    0    0  0.00000000000E+00  0.00000000000E+00  0.99999998245E-14  0.12500000000E+03  0.12500000000E+03 0.  0.
        -13    1    1    0    0    0  0.46431096044E+01  0.11316936913E+02  0.47370434842E+01  0.13118013298E+02  0.10566000000E+00 0. -1.
         13    1    1    0    0    0 -0.21468464670E+02 -0.43309506302E+02  0.33847354285E+02  0.59010701297E+02  0.10566000000E+00 0.  1.
         22    1    1    0    0    0  0.16825355065E+02  0.31992569390E+02 -0.38584397769E+02  0.52871285405E+02  0.00000000000E+00 0.  1.
</event>
<event>
 5    1  0.1724235E-003  0.9118800E+02  0.7818608E-02  0.1130116E+00
         25   -1    0    0    0    0  0.00000000000E+00  0.00000000000E+00  0.99999998245E-14  0.12500000000E+03  0.12500000000E+03 0.  0.
        -13    1    3    3    0    0  0.31287902696E+02  0.87867314178E+01  0.25367147783E+02  0.41226725007E+02  0.10566000000E+00 0.  1.
         23    2    1    0    0    0 -0.22940486469E+02  0.69878862676E+01  0.15692372729E+02  0.96340847260E+02  0.91979409734E+02 0.  0.
         13    1    3    3    0    0 -0.54228389165E+02 -0.17988451502E+01 -0.96747750542E+01  0.55114122253E+02  0.10566000000E+00 0. -1.
         22    1    1    0    0    0  0.22940486469E+02 -0.69878862676E+01 -0.15692372729E+02  0.28659152740E+02  0.00000000000E+00 0. -1.
</event>
<event>
 5    1  0.1724235E-003  0.9118800E+02  0.7818608E-02  0.1130116E+00
         25   -1    0    0    0    0  0.00000000000E+00  0.00000000000E+00  0.99999998245E-14  0.12500000000E+03  0.12500000000E+03 0.  0.
        -13    1    3    3    0    0  0.29125031638E+02  0.29638363628E+02 -0.43729445303E+02  0.60323922427E+02  0.10566000000E+00 0. -1.
         23    2    1    0    0    0  0.21800571771E+01  0.11186351316E+02 -0.23877753647E+02  0.98541840119E+02  0.94923442993E+02 0.  0.
         13    1    3    3    0    0 -0.26944974461E+02 -0.18452012312E+02  0.19851691656E+02  0.38217917692E+02  0.10566000000E+00 0.  1.
         22    1    1    0    0    0 -0.21800571771E+01 -0.11186351316E+02  0.23877753647E+02  0.26458159881E+02  0.00000000000E+00 0. -1.
</event>
<event>
 5    1  0.1724235E-003  0.9118800E+02  0.7818608E-02  0.1130116E+00
         25   -1    0    0    0    0  0.00000000000E+00  0.00000000000E+00  0.99999998245E-14  0.12500000000E+03  0.12500000000E+03 0.  0.
        -13    1    3    3    0    0  0.89887057876E+01  0.20585342546E+01 -0.60780773619E+02  0.61476401983E+02  0.10566000000E+00 0.  1.
         23    2    1    0    0    0 -0.38758537518E+01 -0.56215376494E-01 -0.27640690588E+02  0.97088834158E+02  0.92990367993E+02 0.  0.
         13    1    3    3    0    0 -0.12864559539E+02 -0.21147496311E+01  0.33140083030E+02  0.35612432175E+02  0.10566000000E+00 0. -1.
         22    1    1    0    0    0  0.38758537518E+01  0.56215376494E-01  0.27640690588E+02  0.27911165842E+02  0.00000000000E+00 0.  1.
</event>
<event>
 5    1  0.1724235E-003  0.9118800E+02  0.7818608E-02  0.1130116E+00
         25   -1    0    0    0    0  0.00000000000E+00  0.00000000000E+00  0.99999998245E-14  0.12500000000E+03  0.12500000000E+03 0.  0.
        -13    1    3    3    0    0  0.28068350519E+02 -0.19546274063E+02  0.15359942023E+01  0.34238276429E+02  0.10566000000E+00 0.  1.
         23    2    1    0    0    0 -0.21039835542E+02  0.18975316613E+02  0.21024861717E+00  0.96666600545E+02  0.92421048123E+02 0.  0.
         13    1    3    3    0    0 -0.49108186061E+02  0.38521590677E+02 -0.13257455851E+01  0.62428324115E+02  0.10566000000E+00 0. -1.
         22    1    1    0    0    0  0.21039835542E+02 -0.18975316613E+02 -0.21024861717E+00  0.28333399455E+02  0.00000000000E+00 0. -1.
</event>
<event>
 5    1  0.1724235E-003  0.9118800E+02  0.7818608E-02  0.1130116E+00
         25   -1    0    0    0    0  0.00000000000E+00  0.00000000000E+00  0.99999998245E-14  0.12500000000E+03  0.12500000000E+03 0.  0.
        -13    1    3    3    0    0  0.42988008334E+02 -0.18758846748E+02 -0.36663037091E+02  0.59531946421E+02  0.10566000000E+00 0. -1.
         23    2    1    0    0    0  0.35328804616E+02 -0.13961011209E+02 -0.13020604591E+02  0.84843177248E+02  0.74738171720E+02 0.  0.
         13    1    3    3    0    0 -0.76592037180E+01  0.47978355389E+01  0.23642432500E+02  0.25311230827E+02  0.10566000000E+00 0.  1.
         22    1    1    0    0    0 -0.35328804616E+02  0.13961011209E+02  0.13020604591E+02  0.40156822752E+02  0.00000000000E+00 0. -1.
</event>
<event>
 5    1  0.1724235E-003  0.9118800E+02  0.7818608E-02  0.1130116E+00
         25   -1    0    0    0    0  0.00000000000E+00  0.00000000000E+00  0.99999998245E-14  0.12500000000E+03  0.12500000000E+03 0.  0.
        -13    1    3    3    0    0 -0.34136205336E+02  0.22815114061E+02 -0.34417570181E+02  0.53576023047E+02  0.10566000000E+00 0.  1.
         23    2    1    0    0    0  0.76640393653E+00 -0.14006134488E+01 -0.28486599747E+02  0.96468693367E+02  0.92152988783E+02 0.  0.
         13    1    3    3    0    0  0.34902609272E+02 -0.24215727509E+02  0.59309704339E+01  0.42892670320E+02  0.10566000000E+00 0. -1.
         22    1    1    0    0    0 -0.76640393653E+00  0.14006134488E+01  0.28486599747E+02  0.28531306633E+02  0.00000000000E+00 0.  1.
</event>
<event>
 5    1  0.1724235E-003  0.9118800E+02  0.7818608E-02  0.1130116E+00
         25   -1    0    0    0    0  0.00000000000E+00  0.00000000000E+00  0.99999998245E-14  0.12500000000E+03  0.12500000000E+03 0.  0.
        -13    1    3    3    0    0 -0.31955167743E+02  0.13591374056E+01  0.38906048175E+02  0.50365382443E+02  0.10566000000E+00 0. -1.
         23    2    1    0    0    0 -0.30495396093E+02  0.45286593931E+01 -0.44402718109E+01  0.93852063431E+02  0.88532569474E+02 0.  0.
         13    1    3    3    0    0  0.14597716500E+01  0.31695219875E+01 -0.43346319986E+02  0.43486680987E+02  0.10566000000E+00 0.  1.
         22    1    1    0    0    0  0.30495396093E+02 -0.45286593931E+01  0.44402718109E+01  0.31147936569E+02  0.00000000000E+00 0. -1.
</event>
<event>
 5    1  0.1724235E-003  0.9118800E+02  0.7818608E-02  0.1130116E+00
         25   -1    0    0    0    0  0.00000000000E+00  0.00000000000E+00  0.99999998245E-14  0.12500000000E+03  0.12500000000E+03 0.  0.
        -13    1    3    3    0    0  0.65760145368E+01  0.32440514535E+02  0.11527432692E+02  0.35050304121E+02  0.10566000000E+00 0. -1.
         23    2    1    0    0    0 -0.22200424425E+02 -0.14719630662E+02 -0.12837504677E+02  0.95430963867E+02  0.90734453031E+02 0.  0.
         13    1    3    3    0    0 -0.28776438962E+02 -0.47160145197E+02 -0.24364937369E+02  0.60380659746E+02  0.10566000000E+00 0.  1.
         22    1    1    0    0    0  0.22200424425E+02  0.14719630662E+02  0.12837504677E+02  0.29569036133E+02  0.00000000000E+00 0.  1.
</event>
<event>
 5    1  0.1724235E-003  0.9118800E+02  0.7818608E-02  0.1130116E+00
         25   -1    0    0    0    0  0.00000000000E+00  0.00000000000E+00  0.99999998245E-14  0.12500000000E+03  0.12500000000E+03 0.  0.
        -13    1    3    3    0    0 -0.24661873229E+02  0.28746017828E+02  0.84918779197E+01  0.38815778838E+02  0.10566000000E+00 0.  1.
         23    2    1    0    0    0  0.14131941843E+02  0.11506524263E+01 -0.24468908400E+02  0.96719914082E+02  0.92493126882E+02 0.  0.
         13    1    3    3    0    0  0.38793815072E+02 -0.27595365402E+02 -0.32960786320E+02  0.57904135244E+02  0.10566000000E+00 0. -1.
         22    1    1    0    0    0 -0.14131941843E+02 -0.11506524263E+01  0.24468908400E+02  0.28280085918E+02  0.00000000000E+00 0. -1.
</event>
<event>
 5    1  0.1724235E-003  0.9118800E+02  0.7818608E-02  0.1130116E+00
         25   -1    0    0    0    0  0.00000000000E+00  0.00000000000E+00  0.99999998245E-14  0.12500000000E+03  0.12500000000E+03 0.  0.
        -13    1    3    3    0    0  0.84867908237E+01 -0.22711653011E+01 -0.36259033316E+02  0.37308343187E+02  0.10566000000E+00 0.  1.
         23    2    1    0    0    0  0.81355883670E+01 -0.12675112408E+02  0.23017831658E+02  0.97492422010E+02  0.93531307606E+02 0.  0.
         13    1    3    3    0    0 -0.35120245678E+00 -0.10403947107E+02  0.59276864974E+02  0.60184078823E+02  0.10566000000E+00 0. -1.
         22    1    1    0    0    0 -0.81355883670E+01  0.12675112408E+02 -0.23017831658E+02  0.27507577990E+02  0.00000000000E+00 0. -1.
</event>
<event>
 5    1  0.1724235E-003  0.9118800E+02  0.7818608E-02  0.1130116E+00
         25   -1    0    0    0    0  0.00000000000E+00  0.00000000000E+00  0.99999998245E-14  0.12500000000E+03  0.12500000000E+03 0.  0.
        -13    1    3    3    0    0 -0.10656191223E+02  0.46490242536E+02  0.13928332471E+02  0.49688093865E+02  0.10566000000E+00 0. -1.
         23    2    1    0    0    0 -0.15121918595E+02  0.27718992451E+01  0.25582757471E+02  0.95153168891E+02  0.90350939247E+02 0.  0.
         13    1    3    3    0    0 -0.44657273725E+01 -0.43718343291E+02  0.11654425000E+02  0.45465075027E+02  0.10566000000E+00 0.  1.
         22    1    1    0    0    0  0.15121918595E+02 -0.27718992451E+01 -0.25582757471E+02  0.29846831109E+02  0.00000000000E+00 0. -1.
</event>
<event>
 5    1  0.1724235E-003  0.9118800E+02  0.7818608E-02  0.1130116E+00
         25   -1    0    0    0    0  0.00000000000E+00  0.00000000000E+00  0.99999998245E-14  0.12500000000E+03  0.12500000000E+03 0.  0.
        -13    1    3    3    0    0 -0.72594010907E+01  0.34747425706E+02  0.11870856137E+02  0.37430079973E+02  0.10566000000E+00 0.  1.
         23    2    1    0    0    0  0.23196114274E+02 -0.15010559883E+02  0.93798329495E+01  0.95821962171E+02  0.91271520984E+02 0.  0.
         13    1    3    3    0    0  0.30455515365E+02 -0.49757985589E+02 -0.24910231875E+01  0.58391882197E+02  0.10566000000E+00 0. -1.
         22    1    1    0    0    0 -0.23196114274E+02  0.15010559883E+02 -0.93798329495E+01  0.29178037829E+02  0.00000000000E+00 0. -1.
</event>
<event>
 5    1  0.1724235E-003  0.9118800E+02  0.7818608E-02  0.1130116E+00
         25   -1    0    0    0    0  0.00000000000E+00  0.00000000000E+00  0.99999998245E-14  0.12500000000E+03  0.12500000000E+03 0.  0.
        -13    1    3    3    0    0  0.33686548727E+02 -0.31282176921E+02 -0.27513004761E+02  0.53575505159E+02  0.10566000000E+00 0. -1.
         23    2    1    0    0    0  0.23732016709E+02 -0.13948601198E+02  0.96967690293E+01  0.95814397007E+02  0.91261159602E+02 0.  0.
         13    1    3    3    0    0 -0.99545320181E+01  0.17333575723E+02  0.37209773790E+02  0.42238891848E+02  0.10566000000E+00 0.  1.
         22    1    1    0    0    0 -0.23732016709E+02  0.13948601198E+02 -0.96967690293E+01  0.29185602993E+02  0.00000000000E+00 0.  1.
</event>
<event>
 5    1  0.1724235E-003  0.9118800E+02  0.7818608E-02  0.1130116E+00
         25   -1    0    0    0    0  0.00000000000E+00  0.00000000000E+00  0.99999998245E-14  0.12500000000E+03  0.12500000000E+03 0.  0.
        -13    1    3    3    0    0 -0.41828933234E+02  0.30721606092E+02 -0.23385418810E+02  0.56924210256E+02  0.10566000000E+00 0.  1.
         23    2    1    0    0    0 -0.31797985059E+01  0.23795272608E+02 -0.13672742520E+02  0.97372658378E+02  0.93371112206E+02 0.  0.
         13    1    3    3    0    0  0.38649134728E+02 -0.69263334838E+01  0.97126762891E+01  0.40448448122E+02  0.10566000000E+00 0. -1.
         22    1    1    0    0    0  0.31797985059E+01 -0.23795272608E+02  0.13672742520E+02  0.27627341622E+02  0.00000000000E+00 0. -1.
</event>
<event>
 5    1  0.1724235E-003  0.9118800E+02  0.7818608E-02  0.1130116E+00
         25   -1    0    0    0    0  0.00000000000E+00  0.00000000000E+00  0.99999998245E-14  0.12500000000E+03  0.12500000000E+03 0.  0.
        -13    1    3    3    0    0  0.55984782924E+02  0.63971220189E+01 -0.24502708052E+02  0.61446016592E+02  0.10566000000E+00 0. -1.
         23    2    1    0    0    0  0.27846053101E+02 -0.33795859003E+01 -0.17125983313E+02  0.92134766415E+02  0.86073756766E+02 0.  0.
         13    1    3    3    0    0 -0.28138729823E+02 -0.97767079192E+01  0.73767247393E+01  0.30688749823E+02  0.10566000000E+00 0.  1.
         22    1    1    0    0    0 -0.27846053101E+02  0.33795859003E+01  0.17125983313E+02  0.32865233585E+02  0.00000000000E+00 0. -1.
</event>
<event>
 5    1  0.1724235E-003  0.9118800E+02  0.7818608E-02  0.1130116E+00
         25   -1    0    0    0    0  0.00000000000E+00  0.00000000000E+00  0.99999998245E-14  0.12500000000E+03  0.12500000000E+03 0.  0.
        -13    1    3    3    0    0  0.30433783039E+02 -0.17167137715E+02  0.78959947344E+01  0.35822948849E+02  0.10566000000E+00 0.  1.
         23    2    1    0    0    0 -0.99976919353E+01  0.26555776386E+02  0.85036959797E+01  0.95377779475E+02  0.90661154133E+02 0.  0.
         13    1    3    3    0    0 -0.40431474974E+02  0.43722914101E+02  0.60770124534E+00  0.59554830626E+02  0.10566000000E+00 0. -1.
         22    1    1    0    0    0  0.99976919353E+01 -0.26555776386E+02 -0.85036959797E+01  0.29622220525E+02  0.00000000000E+00 0. -1.
</event>
<event>
 5    1  0.1724235E-003  0.9118800E+02  0.7818608E-02  0.1130116E+00
         25   -1    0    0    0    0  0.00000000000E+00  0.00000000000E+00  0.99999998245E-14  0.12500000000E+03  0.12500000000E+03 0.  0.
        -13    1    3    3    0    0 -0.21526176352E+02  0.46123605132E+02 -0.26225549429E+02  0.57258657211E+02  0.10566000000E+00 0.  1.
         23    2    1    0    0    0 -0.15663498274E+02  0.23821869641E+02  0.49782791340E+01  0.96058508772E+02  0.91594908117E+02 0.  0.
         13    1    3    3    0    0  0.58626780773E+01 -0.22301735491E+02  0.31203828563E+02  0.38799851561E+02  0.10566000000E+00 0. -1.
         22    1    1    0    0    0  0.15663498274E+02 -0.23821869641E+02 -0.49782791340E+01  0.28941491228E+02  0.00000000000E+00 0. -1.
</event>
<event>
 5    1  0.1724235E-003  0.9118800E+02  0.7818608E-02  0.1130116E+00
         25   -1    0    0    0    0  0.00000000000E+00  0.00000000000E+00  0.99999998245E-14  0.12500000000E+03  0.12500000000E+03 0.  0.
        -13    1    3    3    0    0 -0.97275475440E+01  0.34750961273E+02 -0.21076653424E+02  0.41791039402E+02  0.10566000000E+00 0.  1.
         23    2    1    0    0    0  0.22359047170E+02 -0.97937712219E+00  0.11516663741E+02  0.99830182487E+02  0.96605101427E+02 0.  0.
         13    1    3    3    0    0  0.32086594714E+02 -0.35730338396E+02  0.32593317166E+02  0.58039143086E+02  0.10566000000E+00 0. -1.
         22    1    1    0    0    0 -0.22359047170E+02  0.97937712219E+00 -0.11516663741E+02  0.25169817513E+02  0.00000000000E+00 0. -1.
</event>
<event>
 5    1  0.1724235E-003  0.9118800E+02  0.7818608E-02  0.1130116E+00
         25   -1    0    0    0    0  0.00000000000E+00  0.00000000000E+00  0.99999998245E-14  0.12500000000E+03  0.12500000000E+03 0.  0.
        -13    1    3    3    0    0 -0.11292865542E+01  0.21182256851E+02 -0.30413276453E+02  0.37080208225E+02  0.10566000000E+00 0. -1.
         23    2    1    0    0    0  0.82911968186E+01 -0.28290486692E+02 -0.78866384932E+00  0.95509025573E+02  0.90841930810E+02 0.  0.
         13    1    3    3    0    0  0.94204833729E+01 -0.49472743544E+02  0.29624612603E+02  0.58428817348E+02  0.10566000000E+00 0.  1.
         22    1    1    0    0    0 -0.82911968186E+01  0.28290486692E+02  0.78866384932E+00  0.29490974427E+02  0.00000000000E+00 0.  1.
</event>
<event>
 5    1  0.1724235E-003  0.9118800E+02  0.7818608E-02  0.1130116E+00
         25   -1    0    0    0    0  0.00000000000E+00  0.00000000000E+00  0.99999998245E-14  0.12500000000E+03  0.12500000000E+03 0.  0.
        -13    1    3    3    0    0  0.19885829901E+02  0.39633447659E+02  0.43310744494E+01  0.44553628069E+02  0.10566000000E+00 0. -1.
         23    2    1    0    0    0 -0.18117359262E+02  0.85529756001E+01  0.20591050571E+02  0.96270512328E+02  0.91883774857E+02 0.  0.
         13    1    3    3    0    0 -0.38003189163E+02 -0.31080472059E+02  0.16259976122E+02  0.51716884259E+02  0.10566000000E+00 0.  1.
         22    1    1    0    0    0  0.18117359262E+02 -0.85529756001E+01 -0.20591050571E+02  0.28729487672E+02  0.00000000000E+00 0.  1.
</event>
<event>
 5    1  0.1724235E-003  0.9118800E+02  0.7818608E-02  0.1130116E+00
         25   -1    0    0    0    0  0.00000000000E+00  0.00000000000E+00  0.99999998245E-14  0.12500000000E+03  0.12500000000E+03 0.  0.
        -13    1    3    3    0    0  0.49455753383E+02  0.95929914523E+00 -0.34164063615E+02  0.60116438719E+02  0.10566000000E+00 0.  1.
         23    2    1    0    0    0  0.28395624987E+02 -0.36042630602E+01 -0.57050302481E+01  0.95813537372E+02  0.91259982155E+02 0.  0.
         13    1    3    3    0    0 -0.21060128396E+02 -0.45635622054E+01  0.28459033367E+02  0.35697098653E+02  0.10566000000E+00 0. -1.
         22    1    1    0    0    0 -0.28395624987E+02  0.36042630602E+01  0.57050302481E+01  0.29186462628E+02  0.00000000000E+00 0.  1.
</event>
<event>
 5    1  0.1724235E-003  0.9118800E+02  0.7818608E-02  0.1130116E+00
         25   -1    0    0    0    0  0.00000000000E+00  0.00000000000E+00  0.99999998245E-14  0.12500000000E+03  0.12500000000E+03 0.  0.
        -13    1    3    3    0    0 -0.99820518072E+01 -0.43877059072E+02  0.32828424532E+02  0.55700577128E+02  0.10566000000E+00 0.  1.
         23    2    1    0    0    0 -0.66939187980E+00 -0.50588684565E+01  0.28718825319E+02  0.95831332508E+02  0.91284353134E+02 0.  0.
         13    1    3    3    0    0  0.93126599274E+01  0.38818190616E+02 -0.41095992133E+01  0.40130755380E+02  0.10566000000E+00 0. -1.
         22    1    1    0    0    0  0.66939187980E+00  0.50588684565E+01 -0.28718825319E+02  0.29168667492E+02  0.00000000000E+00 0.  1.
</event>
<event>
 5    1  0.1724235E-003  0.9118800E+02  0.7818608E-02  0.1130116E+00
         25   -1    0    0    0    0  0.00000000000E+00  0.00000000000E+00  0.99999998245E-14  0.12500000000E+03  0.12500000000E+03 0.  0.
        -13    1    3    3    0    0 -0.26987649250E+02 -0.68639602124E+01  0.21103233309E+02  0.34940016914E+02  0.10566000000E+00 0. -1.
         23    2    1    0    0    0  0.29890268179E+02 -0.31949172234E+00  0.31482059869E+01  0.94942697930E+02  0.90059283156E+02 0.  0.
         13    1    3    3    0    0  0.56877917429E+02  0.65444684901E+01 -0.17955027323E+02  0.60002681016E+02  0.10566000000E+00 0.  1.
         22    1    1    0    0    0 -0.29890268179E+02  0.31949172234E+00 -0.31482059869E+01  0.30057302070E+02  0.00000000000E+00 0.  1.
</event>
<event>
 5    1  0.1724235E-003  0.9118800E+02  0.7818608E-02  0.1130116E+00
         25   -1    0    0    0    0  0.00000000000E+00  0.00000000000E+00  0.99999998245E-14  0.12500000000E+03  0.12500000000E+03 0.  0.
        -13    1    3    3    0    0  0.26342723552E+02  0.22885043915E+02 -0.30377497506E+02  0.46265190347E+02  0.10566000000E+00 0.  1.
         23    2    1    0    0    0  0.13208297756E+02 -0.22014901316E+02 -0.13463560956E+02  0.96010648797E+02  0.91529570081E+02 0.  0.
         13    1    3    3    0    0 -0.13134425796E+02 -0.44899945231E+02  0.16913936550E+02  0.49745458450E+02  0.10566000000E+00 0. -1.
         22    1    1    0    0    0 -0.13208297756E+02  0.22014901316E+02  0.13463560956E+02  0.28989351203E+02  0.00000000000E+00 0. -1.
</event>
<event>
 5    1  0.1724235E-003  0.9118800E+02  0.7818608E-02  0.1130116E+00
         25   -1    0    0    0    0  0.00000000000E+00  0.00000000000E+00  0.99999998245E-14  0.12500000000E+03  0.12500000000E+03 0.  0.
        -13    1    3    3    0    0 -0.17793155823E+02  0.43727560554E+02  0.37978326768E+02  0.60589276397E+02  0.10566000000E+00 0. -1.
         23    2    1    0    0    0 -0.49810617068E+01  0.11626167923E+02  0.23996797976E+02  0.97873904273E+02  0.94039757913E+02 0.  0.
         13    1    3    3    0    0  0.12812094116E+02 -0.32101392631E+02 -0.13981528792E+02  0.37284627877E+02  0.10566000000E+00 0.  1.
         22    1    1    0    0    0  0.49810617068E+01 -0.11626167923E+02 -0.23996797976E+02  0.27126095727E+02  0.00000000000E+00 0. -1.
</event>
<event>
 5    1  0.1724235E-003  0.9118800E+02  0.7818608E-02  0.1130116E+00
         25   -1    0    0    0    0  0.00000000000E+00  0.00000000000E+00  0.99999998245E-14  0.12500000000E+03  0.12500000000E+03 0.  0.
        -13    1    3    3    0    0  0.46446845183E+02 -0.93339945433E+01 -0.30648615756E+02  0.56425009467E+02  0.10566000000E+00 0.  1.
         23    2    1    0    0    0  0.38813118801E+02 -0.38247878495E+01 -0.27127413154E+01  0.85904652981E+02  0.76492896697E+02 0.  0.
         13    1    3    3    0    0 -0.76337263827E+01  0.55092066938E+01  0.27935874440E+02  0.29479643513E+02  0.10566000000E+00 0. -1.
         22    1    1    0    0    0 -0.38813118801E+02  0.38247878495E+01  0.27127413154E+01  0.39095347019E+02  0.00000000000E+00 0.  1.
</event>
<event>
 5    1  0.1724235E-003  0.9118800E+02  0.7818608E-02  0.1130116E+00
         25   -1    0    0    0    0  0.00000000000E+00  0.00000000000E+00  0.99999998245E-14  0.12500000000E+03  0.12500000000E+03 0.  0.
        -13    1    3    3    0    0 -0.19783946651E+02 -0.54118145588E+02 -0.77971408702E+01  0.58146236308E+02  0.10566000000E+00 0. -1.
         23    2    1    0    0    0 -0.23697802342E+02 -0.18390038621E+02  0.35684394869E+00  0.95001555141E+02  0.90140938454E+02 0.  0.
         13    1    3    3    0    0 -0.39138556913E+01  0.35728106967E+02  0.81539848188E+01  0.36855318833E+02  0.10566000000E+00 0.  1.
         22    1    1    0    0    0  0.23697802342E+02  0.18390038621E+02 -0.35684394869E+00  0.29998444859E+02  0.00000000000E+00 0. -1.
</event>
<event>
 4    1  0.1724235E-003  0.9118800E+02  0.7818608E-02  0.1130116E+00
         25   -1    0    0    0    0  0.00000000000E+00  0.00000000000E+00  0.99999998245E-14  0.12500000000E+03  0.12500000000E+03 0.  0.
        -13    1    1    0    0    0 -0.82943054193E+01  0.19131865301E+02  0.12505620087E+02  0.24315128420E+02  0.10566000000E+00 0.  1.
         13    1    1    0    0    0  0.76625601687E+01  0.35253948923E+02 -0.26212977775E+02  0.44594698237E+02  0.10566000000E+00 0. -1.
         22    1    1    0    0    0  0.63174525057E+00 -0.54385814224E+02  0.13707357689E+02  0.56090173343E+02  0.00000000000E+00 0. -1.
</event>
<event>
 5    1  0.1724235E-003  0.9118800E+02  0.7818608E-02  0.1130116E+00
         25   -1    0    0    0    0  0.00000000000E+00  0.00000000000E+00  0.99999998245E-14  0.12500000000E+03  0.12500000000E+03 0.  0.
        -13    1    3    3    0    0  0.10045763682E+01 -0.39794395423E+02  0.12445682233E+02  0.41707424412E+02  0.10566000000E+00 0.  1.
         23    2    1    0    0    0  0.20396190774E+02  0.90867364192E+01  0.20232718123E+02  0.94868019324E+02  0.89955571428E+02 0.  0.
         13    1    3    3    0    0  0.19391614405E+02  0.48881131842E+02  0.77870358898E+01  0.53160594912E+02  0.10566000000E+00 0. -1.
         22    1    1    0    0    0 -0.20396190774E+02 -0.90867364192E+01 -0.20232718123E+02  0.30131980676E+02  0.00000000000E+00 0. -1.
</event>
<event>
 5    1  0.1724235E-003  0.9118800E+02  0.7818608E-02  0.1130116E+00
         25   -1    0    0    0    0  0.00000000000E+00  0.00000000000E+00  0.99999998245E-14  0.12500000000E+03  0.12500000000E+03 0.  0.
        -13    1    3    3    0    0  0.24610259822E+02  0.13593392458E+02  0.45565736794E+02  0.53541504841E+02  0.10566000000E+00 0.  1.
         23    2    1    0    0    0  0.27410009977E+02 -0.15106663376E+01  0.47655371360E+01  0.97137819470E+02  0.93056191988E+02 0.  0.
         13    1    3    3    0    0  0.27997501553E+01 -0.15104058795E+02 -0.40800199658E+02  0.43596314629E+02  0.10566000000E+00 0. -1.
         22    1    1    0    0    0 -0.27410009977E+02  0.15106663376E+01 -0.47655371360E+01  0.27862180530E+02  0.00000000000E+00 0.  1.
</event>
<event>
 5    1  0.1724235E-003  0.9118800E+02  0.7818608E-02  0.1130116E+00
         25   -1    0    0    0    0  0.00000000000E+00  0.00000000000E+00  0.99999998245E-14  0.12500000000E+03  0.12500000000E+03 0.  0.
        -13    1    3    3    0    0 -0.10403448415E+02 -0.70335419295E+01  0.45181163644E+02  0.46894041874E+02  0.10566000000E+00 0.  1.
         23    2    1    0    0    0 -0.78771876078E+01 -0.26796226888E+02 -0.85524618113E+00  0.97056855831E+02  0.92947371979E+02 0.  0.
         13    1    3    3    0    0  0.25262608072E+01 -0.19762684958E+02 -0.46036409826E+02  0.50162813957E+02  0.10566000000E+00 0. -1.
         22    1    1    0    0    0  0.78771876078E+01  0.26796226888E+02  0.85524618113E+00  0.27943144169E+02  0.00000000000E+00 0. -1.
</event>
<event>
 5    1  0.1724235E-003  0.9118800E+02  0.7818608E-02  0.1130116E+00
         25   -1    0    0    0    0  0.00000000000E+00  0.00000000000E+00  0.99999998245E-14  0.12500000000E+03  0.12500000000E+03 0.  0.
        -13    1    3    3    0    0 -0.17173279764E+02  0.83278716854E+01 -0.36987315859E+02  0.41621481030E+02  0.10566000000E+00 0. -1.
         23    2    1    0    0    0 -0.15015673624E+02 -0.23888277097E+02  0.67521638753E+01  0.95987727527E+02  0.91498261632E+02 0.  0.
         13    1    3    3    0    0  0.21576061400E+01 -0.32216148783E+02  0.43739479734E+02  0.54366246496E+02  0.10566000000E+00 0.  1.
         22    1    1    0    0    0  0.15015673624E+02  0.23888277097E+02 -0.67521638753E+01  0.29012272473E+02  0.00000000000E+00 0.  1.
</event>
<event>
 5    1  0.1724235E-003  0.9118800E+02  0.7818608E-02  0.1130116E+00
         25   -1    0    0    0    0  0.00000000000E+00  0.00000000000E+00  0.99999998245E-14  0.12500000000E+03  0.12500000000E+03 0.  0.
        -13    1    3    3    0    0  0.94567735111E+01 -0.41139144549E+02  0.21411325146E+02  0.47331974267E+02  0.10566000000E+00 0. -1.
         23    2    1    0    0    0 -0.22200643068E+02 -0.57825925847E+01  0.19602029789E+02  0.94824736927E+02  0.89895407178E+02 0.  0.
         13    1    3    3    0    0 -0.31657416580E+02  0.35356551965E+02 -0.18092953565E+01  0.47492762660E+02  0.10566000000E+00 0.  1.
         22    1    1    0    0    0  0.22200643068E+02  0.57825925847E+01 -0.19602029789E+02  0.30175263073E+02  0.00000000000E+00 0. -1.
</event>
<event>
 5    1  0.1724235E-003  0.9118800E+02  0.7818608E-02  0.1130116E+00
         25   -1    0    0    0    0  0.00000000000E+00  0.00000000000E+00  0.99999998245E-14  0.12500000000E+03  0.12500000000E+03 0.  0.
        -13    1    3    3    0    0 -0.25373334770E+02  0.34167811186E+02  0.11923072499E+01  0.42575558707E+02  0.10566000000E+00 0.  1.
         23    2    1    0    0    0 -0.13720567796E+02 -0.11361733324E+02  0.24238529474E+02  0.94919287312E+02  0.90026783947E+02 0.  0.
         13    1    3    3    0    0  0.11652766973E+02 -0.45529544510E+02  0.23046222224E+02  0.52343728605E+02  0.10566000000E+00 0. -1.
         22    1    1    0    0    0  0.13720567796E+02  0.11361733324E+02 -0.24238529474E+02  0.30080712688E+02  0.00000000000E+00 0. -1.
</event>
<event>
 5    1  0.1724235E-003  0.9118800E+02  0.7818608E-02  0.1130116E+00
         25   -1    0    0    0    0  0.00000000000E+00  0.00000000000E+00  0.99999998245E-14  0.12500000000E+03  0.12500000000E+03 0.  0.
        -13    1    3    3    0    0  0.11163055380E+02  0.28054046382E+02  0.72835148087E+01  0.31059685701E+02  0.10566000000E+00 0. -1.
         23    2    1    0    0    0 -0.57990598725E+01 -0.31324260110E+02  0.38957917382E+01  0.92906144511E+02  0.87186788723E+02 0.  0.
         13    1    3    3    0    0 -0.16962115252E+02 -0.59378306493E+02 -0.33877230705E+01  0.61846458810E+02  0.10566000000E+00 0.  1.
         22    1    1    0    0    0  0.57990598725E+01  0.31324260110E+02 -0.38957917382E+01  0.32093855489E+02  0.00000000000E+00 0.  1.
</event>
<event>
 5    1  0.1724235E-003  0.9118800E+02  0.7818608E-02  0.1130116E+00
         25   -1    0    0    0    0  0.00000000000E+00  0.00000000000E+00  0.99999998245E-14  0.12500000000E+03  0.12500000000E+03 0.  0.
        -13    1    3    3    0    0  0.64939948706E+01 -0.21156902331E+02  0.26015271314E+02  0.34155409399E+02  0.10566000000E+00 0.  1.
         23    2    1    0    0    0 -0.12120384047E+02 -0.12163272948E+02 -0.28090898245E+02  0.92076642296E+02  0.85989304998E+02 0.  0.
         13    1    3    3    0    0 -0.18614378918E+02  0.89936293839E+01 -0.54106169559E+02  0.57921232898E+02  0.10566000000E+00 0. -1.
         22    1    1    0    0    0  0.12120384047E+02  0.12163272948E+02  0.28090898245E+02  0.32923357704E+02  0.00000000000E+00 0. -1.
</event>
<event>
 5    1  0.1724235E-003  0.9118800E+02  0.7818608E-02  0.1130116E+00
         25   -1    0    0    0    0  0.00000000000E+00  0.00000000000E+00  0.99999998245E-14  0.12500000000E+03  0.12500000000E+03 0.  0.
        -13    1    3    3    0    0  0.33526211739E+01  0.32907808930E+02 -0.19863248040E+02  0.38583982999E+02  0.10566000000E+00 0. -1.
         23    2    1    0    0    0  0.21960143194E+02 -0.11594560774E+02  0.13018512937E+02  0.96961394333E+02  0.92818902079E+02 0.  0.
         13    1    3    3    0    0  0.18607522021E+02 -0.44502369704E+02  0.32881760978E+02  0.58377411334E+02  0.10566000000E+00 0.  1.
         22    1    1    0    0    0 -0.21960143194E+02  0.11594560774E+02 -0.13018512937E+02  0.28038605667E+02  0.00000000000E+00 0.  1.
</event>
<event>
 5    1  0.1724235E-003  0.9118800E+02  0.7818608E-02  0.1130116E+00
         25   -1    0    0    0    0  0.00000000000E+00  0.00000000000E+00  0.99999998245E-14  0.12500000000E+03  0.12500000000E+03 0.  0.
        -13    1    3    3    0    0 -0.20108233127E+02  0.17310320436E+02 -0.21574175865E+02  0.34197141129E+02  0.10566000000E+00 0.  1.
         23    2    1    0    0    0  0.20879220132E+01 -0.20246987008E+02  0.21422062004E+02  0.95449963761E+02  0.90760624393E+02 0.  0.
         13    1    3    3    0    0  0.22196155140E+02 -0.37557307445E+02  0.42996237868E+02  0.61252822632E+02  0.10566000000E+00 0. -1.
         22    1    1    0    0    0 -0.20879220132E+01  0.20246987008E+02 -0.21422062004E+02  0.29550036239E+02  0.00000000000E+00 0. -1.
</event>
<event>
 4    1  0.1724235E-003  0.9118800E+02  0.7818608E-02  0.1130116E+00
         25   -1    0    0    0    0  0.00000000000E+00  0.00000000000E+00  0.99999998245E-14  0.12500000000E+03  0.12500000000E+03 0.  0.
        -13    1    1    0    0    0 -0.10058466027E+02 -0.40087516627E+00 -0.13147415757E+02  0.16558959655E+02  0.10566000000E+00 0. -1.
         13    1    1    0    0    0  0.27344614085E+02 -0.48223626428E+02  0.11008227703E+01  0.55447894821E+02  0.10566000000E+00 0.  1.
         22    1    1    0    0    0 -0.17286148059E+02  0.48624501594E+02  0.12046592987E+02  0.52993145524E+02  0.00000000000E+00 0.  1.
</event>
<event>
 5    1  0.1724235E-003  0.9118800E+02  0.7818608E-02  0.1130116E+00
         25   -1    0    0    0    0  0.00000000000E+00  0.00000000000E+00  0.99999998245E-14  0.12500000000E+03  0.12500000000E+03 0.  0.
        -13    1    3    3    0    0  0.33267729685E+02 -0.24359961037E+02 -0.17094535717E+01  0.41268425408E+02  0.10566000000E+00 0.  1.
         23    2    1    0    0    0 -0.16171810884E+02 -0.12009893901E+02 -0.21134032960E+02  0.95803898069E+02  0.91246778120E+02 0.  0.
         13    1    3    3    0    0 -0.49439540569E+02  0.12350067135E+02 -0.19424579388E+02  0.54535472661E+02  0.10566000000E+00 0. -1.
         22    1    1    0    0    0  0.16171810884E+02  0.12009893901E+02  0.21134032960E+02  0.29196101931E+02  0.00000000000E+00 0. -1.
</event>
<event>
 5    1  0.1724235E-003  0.9118800E+02  0.7818608E-02  0.1130116E+00
         25   -1    0    0    0    0  0.00000000000E+00  0.00000000000E+00  0.99999998245E-14  0.12500000000E+03  0.12500000000E+03 0.  0.
        -13    1    3    3    0    0 -0.43065235309E+01 -0.30499411166E+02  0.20204295755E+02  0.36837276737E+02  0.10566000000E+00 0. -1.
         23    2    1    0    0    0  0.13286171046E+02  0.24604064737E+02  0.72286077628E+01  0.96118602651E+02  0.91676881833E+02 0.  0.
         13    1    3    3    0    0  0.17592694577E+02  0.55103475904E+02 -0.12975687993E+02  0.59281325913E+02  0.10566000000E+00 0.  1.
         22    1    1    0    0    0 -0.13286171046E+02 -0.24604064737E+02 -0.72286077628E+01  0.28881397349E+02  0.00000000000E+00 0.  1.
</event>
<event>
 5    1  0.1724235E-003  0.9118800E+02  0.7818608E-02  0.1130116E+00
         25   -1    0    0    0    0  0.00000000000E+00  0.00000000000E+00  0.99999998245E-14  0.12500000000E+03  0.12500000000E+03 0.  0.
        -13    1    3    3    0    0 -0.29398510818E+01 -0.38441116488E+01 -0.39525689417E+02  0.39820989524E+02  0.10566000000E+00 0.  1.
         23    2    1    0    0    0  0.32469977565E+01  0.24719685962E+02  0.10650465931E+02  0.97888410356E+02  0.94059037784E+02 0.  0.
         13    1    3    3    0    0  0.61868488382E+01  0.28563797611E+02  0.50176155348E+02  0.58067420832E+02  0.10566000000E+00 0. -1.
         22    1    1    0    0    0 -0.32469977565E+01 -0.24719685962E+02 -0.10650465931E+02  0.27111589644E+02  0.00000000000E+00 0. -1.
</event>
<event>
 5    1  0.1724235E-003  0.9118800E+02  0.7818608E-02  0.1130116E+00
         25   -1    0    0    0    0  0.00000000000E+00  0.00000000000E+00  0.99999998245E-14  0.12500000000E+03  0.12500000000E+03 0.  0.
        -13    1    3    3    0    0  0.33626051598E+02  0.28602726440E+01 -0.45447907938E+01  0.34052294975E+02  0.10566000000E+00 0. -1.
         23    2    1    0    0    0 -0.26128369353E+02 -0.49549546202E+01 -0.13826691237E+02  0.95026334043E+02  0.90175293239E+02 0.  0.
         13    1    3    3    0    0 -0.59754420951E+02 -0.78152272643E+01 -0.92819004428E+01  0.60974039068E+02  0.10566000000E+00 0.  1.
         22    1    1    0    0    0  0.26128369353E+02  0.49549546202E+01  0.13826691237E+02  0.29973665957E+02  0.00000000000E+00 0.  1.
</event>
<event>
 5    1  0.1724235E-003  0.9118800E+02  0.7818608E-02  0.1130116E+00
         25   -1    0    0    0    0  0.00000000000E+00  0.00000000000E+00  0.99999998245E-14  0.12500000000E+03  0.12500000000E+03 0.  0.
        -13    1    3    3    0    0  0.11574701904E+02 -0.47725945751E+02  0.19339315165E+02  0.52780298380E+02  0.10566000000E+00 0. -1.
         23    2    1    0    0    0  0.30729918817E+01 -0.64827453240E+01  0.28275551661E+02  0.95828505562E+02  0.91280481980E+02 0.  0.
         13    1    3    3    0    0 -0.85017100223E+01  0.41243200427E+02  0.89362364962E+01  0.43048207181E+02  0.10566000000E+00 0.  1.
         22    1    1    0    0    0 -0.30729918817E+01  0.64827453240E+01 -0.28275551661E+02  0.29171494438E+02  0.00000000000E+00 0. -1.
</event>
<event>
 5    1  0.1724235E-003  0.9118800E+02  0.7818608E-02  0.1130116E+00
         25   -1    0    0    0    0  0.00000000000E+00  0.00000000000E+00  0.99999998245E-14  0.12500000000E+03  0.12500000000E+03 0.  0.
        -13    1    3    3    0    0  0.37205870010E+01  0.33290318640E+02 -0.90897805819E+01  0.34709124994E+02  0.10566000000E+00 0.  1.
         23    2    1    0    0    0  0.16161335233E+02 -0.21645993457E+02  0.12757931414E+02  0.95125217939E+02  0.90312260988E+02 0.  0.
         13    1    3    3    0    0  0.12440748232E+02 -0.54936312096E+02  0.21847711996E+02  0.60416092945E+02  0.10566000000E+00 0. -1.
         22    1    1    0    0    0 -0.16161335233E+02  0.21645993457E+02 -0.12757931414E+02  0.29874782061E+02  0.00000000000E+00 0. -1.
</event>
<event>
 5    1  0.1724235E-003  0.9118800E+02  0.7818608E-02  0.1130116E+00
         25   -1    0    0    0    0  0.00000000000E+00  0.00000000000E+00  0.99999998245E-14  0.12500000000E+03  0.12500000000E+03 0.  0.
        -13    1    3    3    0    0 -0.14940089381E+01  0.40855695645E+02 -0.12879594038E+02  0.42863912980E+02  0.10566000000E+00 0. -1.
         23    2    1    0    0    0 -0.75321304580E+01 -0.10762674697E+02 -0.25473710374E+02  0.96338561165E+02  0.91976302879E+02 0.  0.
         13    1    3    3    0    0 -0.60381215199E+01 -0.51618370342E+02 -0.12594116335E+02  0.53474648185E+02  0.10566000000E+00 0.  1.
         22    1    1    0    0    0  0.75321304580E+01  0.10762674697E+02  0.25473710374E+02  0.28661438835E+02  0.00000000000E+00 0.  1.
</event>
<event>
 5    1  0.1724235E-003  0.9118800E+02  0.7818608E-02  0.1130116E+00
         25   -1    0    0    0    0  0.00000000000E+00  0.00000000000E+00  0.99999998245E-14  0.12500000000E+03  0.12500000000E+03 0.  0.
        -13    1    3    3    0    0 -0.48880041563E+02  0.17177025403E+02  0.27941476010E+02  0.58864640579E+02  0.10566000000E+00 0. -1.
         23    2    1    0    0    0 -0.27718537794E+02  0.32056347156E+00  0.68151320138E+00  0.97271232292E+02  0.93235229785E+02 0.  0.
         13    1    3    3    0    0  0.21161503769E+02 -0.16856461932E+02 -0.27259962809E+02  0.38406591713E+02  0.10566000000E+00 0.  1.
         22    1    1    0    0    0  0.27718537794E+02 -0.32056347156E+00 -0.68151320138E+00  0.27728767708E+02  0.00000000000E+00 0. -1.
</event>
<event>
 5    1  0.1724235E-003  0.9118800E+02  0.7818608E-02  0.1130116E+00
         25   -1    0    0    0    0  0.00000000000E+00  0.00000000000E+00  0.99999998245E-14  0.12500000000E+03  0.12500000000E+03 0.  0.
        -13    1    3    3    0    0  0.26068729402E+02  0.13794804270E+02  0.51398997967E+02  0.59259964846E+02  0.10566000000E+00 0.  1.
         23    2    1    0    0    0  0.68925945482E+00 -0.17796513669E+01  0.27478552557E+02  0.97455252983E+02  0.93481619829E+02 0.  0.
         13    1    3    3    0    0 -0.25379469948E+02 -0.15574455637E+02 -0.23920445410E+02  0.38195288137E+02  0.10566000000E+00 0. -1.
         22    1    1    0    0    0 -0.68925945482E+00  0.17796513669E+01 -0.27478552557E+02  0.27544747017E+02  0.00000000000E+00 0.  1.
</event>
<event>
 5    1  0.1724235E-003  0.9118800E+02  0.7818608E-02  0.1130116E+00
         25   -1    0    0    0    0  0.00000000000E+00  0.00000000000E+00  0.99999998245E-14  0.12500000000E+03  0.12500000000E+03 0.  0.
        -13    1    3    3    0    0  0.25558823803E+02 -0.47926812952E+02 -0.10169762752E+02  0.55260004637E+02  0.10566000000E+00 0. -1.
         23    2    1    0    0    0  0.27841564836E+02 -0.90677397398E+01  0.81906990443E+00  0.95707551963E+02  0.91114696898E+02 0.  0.
         13    1    3    3    0    0  0.22827410322E+01  0.38859073212E+02  0.10988832656E+02  0.40447547327E+02  0.10566000000E+00 0.  1.
         22    1    1    0    0    0 -0.27841564836E+02  0.90677397398E+01 -0.81906990443E+00  0.29292448037E+02  0.00000000000E+00 0. -1.
</event>
<event>
 5    1  0.1724235E-003  0.9118800E+02  0.7818608E-02  0.1130116E+00
         25   -1    0    0    0    0  0.00000000000E+00  0.00000000000E+00  0.99999998245E-14  0.12500000000E+03  0.12500000000E+03 0.  0.
        -13    1    3    3    0    0  0.17879673208E+02 -0.23999009517E+02 -0.24381036883E+02  0.38601571151E+02  0.10566000000E+00 0.  1.
         23    2    1    0    0    0  0.15871636604E+02  0.17393699531E+02  0.16053844056E+02  0.96501306331E+02  0.92197215700E+02 0.  0.
         13    1    3    3    0    0 -0.20080366042E+01  0.41392709047E+02  0.40434880939E+02  0.57899735180E+02  0.10566000000E+00 0. -1.
         22    1    1    0    0    0 -0.15871636604E+02 -0.17393699531E+02 -0.16053844056E+02  0.28498693669E+02  0.00000000000E+00 0. -1.
</event>
<event>
 5    1  0.1724235E-003  0.9118800E+02  0.7818608E-02  0.1130116E+00
         25   -1    0    0    0    0  0.00000000000E+00  0.00000000000E+00  0.99999998245E-14  0.12500000000E+03  0.12500000000E+03 0.  0.
        -13    1    3    3    0    0  0.37912504504E+02  0.21992016067E+02 -0.26549706906E+02  0.51243583689E+02  0.10566000000E+00 0.  1.
         23    2    1    0    0    0  0.25125997715E+02 -0.81690320175E+01  0.65139953956E+01  0.97788219807E+02  0.93925794922E+02 0.  0.
         13    1    3    3    0    0 -0.12786506789E+02 -0.30161048085E+02  0.33063702301E+02  0.46544636118E+02  0.10566000000E+00 0. -1.
         22    1    1    0    0    0 -0.25125997715E+02  0.81690320175E+01 -0.65139953956E+01  0.27211780193E+02  0.00000000000E+00 0.  1.
</event>
<event>
 5    1  0.1724235E-003  0.9118800E+02  0.7818608E-02  0.1130116E+00
         25   -1    0    0    0    0  0.00000000000E+00  0.00000000000E+00  0.99999998245E-14  0.12500000000E+03  0.12500000000E+03 0.  0.
        -13    1    3    3    0    0  0.34746546419E+02  0.12274670220E+02  0.34768107664E+01  0.37014718615E+02  0.10566000000E+00 0.  1.
         23    2    1    0    0    0 -0.18608247310E+02  0.15546393155E+02  0.20639521003E+02  0.93157464999E+02  0.87546366285E+02 0.  0.
         13    1    3    3    0    0 -0.53354793728E+02  0.32717229349E+01  0.17162710237E+02  0.56142746383E+02  0.10566000000E+00 0. -1.
         22    1    1    0    0    0  0.18608247310E+02 -0.15546393155E+02 -0.20639521003E+02  0.31842535001E+02  0.00000000000E+00 0. -1.
</event>
<event>
 5    1  0.1724235E-003  0.9118800E+02  0.7818608E-02  0.1130116E+00
         25   -1    0    0    0    0  0.00000000000E+00  0.00000000000E+00  0.99999998245E-14  0.12500000000E+03  0.12500000000E+03 0.  0.
        -13    1    3    3    0    0 -0.31073685000E+02 -0.17285089514E+01  0.17325177672E+02  0.35619300780E+02  0.10566000000E+00 0. -1.
         23    2    1    0    0    0  0.11633226544E+02 -0.15304525431E+02 -0.22383773179E+02  0.95494174131E+02  0.90821492681E+02 0.  0.
         13    1    3    3    0    0  0.42706911544E+02 -0.13576016479E+02 -0.39708950850E+02  0.59874873351E+02  0.10566000000E+00 0.  1.
         22    1    1    0    0    0 -0.11633226544E+02  0.15304525431E+02  0.22383773179E+02  0.29505825869E+02  0.00000000000E+00 0.  1.
</event>
<event>
 5    1  0.1724235E-003  0.9118800E+02  0.7818608E-02  0.1130116E+00
         25   -1    0    0    0    0  0.00000000000E+00  0.00000000000E+00  0.99999998245E-14  0.12500000000E+03  0.12500000000E+03 0.  0.
        -13    1    3    3    0    0  0.20177792590E+02  0.35277994967E+02 -0.22090890341E+02  0.46256878870E+02  0.10566000000E+00 0.  1.
         23    2    1    0    0    0 -0.14220152492E+02  0.30688083183E+00 -0.25893476319E+02  0.95457166205E+02  0.90770543412E+02 0.  0.
         13    1    3    3    0    0 -0.34397945082E+02 -0.34971114135E+02 -0.38025859784E+01  0.49200287335E+02  0.10566000000E+00 0. -1.
         22    1    1    0    0    0  0.14220152492E+02 -0.30688083183E+00  0.25893476319E+02  0.29542833795E+02  0.00000000000E+00 0. -1.
</event>
<event>
 5    1  0.1724235E-003  0.9118800E+02  0.7818608E-02  0.1130116E+00
         25   -1    0    0    0    0  0.00000000000E+00  0.00000000000E+00  0.99999998245E-14  0.12500000000E+03  0.12500000000E+03 0.  0.
        -13    1    3    3    0    0  0.98966289253E+00  0.34363831965E+02 -0.18277979619E+02  0.38935177962E+02  0.10566000000E+00 0.  1.
         23    2    1    0    0    0  0.76396631367E+01  0.69678697009E+01  0.29128420847E+02  0.94090768983E+02  0.88868961093E+02 0.  0.
         13    1    3    3    0    0  0.66500002442E+01 -0.27395962264E+02  0.47406400466E+02  0.55155591020E+02  0.10566000000E+00 0. -1.
         22    1    1    0    0    0 -0.76396631367E+01 -0.69678697009E+01 -0.29128420847E+02  0.30909231017E+02  0.00000000000E+00 0. -1.
</event>
<event>
 5    1  0.1724235E-003  0.9118800E+02  0.7818608E-02  0.1130116E+00
         25   -1    0    0    0    0  0.00000000000E+00  0.00000000000E+00  0.99999998245E-14  0.12500000000E+03  0.12500000000E+03 0.  0.
        -13    1    3    3    0    0  0.51849340624E+02  0.26855287774E+02 -0.11161188457E+02  0.59448666061E+02  0.10566000000E+00 0.  1.
         23    2    1    0    0    0  0.32822569189E+02  0.14112284688E+02 -0.20070403439E+02  0.84020752551E+02  0.73349765765E+02 0.  0.
         13    1    3    3    0    0 -0.19026771435E+02 -0.12743003086E+02 -0.89092149815E+01  0.24572086491E+02  0.10566000000E+00 0. -1.
         22    1    1    0    0    0 -0.32822569189E+02 -0.14112284688E+02  0.20070403439E+02  0.40979247449E+02  0.00000000000E+00 0.  1.
</event>
<event>
 5    1  0.1724235E-003  0.9118800E+02  0.7818608E-02  0.1130116E+00
         25   -1    0    0    0    0  0.00000000000E+00  0.00000000000E+00  0.99999998245E-14  0.12500000000E+03  0.12500000000E+03 0.  0.
        -13    1    3    3    0    0 -0.99609781705E+01 -0.13144784667E+02  0.34270051594E+02  0.38032276429E+02  0.10566000000E+00 0.  1.
         23    2    1    0    0    0 -0.21730777723E+02  0.22695850623E+02 -0.57796604104E+01  0.93051090623E+02  0.87394351394E+02 0.  0.
         13    1    3    3    0    0 -0.11769799552E+02  0.35840635290E+02 -0.40049712005E+02  0.55018814193E+02  0.10566000000E+00 0. -1.
         22    1    1    0    0    0  0.21730777723E+02 -0.22695850623E+02  0.57796604104E+01  0.31948909377E+02  0.00000000000E+00 0. -1.
</event>
<event>
 5    1  0.1724235E-003  0.9118800E+02  0.7818608E-02  0.1130116E+00
         25   -1    0    0    0    0  0.00000000000E+00  0.00000000000E+00  0.99999998245E-14  0.12500000000E+03  0.12500000000E+03 0.  0.
        -13    1    3    3    0    0 -0.61948175668E+01  0.42424041530E+02  0.63594347538E+01  0.43343149850E+02  0.10566000000E+00 0. -1.
         23    2    1    0    0    0  0.26706412784E+02  0.38856151099E+01  0.14014182001E+02  0.94590662853E+02  0.89569334670E+02 0.  0.
         13    1    3    3    0    0  0.32901230351E+02 -0.38538426420E+02  0.76547472475E+01  0.51247513003E+02  0.10566000000E+00 0.  1.
         22    1    1    0    0    0 -0.26706412784E+02 -0.38856151099E+01 -0.14014182001E+02  0.30409337147E+02  0.00000000000E+00 0. -1.
</event>
<event>
 5    1  0.1724235E-003  0.9118800E+02  0.7818608E-02  0.1130116E+00
         25   -1    0    0    0    0  0.00000000000E+00  0.00000000000E+00  0.99999998245E-14  0.12500000000E+03  0.12500000000E+03 0.  0.
        -13    1    3    3    0    0  0.89871361411E+01 -0.28168166124E+01 -0.33404937873E+02  0.34707407137E+02  0.10566000000E+00 0.  1.
         23    2    1    0    0    0 -0.25402890016E+02  0.23677325761E+02  0.12433688700E+01  0.90251351932E+02  0.83293685133E+02 0.  0.
         13    1    3    3    0    0 -0.34390026158E+02  0.26494142374E+02  0.34648306743E+02  0.55543944795E+02  0.10566000000E+00 0. -1.
         22    1    1    0    0    0  0.25402890016E+02 -0.23677325761E+02 -0.12433688700E+01  0.34748648068E+02  0.00000000000E+00 0. -1.
</event>
<event>
 5    1  0.1724235E-003  0.9118800E+02  0.7818608E-02  0.1130116E+00
         25   -1    0    0    0    0  0.00000000000E+00  0.00000000000E+00  0.99999998245E-14  0.12500000000E+03  0.12500000000E+03 0.  0.
        -13    1    3    3    0    0  0.24834192856E+02  0.44408467817E+02 -0.15694084806E+02  0.53246263818E+02  0.10566000000E+00 0.  1.
         23    2    1    0    0    0  0.76624150890E+01  0.22868749838E+02  0.16620974524E+02  0.95709231518E+02  0.91117001045E+02 0.  0.
         13    1    3    3    0    0 -0.17171777767E+02 -0.21539717979E+02  0.32315059331E+02  0.42462967700E+02  0.10566000000E+00 0. -1.
         22    1    1    0    0    0 -0.76624150890E+01 -0.22868749838E+02 -0.16620974524E+02  0.29290768482E+02  0.00000000000E+00 0.  1.
</event>
<event>
 5    1  0.1724235E-003  0.9118800E+02  0.7818608E-02  0.1130116E+00
         25   -1    0    0    0    0  0.00000000000E+00  0.00000000000E+00  0.99999998245E-14  0.12500000000E+03  0.12500000000E+03 0.  0.
        -13    1    3    3    0    0 -0.17735944087E+02 -0.30809975684E+02  0.43169376946E+02  0.55923381374E+02  0.10566000000E+00 0.  1.
         23    2    1    0    0    0 -0.20331896737E+02 -0.21801975791E+02  0.55714330423E+01  0.94672569521E+02  0.89683568062E+02 0.  0.
         13    1    3    3    0    0 -0.25959526493E+01  0.90079998931E+01 -0.37597943904E+02  0.38749188147E+02  0.10566000000E+00 0. -1.
         22    1    1    0    0    0  0.20331896737E+02  0.21801975791E+02 -0.55714330423E+01  0.30327430479E+02  0.00000000000E+00 0.  1.
</event>
<event>
 5    1  0.1724235E-003  0.9118800E+02  0.7818608E-02  0.1130116E+00
         25   -1    0    0    0    0  0.00000000000E+00  0.00000000000E+00  0.99999998245E-14  0.12500000000E+03  0.12500000000E+03 0.  0.
        -13    1    3    3    0    0  0.22170013036E+02 -0.15974719371E+02  0.23821764824E+02  0.36251741757E+02  0.10566000000E+00 0.  1.
         23    2    1    0    0    0  0.45567190984E+01  0.32175339844E+02  0.69681221809E+00  0.92496127457E+02  0.86596950664E+02 0.  0.
         13    1    3    3    0    0 -0.17613293938E+02  0.48150059215E+02 -0.23124952606E+02  0.56244385701E+02  0.10566000000E+00 0. -1.
         22    1    1    0    0    0 -0.45567190984E+01 -0.32175339844E+02 -0.69681221809E+00  0.32503872543E+02  0.00000000000E+00 0. -1.
</event>
<event>
 5    1  0.1724235E-003  0.9118800E+02  0.7818608E-02  0.1130116E+00
         25   -1    0    0    0    0  0.00000000000E+00  0.00000000000E+00  0.99999998245E-14  0.12500000000E+03  0.12500000000E+03 0.  0.
        -13    1    3    3    0    0  0.21377031388E+02  0.15718759286E+02  0.29170374079E+02  0.39433218894E+02  0.10566000000E+00 0.  1.
         23    2    1    0    0    0 -0.27268530219E+02  0.45150020220E+01 -0.21522161857E+00  0.97359372223E+02  0.93353323753E+02 0.  0.
         13    1    3    3    0    0 -0.48645561607E+02 -0.11203757264E+02 -0.29385595697E+02  0.57926153328E+02  0.10566000000E+00 0. -1.
         22    1    1    0    0    0  0.27268530219E+02 -0.45150020220E+01  0.21522161857E+00  0.27640627777E+02  0.00000000000E+00 0. -1.
</event>
<event>
 5    1  0.1724235E-003  0.9118800E+02  0.7818608E-02  0.1130116E+00
         25   -1    0    0    0    0  0.00000000000E+00  0.00000000000E+00  0.99999998245E-14  0.12500000000E+03  0.12500000000E+03 0.  0.
        -13    1    3    3    0    0  0.16838380589E+02 -0.25188802476E+02  0.54174378492E+02  0.62071581904E+02  0.10566000000E+00 0.  1.
         23    2    1    0    0    0  0.12235680913E+02 -0.91119784233E+01  0.24303110946E+02  0.96305379601E+02  0.91931196556E+02 0.  0.
         13    1    3    3    0    0 -0.46026996765E+01  0.16076824053E+02 -0.29871267546E+02  0.34233797697E+02  0.10566000000E+00 0. -1.
         22    1    1    0    0    0 -0.12235680913E+02  0.91119784233E+01 -0.24303110946E+02  0.28694620399E+02  0.00000000000E+00 0.  1.
</event>
<event>
 5    1  0.1724235E-003  0.9118800E+02  0.7818608E-02  0.1130116E+00
         25   -1    0    0    0    0  0.00000000000E+00  0.00000000000E+00  0.99999998245E-14  0.12500000000E+03  0.12500000000E+03 0.  0.
        -13    1    3    3    0    0 -0.26377744711E+02  0.10387664512E+02  0.49826039849E+02  0.57326559300E+02  0.10566000000E+00 0. -1.
         23    2    1    0    0    0 -0.13807500716E+02  0.23002087803E+02  0.37105978792E+02  0.79211390265E+02  0.64636271291E+02 0.  0.
         13    1    3    3    0    0  0.12570243995E+02  0.12614423291E+02 -0.12720061057E+02  0.21884830966E+02  0.10566000000E+00 0.  1.
         22    1    1    0    0    0  0.13807500716E+02 -0.23002087803E+02 -0.37105978792E+02  0.45788609735E+02  0.00000000000E+00 0. -1.
</event>
<event>
 5    1  0.1724235E-003  0.9118800E+02  0.7818608E-02  0.1130116E+00
         25   -1    0    0    0    0  0.00000000000E+00  0.00000000000E+00  0.99999998245E-14  0.12500000000E+03  0.12500000000E+03 0.  0.
        -13    1    3    3    0    0  0.38213716827E+02  0.21349835295E+02 -0.44238219095E+02  0.62234514649E+02  0.10566000000E+00 0.  1.
         23    2    1    0    0    0  0.16429013684E+02  0.80927934550E+01 -0.24111881279E+02  0.94721482610E+02  0.89751716710E+02 0.  0.
         13    1    3    3    0    0 -0.21784703143E+02 -0.13257041840E+02  0.20126337815E+02  0.32486967961E+02  0.10566000000E+00 0. -1.
         22    1    1    0    0    0 -0.16429013684E+02 -0.80927934550E+01  0.24111881279E+02  0.30278517390E+02  0.00000000000E+00 0.  1.
</event>
<event>
 5    1  0.1724235E-003  0.9118800E+02  0.7818608E-02  0.1130116E+00
         25   -1    0    0    0    0  0.00000000000E+00  0.00000000000E+00  0.99999998245E-14  0.12500000000E+03  0.12500000000E+03 0.  0.
        -13    1    3    3    0    0 -0.37604396348E+02  0.26390153963E+02  0.36574754996E+02  0.58721841916E+02  0.10566000000E+00 0.  1.
         23    2    1    0    0    0 -0.15476615315E+02 -0.46258468309E+00  0.25372807085E+02  0.95275953413E+02  0.90520651529E+02 0.  0.
         13    1    3    3    0    0  0.22127781034E+02 -0.26852738647E+02 -0.11201947911E+02  0.36554111497E+02  0.10566000000E+00 0. -1.
         22    1    1    0    0    0  0.15476615315E+02  0.46258468309E+00 -0.25372807085E+02  0.29724046587E+02  0.00000000000E+00 0.  1.
</event>
<event>
 5    1  0.1724235E-003  0.9118800E+02  0.7818608E-02  0.1130116E+00
         25   -1    0    0    0    0  0.00000000000E+00  0.00000000000E+00  0.99999998245E-14  0.12500000000E+03  0.12500000000E+03 0.  0.
        -13    1    3    3    0    0  0.15616665117E+02 -0.44408474605E+02  0.87926060539E+01  0.47888557416E+02  0.10566000000E+00 0.  1.
         23    2    1    0    0    0 -0.19161656516E+02 -0.12204039353E+02  0.17804123742E+02  0.96136623912E+02  0.91701450250E+02 0.  0.
         13    1    3    3    0    0 -0.34778321633E+02  0.32204435252E+02  0.90115176879E+01  0.48248066496E+02  0.10566000000E+00 0. -1.
         22    1    1    0    0    0  0.19161656516E+02  0.12204039353E+02 -0.17804123742E+02  0.28863376088E+02  0.00000000000E+00 0. -1.
</event>
<event>
 5    1  0.1724235E-003  0.9118800E+02  0.7818608E-02  0.1130116E+00
         25   -1    0    0    0    0  0.00000000000E+00  0.00000000000E+00  0.99999998245E-14  0.12500000000E+03  0.12500000000E+03 0.  0.
        -13    1    3    3    0    0 -0.14933791740E+02 -0.34527173699E+02 -0.98288119411E+01  0.38881365300E+02  0.10566000000E+00 0. -1.
         23    2    1    0    0    0 -0.21292014825E+02  0.17702558771E+02  0.10637479864E+02  0.95337119826E+02  0.90605076880E+02 0.  0.
         13    1    3    3    0    0 -0.63582230857E+01  0.52229732471E+02  0.20466291806E+02  0.56455754526E+02  0.10566000000E+00 0.  1.
         22    1    1    0    0    0  0.21292014825E+02 -0.17702558771E+02 -0.10637479864E+02  0.29662880174E+02  0.00000000000E+00 0.  1.
</event>
<event>
 5    1  0.1724235E-003  0.9118800E+02  0.7818608E-02  0.1130116E+00
         25   -1    0    0    0    0  0.00000000000E+00  0.00000000000E+00  0.99999998245E-14  0.12500000000E+03  0.12500000000E+03 0.  0.
        -13    1    3    3    0    0  0.71986841755E+01  0.29761948215E+02  0.19437856634E+02  0.36268940569E+02  0.10566000000E+00 0.  1.
         23    2    1    0    0    0 -0.20972201866E+02 -0.16854500969E+02 -0.75491445272E+01  0.97055464986E+02  0.92945501486E+02 0.  0.
         13    1    3    3    0    0 -0.28170886042E+02 -0.46616449185E+02 -0.26987001161E+02  0.60786524417E+02  0.10566000000E+00 0. -1.
         22    1    1    0    0    0  0.20972201866E+02  0.16854500969E+02  0.75491445272E+01  0.27944535014E+02  0.00000000000E+00 0. -1.
</event>
<event>
 5    1  0.1724235E-003  0.9118800E+02  0.7818608E-02  0.1130116E+00
         25   -1    0    0    0    0  0.00000000000E+00  0.00000000000E+00  0.99999998245E-14  0.12500000000E+03  0.12500000000E+03 0.  0.
        -13    1    3    3    0    0 -0.33242078009E+02 -0.15691046133E+02 -0.73893601389E+01  0.37494779456E+02  0.10566000000E+00 0.  1.
         23    2    1    0    0    0  0.49235056795E+01  0.66535679718E+01  0.29046986371E+02  0.94796717196E+02  0.89856437159E+02 0.  0.
         13    1    3    3    0    0  0.38165583688E+02  0.22344614105E+02  0.36436346510E+02  0.57301937740E+02  0.10566000000E+00 0. -1.
         22    1    1    0    0    0 -0.49235056795E+01 -0.66535679718E+01 -0.29046986371E+02  0.30203282804E+02  0.00000000000E+00 0. -1.
</event>
<event>
 5    1  0.1724235E-003  0.9118800E+02  0.7818608E-02  0.1130116E+00
         25   -1    0    0    0    0  0.00000000000E+00  0.00000000000E+00  0.99999998245E-14  0.12500000000E+03  0.12500000000E+03 0.  0.
        -13    1    3    3    0    0  0.30290942902E+02  0.24219685481E+01 -0.15222554736E+02  0.33987416646E+02  0.10566000000E+00 0.  1.
         23    2    1    0    0    0 -0.23587812764E+02 -0.11956840479E+02  0.11903132803E+02  0.95999387666E+02  0.91514189700E+02 0.  0.
         13    1    3    3    0    0 -0.53878755667E+02 -0.14378809027E+02  0.27125687539E+02  0.62011971019E+02  0.10566000000E+00 0. -1.
         22    1    1    0    0    0  0.23587812764E+02  0.11956840479E+02 -0.11903132803E+02  0.29000612334E+02  0.00000000000E+00 0. -1.
</event>
<event>
 5    1  0.1724235E-003  0.9118800E+02  0.7818608E-02  0.1130116E+00
         25   -1    0    0    0    0  0.00000000000E+00  0.00000000000E+00  0.99999998245E-14  0.12500000000E+03  0.12500000000E+03 0.  0.
        -13    1    3    3    0    0 -0.33463313521E+02  0.29987897913E+01 -0.10711405953E+02  0.35263741627E+02  0.10566000000E+00 0.  1.
         23    2    1    0    0    0 -0.70995528550E+01 -0.21343047013E+02 -0.38338785192E+02  0.80550120849E+02  0.67175369090E+02 0.  0.
         13    1    3    3    0    0  0.26363760666E+02 -0.24341836804E+02 -0.27627379239E+02  0.45286379222E+02  0.10566000000E+00 0. -1.
         22    1    1    0    0    0  0.70995528550E+01  0.21343047013E+02  0.38338785192E+02  0.44449879151E+02  0.00000000000E+00 0. -1.
</event>
<event>
 5    1  0.1724235E-003  0.9118800E+02  0.7818608E-02  0.1130116E+00
         25   -1    0    0    0    0  0.00000000000E+00  0.00000000000E+00  0.99999998245E-14  0.12500000000E+03  0.12500000000E+03 0.  0.
        -13    1    3    3    0    0 -0.21620784524E+02  0.17337232914E+02  0.36657082070E+02  0.45954225034E+02  0.10566000000E+00 0. -1.
         23    2    1    0    0    0  0.16112336889E+02  0.25149555402E+02  0.77001219334E+01  0.94155236835E+02  0.88959593123E+02 0.  0.
         13    1    3    3    0    0  0.37733121413E+02  0.78123224880E+01 -0.28956960137E+02  0.48201011801E+02  0.10566000000E+00 0.  1.
         22    1    1    0    0    0 -0.16112336889E+02 -0.25149555402E+02 -0.77001219334E+01  0.30844763165E+02  0.00000000000E+00 0.  1.
</event>
<event>
 5    1  0.1724235E-003  0.9118800E+02  0.7818608E-02  0.1130116E+00
         25   -1    0    0    0    0  0.00000000000E+00  0.00000000000E+00  0.99999998245E-14  0.12500000000E+03  0.12500000000E+03 0.  0.
        -13    1    3    3    0    0 -0.48547138356E+02 -0.17329049926E+02 -0.11116450256E+02  0.52732411705E+02  0.10566000000E+00 0.  1.
         23    2    1    0    0    0 -0.25372072921E+02  0.14151014944E+02  0.58817256360E+01  0.95359014782E+02  0.90635278426E+02 0.  0.
         13    1    3    3    0    0  0.23175065435E+02  0.31480064870E+02  0.16998175892E+02  0.42626603076E+02  0.10566000000E+00 0. -1.
         22    1    1    0    0    0  0.25372072921E+02 -0.14151014944E+02 -0.58817256360E+01  0.29640985218E+02  0.00000000000E+00 0.  1.
</event>
<event>
 5    1  0.1724235E-003  0.9118800E+02  0.7818608E-02  0.1130116E+00
         25   -1    0    0    0    0  0.00000000000E+00  0.00000000000E+00  0.99999998245E-14  0.12500000000E+03  0.12500000000E+03 0.  0.
        -13    1    3    3    0    0  0.67852536854E+01 -0.29376129419E+02 -0.14445290571E+02  0.33431635182E+02  0.10566000000E+00 0.  1.
         23    2    1    0    0    0 -0.50671702414E+00  0.22595015359E+02  0.18839321925E+02  0.95577023743E+02  0.90935449280E+02 0.  0.
         13    1    3    3    0    0 -0.72919707096E+01  0.51971144778E+02  0.33284612496E+02  0.62145388561E+02  0.10566000000E+00 0. -1.
         22    1    1    0    0    0  0.50671702414E+00 -0.22595015359E+02 -0.18839321925E+02  0.29422976257E+02  0.00000000000E+00 0. -1.
</event>
<event>
 5    1  0.1724235E-003  0.9118800E+02  0.7818608E-02  0.1130116E+00
         25   -1    0    0    0    0  0.00000000000E+00  0.00000000000E+00  0.99999998245E-14  0.12500000000E+03  0.12500000000E+03 0.  0.
        -13    1    3    3    0    0  0.29147092209E+02 -0.15663043721E+02  0.18844856177E+02  0.38079176609E+02  0.10566000000E+00 0. -1.
         23    2    1    0    0    0 -0.11742713858E+02  0.24719143734E+02  0.52510998317E+01  0.97134224483E+02  0.93051362810E+02 0.  0.
         13    1    3    3    0    0 -0.40889806066E+02  0.40382187456E+02 -0.13593756345E+02  0.59055047874E+02  0.10566000000E+00 0.  1.
         22    1    1    0    0    0  0.11742713858E+02 -0.24719143734E+02 -0.52510998317E+01  0.27865775517E+02  0.00000000000E+00 0.  1.
</event>
<event>
 5    1  0.1724235E-003  0.9118800E+02  0.7818608E-02  0.1130116E+00
         25   -1    0    0    0    0  0.00000000000E+00  0.00000000000E+00  0.99999998245E-14  0.12500000000E+03  0.12500000000E+03 0.  0.
        -13    1    3    3    0    0 -0.14850924506E+02  0.16851797960E+02 -0.44003714821E+02  0.49405173163E+02  0.10566000000E+00 0. -1.
         23    2    1    0    0    0 -0.18789568068E+02 -0.17649091450E+02 -0.12253947047E+02  0.96457093431E+02  0.92137252823E+02 0.  0.
         13    1    3    3    0    0 -0.39386435622E+01 -0.34500889410E+02  0.31749767774E+02  0.47051920268E+02  0.10566000000E+00 0.  1.
         22    1    1    0    0    0  0.18789568068E+02  0.17649091450E+02  0.12253947047E+02  0.28542906569E+02  0.00000000000E+00 0. -1.
</event>
<event>
 5    1  0.1724235E-003  0.9118800E+02  0.7818608E-02  0.1130116E+00
         25   -1    0    0    0    0  0.00000000000E+00  0.00000000000E+00  0.99999998245E-14  0.12500000000E+03  0.12500000000E+03 0.  0.
        -13    1    3    3    0    0  0.43398568346E+02  0.14824399357E+02 -0.24870527425E+02  0.52170421210E+02  0.10566000000E+00 0.  1.
         23    2    1    0    0    0  0.16753891161E+02 -0.18860238838E+02 -0.12381951167E+02  0.96898146097E+02  0.92733686027E+02 0.  0.
         13    1    3    3    0    0 -0.26644677184E+02 -0.33684638195E+02  0.12488576258E+02  0.44727724887E+02  0.10566000000E+00 0. -1.
         22    1    1    0    0    0 -0.16753891161E+02  0.18860238838E+02  0.12381951167E+02  0.28101853903E+02  0.00000000000E+00 0. -1.
</event>
<event>
 5    1  0.1724235E-003  0.9118800E+02  0.7818608E-02  0.1130116E+00
         25   -1    0    0    0    0  0.00000000000E+00  0.00000000000E+00  0.99999998245E-14  0.12500000000E+03  0.12500000000E+03 0.  0.
        -13    1    3    3    0    0  0.34541357432E+01 -0.17345797915E+02 -0.36257079815E+02  0.40340981146E+02  0.10566000000E+00 0. -1.
         23    2    1    0    0    0 -0.30919128752E+02 -0.62697613448E+01  0.25455599734E+01  0.93349055217E+02  0.87819495582E+02 0.  0.
         13    1    3    3    0    0 -0.34373264495E+02  0.11076036570E+02  0.38802639789E+02  0.53008074071E+02  0.10566000000E+00 0.  1.
         22    1    1    0    0    0  0.30919128752E+02  0.62697613448E+01 -0.25455599734E+01  0.31650944783E+02  0.00000000000E+00 0.  1.
</event>
<event>
 5    1  0.1724235E-003  0.9118800E+02  0.7818608E-02  0.1130116E+00
         25   -1    0    0    0    0  0.00000000000E+00  0.00000000000E+00  0.99999998245E-14  0.12500000000E+03  0.12500000000E+03 0.  0.
        -13    1    3    3    0    0  0.48326684762E+02  0.24168349289E+01  0.32096632848E+01  0.48493532080E+02  0.10566000000E+00 0.  1.
         23    2    1    0    0    0  0.67509785370E+01  0.17050975478E+02  0.21957773585E+02  0.96391342276E+02  0.92048006871E+02 0.  0.
         13    1    3    3    0    0 -0.41575706225E+02  0.14634140549E+02  0.18748110301E+02  0.47897810196E+02  0.10566000000E+00 0. -1.
         22    1    1    0    0    0 -0.67509785370E+01 -0.17050975478E+02 -0.21957773585E+02  0.28608657724E+02  0.00000000000E+00 0.  1.
</event>
<event>
 5    1  0.1724235E-003  0.9118800E+02  0.7818608E-02  0.1130116E+00
         25   -1    0    0    0    0  0.00000000000E+00  0.00000000000E+00  0.99999998245E-14  0.12500000000E+03  0.12500000000E+03 0.  0.
        -13    1    3    3    0    0 -0.61408388259E+01  0.19577686410E+02 -0.58767124617E+02  0.62246138888E+02  0.10566000000E+00 0. -1.
         23    2    1    0    0    0 -0.12090731503E+01  0.61691396826E+01 -0.29789218904E+02  0.94554676792E+02  0.89519099627E+02 0.  0.
         13    1    3    3    0    0  0.49317656756E+01 -0.13408546727E+02  0.28977905712E+02  0.32308537904E+02  0.10566000000E+00 0.  1.
         22    1    1    0    0    0  0.12090731503E+01 -0.61691396826E+01  0.29789218904E+02  0.30445323208E+02  0.00000000000E+00 0. -1.
</event>
<event>
 5    1  0.1724235E-003  0.9118800E+02  0.7818608E-02  0.1130116E+00
         25   -1    0    0    0    0  0.00000000000E+00  0.00000000000E+00  0.99999998245E-14  0.12500000000E+03  0.12500000000E+03 0.  0.
        -13    1    3    3    0    0 -0.70168127246E+01  0.12762560874E+02 -0.48010978078E+02  0.50171543737E+02  0.10566000000E+00 0. -1.
         23    2    1    0    0    0  0.23597009777E+02  0.99850035985E+01 -0.14865080941E+02  0.95377545702E+02  0.90660831815E+02 0.  0.
         13    1    3    3    0    0  0.30613822501E+02 -0.27775572757E+01  0.33145897137E+02  0.45206001965E+02  0.10566000000E+00 0.  1.
         22    1    1    0    0    0 -0.23597009777E+02 -0.99850035985E+01  0.14865080941E+02  0.29622454298E+02  0.00000000000E+00 0. -1.
</event>
<event>
 5    1  0.1724235E-003  0.9118800E+02  0.7818608E-02  0.1130116E+00
         25   -1    0    0    0    0  0.00000000000E+00  0.00000000000E+00  0.99999998245E-14  0.12500000000E+03  0.12500000000E+03 0.  0.
        -13    1    3    3    0    0  0.45453215124E+02 -0.18614603000E+02 -0.41293845785E+01  0.49290579130E+02  0.10566000000E+00 0.  1.
         23    2    1    0    0    0  0.15898870053E+02  0.10364102492E+02 -0.23335891723E+02  0.94920895426E+02  0.90029016748E+02 0.  0.
         13    1    3    3    0    0 -0.29554345071E+02  0.28978705492E+02 -0.19206507145E+02  0.45630316296E+02  0.10566000000E+00 0. -1.
         22    1    1    0    0    0 -0.15898870053E+02 -0.10364102492E+02  0.23335891723E+02  0.30079104574E+02  0.00000000000E+00 0.  1.
</event>
<event>
 5    1  0.1724235E-003  0.9118800E+02  0.7818608E-02  0.1130116E+00
         25   -1    0    0    0    0  0.00000000000E+00  0.00000000000E+00  0.99999998245E-14  0.12500000000E+03  0.12500000000E+03 0.  0.
        -13    1    3    3    0    0 -0.41109477260E+01  0.27939850206E+02  0.18872935328E+02  0.33966659722E+02  0.10566000000E+00 0. -1.
         23    2    1    0    0    0  0.14194776492E+02 -0.22828802043E+02 -0.11348633435E+02  0.95820600363E+02  0.91269655914E+02 0.  0.
         13    1    3    3    0    0  0.18305724218E+02 -0.50768652249E+02 -0.30221568763E+02  0.61853940641E+02  0.10566000000E+00 0.  1.
         22    1    1    0    0    0 -0.14194776492E+02  0.22828802043E+02  0.11348633435E+02  0.29179399637E+02  0.00000000000E+00 0.  1.
</event>
<event>
 5    1  0.1724235E-003  0.9118800E+02  0.7818608E-02  0.1130116E+00
         25   -1    0    0    0    0  0.00000000000E+00  0.00000000000E+00  0.99999998245E-14  0.12500000000E+03  0.12500000000E+03 0.  0.
        -13    1    3    3    0    0  0.38833932749E+02  0.14234149424E+02 -0.22915866410E+02  0.47284600452E+02  0.10566000000E+00 0.  1.
         23    2    1    0    0    0  0.10077223072E+02 -0.23425565805E+02 -0.15257031773E+02  0.95283261003E+02  0.90530742020E+02 0.  0.
         13    1    3    3    0    0 -0.28756709677E+02 -0.37659715229E+02  0.76588346374E+01  0.47998660550E+02  0.10566000000E+00 0. -1.
         22    1    1    0    0    0 -0.10077223072E+02  0.23425565805E+02  0.15257031773E+02  0.29716738997E+02  0.00000000000E+00 0.  1.
</event>
<event>
 5    1  0.1724235E-003  0.9118800E+02  0.7818608E-02  0.1130116E+00
         25   -1    0    0    0    0  0.00000000000E+00  0.00000000000E+00  0.99999998245E-14  0.12500000000E+03  0.12500000000E+03 0.  0.
        -13    1    3    3    0    0  0.13509856932E+02 -0.21728429058E+02  0.26535331744E+02  0.36861576994E+02  0.10566000000E+00 0. -1.
         23    2    1    0    0    0 -0.27669199098E+02 -0.27646395454E+02  0.60894114437E+00  0.85881224844E+02  0.76454602289E+02 0.  0.
         13    1    3    3    0    0 -0.41179056031E+02 -0.59179663963E+01 -0.25926390600E+02  0.49019647851E+02  0.10566000000E+00 0.  1.
         22    1    1    0    0    0  0.27669199098E+02  0.27646395454E+02 -0.60894114437E+00  0.39118775156E+02  0.00000000000E+00 0.  1.
</event>
<event>
 5    1  0.1724235E-003  0.9118800E+02  0.7818608E-02  0.1130116E+00
         25   -1    0    0    0    0  0.00000000000E+00  0.00000000000E+00  0.99999998245E-14  0.12500000000E+03  0.12500000000E+03 0.  0.
        -13    1    3    3    0    0 -0.28948837507E+02 -0.70341408027E+00 -0.44273870761E+02  0.52902899548E+02  0.10566000000E+00 0. -1.
         23    2    1    0    0    0 -0.23350949395E+02 -0.16655385778E+02 -0.47018325178E+01  0.95934970461E+02  0.91426159360E+02 0.  0.
         13    1    3    3    0    0  0.55978881118E+01 -0.15951971698E+02  0.39572038243E+02  0.43032070914E+02  0.10566000000E+00 0.  1.
         22    1    1    0    0    0  0.23350949395E+02  0.16655385778E+02  0.47018325178E+01  0.29065029539E+02  0.00000000000E+00 0. -1.
</event>
<event>
 5    1  0.1724235E-003  0.9118800E+02  0.7818608E-02  0.1130116E+00
         25   -1    0    0    0    0  0.00000000000E+00  0.00000000000E+00  0.99999998245E-14  0.12500000000E+03  0.12500000000E+03 0.  0.
        -13    1    3    3    0    0  0.42965529223E+02 -0.33217985965E+02  0.22859073781E+02  0.58923846710E+02  0.10566000000E+00 0.  1.
         23    2    1    0    0    0  0.25883241662E+02 -0.21310763949E+01  0.14048637237E+02  0.95472929476E+02  0.90792248397E+02 0.  0.
         13    1    3    3    0    0 -0.17082287561E+02  0.31086909570E+02 -0.88104365434E+01  0.36549082766E+02  0.10566000000E+00 0. -1.
         22    1    1    0    0    0 -0.25883241662E+02  0.21310763949E+01 -0.14048637237E+02  0.29527070524E+02  0.00000000000E+00 0.  1.
</event>
<event>
 5    1  0.1724235E-003  0.9118800E+02  0.7818608E-02  0.1130116E+00
         25   -1    0    0    0    0  0.00000000000E+00  0.00000000000E+00  0.99999998245E-14  0.12500000000E+03  0.12500000000E+03 0.  0.
        -13    1    3    3    0    0  0.14387513284E+02  0.87854518368E+01  0.31813269876E+02  0.36003888772E+02  0.10566000000E+00 0.  1.
         23    2    1    0    0    0 -0.26767718701E+02 -0.85682858731E+01 -0.79369690178E+01  0.95795175665E+02  0.91234828417E+02 0.  0.
         13    1    3    3    0    0 -0.41155231985E+02 -0.17353737710E+02 -0.39750238893E+02  0.59791286893E+02  0.10566000000E+00 0. -1.
         22    1    1    0    0    0  0.26767718701E+02  0.85682858731E+01  0.79369690178E+01  0.29204824335E+02  0.00000000000E+00 0. -1.
</event>
<event>
 5    1  0.1724235E-003  0.9118800E+02  0.7818608E-02  0.1130116E+00
         25   -1    0    0    0    0  0.00000000000E+00  0.00000000000E+00  0.99999998245E-14  0.12500000000E+03  0.12500000000E+03 0.  0.
        -13    1    3    3    0    0 -0.19205329063E+02  0.26787662029E+02  0.19613504234E+02  0.38355237110E+02  0.10566000000E+00 0.  1.
         23    2    1    0    0    0  0.26687764132E+02  0.64028509101E+01 -0.89564992613E+01  0.96130428941E+02  0.91693005378E+02 0.  0.
         13    1    3    3    0    0  0.45893093195E+02 -0.20384811119E+02 -0.28570003495E+02  0.57775191831E+02  0.10566000000E+00 0. -1.
         22    1    1    0    0    0 -0.26687764132E+02 -0.64028509101E+01  0.89564992613E+01  0.28869571059E+02  0.00000000000E+00 0. -1.
</event>
<event>
 5    1  0.1724235E-003  0.9118800E+02  0.7818608E-02  0.1130116E+00
         25   -1    0    0    0    0  0.00000000000E+00  0.00000000000E+00  0.99999998245E-14  0.12500000000E+03  0.12500000000E+03 0.  0.
        -13    1    3    3    0    0 -0.20889187026E+02 -0.56808543905E+02 -0.33245652165E+00  0.60528427095E+02  0.10566000000E+00 0.  1.
         23    2    1    0    0    0  0.75916132297E+00 -0.29268250642E+02 -0.24275695727E+01  0.95621437823E+02  0.90996480458E+02 0.  0.
         13    1    3    3    0    0  0.21648348349E+02  0.27540293263E+02 -0.20951130511E+01  0.35093010729E+02  0.10566000000E+00 0. -1.
         22    1    1    0    0    0 -0.75916132297E+00  0.29268250642E+02  0.24275695727E+01  0.29378562177E+02  0.00000000000E+00 0.  1.
</event>
<event>
 5    1  0.1724235E-003  0.9118800E+02  0.7818608E-02  0.1130116E+00
         25   -1    0    0    0    0  0.00000000000E+00  0.00000000000E+00  0.99999998245E-14  0.12500000000E+03  0.12500000000E+03 0.  0.
        -13    1    3    3    0    0 -0.13718395394E+02  0.37911527462E+02 -0.67051062508E+01  0.40871113277E+02  0.10566000000E+00 0. -1.
         23    2    1    0    0    0  0.21095209311E+02 -0.21966976272E+01 -0.20244605984E+02  0.95679744070E+02  0.91076539337E+02 0.  0.
         13    1    3    3    0    0  0.34813604704E+02 -0.40108225089E+02 -0.13539499733E+02  0.54808630793E+02  0.10566000000E+00 0.  1.
         22    1    1    0    0    0 -0.21095209311E+02  0.21966976272E+01  0.20244605984E+02  0.29320255930E+02  0.00000000000E+00 0.  1.
</event>
<event>
 5    1  0.1724235E-003  0.9118800E+02  0.7818608E-02  0.1130116E+00
         25   -1    0    0    0    0  0.00000000000E+00  0.00000000000E+00  0.99999998245E-14  0.12500000000E+03  0.12500000000E+03 0.  0.
        -13    1    3    3    0    0 -0.29750043680E+02 -0.33408284161E+01  0.18905821636E+02  0.35407167202E+02  0.10566000000E+00 0.  1.
         23    2    1    0    0    0  0.60394119612E+01  0.27717693434E+01 -0.28848180333E+02  0.95396373353E+02  0.90686787010E+02 0.  0.
         13    1    3    3    0    0  0.35789455641E+02  0.61125977595E+01 -0.47754001970E+02  0.59989206151E+02  0.10566000000E+00 0. -1.
         22    1    1    0    0    0 -0.60394119612E+01 -0.27717693434E+01  0.28848180333E+02  0.29603626647E+02  0.00000000000E+00 0. -1.
</event>
<event>
 5    1  0.1724235E-003  0.9118800E+02  0.7818608E-02  0.1130116E+00
         25   -1    0    0    0    0  0.00000000000E+00  0.00000000000E+00  0.99999998245E-14  0.12500000000E+03  0.12500000000E+03 0.  0.
        -13    1    3    3    0    0 -0.20878970928E+02  0.31677289615E+02  0.49383678267E+02  0.62274721577E+02  0.10566000000E+00 0.  1.
         23    2    1    0    0    0 -0.92901113473E+01  0.17981501235E+02  0.21154358000E+02  0.95722919922E+02  0.91135777719E+02 0.  0.
         13    1    3    3    0    0  0.11588859580E+02 -0.13695788380E+02 -0.28229320267E+02  0.33448198344E+02  0.10566000000E+00 0. -1.
         22    1    1    0    0    0  0.92901113473E+01 -0.17981501235E+02 -0.21154358000E+02  0.29277080078E+02  0.00000000000E+00 0.  1.
</event>
<event>
 5    1  0.1724235E-003  0.9118800E+02  0.7818608E-02  0.1130116E+00
         25   -1    0    0    0    0  0.00000000000E+00  0.00000000000E+00  0.99999998245E-14  0.12500000000E+03  0.12500000000E+03 0.  0.
        -13    1    3    3    0    0  0.65449249017E+01  0.33037454128E+02 -0.10455903371E+02  0.35265372486E+02  0.10566000000E+00 0.  1.
         23    2    1    0    0    0  0.15259809376E+02 -0.22941119221E+02  0.10277054881E+02  0.95592949990E+02  0.90957338887E+02 0.  0.
         13    1    3    3    0    0  0.87148844739E+01 -0.55978573349E+02  0.20732958252E+02  0.60327577504E+02  0.10566000000E+00 0. -1.
         22    1    1    0    0    0 -0.15259809376E+02  0.22941119221E+02 -0.10277054881E+02  0.29407050010E+02  0.00000000000E+00 0. -1.
</event>
<event>
 5    1  0.1724235E-003  0.9118800E+02  0.7818608E-02  0.1130116E+00
         25   -1    0    0    0    0  0.00000000000E+00  0.00000000000E+00  0.99999998245E-14  0.12500000000E+03  0.12500000000E+03 0.  0.
        -13    1    3    3    0    0  0.44137264381E+02  0.15571720821E+02 -0.18379810220E+02  0.50283249539E+02  0.10566000000E+00 0. -1.
         23    2    1    0    0    0  0.20416511741E+02 -0.20276158140E+02 -0.12341236824E+02  0.93690853302E+02  0.88304661970E+02 0.  0.
         13    1    3    3    0    0 -0.23720752640E+02 -0.35847878961E+02  0.60385733962E+01  0.43407603764E+02  0.10566000000E+00 0.  1.
         22    1    1    0    0    0 -0.20416511741E+02  0.20276158140E+02  0.12341236824E+02  0.31309146698E+02  0.00000000000E+00 0. -1.
</event>
<event>
 5    1  0.1724235E-003  0.9118800E+02  0.7818608E-02  0.1130116E+00
         25   -1    0    0    0    0  0.00000000000E+00  0.00000000000E+00  0.99999998245E-14  0.12500000000E+03  0.12500000000E+03 0.  0.
        -13    1    3    3    0    0 -0.32510418844E+02 -0.31423084558E+02  0.26788437847E+02  0.52554439802E+02  0.10566000000E+00 0. -1.
         23    2    1    0    0    0 -0.17949138126E+02  0.63002574368E+01  0.25726182248E+02  0.93004668211E+02  0.87327928252E+02 0.  0.
         13    1    3    3    0    0  0.14561280718E+02  0.37723341995E+02 -0.10622555989E+01  0.40450228410E+02  0.10566000000E+00 0.  1.
         22    1    1    0    0    0  0.17949138126E+02 -0.63002574368E+01 -0.25726182248E+02  0.31995331789E+02  0.00000000000E+00 0. -1.
</event>
<event>
 5    1  0.1724235E-003  0.9118800E+02  0.7818608E-02  0.1130116E+00
         25   -1    0    0    0    0  0.00000000000E+00  0.00000000000E+00  0.99999998245E-14  0.12500000000E+03  0.12500000000E+03 0.  0.
        -13    1    3    3    0    0 -0.56886318753E+01  0.17099243628E+01 -0.60066686295E+02  0.60359774191E+02  0.10566000000E+00 0.  1.
         23    2    1    0    0    0 -0.17595816638E+01  0.12188847114E+02 -0.25724892759E+02  0.96479231619E+02  0.92167282182E+02 0.  0.
         13    1    3    3    0    0  0.39290502115E+01  0.10478922751E+02  0.34341793536E+02  0.36119457428E+02  0.10566000000E+00 0. -1.
         22    1    1    0    0    0  0.17595816638E+01 -0.12188847114E+02  0.25724892759E+02  0.28520768381E+02  0.00000000000E+00 0.  1.
</event>
<event>
 5    1  0.1724235E-003  0.9118800E+02  0.7818608E-02  0.1130116E+00
         25   -1    0    0    0    0  0.00000000000E+00  0.00000000000E+00  0.99999998245E-14  0.12500000000E+03  0.12500000000E+03 0.  0.
        -13    1    3    3    0    0 -0.38263842438E+02  0.41275614369E+02 -0.79461872855E+01  0.56841455260E+02  0.10566000000E+00 0. -1.
         23    2    1    0    0    0 -0.74855606977E+01  0.19064605127E+02 -0.19706563363E+02  0.96577448616E+02  0.92300390865E+02 0.  0.
         13    1    3    3    0    0  0.30778281741E+02 -0.22211009242E+02 -0.11760376078E+02  0.39735993356E+02  0.10566000000E+00 0.  1.
         22    1    1    0    0    0  0.74855606977E+01 -0.19064605127E+02  0.19706563363E+02  0.28422551384E+02  0.00000000000E+00 0. -1.
</event>
<event>
 5    1  0.1724235E-003  0.9118800E+02  0.7818608E-02  0.1130116E+00
         25   -1    0    0    0    0  0.00000000000E+00  0.00000000000E+00  0.99999998245E-14  0.12500000000E+03  0.12500000000E+03 0.  0.
        -13    1    3    3    0    0 -0.32305206584E+02 -0.26708650100E+02 -0.35957463209E+02  0.55226159445E+02  0.10566000000E+00 0. -1.
         23    2    1    0    0    0 -0.24322672187E+02  0.58709146743E+01 -0.84999478770E+01  0.98574460548E+02  0.94966389512E+02 0.  0.
         13    1    3    3    0    0  0.79825343971E+01  0.32579564775E+02  0.27457515332E+02  0.43348301103E+02  0.10566000000E+00 0.  1.
         22    1    1    0    0    0  0.24322672187E+02 -0.58709146743E+01  0.84999478770E+01  0.26425539452E+02  0.00000000000E+00 0. -1.
</event>
<event>
 5    1  0.1724235E-003  0.9118800E+02  0.7818608E-02  0.1130116E+00
         25   -1    0    0    0    0  0.00000000000E+00  0.00000000000E+00  0.99999998245E-14  0.12500000000E+03  0.12500000000E+03 0.  0.
        -13    1    3    3    0    0  0.23989975615E+02 -0.56175371243E+01  0.28520314639E+02  0.37689456941E+02  0.10566000000E+00 0. -1.
         23    2    1    0    0    0 -0.28339481175E+02  0.57879719567E+01  0.87335111310E+01  0.94785747911E+02  0.89841176404E+02 0.  0.
         13    1    3    3    0    0 -0.52329456790E+02  0.11405509081E+02 -0.19786803508E+02  0.57096290969E+02  0.10566000000E+00 0.  1.
         22    1    1    0    0    0  0.28339481175E+02 -0.57879719567E+01 -0.87335111310E+01  0.30214252089E+02  0.00000000000E+00 0.  1.
</event>
<event>
 5    1  0.1724235E-003  0.9118800E+02  0.7818608E-02  0.1130116E+00
         25   -1    0    0    0    0  0.00000000000E+00  0.00000000000E+00  0.99999998245E-14  0.12500000000E+03  0.12500000000E+03 0.  0.
        -13    1    3    3    0    0 -0.50612250082E+02  0.23713330885E+02 -0.13694040187E+02  0.57545284956E+02  0.10566000000E+00 0.  1.
         23    2    1    0    0    0 -0.22413337120E+02 -0.13210405496E+01 -0.18952047306E+02  0.95618323294E+02  0.90992201992E+02 0.  0.
         13    1    3    3    0    0  0.28198912962E+02 -0.25034371435E+02 -0.52580071187E+01  0.38073038337E+02  0.10566000000E+00 0. -1.
         22    1    1    0    0    0  0.22413337120E+02  0.13210405496E+01  0.18952047306E+02  0.29381676706E+02  0.00000000000E+00 0.  1.
</event>
<event>
 5    1  0.1724235E-003  0.9118800E+02  0.7818608E-02  0.1130116E+00
         25   -1    0    0    0    0  0.00000000000E+00  0.00000000000E+00  0.99999998245E-14  0.12500000000E+03  0.12500000000E+03 0.  0.
        -13    1    3    3    0    0  0.17619428143E+02 -0.43893418253E+02  0.32198046575E+02  0.57217145869E+02  0.10566000000E+00 0.  1.
         23    2    1    0    0    0 -0.63859441555E+00 -0.28479600148E+02  0.10246059107E+01  0.96494820739E+02  0.92188422184E+02 0.  0.
         13    1    3    3    0    0 -0.18258022559E+02  0.15413818105E+02 -0.31173440665E+02  0.39277674871E+02  0.10566000000E+00 0. -1.
         22    1    1    0    0    0  0.63859441555E+00  0.28479600148E+02 -0.10246059107E+01  0.28505179261E+02  0.00000000000E+00 0. -1.
</event>
<event>
 5    1  0.1724235E-003  0.9118800E+02  0.7818608E-02  0.1130116E+00
         25   -1    0    0    0    0  0.00000000000E+00  0.00000000000E+00  0.99999998245E-14  0.12500000000E+03  0.12500000000E+03 0.  0.
        -13    1    3    3    0    0  0.34892583622E+02  0.17630337953E+02 -0.24574152448E+02  0.46175982293E+02  0.10566000000E+00 0.  1.
         23    2    1    0    0    0 -0.13682370428E+02  0.19697694513E+02 -0.17508276537E+02  0.95305788831E+02  0.90561841897E+02 0.  0.
         13    1    3    3    0    0 -0.48574954050E+02  0.20673565604E+01  0.70658759112E+01  0.49129806538E+02  0.10566000000E+00 0. -1.
         22    1    1    0    0    0  0.13682370428E+02 -0.19697694513E+02  0.17508276537E+02  0.29694211169E+02  0.00000000000E+00 0.  1.
</event>
<event>
 5    1  0.1724235E-003  0.9118800E+02  0.7818608E-02  0.1130116E+00
         25   -1    0    0    0    0  0.00000000000E+00  0.00000000000E+00  0.99999998245E-14  0.12500000000E+03  0.12500000000E+03 0.  0.
        -13    1    3    3    0    0  0.32619089265E+02  0.11801459303E+02 -0.83053098191E+01  0.35668876649E+02  0.10566000000E+00 0. -1.
         23    2    1    0    0    0 -0.55729200875E+01 -0.25440649160E+02  0.16153625581E+02  0.94353243444E+02  0.89237384884E+02 0.  0.
         13    1    3    3    0    0 -0.38192009353E+02 -0.37242108463E+02  0.24458935400E+02  0.58684366795E+02  0.10566000000E+00 0.  1.
         22    1    1    0    0    0  0.55729200875E+01  0.25440649160E+02 -0.16153625581E+02  0.30646756556E+02  0.00000000000E+00 0.  1.
</event>
<event>
 5    1  0.1724235E-003  0.9118800E+02  0.7818608E-02  0.1130116E+00
         25   -1    0    0    0    0  0.00000000000E+00  0.00000000000E+00  0.99999998245E-14  0.12500000000E+03  0.12500000000E+03 0.  0.
        -13    1    3    3    0    0 -0.40191491356E+02  0.24036826074E+02  0.35213832817E+02  0.58593089787E+02  0.10566000000E+00 0. -1.
         23    2    1    0    0    0 -0.11682845031E+02  0.21758457265E+01  0.27078770329E+02  0.95428341690E+02  0.90730840526E+02 0.  0.
         13    1    3    3    0    0  0.28508646325E+02 -0.21860980348E+02 -0.81350624877E+01  0.36835251903E+02  0.10566000000E+00 0.  1.
         22    1    1    0    0    0  0.11682845031E+02 -0.21758457265E+01 -0.27078770329E+02  0.29571658310E+02  0.00000000000E+00 0. -1.
</event>
<event>
 5    1  0.1724235E-003  0.9118800E+02  0.7818608E-02  0.1130116E+00
         25   -1    0    0    0    0  0.00000000000E+00  0.00000000000E+00  0.99999998245E-14  0.12500000000E+03  0.12500000000E+03 0.  0.
        -13    1    3    3    0    0  0.10531862902E+02  0.51302060419E+02  0.12087909129E+01  0.52386008427E+02  0.10566000000E+00 0.  1.
         23    2    1    0    0    0 -0.19150926025E+02  0.20498452370E+02  0.82949943226E+01  0.95746770299E+02  0.91168484547E+02 0.  0.
         13    1    3    3    0    0 -0.29682788927E+02 -0.30803608049E+02  0.70862034097E+01  0.43360761872E+02  0.10566000000E+00 0. -1.
         22    1    1    0    0    0  0.19150926025E+02 -0.20498452370E+02 -0.82949943226E+01  0.29253229701E+02  0.00000000000E+00 0.  1.
</event>
<event>
 5    1  0.1724235E-003  0.9118800E+02  0.7818608E-02  0.1130116E+00
         25   -1    0    0    0    0  0.00000000000E+00  0.00000000000E+00  0.99999998245E-14  0.12500000000E+03  0.12500000000E+03 0.  0.
        -13    1    3    3    0    0 -0.50480557896E+02  0.34757090952E+02 -0.84860969419E+01  0.61873799805E+02  0.10566000000E+00 0.  1.
         23    2    1    0    0    0 -0.27401649272E+02  0.11749026423E+02 -0.62400336578E+01  0.94539730389E+02  0.89498226783E+02 0.  0.
         13    1    3    3    0    0  0.23078908624E+02 -0.23008064528E+02  0.22460632842E+01  0.32665930584E+02  0.10566000000E+00 0. -1.
         22    1    1    0    0    0  0.27401649272E+02 -0.11749026423E+02  0.62400336578E+01  0.30460269611E+02  0.00000000000E+00 0.  1.
</event>
<event>
 5    1  0.1724235E-003  0.9118800E+02  0.7818608E-02  0.1130116E+00
         25   -1    0    0    0    0  0.00000000000E+00  0.00000000000E+00  0.99999998245E-14  0.12500000000E+03  0.12500000000E+03 0.  0.
        -13    1    3    3    0    0  0.50153016437E+00  0.31130630025E+02  0.10304863929E+01  0.31151897607E+02  0.10566000000E+00 0. -1.
         23    2    1    0    0    0 -0.21712603186E+02 -0.24875484126E+02 -0.45882070339E+01  0.91664156057E+02  0.85387581147E+02 0.  0.
         13    1    3    3    0    0 -0.22214133351E+02 -0.56006114151E+02 -0.56186934268E+01  0.60512258450E+02  0.10566000000E+00 0.  1.
         22    1    1    0    0    0  0.21712603186E+02  0.24875484126E+02  0.45882070339E+01  0.33335843943E+02  0.00000000000E+00 0.  1.
</event>
<event>
 5    1  0.1724235E-003  0.9118800E+02  0.7818608E-02  0.1130116E+00
         25   -1    0    0    0    0  0.00000000000E+00  0.00000000000E+00  0.99999998245E-14  0.12500000000E+03  0.12500000000E+03 0.  0.
        -13    1    3    3    0    0 -0.40482334701E+02 -0.15605133956E+02  0.16827308609E+01  0.43418686943E+02  0.10566000000E+00 0.  1.
         23    2    1    0    0    0 -0.53486400236E+01  0.14621476511E+02  0.25190553474E+02  0.95386497846E+02  0.90673173881E+02 0.  0.
         13    1    3    3    0    0  0.35133694678E+02  0.30226610467E+02  0.23507822613E+02  0.51967810903E+02  0.10566000000E+00 0. -1.
         22    1    1    0    0    0  0.53486400236E+01 -0.14621476511E+02 -0.25190553474E+02  0.29613502154E+02  0.00000000000E+00 0. -1.
</event>
<event>
 5    1  0.1724235E-003  0.9118800E+02  0.7818608E-02  0.1130116E+00
         25   -1    0    0    0    0  0.00000000000E+00  0.00000000000E+00  0.99999998245E-14  0.12500000000E+03  0.12500000000E+03 0.  0.
        -13    1    3    3    0    0  0.11786276200E+02 -0.93766840418E+01 -0.33418407528E+02  0.36655690364E+02  0.10566000000E+00 0.  1.
         23    2    1    0    0    0  0.37458685622E+01  0.32373355813E+02  0.25011272610E+01  0.92314814740E+02  0.86334834714E+02 0.  0.
         13    1    3    3    0    0 -0.80404076378E+01  0.41750039855E+02  0.35919534789E+02  0.55659124377E+02  0.10566000000E+00 0. -1.
         22    1    1    0    0    0 -0.37458685622E+01 -0.32373355813E+02 -0.25011272610E+01  0.32685185260E+02  0.00000000000E+00 0. -1.
</event>
<event>
 5    1  0.1724235E-003  0.9118800E+02  0.7818608E-02  0.1130116E+00
         25   -1    0    0    0    0  0.00000000000E+00  0.00000000000E+00  0.99999998245E-14  0.12500000000E+03  0.12500000000E+03 0.  0.
        -13    1    3    3    0    0 -0.41925777193E+02  0.36153969589E+02 -0.15467373669E+02  0.57481572025E+02  0.10566000000E+00 0.  1.
         23    2    1    0    0    0 -0.17985725860E+02  0.27124391216E+02  0.72032252952E+01  0.91666752511E+02  0.85391382046E+02 0.  0.
         13    1    3    3    0    0  0.23940051333E+02 -0.90295783730E+01  0.22670598964E+02  0.34185180486E+02  0.10566000000E+00 0. -1.
         22    1    1    0    0    0  0.17985725860E+02 -0.27124391216E+02 -0.72032252952E+01  0.33333247489E+02  0.00000000000E+00 0.  1.
</event>
<event>
 5    1  0.1724235E-003  0.9118800E+02  0.7818608E-02  0.1130116E+00
         25   -1    0    0    0    0  0.00000000000E+00  0.00000000000E+00  0.99999998245E-14  0.12500000000E+03  0.12500000000E+03 0.  0.
        -13    1    3    3    0    0  0.30244221504E+02  0.35282869993E+02 -0.24074343424E+02  0.52337166762E+02  0.10566000000E+00 0. -1.
         23    2    1    0    0    0  0.15211527254E+02 -0.37639751158E+01 -0.26462233352E+02  0.94246010599E+02  0.89087050966E+02 0.  0.
         13    1    3    3    0    0 -0.15032694250E+02 -0.39046845109E+02 -0.23878899277E+01  0.41908843837E+02  0.10566000000E+00 0.  1.
         22    1    1    0    0    0 -0.15211527254E+02  0.37639751158E+01  0.26462233352E+02  0.30753989401E+02  0.00000000000E+00 0. -1.
</event>
<event>
 5    1  0.1724235E-003  0.9118800E+02  0.7818608E-02  0.1130116E+00
         25   -1    0    0    0    0  0.00000000000E+00  0.00000000000E+00  0.99999998245E-14  0.12500000000E+03  0.12500000000E+03 0.  0.
        -13    1    3    3    0    0  0.27540911566E+02  0.42027671639E+02 -0.89773855098E+01  0.51043428646E+02  0.10566000000E+00 0.  1.
         23    2    1    0    0    0  0.16953312868E+02  0.50038741904E+01 -0.26335009862E+02  0.93282712623E+02  0.87725014425E+02 0.  0.
         13    1    3    3    0    0 -0.10587598698E+02 -0.37023797449E+02 -0.17357624352E+02  0.42239283977E+02  0.10566000000E+00 0. -1.
         22    1    1    0    0    0 -0.16953312868E+02 -0.50038741904E+01  0.26335009862E+02  0.31717287377E+02  0.00000000000E+00 0.  1.
</event>
<event>
 5    1  0.1724235E-003  0.9118800E+02  0.7818608E-02  0.1130116E+00
         25   -1    0    0    0    0  0.00000000000E+00  0.00000000000E+00  0.99999998245E-14  0.12500000000E+03  0.12500000000E+03 0.  0.
        -13    1    3    3    0    0  0.19660466420E+02  0.54594130295E+02 -0.22775960097E+02  0.62336253696E+02  0.10566000000E+00 0.  1.
         23    2    1    0    0    0  0.50933507896E+01  0.23430228583E+02 -0.93154773822E+01  0.99276548587E+02  0.95886063361E+02 0.  0.
         13    1    3    3    0    0 -0.14567115630E+02 -0.31163901712E+02  0.13460482715E+02  0.36940294891E+02  0.10566000000E+00 0. -1.
         22    1    1    0    0    0 -0.50933507896E+01 -0.23430228583E+02  0.93154773822E+01  0.25723451413E+02  0.00000000000E+00 0.  1.
</event>
<event>
 5    1  0.1724235E-003  0.9118800E+02  0.7818608E-02  0.1130116E+00
         25   -1    0    0    0    0  0.00000000000E+00  0.00000000000E+00  0.99999998245E-14  0.12500000000E+03  0.12500000000E+03 0.  0.
        -13    1    3    3    0    0  0.31219791910E+02 -0.90207655572E+01  0.12484611893E+02  0.34812732100E+02  0.10566000000E+00 0. -1.
         23    2    1    0    0    0 -0.28654265677E+02 -0.55619774400E+00  0.12785138649E+01  0.96311833535E+02  0.91939971632E+02 0.  0.
         13    1    3    3    0    0 -0.59874057587E+02  0.84645678132E+01 -0.11206098028E+02  0.61499101435E+02  0.10566000000E+00 0.  1.
         22    1    1    0    0    0  0.28654265677E+02  0.55619774400E+00 -0.12785138649E+01  0.28688166465E+02  0.00000000000E+00 0.  1.
</event>
<event>
 5    1  0.1724235E-003  0.9118800E+02  0.7818608E-02  0.1130116E+00
         25   -1    0    0    0    0  0.00000000000E+00  0.00000000000E+00  0.99999998245E-14  0.12500000000E+03  0.12500000000E+03 0.  0.
        -13    1    3    3    0    0  0.22149668700E+02 -0.47696487871E+02  0.17993007975E+02  0.55581672148E+02  0.10566000000E+00 0.  1.
         23    2    1    0    0    0  0.27265537106E+02 -0.10835390286E+02  0.37806750471E+01  0.95417763773E+02  0.90716266145E+02 0.  0.
         13    1    3    3    0    0  0.51158684062E+01  0.36861097585E+02 -0.14212332928E+02  0.39836091625E+02  0.10566000000E+00 0. -1.
         22    1    1    0    0    0 -0.27265537106E+02  0.10835390286E+02 -0.37806750471E+01  0.29582236227E+02  0.00000000000E+00 0. -1.
</event>
<event>
 5    1  0.1724235E-003  0.9118800E+02  0.7818608E-02  0.1130116E+00
         25   -1    0    0    0    0  0.00000000000E+00  0.00000000000E+00  0.99999998245E-14  0.12500000000E+03  0.12500000000E+03 0.  0.
        -13    1    3    3    0    0  0.23358417070E+02 -0.53863167021E+02 -0.25001106939E+01  0.58763237888E+02  0.10566000000E+00 0.  1.
         23    2    1    0    0    0 -0.84317797589E+00 -0.27613264284E+02 -0.10661001781E+02  0.95388173436E+02  0.90675483781E+02 0.  0.
         13    1    3    3    0    0 -0.24201595046E+02  0.26249902737E+02 -0.81608910873E+01  0.36624935548E+02  0.10566000000E+00 0. -1.
         22    1    1    0    0    0  0.84317797589E+00  0.27613264284E+02  0.10661001781E+02  0.29611826564E+02  0.00000000000E+00 0.  1.
</event>
<event>
 5    1  0.1724235E-003  0.9118800E+02  0.7818608E-02  0.1130116E+00
         25   -1    0    0    0    0  0.00000000000E+00  0.00000000000E+00  0.99999998245E-14  0.12500000000E+03  0.12500000000E+03 0.  0.
        -13    1    3    3    0    0  0.21548342144E+02 -0.45777844043E+02  0.25470271486E+02  0.56645281780E+02  0.10566000000E+00 0. -1.
         23    2    1    0    0    0 -0.34239316055E+00 -0.17590478871E+02  0.27456629435E+02  0.92390052439E+02  0.86443699075E+02 0.  0.
         13    1    3    3    0    0 -0.21890735305E+02  0.28187365172E+02  0.19863579488E+01  0.35744770659E+02  0.10566000000E+00 0.  1.
         22    1    1    0    0    0  0.34239316055E+00  0.17590478871E+02 -0.27456629435E+02  0.32609947561E+02  0.00000000000E+00 0. -1.
</event>
<event>
 5    1  0.1724235E-003  0.9118800E+02  0.7818608E-02  0.1130116E+00
         25   -1    0    0    0    0  0.00000000000E+00  0.00000000000E+00  0.99999998245E-14  0.12500000000E+03  0.12500000000E+03 0.  0.
        -13    1    3    3    0    0 -0.28094759570E+02  0.88559066321E+01 -0.16102084539E+02  0.33571280704E+02  0.10566000000E+00 0.  1.
         23    2    1    0    0    0  0.29548474475E+02  0.37846103531E+01  0.42426907221E+01  0.94909535665E+02  0.90013243005E+02 0.  0.
         13    1    3    3    0    0  0.57643234045E+02 -0.50712962790E+01  0.20344775262E+02  0.61338254961E+02  0.10566000000E+00 0. -1.
         22    1    1    0    0    0 -0.29548474475E+02 -0.37846103531E+01 -0.42426907221E+01  0.30090464335E+02  0.00000000000E+00 0. -1.
</event>
<event>
 5    1  0.1724235E-003  0.9118800E+02  0.7818608E-02  0.1130116E+00
         25   -1    0    0    0    0  0.00000000000E+00  0.00000000000E+00  0.99999998245E-14  0.12500000000E+03  0.12500000000E+03 0.  0.
        -13    1    3    3    0    0 -0.45293569514E+02 -0.25497363250E+02 -0.15331402028E+02  0.54191198771E+02  0.10566000000E+00 0.  1.
         23    2    1    0    0    0 -0.23239773681E+02 -0.10461757032E+02  0.15655912302E+02  0.95089416072E+02  0.90262694497E+02 0.  0.
         13    1    3    3    0    0  0.22053795834E+02  0.15035606218E+02  0.30987314330E+02  0.40898217301E+02  0.10566000000E+00 0. -1.
         22    1    1    0    0    0  0.23239773681E+02  0.10461757032E+02 -0.15655912302E+02  0.29910583928E+02  0.00000000000E+00 0. -1.
</event>
<event>
 5    1  0.1724235E-003  0.9118800E+02  0.7818608E-02  0.1130116E+00
         25   -1    0    0    0    0  0.00000000000E+00  0.00000000000E+00  0.99999998245E-14  0.12500000000E+03  0.12500000000E+03 0.  0.
        -13    1    3    3    0    0  0.29164957205E+02  0.43475386819E+02  0.11141690229E+02  0.53524316091E+02  0.10566000000E+00 0. -1.
         23    2    1    0    0    0  0.37836637549E+01  0.18957847610E+02 -0.17461404002E+02  0.98949726928E+02  0.95459057883E+02 0.  0.
         13    1    3    3    0    0 -0.25381293450E+02 -0.24517539209E+02 -0.28603094232E+02  0.45425410837E+02  0.10566000000E+00 0.  1.
         22    1    1    0    0    0 -0.37836637549E+01 -0.18957847610E+02  0.17461404002E+02  0.26050273072E+02  0.00000000000E+00 0.  1.
</event>
<event>
 5    1  0.1724235E-003  0.9118800E+02  0.7818608E-02  0.1130116E+00
         25   -1    0    0    0    0  0.00000000000E+00  0.00000000000E+00  0.99999998245E-14  0.12500000000E+03  0.12500000000E+03 0.  0.
        -13    1    3    3    0    0 -0.75034689004E+01  0.47668092127E+02 -0.25095072198E+02  0.54390466676E+02  0.10566000000E+00 0. -1.
         23    2    1    0    0    0 -0.15169908906E+02  0.60745296106E+01 -0.23064439521E+02  0.96733510713E+02  0.92511500248E+02 0.  0.
         13    1    3    3    0    0 -0.76664400053E+01 -0.41593562517E+02  0.20306326764E+01  0.42343044037E+02  0.10566000000E+00 0.  1.
         22    1    1    0    0    0  0.15169908906E+02 -0.60745296106E+01  0.23064439521E+02  0.28266489287E+02  0.00000000000E+00 0. -1.
</event>
<event>
 5    1  0.1724235E-003  0.9118800E+02  0.7818608E-02  0.1130116E+00
         25   -1    0    0    0    0  0.00000000000E+00  0.00000000000E+00  0.99999998245E-14  0.12500000000E+03  0.12500000000E+03 0.  0.
        -13    1    3    3    0    0 -0.32691481404E+02  0.40910721007E+01 -0.33942990932E+02  0.47303357437E+02  0.10566000000E+00 0. -1.
         23    2    1    0    0    0 -0.10391842746E+02 -0.27634853340E+02 -0.66160846081E+01  0.94743627278E+02  0.89782552979E+02 0.  0.
         13    1    3    3    0    0  0.22299638659E+02 -0.31725925440E+02  0.27326906324E+02  0.47440269841E+02  0.10566000000E+00 0.  1.
         22    1    1    0    0    0  0.10391842746E+02  0.27634853340E+02  0.66160846081E+01  0.30256372722E+02  0.00000000000E+00 0. -1.
</event>
<event>
 5    1  0.1724235E-003  0.9118800E+02  0.7818608E-02  0.1130116E+00
         25   -1    0    0    0    0  0.00000000000E+00  0.00000000000E+00  0.99999998245E-14  0.12500000000E+03  0.12500000000E+03 0.  0.
        -13    1    3    3    0    0 -0.10740916519E+00  0.31343065302E+02  0.12508384834E+02  0.33747150019E+02  0.10566000000E+00 0.  1.
         23    2    1    0    0    0 -0.23037797887E+01 -0.28711429678E+02 -0.36230145007E+01  0.95969329503E+02  0.91473123789E+02 0.  0.
         13    1    3    3    0    0 -0.21963706235E+01 -0.60054494979E+02 -0.16131399335E+02  0.62222179483E+02  0.10566000000E+00 0. -1.
         22    1    1    0    0    0  0.23037797887E+01  0.28711429678E+02  0.36230145007E+01  0.29030670497E+02  0.00000000000E+00 0. -1.
</event>
<event>
 5    1  0.1724235E-003  0.9118800E+02  0.7818608E-02  0.1130116E+00
         25   -1    0    0    0    0  0.00000000000E+00  0.00000000000E+00  0.99999998245E-14  0.12500000000E+03  0.12500000000E+03 0.  0.
        -13    1    3    3    0    0  0.23370648680E+02  0.44603010658E+02 -0.33780759353E+01  0.50468191374E+02  0.10566000000E+00 0.  1.
         23    2    1    0    0    0  0.85805636597E+01  0.75589624684E+01 -0.26192962815E+02  0.96419669572E+02  0.92086466937E+02 0.  0.
         13    1    3    3    0    0 -0.14790085021E+02 -0.37044048190E+02 -0.22814886880E+02  0.45951478198E+02  0.10566000000E+00 0. -1.
         22    1    1    0    0    0 -0.85805636597E+01 -0.75589624684E+01  0.26192962815E+02  0.28580330428E+02  0.00000000000E+00 0.  1.
</event>
<event>
 5    1  0.1724235E-003  0.9118800E+02  0.7818608E-02  0.1130116E+00
         25   -1    0    0    0    0  0.00000000000E+00  0.00000000000E+00  0.99999998245E-14  0.12500000000E+03  0.12500000000E+03 0.  0.
        -13    1    3    3    0    0 -0.45818544057E+02 -0.15294433930E+01 -0.65895071858E-01  0.45844232819E+02  0.10566000000E+00 0. -1.
         23    2    1    0    0    0 -0.27011279426E+01  0.26554558182E+02 -0.59999463698E+01  0.97642368362E+02  0.93731489322E+02 0.  0.
         13    1    3    3    0    0  0.43117416114E+02  0.28084001575E+02 -0.59340512979E+01  0.51798135543E+02  0.10566000000E+00 0.  1.
         22    1    1    0    0    0  0.27011279426E+01 -0.26554558182E+02  0.59999463698E+01  0.27357631638E+02  0.00000000000E+00 0.  1.
</event>
<event>
 5    1  0.1724235E-003  0.9118800E+02  0.7818608E-02  0.1130116E+00
         25   -1    0    0    0    0  0.00000000000E+00  0.00000000000E+00  0.99999998245E-14  0.12500000000E+03  0.12500000000E+03 0.  0.
        -13    1    3    3    0    0  0.13137017695E+02 -0.17055397200E+02 -0.55805185706E+01  0.22240080016E+02  0.10566000000E+00 0.  1.
         23    2    1    0    0    0 -0.11437896604E+02  0.36595243047E+02 -0.18157559458E+02  0.82576725045E+02  0.70846180287E+02 0.  0.
         13    1    3    3    0    0 -0.24574914299E+02  0.53650640248E+02 -0.12577040888E+02  0.60336645029E+02  0.10566000000E+00 0. -1.
         22    1    1    0    0    0  0.11437896604E+02 -0.36595243047E+02  0.18157559458E+02  0.42423274955E+02  0.00000000000E+00 0. -1.
</event>
<event>
 5    1  0.1724235E-003  0.9118800E+02  0.7818608E-02  0.1130116E+00
         25   -1    0    0    0    0  0.00000000000E+00  0.00000000000E+00  0.99999998245E-14  0.12500000000E+03  0.12500000000E+03 0.  0.
        -13    1    3    3    0    0  0.22003072470E+02 -0.26160483086E+02  0.22060491592E+02  0.40683934504E+02  0.10566000000E+00 0. -1.
         23    2    1    0    0    0 -0.11105047892E+02 -0.24803724805E+02 -0.17795772242E+02  0.92515598165E+02  0.86625051464E+02 0.  0.
         13    1    3    3    0    0 -0.33108120362E+02  0.13567582807E+01 -0.39856263835E+02  0.51831663660E+02  0.10566000000E+00 0.  1.
         22    1    1    0    0    0  0.11105047892E+02  0.24803724805E+02  0.17795772242E+02  0.32484401835E+02  0.00000000000E+00 0.  1.
</event>
<event>
 5    1  0.1724235E-003  0.9118800E+02  0.7818608E-02  0.1130116E+00
         25   -1    0    0    0    0  0.00000000000E+00  0.00000000000E+00  0.99999998245E-14  0.12500000000E+03  0.12500000000E+03 0.  0.
        -13    1    3    3    0    0 -0.37665985089E+02 -0.10259392778E+02  0.47320605148E+02  0.61345190590E+02  0.10566000000E+00 0. -1.
         23    2    1    0    0    0 -0.11683088437E+02 -0.11219573379E+02  0.22373240016E+02  0.97378717426E+02  0.93379223366E+02 0.  0.
         13    1    3    3    0    0  0.25982896652E+02 -0.96018060062E+00 -0.24947365132E+02  0.36033526836E+02  0.10566000000E+00 0.  1.
         22    1    1    0    0    0  0.11683088437E+02  0.11219573379E+02 -0.22373240016E+02  0.27621282574E+02  0.00000000000E+00 0. -1.
</event>
<event>
 5    1  0.1724235E-003  0.9118800E+02  0.7818608E-02  0.1130116E+00
         25   -1    0    0    0    0  0.00000000000E+00  0.00000000000E+00  0.99999998245E-14  0.12500000000E+03  0.12500000000E+03 0.  0.
        -13    1    3    3    0    0 -0.14089012387E+02 -0.35927809121E+02  0.47741942887E+01  0.38885882187E+02  0.10566000000E+00 0.  1.
         23    2    1    0    0    0 -0.16469075288E+02  0.22131735830E+02  0.48243773566E+01  0.96994307925E+02  0.92863216514E+02 0.  0.
         13    1    3    3    0    0 -0.23800629008E+01  0.58059544952E+02  0.50183067935E-01  0.58108425738E+02  0.10566000000E+00 0. -1.
         22    1    1    0    0    0  0.16469075288E+02 -0.22131735830E+02 -0.48243773566E+01  0.28005692075E+02  0.00000000000E+00 0. -1.
</event>
<event>
 5    1  0.1724235E-003  0.9118800E+02  0.7818608E-02  0.1130116E+00
         25   -1    0    0    0    0  0.00000000000E+00  0.00000000000E+00  0.99999998245E-14  0.12500000000E+03  0.12500000000E+03 0.  0.
        -13    1    3    3    0    0  0.44737871414E+02 -0.11326074658E+01  0.12524281746E+02  0.46471805814E+02  0.10566000000E+00 0.  1.
         23    2    1    0    0    0  0.11464322201E+02 -0.20286219756E+01 -0.25476601346E+02  0.96989230521E+02  0.92856381743E+02 0.  0.
         13    1    3    3    0    0 -0.33273549213E+02 -0.89601450987E+00 -0.38000883092E+02  0.50517424707E+02  0.10566000000E+00 0. -1.
         22    1    1    0    0    0 -0.11464322201E+02  0.20286219756E+01  0.25476601346E+02  0.28010769479E+02  0.00000000000E+00 0.  1.
</event>
<event>
 5    1  0.1724235E-003  0.9118800E+02  0.7818608E-02  0.1130116E+00
         25   -1    0    0    0    0  0.00000000000E+00  0.00000000000E+00  0.99999998245E-14  0.12500000000E+03  0.12500000000E+03 0.  0.
        -13    1    3    3    0    0 -0.28360857690E+02 -0.14855606839E+02  0.22378910469E+02  0.39062182495E+02  0.10566000000E+00 0.  1.
         23    2    1    0    0    0  0.18585978353E+02  0.15516661813E+02 -0.32503376374E+01  0.10057112201E+03  0.97559112861E+02 0.  0.
         13    1    3    3    0    0  0.46946836043E+02  0.30372268652E+02 -0.25629248106E+02  0.61508939513E+02  0.10566000000E+00 0. -1.
         22    1    1    0    0    0 -0.18585978353E+02 -0.15516661813E+02  0.32503376374E+01  0.24428877991E+02  0.00000000000E+00 0. -1.
</event>
<event>
 5    1  0.1724235E-003  0.9118800E+02  0.7818608E-02  0.1130116E+00
         25   -1    0    0    0    0  0.00000000000E+00  0.00000000000E+00  0.99999998245E-14  0.12500000000E+03  0.12500000000E+03 0.  0.
        -13    1    3    3    0    0 -0.60609828566E+02 -0.43452659192E+01 -0.44225917997E+01  0.60926210591E+02  0.10566000000E+00 0.  1.
         23    2    1    0    0    0 -0.36057816585E+02 -0.12228561400E+02 -0.12831754764E+01  0.86903407107E+02  0.78107949510E+02 0.  0.
         13    1    3    3    0    0  0.24552011981E+02 -0.78832954808E+01  0.31394163233E+01  0.25977196516E+02  0.10566000000E+00 0. -1.
         22    1    1    0    0    0  0.36057816585E+02  0.12228561400E+02  0.12831754764E+01  0.38096592893E+02  0.00000000000E+00 0.  1.
</event>
<event>
 5    1  0.1724235E-003  0.9118800E+02  0.7818608E-02  0.1130116E+00
         25   -1    0    0    0    0  0.00000000000E+00  0.00000000000E+00  0.99999998245E-14  0.12500000000E+03  0.12500000000E+03 0.  0.
        -13    1    3    3    0    0  0.19974578141E+02  0.42949334509E+02 -0.35371160086E+02  0.59116488702E+02  0.10566000000E+00 0. -1.
         23    2    1    0    0    0 -0.14712495708E+01  0.26291176142E+02 -0.84746623362E+01  0.97337563015E+02  0.93324116678E+02 0.  0.
         13    1    3    3    0    0 -0.21445827711E+02 -0.16658158366E+02  0.26896497750E+02  0.38221074313E+02  0.10566000000E+00 0.  1.
         22    1    1    0    0    0  0.14712495708E+01 -0.26291176142E+02  0.84746623362E+01  0.27662436985E+02  0.00000000000E+00 0. -1.
</event>
<event>
 5    1  0.1724235E-003  0.9118800E+02  0.7818608E-02  0.1130116E+00
         25   -1    0    0    0    0  0.00000000000E+00  0.00000000000E+00  0.99999998245E-14  0.12500000000E+03  0.12500000000E+03 0.  0.
        -13    1    3    3    0    0 -0.18671345235E+02  0.57198120716E+02  0.16698198128E+02  0.62442654741E+02  0.10566000000E+00 0. -1.
         23    2    1    0    0    0 -0.97979833276E+01  0.28852317112E+02  0.65278264507E+01  0.93838016781E+02  0.88512734650E+02 0.  0.
         13    1    3    3    0    0  0.88733619075E+01 -0.28345803604E+02 -0.10170371677E+02  0.31395362040E+02  0.10566000000E+00 0.  1.
         22    1    1    0    0    0  0.97979833276E+01 -0.28852317112E+02 -0.65278264507E+01  0.31161983219E+02  0.00000000000E+00 0. -1.
</event>
<event>
 5    1  0.1724235E-003  0.9118800E+02  0.7818608E-02  0.1130116E+00
         25   -1    0    0    0    0  0.00000000000E+00  0.00000000000E+00  0.99999998245E-14  0.12500000000E+03  0.12500000000E+03 0.  0.
        -13    1    3    3    0    0 -0.13380008076E+02 -0.28436656398E+02 -0.22665317143E+01  0.31508988769E+02  0.10566000000E+00 0. -1.
         23    2    1    0    0    0  0.15424428881E+02  0.24402230145E+02  0.12605418019E+02  0.93499549118E+02  0.88033444097E+02 0.  0.
         13    1    3    3    0    0  0.28804436957E+02  0.52838886543E+02  0.14871949733E+02  0.61990560349E+02  0.10566000000E+00 0.  1.
         22    1    1    0    0    0 -0.15424428881E+02 -0.24402230145E+02 -0.12605418019E+02  0.31500450882E+02  0.00000000000E+00 0.  1.
</event>
<event>
 5    1  0.1724235E-003  0.9118800E+02  0.7818608E-02  0.1130116E+00
         25   -1    0    0    0    0  0.00000000000E+00  0.00000000000E+00  0.99999998245E-14  0.12500000000E+03  0.12500000000E+03 0.  0.
        -13    1    3    3    0    0 -0.40069036483E+02  0.34763037117E+02 -0.27227196229E+02  0.59626569688E+02  0.10566000000E+00 0.  1.
         23    2    1    0    0    0 -0.21229402340E+02  0.31400828950E+02 -0.26449841231E+02  0.78779942844E+02  0.63796439641E+02 0.  0.
         13    1    3    3    0    0  0.18839634143E+02 -0.33622081675E+01  0.77735499803E+00  0.19153373156E+02  0.10566000000E+00 0. -1.
         22    1    1    0    0    0  0.21229402340E+02 -0.31400828950E+02  0.26449841231E+02  0.46220057156E+02  0.00000000000E+00 0.  1.
</event>
<event>
 5    1  0.1724235E-003  0.9118800E+02  0.7818608E-02  0.1130116E+00
         25   -1    0    0    0    0  0.00000000000E+00  0.00000000000E+00  0.99999998245E-14  0.12500000000E+03  0.12500000000E+03 0.  0.
        -13    1    3    3    0    0 -0.23162837685E+02  0.25261531615E+02  0.38745798261E+02  0.51729199453E+02  0.10566000000E+00 0.  1.
         23    2    1    0    0    0 -0.18790168602E+02 -0.13253704142E+02  0.10328473595E+02  0.99792690021E+02  0.96556576706E+02 0.  0.
         13    1    3    3    0    0  0.43726690831E+01 -0.38515235757E+02 -0.28417324666E+02  0.48063490568E+02  0.10566000000E+00 0. -1.
         22    1    1    0    0    0  0.18790168602E+02  0.13253704142E+02 -0.10328473595E+02  0.25207309979E+02  0.00000000000E+00 0. -1.
</event>
<event>
 5    1  0.1724235E-003  0.9118800E+02  0.7818608E-02  0.1130116E+00
         25   -1    0    0    0    0  0.00000000000E+00  0.00000000000E+00  0.99999998245E-14  0.12500000000E+03  0.12500000000E+03 0.  0.
        -13    1    3    3    0    0 -0.51280686223E+02 -0.21622983468E+02 -0.25846251843E+02  0.61362057429E+02  0.10566000000E+00 0. -1.
         23    2    1    0    0    0 -0.24229426835E+02 -0.40560006941E+01 -0.17963941870E+02  0.94566145925E+02  0.89535113119E+02 0.  0.
         13    1    3    3    0    0  0.27051259388E+02  0.17566982774E+02  0.78823099734E+01  0.33204088496E+02  0.10566000000E+00 0.  1.
         22    1    1    0    0    0  0.24229426835E+02  0.40560006941E+01  0.17963941870E+02  0.30433854075E+02  0.00000000000E+00 0. -1.
</event>
<event>
 5    1  0.1724235E-003  0.9118800E+02  0.7818608E-02  0.1130116E+00
         25   -1    0    0    0    0  0.00000000000E+00  0.00000000000E+00  0.99999998245E-14  0.12500000000E+03  0.12500000000E+03 0.  0.
        -13    1    3    3    0    0 -0.17340368703E+02 -0.29527585627E+02 -0.22625969581E+00  0.34243671783E+02  0.10566000000E+00 0.  1.
         23    2    1    0    0    0  0.21134068996E+01  0.28730166281E+02 -0.46347364249E+01  0.95821759392E+02  0.91271243270E+02 0.  0.
         13    1    3    3    0    0  0.19453775602E+02  0.58257751908E+02 -0.44084767291E+01  0.61578087609E+02  0.10566000000E+00 0. -1.
         22    1    1    0    0    0 -0.21134068996E+01 -0.28730166281E+02  0.46347364249E+01  0.29178240608E+02  0.00000000000E+00 0. -1.
</event>
<event>
 5    1  0.1724235E-003  0.9118800E+02  0.7818608E-02  0.1130116E+00
         25   -1    0    0    0    0  0.00000000000E+00  0.00000000000E+00  0.99999998245E-14  0.12500000000E+03  0.12500000000E+03 0.  0.
        -13    1    3    3    0    0  0.37401485642E+02 -0.53701984515E+01 -0.39239899890E+02  0.54474682808E+02  0.10566000000E+00 0. -1.
         23    2    1    0    0    0  0.15661088118E+02  0.19672011332E+02 -0.13458505606E+02  0.96480023071E+02  0.92168355565E+02 0.  0.
         13    1    3    3    0    0 -0.21740397523E+02  0.25042209784E+02  0.25781394284E+02  0.42005340262E+02  0.10566000000E+00 0.  1.
         22    1    1    0    0    0 -0.15661088118E+02 -0.19672011332E+02  0.13458505606E+02  0.28519976929E+02  0.00000000000E+00 0. -1.
</event>
<event>
 5    1  0.1724235E-003  0.9118800E+02  0.7818608E-02  0.1130116E+00
         25   -1    0    0    0    0  0.00000000000E+00  0.00000000000E+00  0.99999998245E-14  0.12500000000E+03  0.12500000000E+03 0.  0.
        -13    1    3    3    0    0 -0.61543569511E+00 -0.10726762934E+02 -0.59027917214E+02  0.59997903120E+02  0.10566000000E+00 0.  1.
         23    2    1    0    0    0 -0.10006757539E+02 -0.12079718668E+02 -0.23690965870E+02  0.96586681584E+02  0.92312893986E+02 0.  0.
         13    1    3    3    0    0 -0.93913218435E+01 -0.13529557348E+01  0.35336951344E+02  0.36588778465E+02  0.10566000000E+00 0. -1.
         22    1    1    0    0    0  0.10006757539E+02  0.12079718668E+02  0.23690965870E+02  0.28413318416E+02  0.00000000000E+00 0.  1.
</event>
<event>
 5    1  0.1724235E-003  0.9118800E+02  0.7818608E-02  0.1130116E+00
         25   -1    0    0    0    0  0.00000000000E+00  0.00000000000E+00  0.99999998245E-14  0.12500000000E+03  0.12500000000E+03 0.  0.
        -13    1    3    3    0    0  0.28243780225E+02  0.40979987354E+02  0.21941839118E+02  0.54392333585E+02  0.10566000000E+00 0. -1.
         23    2    1    0    0    0  0.20491042203E+01  0.77500525305E+01  0.26840384358E+02  0.96988067278E+02  0.92854815813E+02 0.  0.
         13    1    3    3    0    0 -0.26194676004E+02 -0.33229934824E+02  0.48985452396E+01  0.42595733693E+02  0.10566000000E+00 0.  1.
         22    1    1    0    0    0 -0.20491042203E+01 -0.77500525305E+01 -0.26840384358E+02  0.28011932722E+02  0.00000000000E+00 0.  1.
</event>
<event>
 5    1  0.1724235E-003  0.9118800E+02  0.7818608E-02  0.1130116E+00
         25   -1    0    0    0    0  0.00000000000E+00  0.00000000000E+00  0.99999998245E-14  0.12500000000E+03  0.12500000000E+03 0.  0.
        -13    1    3    3    0    0  0.48456060873E+02  0.28545315368E+02  0.10309938121E+02  0.57176313740E+02  0.10566000000E+00 0. -1.
         23    2    1    0    0    0  0.87179606308E+01  0.20408143512E+02  0.15299779061E+02  0.98044881776E+02  0.94266751530E+02 0.  0.
         13    1    3    3    0    0 -0.39738100242E+02 -0.81371718559E+01  0.49898409400E+01  0.40868568036E+02  0.10566000000E+00 0.  1.
         22    1    1    0    0    0 -0.87179606308E+01 -0.20408143512E+02 -0.15299779061E+02  0.26955118224E+02  0.00000000000E+00 0. -1.
</event>
<event>
 5    1  0.1724235E-003  0.9118800E+02  0.7818608E-02  0.1130116E+00
         25   -1    0    0    0    0  0.00000000000E+00  0.00000000000E+00  0.99999998245E-14  0.12500000000E+03  0.12500000000E+03 0.  0.
        -13    1    3    3    0    0 -0.24150622065E+01  0.19637550402E+02  0.46041782530E+02  0.50113100222E+02  0.10566000000E+00 0. -1.
         23    2    1    0    0    0  0.23258956645E+02 -0.12554966724E+01  0.30340843876E+02  0.86749220358E+02  0.77860805863E+02 0.  0.
         13    1    3    3    0    0  0.25674018851E+02 -0.20893047074E+02 -0.15700938655E+02  0.36636120137E+02  0.10566000000E+00 0.  1.
         22    1    1    0    0    0 -0.23258956645E+02  0.12554966724E+01 -0.30340843876E+02  0.38250779642E+02  0.00000000000E+00 0. -1.
</event>
<event>
 5    1  0.1724235E-003  0.9118800E+02  0.7818608E-02  0.1130116E+00
         25   -1    0    0    0    0  0.00000000000E+00  0.00000000000E+00  0.99999998245E-14  0.12500000000E+03  0.12500000000E+03 0.  0.
        -13    1    3    3    0    0 -0.54045927049E+02  0.90445168818E+01  0.35209420733E+01  0.54910597459E+02  0.10566000000E+00 0. -1.
         23    2    1    0    0    0 -0.95738230426E+01  0.21604263476E+02  0.34256389573E+01  0.10112245217E+03  0.98262979006E+02 0.  0.
         13    1    3    3    0    0  0.44472104007E+02  0.12559746594E+02 -0.95303115941E-01  0.46211854713E+02  0.10566000000E+00 0.  1.
         22    1    1    0    0    0  0.95738230426E+01 -0.21604263476E+02 -0.34256389573E+01  0.23877547828E+02  0.00000000000E+00 0.  1.
</event>
<event>
 5    1  0.1724235E-003  0.9118800E+02  0.7818608E-02  0.1130116E+00
         25   -1    0    0    0    0  0.00000000000E+00  0.00000000000E+00  0.99999998245E-14  0.12500000000E+03  0.12500000000E+03 0.  0.
        -13    1    3    3    0    0 -0.55239792006E+02  0.19125479073E+02  0.36486059498E+01  0.58570829430E+02  0.10566000000E+00 0. -1.
         23    2    1    0    0    0 -0.26727371931E+02 -0.70273428357E+01  0.12181852307E+01  0.97337391068E+02  0.93323886369E+02 0.  0.
         13    1    3    3    0    0  0.28512420076E+02 -0.26152821909E+02 -0.24304207191E+01  0.38766561638E+02  0.10566000000E+00 0.  1.
         22    1    1    0    0    0  0.26727371931E+02  0.70273428357E+01 -0.12181852307E+01  0.27662608932E+02  0.00000000000E+00 0. -1.
</event>
<event>
 5    1  0.1724235E-003  0.9118800E+02  0.7818608E-02  0.1130116E+00
         25   -1    0    0    0    0  0.00000000000E+00  0.00000000000E+00  0.99999998245E-14  0.12500000000E+03  0.12500000000E+03 0.  0.
        -13    1    3    3    0    0  0.36035129732E+02 -0.40317878434E+02 -0.24279264517E+02  0.59275254076E+02  0.10566000000E+00 0. -1.
         23    2    1    0    0    0  0.18192025350E+02 -0.36596068495E+02 -0.87854174324E+01  0.83198019483E+02  0.71934031382E+02 0.  0.
         13    1    3    3    0    0 -0.17843104382E+02  0.37218099389E+01  0.15493847085E+02  0.23922765407E+02  0.10566000000E+00 0.  1.
         22    1    1    0    0    0 -0.18192025350E+02  0.36596068495E+02  0.87854174324E+01  0.41801980517E+02  0.00000000000E+00 0. -1.
</event>
<event>
 5    1  0.1724235E-003  0.9118800E+02  0.7818608E-02  0.1130116E+00
         25   -1    0    0    0    0  0.00000000000E+00  0.00000000000E+00  0.99999998245E-14  0.12500000000E+03  0.12500000000E+03 0.  0.
        -13    1    3    3    0    0  0.54234724909E+01  0.35185900900E+02  0.44755648673E+02  0.57188643350E+02  0.10566000000E+00 0.  1.
         23    2    1    0    0    0  0.37446008403E+00  0.27903350678E+02  0.66480346623E+01  0.96313181349E+02  0.91941804079E+02 0.  0.
         13    1    3    3    0    0 -0.50490124068E+01 -0.72825502220E+01 -0.38107614011E+02  0.39124537999E+02  0.10566000000E+00 0. -1.
         22    1    1    0    0    0 -0.37446008403E+00 -0.27903350678E+02 -0.66480346623E+01  0.28686818651E+02  0.00000000000E+00 0.  1.
</event>
<event>
 5    1  0.1724235E-003  0.9118800E+02  0.7818608E-02  0.1130116E+00
         25   -1    0    0    0    0  0.00000000000E+00  0.00000000000E+00  0.99999998245E-14  0.12500000000E+03  0.12500000000E+03 0.  0.
        -13    1    3    3    0    0 -0.46159695720E+02 -0.34037366373E+02 -0.91883805630E+01  0.58083537426E+02  0.10566000000E+00 0.  1.
         23    2    1    0    0    0 -0.16065584333E+02 -0.22477789870E+02  0.10020086695E+02  0.95610270930E+02  0.90981139433E+02 0.  0.
         13    1    3    3    0    0  0.30094111387E+02  0.11559576503E+02  0.19208467258E+02  0.37526733504E+02  0.10566000000E+00 0. -1.
         22    1    1    0    0    0  0.16065584333E+02  0.22477789870E+02 -0.10020086695E+02  0.29389729070E+02  0.00000000000E+00 0.  1.
</event>
<event>
 5    1  0.1724235E-003  0.9118800E+02  0.7818608E-02  0.1130116E+00
         25   -1    0    0    0    0  0.00000000000E+00  0.00000000000E+00  0.99999998245E-14  0.12500000000E+03  0.12500000000E+03 0.  0.
        -13    1    3    3    0    0 -0.15436520865E+02 -0.51580761815E+02  0.55150543402E+01  0.54122898613E+02  0.10566000000E+00 0.  1.
         23    2    1    0    0    0  0.15055441517E+02 -0.25745370470E+02  0.78607531180E+01  0.94157142488E+02  0.88962270778E+02 0.  0.
         13    1    3    3    0    0  0.30491962382E+02  0.25835391345E+02  0.23456987778E+01  0.40034243875E+02  0.10566000000E+00 0. -1.
         22    1    1    0    0    0 -0.15055441517E+02  0.25745370470E+02 -0.78607531180E+01  0.30842857512E+02  0.00000000000E+00 0.  1.
</event>
<event>
 5    1  0.1724235E-003  0.9118800E+02  0.7818608E-02  0.1130116E+00
         25   -1    0    0    0    0  0.00000000000E+00  0.00000000000E+00  0.99999998245E-14  0.12500000000E+03  0.12500000000E+03 0.  0.
        -13    1    3    3    0    0  0.48057647263E+02 -0.28314794478E+02 -0.10994043744E+02  0.56851958706E+02  0.10566000000E+00 0.  1.
         23    2    1    0    0    0  0.31394621052E+02  0.32025467209E+01 -0.64286174517E+01  0.92794322569E+02  0.87026321548E+02 0.  0.
         13    1    3    3    0    0 -0.16663026212E+02  0.31517341199E+02  0.45654262928E+01  0.35942363863E+02  0.10566000000E+00 0. -1.
         22    1    1    0    0    0 -0.31394621052E+02 -0.32025467209E+01  0.64286174517E+01  0.32205677431E+02  0.00000000000E+00 0.  1.
</event>
<event>
 5    1  0.1724235E-003  0.9118800E+02  0.7818608E-02  0.1130116E+00
         25   -1    0    0    0    0  0.00000000000E+00  0.00000000000E+00  0.99999998245E-14  0.12500000000E+03  0.12500000000E+03 0.  0.
        -13    1    3    3    0    0  0.15680516102E+02 -0.17030248632E+02  0.30231757663E+02  0.38077267353E+02  0.10566000000E+00 0. -1.
         23    2    1    0    0    0  0.17326577861E+02  0.44077623778E+01 -0.23221798306E+02  0.95693164857E+02  0.91094957128E+02 0.  0.
         13    1    3    3    0    0  0.16460617595E+01  0.21438011010E+02 -0.53453555969E+02  0.57615897503E+02  0.10566000000E+00 0.  1.
         22    1    1    0    0    0 -0.17326577861E+02 -0.44077623778E+01  0.23221798306E+02  0.29306835143E+02  0.00000000000E+00 0.  1.
</event>
<event>
 5    1  0.1724235E-003  0.9118800E+02  0.7818608E-02  0.1130116E+00
         25   -1    0    0    0    0  0.00000000000E+00  0.00000000000E+00  0.99999998245E-14  0.12500000000E+03  0.12500000000E+03 0.  0.
        -13    1    3    3    0    0  0.37046838614E+02 -0.19937010099E+01  0.30833750490E+02  0.48240796307E+02  0.10566000000E+00 0.  1.
         23    2    1    0    0    0  0.24602522325E+02  0.34851498555E+01 -0.14950073151E+02  0.96001119651E+02  0.91516555403E+02 0.  0.
         13    1    3    3    0    0 -0.12444316289E+02  0.54788508654E+01 -0.45783823641E+02  0.47760323344E+02  0.10566000000E+00 0. -1.
         22    1    1    0    0    0 -0.24602522325E+02 -0.34851498555E+01  0.14950073151E+02  0.28998880349E+02  0.00000000000E+00 0.  1.
</event>
<event>
 5    1  0.1724235E-003  0.9118800E+02  0.7818608E-02  0.1130116E+00
         25   -1    0    0    0    0  0.00000000000E+00  0.00000000000E+00  0.99999998245E-14  0.12500000000E+03  0.12500000000E+03 0.  0.
        -13    1    3    3    0    0 -0.12555209149E+02  0.21776488129E+01  0.34218741354E+02  0.36514501982E+02  0.10566000000E+00 0.  1.
         23    2    1    0    0    0  0.12586738383E+01 -0.22972809130E+02 -0.17792109747E+02  0.95915753604E+02  0.91399881844E+02 0.  0.
         13    1    3    3    0    0  0.13813882987E+02 -0.25150457943E+02 -0.52010851101E+02  0.59401251622E+02  0.10566000000E+00 0. -1.
         22    1    1    0    0    0 -0.12586738383E+01  0.22972809130E+02  0.17792109747E+02  0.29084246396E+02  0.00000000000E+00 0. -1.
</event>
<event>
 5    1  0.1724235E-003  0.9118800E+02  0.7818608E-02  0.1130116E+00
         25   -1    0    0    0    0  0.00000000000E+00  0.00000000000E+00  0.99999998245E-14  0.12500000000E+03  0.12500000000E+03 0.  0.
        -13    1    3    3    0    0  0.42803498992E+02 -0.12311366177E+02  0.31102572075E+02  0.54323939629E+02  0.10566000000E+00 0.  1.
         23    2    1    0    0    0  0.28230349695E+02 -0.95928369610E+00 -0.63175462037E+01  0.96055496909E+02  0.91590797722E+02 0.  0.
         13    1    3    3    0    0 -0.14573149297E+02  0.11352082480E+02 -0.37420118278E+02  0.41731557281E+02  0.10566000000E+00 0. -1.
         22    1    1    0    0    0 -0.28230349695E+02  0.95928369610E+00  0.63175462037E+01  0.28944503091E+02  0.00000000000E+00 0.  1.
</event>
<event>
 5    1  0.1724235E-003  0.9118800E+02  0.7818608E-02  0.1130116E+00
         25   -1    0    0    0    0  0.00000000000E+00  0.00000000000E+00  0.99999998245E-14  0.12500000000E+03  0.12500000000E+03 0.  0.
        -13    1    3    3    0    0  0.33293084239E+02 -0.45153486800E+02  0.86462688155E+01  0.56762980513E+02  0.10566000000E+00 0.  1.
         23    2    1    0    0    0  0.14040716692E+02 -0.21473383677E+02 -0.14919127664E+02  0.95321248308E+02  0.90583177671E+02 0.  0.
         13    1    3    3    0    0 -0.19252367547E+02  0.23680103123E+02 -0.23565396479E+02  0.38558267795E+02  0.10566000000E+00 0. -1.
         22    1    1    0    0    0 -0.14040716692E+02  0.21473383677E+02  0.14919127664E+02  0.29678751692E+02  0.00000000000E+00 0.  1.
</event>
<event>
 5    1  0.1724235E-003  0.9118800E+02  0.7818608E-02  0.1130116E+00
         25   -1    0    0    0    0  0.00000000000E+00  0.00000000000E+00  0.99999998245E-14  0.12500000000E+03  0.12500000000E+03 0.  0.
        -13    1    3    3    0    0  0.69128698337E+01 -0.21333869309E+02 -0.26778054692E+02  0.34928457254E+02  0.10566000000E+00 0.  1.
         23    2    1    0    0    0 -0.17131163155E+02  0.61102405009E+01  0.22388424550E+02  0.96154665129E+02  0.91726039281E+02 0.  0.
         13    1    3    3    0    0 -0.24044032988E+02  0.27444109810E+02  0.49166479242E+02  0.61226207874E+02  0.10566000000E+00 0. -1.
         22    1    1    0    0    0  0.17131163155E+02 -0.61102405009E+01 -0.22388424550E+02  0.28845334871E+02  0.00000000000E+00 0. -1.
</event>
<event>
 5    1  0.1724235E-003  0.9118800E+02  0.7818608E-02  0.1130116E+00
         25   -1    0    0    0    0  0.00000000000E+00  0.00000000000E+00  0.99999998245E-14  0.12500000000E+03  0.12500000000E+03 0.  0.
        -13    1    3    3    0    0 -0.26482362477E+02 -0.56260916860E+01  0.49818181203E+02  0.56699477709E+02  0.10566000000E+00 0. -1.
         23    2    1    0    0    0 -0.35562370709E+02 -0.19580605545E+01  0.31586071592E+02  0.77395419021E+02  0.61023395146E+02 0.  0.
         13    1    3    3    0    0 -0.90800082325E+01  0.36680311315E+01 -0.18232109611E+02  0.20695941312E+02  0.10566000000E+00 0.  1.
         22    1    1    0    0    0  0.35562370709E+02  0.19580605545E+01 -0.31586071592E+02  0.47604580979E+02  0.00000000000E+00 0. -1.
</event>
<event>
 5    1  0.1724235E-003  0.9118800E+02  0.7818608E-02  0.1130116E+00
         25   -1    0    0    0    0  0.00000000000E+00  0.00000000000E+00  0.99999998245E-14  0.12500000000E+03  0.12500000000E+03 0.  0.
        -13    1    3    3    0    0 -0.34303085842E+02 -0.48743730074E+01  0.32368946423E+02  0.47415409595E+02  0.10566000000E+00 0.  1.
         23    2    1    0    0    0 -0.16073432826E+02  0.24115548225E+02 -0.20213879365E+01  0.95948306104E+02  0.91444390347E+02 0.  0.
         13    1    3    3    0    0  0.18229653016E+02  0.28989921233E+02 -0.34390334360E+02  0.48532896509E+02  0.10566000000E+00 0. -1.
         22    1    1    0    0    0  0.16073432826E+02 -0.24115548225E+02  0.20213879365E+01  0.29051693896E+02  0.00000000000E+00 0. -1.
</event>
<event>
 5    1  0.1724235E-003  0.9118800E+02  0.7818608E-02  0.1130116E+00
         25   -1    0    0    0    0  0.00000000000E+00  0.00000000000E+00  0.99999998245E-14  0.12500000000E+03  0.12500000000E+03 0.  0.
        -13    1    3    3    0    0 -0.44351831389E+02 -0.20369451791E+02  0.16840611439E+02  0.51629612351E+02  0.10566000000E+00 0.  1.
         23    2    1    0    0    0 -0.66893409123E+01 -0.29828614985E+02 -0.11104713686E+01  0.94410349783E+02  0.89317341237E+02 0.  0.
         13    1    3    3    0    0  0.37662490477E+02 -0.94591631943E+01 -0.17951082807E+02  0.42780737432E+02  0.10566000000E+00 0. -1.
         22    1    1    0    0    0  0.66893409123E+01  0.29828614985E+02  0.11104713686E+01  0.30589650217E+02  0.00000000000E+00 0.  1.
</event>
<event>
 5    1  0.1724235E-003  0.9118800E+02  0.7818608E-02  0.1130116E+00
         25   -1    0    0    0    0  0.00000000000E+00  0.00000000000E+00  0.99999998245E-14  0.12500000000E+03  0.12500000000E+03 0.  0.
        -13    1    3    3    0    0  0.24309100736E+02 -0.22318934645E+02 -0.10811373567E+00  0.33001364743E+02  0.10566000000E+00 0.  1.
         23    2    1    0    0    0 -0.19682274969E+02  0.21363318638E+02 -0.62088354046E+01  0.95295909907E+02  0.90548205265E+02 0.  0.
         13    1    3    3    0    0 -0.43991375705E+02  0.43682253283E+02 -0.61007216689E+01  0.62294545164E+02  0.10566000000E+00 0. -1.
         22    1    1    0    0    0  0.19682274969E+02 -0.21363318638E+02  0.62088354046E+01  0.29704090093E+02  0.00000000000E+00 0. -1.
</event>
<event>
 5    1  0.1724235E-003  0.9118800E+02  0.7818608E-02  0.1130116E+00
         25   -1    0    0    0    0  0.00000000000E+00  0.00000000000E+00  0.99999998245E-14  0.12500000000E+03  0.12500000000E+03 0.  0.
        -13    1    3    3    0    0  0.54681092683E+02  0.16007520293E+02 -0.25412529782E+02  0.62386460365E+02  0.10566000000E+00 0. -1.
         23    2    1    0    0    0  0.26279345500E+02  0.79096505338E+01 -0.93408497873E+01  0.96010035422E+02  0.91528732404E+02 0.  0.
         13    1    3    3    0    0 -0.28401747183E+02 -0.80978697588E+01  0.16071679995E+02  0.33623575057E+02  0.10566000000E+00 0.  1.
         22    1    1    0    0    0 -0.26279345500E+02 -0.79096505338E+01  0.93408497873E+01  0.28989964578E+02  0.00000000000E+00 0. -1.
</event>
<event>
 5    1  0.1724235E-003  0.9118800E+02  0.7818608E-02  0.1130116E+00
         25   -1    0    0    0    0  0.00000000000E+00  0.00000000000E+00  0.99999998245E-14  0.12500000000E+03  0.12500000000E+03 0.  0.
        -13    1    3    3    0    0  0.35576563019E+02  0.25210562960E+01  0.37117776551E+02  0.51476092132E+02  0.10566000000E+00 0. -1.
         23    2    1    0    0    0  0.12063497692E+02 -0.24150797162E+02  0.99312679673E+01  0.96235107100E+02  0.91835596448E+02 0.  0.
         13    1    3    3    0    0 -0.23513065327E+02 -0.26671853458E+02 -0.27186508583E+02  0.44759014968E+02  0.10566000000E+00 0.  1.
         22    1    1    0    0    0 -0.12063497692E+02  0.24150797162E+02 -0.99312679673E+01  0.28764892900E+02  0.00000000000E+00 0. -1.
</event>
<event>
 5    1  0.1724235E-003  0.9118800E+02  0.7818608E-02  0.1130116E+00
         25   -1    0    0    0    0  0.00000000000E+00  0.00000000000E+00  0.99999998245E-14  0.12500000000E+03  0.12500000000E+03 0.  0.
        -13    1    3    3    0    0 -0.35144465302E+02 -0.29262908878E+02 -0.37858302630E+02  0.59369297785E+02  0.10566000000E+00 0.  1.
         23    2    1    0    0    0 -0.13997409110E+02 -0.22880980596E+02 -0.70717979433E+01  0.97260550457E+02  0.93220907602E+02 0.  0.
         13    1    3    3    0    0  0.21147056192E+02  0.63819282821E+01  0.30786504687E+02  0.37891252672E+02  0.10566000000E+00 0. -1.
         22    1    1    0    0    0  0.13997409110E+02  0.22880980596E+02  0.70717979433E+01  0.27739449543E+02  0.00000000000E+00 0.  1.
</event>
<event>
 5    1  0.1724235E-003  0.9118800E+02  0.7818608E-02  0.1130116E+00
         25   -1    0    0    0    0  0.00000000000E+00  0.00000000000E+00  0.99999998245E-14  0.12500000000E+03  0.12500000000E+03 0.  0.
        -13    1    3    3    0    0  0.21985837600E+02 -0.32931394446E+02  0.13774890744E+02  0.41923890256E+02  0.10566000000E+00 0.  1.
         23    2    1    0    0    0  0.28244514270E+02  0.13870554756E+02 -0.57362066850E+01  0.93014863722E+02  0.87342520747E+02 0.  0.
         13    1    3    3    0    0  0.62586766708E+01  0.46801949202E+02 -0.19511097429E+02  0.51090973466E+02  0.10566000000E+00 0. -1.
         22    1    1    0    0    0 -0.28244514270E+02 -0.13870554756E+02  0.57362066850E+01  0.31985136278E+02  0.00000000000E+00 0. -1.
</event>
<event>
 5    1  0.1724235E-003  0.9118800E+02  0.7818608E-02  0.1130116E+00
         25   -1    0    0    0    0  0.00000000000E+00  0.00000000000E+00  0.99999998245E-14  0.12500000000E+03  0.12500000000E+03 0.  0.
        -13    1    3    3    0    0 -0.15377424425E+02  0.43585653786E+02  0.88998308220E+01  0.47067956728E+02  0.10566000000E+00 0.  1.
         23    2    1    0    0    0 -0.27620287066E+02 -0.28090752431E-01 -0.92552804075E+01  0.95870268417E+02  0.91337654361E+02 0.  0.
         13    1    3    3    0    0 -0.12242862641E+02 -0.43613744538E+02 -0.18155111229E+02  0.48802311688E+02  0.10566000000E+00 0. -1.
         22    1    1    0    0    0  0.27620287066E+02  0.28090752431E-01  0.92552804075E+01  0.29129731583E+02  0.00000000000E+00 0. -1.
</event>
<event>
 5    1  0.1724235E-003  0.9118800E+02  0.7818608E-02  0.1130116E+00
         25   -1    0    0    0    0  0.00000000000E+00  0.00000000000E+00  0.99999998245E-14  0.12500000000E+03  0.12500000000E+03 0.  0.
        -13    1    3    3    0    0  0.11821646901E+02 -0.34516643576E+02 -0.81602112727E+00  0.36494206029E+02  0.10566000000E+00 0.  1.
         23    2    1    0    0    0 -0.34727485580E+01  0.14933442474E+02 -0.26581519990E+02  0.94313767066E+02  0.89182070881E+02 0.  0.
         13    1    3    3    0    0 -0.15294395459E+02  0.49450086050E+02 -0.25765498863E+02  0.57819561037E+02  0.10566000000E+00 0. -1.
         22    1    1    0    0    0  0.34727485580E+01 -0.14933442474E+02  0.26581519990E+02  0.30686232934E+02  0.00000000000E+00 0. -1.
</event>
<event>
 5    1  0.1724235E-003  0.9118800E+02  0.7818608E-02  0.1130116E+00
         25   -1    0    0    0    0  0.00000000000E+00  0.00000000000E+00  0.99999998245E-14  0.12500000000E+03  0.12500000000E+03 0.  0.
        -13    1    3    3    0    0  0.11473482871E+02 -0.29330638094E+02  0.16886338289E+02  0.35736350192E+02  0.10566000000E+00 0.  1.
         23    2    1    0    0    0 -0.21552668793E+01  0.28165739317E+02  0.19491141877E+01  0.96684755118E+02  0.92445599028E+02 0.  0.
         13    1    3    3    0    0 -0.13628749750E+02  0.57496377411E+02 -0.14937224102E+02  0.60948404926E+02  0.10566000000E+00 0. -1.
         22    1    1    0    0    0  0.21552668793E+01 -0.28165739317E+02 -0.19491141877E+01  0.28315244882E+02  0.00000000000E+00 0. -1.
</event>
<event>
 5    1  0.1724235E-003  0.9118800E+02  0.7818608E-02  0.1130116E+00
         25   -1    0    0    0    0  0.00000000000E+00  0.00000000000E+00  0.99999998245E-14  0.12500000000E+03  0.12500000000E+03 0.  0.
        -13    1    3    3    0    0 -0.31065912061E+02 -0.36822538259E+02 -0.15190202529E+02  0.50514786280E+02  0.10566000000E+00 0. -1.
         23    2    1    0    0    0 -0.79831923724E+01 -0.19205431940E+02  0.20004711073E+02  0.96142272412E+02  0.91709149505E+02 0.  0.
         13    1    3    3    0    0  0.23082719688E+02  0.17617106319E+02  0.35194913602E+02  0.45627486132E+02  0.10566000000E+00 0.  1.
         22    1    1    0    0    0  0.79831923724E+01  0.19205431940E+02 -0.20004711073E+02  0.28857727588E+02  0.00000000000E+00 0. -1.
</event>
<event>
 5    1  0.1724235E-003  0.9118800E+02  0.7818608E-02  0.1130116E+00
         25   -1    0    0    0    0  0.00000000000E+00  0.00000000000E+00  0.99999998245E-14  0.12500000000E+03  0.12500000000E+03 0.  0.
        -13    1    3    3    0    0 -0.35072977754E+02 -0.81463512507E+01 -0.38233195927E+02  0.52519189275E+02  0.10566000000E+00 0.  1.
         23    2    1    0    0    0 -0.23159774674E+02  0.17769479073E+02 -0.66787380376E+01  0.95054464586E+02  0.90214279061E+02 0.  0.
         13    1    3    3    0    0  0.11913203081E+02  0.25915830324E+02  0.31554457890E+02  0.42535275311E+02  0.10566000000E+00 0. -1.
         22    1    1    0    0    0  0.23159774674E+02 -0.17769479073E+02  0.66787380376E+01  0.29945535414E+02  0.00000000000E+00 0.  1.
</event>
<event>
 5    1  0.1724235E-003  0.9118800E+02  0.7818608E-02  0.1130116E+00
         25   -1    0    0    0    0  0.00000000000E+00  0.00000000000E+00  0.99999998245E-14  0.12500000000E+03  0.12500000000E+03 0.  0.
        -13    1    3    3    0    0  0.18755887411E+02 -0.28677236843E+02  0.14917214420E+02  0.37372472164E+02  0.10566000000E+00 0.  1.
         23    2    1    0    0    0 -0.19854624803E+02 -0.55894113403E+01 -0.21465718446E+02  0.95230473407E+02  0.90457826371E+02 0.  0.
         13    1    3    3    0    0 -0.38610512214E+02  0.23087825503E+02 -0.36382932866E+02  0.57858001243E+02  0.10566000000E+00 0. -1.
         22    1    1    0    0    0  0.19854624803E+02  0.55894113403E+01  0.21465718446E+02  0.29769526593E+02  0.00000000000E+00 0. -1.
</event>
<event>
 5    1  0.1724235E-003  0.9118800E+02  0.7818608E-02  0.1130116E+00
         25   -1    0    0    0    0  0.00000000000E+00  0.00000000000E+00  0.99999998245E-14  0.12500000000E+03  0.12500000000E+03 0.  0.
        -13    1    3    3    0    0 -0.20166674649E+02 -0.46765167180E+02  0.29266375865E+02  0.58738467362E+02  0.10566000000E+00 0.  1.
         23    2    1    0    0    0 -0.12666581997E+02 -0.10838615633E+02  0.23944735698E+02  0.95823498223E+02  0.91273624644E+02 0.  0.
         13    1    3    3    0    0  0.75000926514E+01  0.35926551547E+02 -0.53216401677E+01  0.37085030860E+02  0.10566000000E+00 0. -1.
         22    1    1    0    0    0  0.12666581997E+02  0.10838615633E+02 -0.23944735698E+02  0.29176501777E+02  0.00000000000E+00 0.  1.
</event>
<event>
 5    1  0.1724235E-003  0.9118800E+02  0.7818608E-02  0.1130116E+00
         25   -1    0    0    0    0  0.00000000000E+00  0.00000000000E+00  0.99999998245E-14  0.12500000000E+03  0.12500000000E+03 0.  0.
        -13    1    3    3    0    0 -0.35160601702E+02 -0.33923470961E+02 -0.19082539091E+02  0.52452113936E+02  0.10566000000E+00 0.  1.
         23    2    1    0    0    0  0.63508709533E+01 -0.26715647940E+02 -0.11340771318E+02  0.95290195207E+02  0.90540315892E+02 0.  0.
         13    1    3    3    0    0  0.41511472656E+02  0.72078230212E+01  0.77417677724E+01  0.42838081271E+02  0.10566000000E+00 0. -1.
         22    1    1    0    0    0 -0.63508709533E+01  0.26715647940E+02  0.11340771318E+02  0.29709804793E+02  0.00000000000E+00 0.  1.
</event>
<event>
 5    1  0.1724235E-003  0.9118800E+02  0.7818608E-02  0.1130116E+00
         25   -1    0    0    0    0  0.00000000000E+00  0.00000000000E+00  0.99999998245E-14  0.12500000000E+03  0.12500000000E+03 0.  0.
        -13    1    3    3    0    0 -0.11416507209E+02  0.32952270559E+02  0.34285395188E+01  0.35042186277E+02  0.10566000000E+00 0. -1.
         23    2    1    0    0    0  0.88462793088E+01 -0.17896010255E+02 -0.21909796650E+02  0.95359436073E+02  0.90635859450E+02 0.  0.
         13    1    3    3    0    0  0.20262786517E+02 -0.50848280813E+02 -0.25338336169E+02  0.60317249796E+02  0.10566000000E+00 0.  1.
         22    1    1    0    0    0 -0.88462793088E+01  0.17896010255E+02  0.21909796650E+02  0.29640563927E+02  0.00000000000E+00 0.  1.
</event>
<event>
 5    1  0.1724235E-003  0.9118800E+02  0.7818608E-02  0.1130116E+00
         25   -1    0    0    0    0  0.00000000000E+00  0.00000000000E+00  0.99999998245E-14  0.12500000000E+03  0.12500000000E+03 0.  0.
        -13    1    3    3    0    0  0.22423465372E+02  0.13469865451E+02  0.33281157586E+02  0.42330788899E+02  0.10566000000E+00 0.  1.
         23    2    1    0    0    0  0.13401934520E+02 -0.16091388066E+02 -0.14706524725E+02  0.99410422273E+02  0.96060426650E+02 0.  0.
         13    1    3    3    0    0 -0.90215308527E+01 -0.29561253517E+02 -0.47987682311E+02  0.57079633373E+02  0.10566000000E+00 0. -1.
         22    1    1    0    0    0 -0.13401934520E+02  0.16091388066E+02  0.14706524725E+02  0.25589577727E+02  0.00000000000E+00 0. -1.
</event>
<event>
 5    1  0.1724235E-003  0.9118800E+02  0.7818608E-02  0.1130116E+00
         25   -1    0    0    0    0  0.00000000000E+00  0.00000000000E+00  0.99999998245E-14  0.12500000000E+03  0.12500000000E+03 0.  0.
        -13    1    3    3    0    0 -0.24126025540E+02 -0.17696442198E+02  0.24147523104E+02  0.38449229003E+02  0.10566000000E+00 0. -1.
         23    2    1    0    0    0  0.65611671349E+01  0.27241551870E+02  0.30433544895E+01  0.96814665711E+02  0.92621090620E+02 0.  0.
         13    1    3    3    0    0  0.30687192675E+02  0.44937994068E+02 -0.21104168615E+02  0.58365436708E+02  0.10566000000E+00 0.  1.
         22    1    1    0    0    0 -0.65611671349E+01 -0.27241551870E+02 -0.30433544895E+01  0.28185334289E+02  0.00000000000E+00 0.  1.
</event>
<event>
 5    1  0.1724235E-003  0.9118800E+02  0.7818608E-02  0.1130116E+00
         25   -1    0    0    0    0  0.00000000000E+00  0.00000000000E+00  0.99999998245E-14  0.12500000000E+03  0.12500000000E+03 0.  0.
        -13    1    3    3    0    0  0.34134741504E+02  0.30252436690E+02 -0.32268431791E+02  0.55871758139E+02  0.10566000000E+00 0. -1.
         23    2    1    0    0    0  0.10031436878E+02  0.27421341023E+02 -0.56767195392E+00  0.95795857814E+02  0.91235763018E+02 0.  0.
         13    1    3    3    0    0 -0.24103304626E+02 -0.28310956668E+01  0.31700759837E+02  0.39924099675E+02  0.10566000000E+00 0.  1.
         22    1    1    0    0    0 -0.10031436878E+02 -0.27421341023E+02  0.56767195392E+00  0.29204142186E+02  0.00000000000E+00 0. -1.
</event>
<event>
 5    1  0.1724235E-003  0.9118800E+02  0.7818608E-02  0.1130116E+00
         25   -1    0    0    0    0  0.00000000000E+00  0.00000000000E+00  0.99999998245E-14  0.12500000000E+03  0.12500000000E+03 0.  0.
        -13    1    3    3    0    0 -0.37388091476E+02  0.10142828849E+02 -0.64947953256E+01  0.39280273569E+02  0.10566000000E+00 0.  1.
         23    2    1    0    0    0  0.56135923059E+01 -0.24646130244E+02  0.11198183631E+02  0.97353237600E+02  0.93345109138E+02 0.  0.
         13    1    3    3    0    0  0.43001683782E+02 -0.34788959093E+02  0.17692978957E+02  0.58072964031E+02  0.10566000000E+00 0. -1.
         22    1    1    0    0    0 -0.56135923059E+01  0.24646130244E+02 -0.11198183631E+02  0.27646762400E+02  0.00000000000E+00 0. -1.
</event>
<event>
 5    1  0.1724235E-003  0.9118800E+02  0.7818608E-02  0.1130116E+00
         25   -1    0    0    0    0  0.00000000000E+00  0.00000000000E+00  0.99999998245E-14  0.12500000000E+03  0.12500000000E+03 0.  0.
        -13    1    3    3    0    0  0.17274950436E+02  0.19380763361E+02  0.21981431819E+02  0.34018118847E+02  0.10566000000E+00 0. -1.
         23    2    1    0    0    0 -0.20131864076E+02 -0.18263983855E+02 -0.10066381327E+02  0.96013846574E+02  0.91533937113E+02 0.  0.
         13    1    3    3    0    0 -0.37406814512E+02 -0.37644747216E+02 -0.32047813146E+02  0.61995727727E+02  0.10566000000E+00 0.  1.
         22    1    1    0    0    0  0.20131864076E+02  0.18263983855E+02  0.10066381327E+02  0.28986153426E+02  0.00000000000E+00 0.  1.
</event>
<event>
 5    1  0.1724235E-003  0.9118800E+02  0.7818608E-02  0.1130116E+00
         25   -1    0    0    0    0  0.00000000000E+00  0.00000000000E+00  0.99999998245E-14  0.12500000000E+03  0.12500000000E+03 0.  0.
        -13    1    3    3    0    0  0.73081586227E+01 -0.58295648937E+02 -0.12241162289E+02  0.60013740807E+02  0.10566000000E+00 0.  1.
         23    2    1    0    0    0 -0.51211513699E+01 -0.23390263823E+02 -0.14277461727E+02  0.97122113666E+02  0.93035092393E+02 0.  0.
         13    1    3    3    0    0 -0.12429309993E+02  0.34905385114E+02 -0.20362994379E+01  0.37108372859E+02  0.10566000000E+00 0. -1.
         22    1    1    0    0    0  0.51211513699E+01  0.23390263823E+02  0.14277461727E+02  0.27877886334E+02  0.00000000000E+00 0.  1.
</event>
<event>
 5    1  0.1724235E-003  0.9118800E+02  0.7818608E-02  0.1130116E+00
         25   -1    0    0    0    0  0.00000000000E+00  0.00000000000E+00  0.99999998245E-14  0.12500000000E+03  0.12500000000E+03 0.  0.
        -13    1    3    3    0    0 -0.27493647280E+02  0.28315322600E+02  0.13536225598E+02  0.41724078207E+02  0.10566000000E+00 0. -1.
         23    2    1    0    0    0  0.21889251092E+02  0.48585634345E+01  0.17527227661E+02  0.96540402999E+02  0.92250207315E+02 0.  0.
         13    1    3    3    0    0  0.49382898372E+02 -0.23456759166E+02  0.39910020626E+01  0.54816324792E+02  0.10566000000E+00 0.  1.
         22    1    1    0    0    0 -0.21889251092E+02 -0.48585634345E+01 -0.17527227661E+02  0.28459597001E+02  0.00000000000E+00 0.  1.
</event>
<event>
 5    1  0.1724235E-003  0.9118800E+02  0.7818608E-02  0.1130116E+00
         25   -1    0    0    0    0  0.00000000000E+00  0.00000000000E+00  0.99999998245E-14  0.12500000000E+03  0.12500000000E+03 0.  0.
        -13    1    3    3    0    0  0.20769254923E+02  0.39859853600E+02 -0.42902916561E+01  0.45150721429E+02  0.10566000000E+00 0.  1.
         23    2    1    0    0    0 -0.17811933788E+01  0.57870038345E+01  0.27450168547E+02  0.96889969469E+02  0.92722663719E+02 0.  0.
         13    1    3    3    0    0 -0.22550448301E+02 -0.34072849766E+02  0.31740460203E+02  0.51739248039E+02  0.10566000000E+00 0. -1.
         22    1    1    0    0    0  0.17811933788E+01 -0.57870038345E+01 -0.27450168547E+02  0.28110030531E+02  0.00000000000E+00 0. -1.
</event>
<event>
 5    1  0.1724235E-003  0.9118800E+02  0.7818608E-02  0.1130116E+00
         25   -1    0    0    0    0  0.00000000000E+00  0.00000000000E+00  0.99999998245E-14  0.12500000000E+03  0.12500000000E+03 0.  0.
        -13    1    3    3    0    0  0.42899148660E+02 -0.24112491063E+02  0.26614590574E+02  0.55947267820E+02  0.10566000000E+00 0.  1.
         23    2    1    0    0    0  0.31875113456E+02 -0.42135816127E+01 -0.23319365082E+01  0.92763141349E+02  0.86981522964E+02 0.  0.
         13    1    3    3    0    0 -0.11024035204E+02  0.19898909450E+02 -0.28946527083E+02  0.36815873529E+02  0.10566000000E+00 0. -1.
         22    1    1    0    0    0 -0.31875113456E+02  0.42135816127E+01  0.23319365082E+01  0.32236858651E+02  0.00000000000E+00 0.  1.
</event>
<event>
 5    1  0.1724235E-003  0.9118800E+02  0.7818608E-02  0.1130116E+00
         25   -1    0    0    0    0  0.00000000000E+00  0.00000000000E+00  0.99999998245E-14  0.12500000000E+03  0.12500000000E+03 0.  0.
        -13    1    3    3    0    0  0.26179808807E+02  0.15815110264E+02  0.40904141076E+02  0.51075043055E+02  0.10566000000E+00 0.  1.
         23    2    1    0    0    0  0.20133895939E+02 -0.17706619544E+02  0.12544066369E+02  0.95398450338E+02  0.90689649819E+02 0.  0.
         13    1    3    3    0    0 -0.60459128674E+01 -0.33521729808E+02 -0.28360074707E+02  0.44323407283E+02  0.10566000000E+00 0. -1.
         22    1    1    0    0    0 -0.20133895939E+02  0.17706619544E+02 -0.12544066369E+02  0.29601549662E+02  0.00000000000E+00 0.  1.
</event>
<event>
 5    1  0.1724235E-003  0.9118800E+02  0.7818608E-02  0.1130116E+00
         25   -1    0    0    0    0  0.00000000000E+00  0.00000000000E+00  0.99999998245E-14  0.12500000000E+03  0.12500000000E+03 0.  0.
        -13    1    3    3    0    0 -0.26209717905E+02  0.11434987268E+02  0.22023694363E+02  0.36093801738E+02  0.10566000000E+00 0.  1.
         23    2    1    0    0    0  0.52649270503E+01 -0.19889537857E+02 -0.19327104740E+02  0.96771465666E+02  0.92562770143E+02 0.  0.
         13    1    3    3    0    0  0.31474644955E+02 -0.31324525124E+02 -0.41350799103E+02  0.60677663928E+02  0.10566000000E+00 0. -1.
         22    1    1    0    0    0 -0.52649270503E+01  0.19889537857E+02  0.19327104740E+02  0.28228534334E+02  0.00000000000E+00 0. -1.
</event>
<event>
 5    1  0.1724235E-003  0.9118800E+02  0.7818608E-02  0.1130116E+00
         25   -1    0    0    0    0  0.00000000000E+00  0.00000000000E+00  0.99999998245E-14  0.12500000000E+03  0.12500000000E+03 0.  0.
        -13    1    3    3    0    0  0.10647938148E+02 -0.24742786242E+02 -0.45277255844E+02  0.52684201794E+02  0.10566000000E+00 0.  1.
         23    2    1    0    0    0 -0.14856310863E+02 -0.20443680980E+02 -0.71860681858E+01  0.98726560171E+02  0.95166380843E+02 0.  0.
         13    1    3    3    0    0 -0.25504249011E+02  0.42991052623E+01  0.38091187659E+02  0.46042358378E+02  0.10566000000E+00 0. -1.
         22    1    1    0    0    0  0.14856310863E+02  0.20443680980E+02  0.71860681858E+01  0.26273439829E+02  0.00000000000E+00 0.  1.
</event>
<event>
 5    1  0.1724235E-003  0.9118800E+02  0.7818608E-02  0.1130116E+00
         25   -1    0    0    0    0  0.00000000000E+00  0.00000000000E+00  0.99999998245E-14  0.12500000000E+03  0.12500000000E+03 0.  0.
        -13    1    3    3    0    0 -0.26016352094E+02  0.25168543596E+02  0.17611600697E+02  0.40255258119E+02  0.10566000000E+00 0.  1.
         23    2    1    0    0    0 -0.14837362685E+02 -0.24923982375E+02 -0.35618797761E+01  0.95776050636E+02  0.91208621627E+02 0.  0.
         13    1    3    3    0    0  0.11178989409E+02 -0.50092525971E+02 -0.21173480473E+02  0.55520792518E+02  0.10566000000E+00 0. -1.
         22    1    1    0    0    0  0.14837362685E+02  0.24923982375E+02  0.35618797761E+01  0.29223949364E+02  0.00000000000E+00 0. -1.
</event>
<event>
 5    1  0.1724235E-003  0.9118800E+02  0.7818608E-02  0.1130116E+00
         25   -1    0    0    0    0  0.00000000000E+00  0.00000000000E+00  0.99999998245E-14  0.12500000000E+03  0.12500000000E+03 0.  0.
        -13    1    3    3    0    0 -0.15571588106E+01 -0.49613240768E+02  0.10469540693E+01  0.49648823551E+02  0.10566000000E+00 0.  1.
         23    2    1    0    0    0 -0.10510454370E+02 -0.90967009627E+01  0.24145728172E+02  0.97138991252E+02  0.93057766001E+02 0.  0.
         13    1    3    3    0    0 -0.89532955597E+01  0.40516539806E+02  0.23098774103E+02  0.47490167701E+02  0.10566000000E+00 0. -1.
         22    1    1    0    0    0  0.10510454370E+02  0.90967009627E+01 -0.24145728172E+02  0.27861008748E+02  0.00000000000E+00 0.  1.
</event>
<event>
 5    1  0.1724235E-003  0.9118800E+02  0.7818608E-02  0.1130116E+00
         25   -1    0    0    0    0  0.00000000000E+00  0.00000000000E+00  0.99999998245E-14  0.12500000000E+03  0.12500000000E+03 0.  0.
        -13    1    3    3    0    0  0.94289629467E+01  0.48124984961E+02 -0.56407756607E+00  0.49043336625E+02  0.10566000000E+00 0.  1.
         23    2    1    0    0    0  0.15178438365E+02  0.10701860164E+02 -0.24813945798E+02  0.94005698779E+02  0.88749223628E+02 0.  0.
         13    1    3    3    0    0  0.57494754180E+01 -0.37423124797E+02 -0.24249868232E+02  0.44962362154E+02  0.10566000000E+00 0. -1.
         22    1    1    0    0    0 -0.15178438365E+02 -0.10701860164E+02  0.24813945798E+02  0.30994301221E+02  0.00000000000E+00 0. -1.
</event>
<event>
 5    1  0.1724235E-003  0.9118800E+02  0.7818608E-02  0.1130116E+00
         25   -1    0    0    0    0  0.00000000000E+00  0.00000000000E+00  0.99999998245E-14  0.12500000000E+03  0.12500000000E+03 0.  0.
        -13    1    3    3    0    0  0.28813462872E+02  0.21138846897E+02  0.32971367408E+01  0.35888003087E+02  0.10566000000E+00 0. -1.
         23    2    1    0    0    0 -0.27816991944E+02  0.11755725325E+02 -0.64699877921E+01  0.94115653467E+02  0.88903955856E+02 0.  0.
         13    1    3    3    0    0 -0.56630454816E+02 -0.93831215719E+01 -0.97671245329E+01  0.58227650380E+02  0.10566000000E+00 0.  1.
         22    1    1    0    0    0  0.27816991944E+02 -0.11755725325E+02  0.64699877921E+01  0.30884346533E+02  0.00000000000E+00 0.  1.
</event>
<event>
 5    1  0.1724235E-003  0.9118800E+02  0.7818608E-02  0.1130116E+00
         25   -1    0    0    0    0  0.00000000000E+00  0.00000000000E+00  0.99999998245E-14  0.12500000000E+03  0.12500000000E+03 0.  0.
        -13    1    3    3    0    0  0.29879211625E+02 -0.38028890916E+02 -0.29115449739E+02  0.56450725497E+02  0.10566000000E+00 0. -1.
         23    2    1    0    0    0  0.20036073669E+02 -0.70298056958E+00 -0.21134396682E+02  0.95869240435E+02  0.91336247507E+02 0.  0.
         13    1    3    3    0    0 -0.98431379559E+01  0.37325910346E+02  0.79810530575E+01  0.39418514938E+02  0.10566000000E+00 0.  1.
         22    1    1    0    0    0 -0.20036073669E+02  0.70298056958E+00  0.21134396682E+02  0.29130759565E+02  0.00000000000E+00 0. -1.
</event>
<event>
 5    1  0.1724235E-003  0.9118800E+02  0.7818608E-02  0.1130116E+00
         25   -1    0    0    0    0  0.00000000000E+00  0.00000000000E+00  0.99999998245E-14  0.12500000000E+03  0.12500000000E+03 0.  0.
        -13    1    3    3    0    0  0.14042519625E+02 -0.58278103612E+01  0.31352811717E+02  0.34844880508E+02  0.10566000000E+00 0.  1.
         23    2    1    0    0    0 -0.14725519830E+02  0.26030732054E+02 -0.90087420820E+01  0.93765445746E+02  0.88410188534E+02 0.  0.
         13    1    3    3    0    0 -0.28768039455E+02  0.31858542415E+02 -0.40361553799E+02  0.58920565238E+02  0.10566000000E+00 0. -1.
         22    1    1    0    0    0  0.14725519830E+02 -0.26030732054E+02  0.90087420820E+01  0.31234554254E+02  0.00000000000E+00 0. -1.
</event>
<event>
 5    1  0.1724235E-003  0.9118800E+02  0.7818608E-02  0.1130116E+00
         25   -1    0    0    0    0  0.00000000000E+00  0.00000000000E+00  0.99999998245E-14  0.12500000000E+03  0.12500000000E+03 0.  0.
        -13    1    3    3    0    0 -0.31519613160E+02 -0.26489285572E+02 -0.20747081214E+02  0.46104455390E+02  0.10566000000E+00 0.  1.
         23    2    1    0    0    0  0.75472866368E+00 -0.22565252551E+02  0.17595372206E+02  0.96375581035E+02  0.92026600821E+02 0.  0.
         13    1    3    3    0    0  0.32274341824E+02  0.39240330214E+01  0.38342453420E+02  0.50271125645E+02  0.10566000000E+00 0. -1.
         22    1    1    0    0    0 -0.75472866368E+00  0.22565252551E+02 -0.17595372206E+02  0.28624418965E+02  0.00000000000E+00 0. -1.
</event>
<event>
 5    1  0.1724235E-003  0.9118800E+02  0.7818608E-02  0.1130116E+00
         25   -1    0    0    0    0  0.00000000000E+00  0.00000000000E+00  0.99999998245E-14  0.12500000000E+03  0.12500000000E+03 0.  0.
        -13    1    3    3    0    0  0.22846735108E+02 -0.35805116646E+02  0.22645891362E+02  0.48133431653E+02  0.10566000000E+00 0.  1.
         23    2    1    0    0    0 -0.12087035915E+02 -0.50472852047E+01  0.27109592994E+02  0.94891835701E+02  0.89988659982E+02 0.  0.
         13    1    3    3    0    0 -0.34933771023E+02  0.30757831441E+02  0.44637016324E+01  0.46758404048E+02  0.10566000000E+00 0. -1.
         22    1    1    0    0    0  0.12087035915E+02  0.50472852047E+01 -0.27109592994E+02  0.30108164299E+02  0.00000000000E+00 0. -1.
</event>
<event>
 5    1  0.1724235E-003  0.9118800E+02  0.7818608E-02  0.1130116E+00
         25   -1    0    0    0    0  0.00000000000E+00  0.00000000000E+00  0.99999998245E-14  0.12500000000E+03  0.12500000000E+03 0.  0.
        -13    1    3    3    0    0  0.30751257995E+02  0.16703231638E+02 -0.17224456890E+02  0.39004242008E+02  0.10566000000E+00 0.  1.
         23    2    1    0    0    0  0.84321290483E+00 -0.81842543313E+01  0.26334399290E+02  0.97410262543E+02  0.93421440986E+02 0.  0.
         13    1    3    3    0    0 -0.29908045090E+02 -0.24887485970E+02  0.43558856180E+02  0.58406020535E+02  0.10566000000E+00 0. -1.
         22    1    1    0    0    0 -0.84321290483E+00  0.81842543313E+01 -0.26334399290E+02  0.27589737457E+02  0.00000000000E+00 0. -1.
</event>
<event>
 5    1  0.1724235E-003  0.9118800E+02  0.7818608E-02  0.1130116E+00
         25   -1    0    0    0    0  0.00000000000E+00  0.00000000000E+00  0.99999998245E-14  0.12500000000E+03  0.12500000000E+03 0.  0.
        -13    1    3    3    0    0  0.31817519855E+02 -0.38121622791E+02  0.17488169553E+02  0.52644657205E+02  0.10566000000E+00 0.  1.
         23    2    1    0    0    0  0.19403673948E+01 -0.12815184495E+02  0.28814663291E+02  0.93404449683E+02  0.87898307269E+02 0.  0.
         13    1    3    3    0    0 -0.29877152460E+02  0.25306438297E+02  0.11326493739E+02  0.40759792478E+02  0.10566000000E+00 0. -1.
         22    1    1    0    0    0 -0.19403673948E+01  0.12815184495E+02 -0.28814663291E+02  0.31595550317E+02  0.00000000000E+00 0. -1.
</event>
<event>
 5    1  0.1724235E-003  0.9118800E+02  0.7818608E-02  0.1130116E+00
         25   -1    0    0    0    0  0.00000000000E+00  0.00000000000E+00  0.99999998245E-14  0.12500000000E+03  0.12500000000E+03 0.  0.
        -13    1    3    3    0    0  0.20943794663E+02  0.48822677191E+01 -0.42188933719E+02  0.47353947727E+02  0.10566000000E+00 0. -1.
         23    2    1    0    0    0  0.18668755744E+02 -0.21890022090E+02 -0.14014087969E+01  0.96196190274E+02  0.91782610381E+02 0.  0.
         13    1    3    3    0    0 -0.22750389194E+01 -0.26772289809E+02  0.40787524922E+02  0.48842242547E+02  0.10566000000E+00 0.  1.
         22    1    1    0    0    0 -0.18668755744E+02  0.21890022090E+02  0.14014087969E+01  0.28803809726E+02  0.00000000000E+00 0. -1.
</event>
<event>
 5    1  0.1724235E-003  0.9118800E+02  0.7818608E-02  0.1130116E+00
         25   -1    0    0    0    0  0.00000000000E+00  0.00000000000E+00  0.99999998245E-14  0.12500000000E+03  0.12500000000E+03 0.  0.
        -13    1    3    3    0    0  0.38501625243E+02  0.13927512380E+02  0.35502038237E+02  0.54191850222E+02  0.10566000000E+00 0. -1.
         23    2    1    0    0    0  0.45390651539E+01 -0.83418477204E+01  0.27923693029E+02  0.95505556994E+02  0.90837157862E+02 0.  0.
         13    1    3    3    0    0 -0.33962560089E+02 -0.22269360100E+02 -0.75783452078E+01  0.41313706772E+02  0.10566000000E+00 0.  1.
         22    1    1    0    0    0 -0.45390651539E+01  0.83418477204E+01 -0.27923693029E+02  0.29494443006E+02  0.00000000000E+00 0. -1.
</event>
<event>
 5    1  0.1724235E-003  0.9118800E+02  0.7818608E-02  0.1130116E+00
         25   -1    0    0    0    0  0.00000000000E+00  0.00000000000E+00  0.99999998245E-14  0.12500000000E+03  0.12500000000E+03 0.  0.
        -13    1    3    3    0    0  0.36264353606E+02 -0.27984062483E+02  0.22847742271E+01  0.45863301809E+02  0.10566000000E+00 0.  1.
         23    2    1    0    0    0  0.18467040804E+02  0.23485079602E+01 -0.27392712043E+02  0.91880402195E+02  0.85703562054E+02 0.  0.
         13    1    3    3    0    0 -0.17797312801E+02  0.30332570443E+02 -0.29677486270E+02  0.46017100386E+02  0.10566000000E+00 0. -1.
         22    1    1    0    0    0 -0.18467040804E+02 -0.23485079602E+01  0.27392712043E+02  0.33119597805E+02  0.00000000000E+00 0.  1.
</event>
<event>
 5    1  0.1724235E-003  0.9118800E+02  0.7818608E-02  0.1130116E+00
         25   -1    0    0    0    0  0.00000000000E+00  0.00000000000E+00  0.99999998245E-14  0.12500000000E+03  0.12500000000E+03 0.  0.
        -13    1    3    3    0    0 -0.90812432701E+01  0.32144533849E+02 -0.69933594800E+01  0.34127090069E+02  0.10566000000E+00 0.  1.
         23    2    1    0    0    0  0.53744655373E+01 -0.25827698209E+02  0.10839339004E+02  0.96479022727E+02  0.92166998875E+02 0.  0.
         13    1    3    3    0    0  0.14455708807E+02 -0.57972232058E+02  0.17832698484E+02  0.62351932658E+02  0.10566000000E+00 0. -1.
         22    1    1    0    0    0 -0.53744655373E+01  0.25827698209E+02 -0.10839339004E+02  0.28520977273E+02  0.00000000000E+00 0. -1.
</event>
<event>
 5    1  0.1724235E-003  0.9118800E+02  0.7818608E-02  0.1130116E+00
         25   -1    0    0    0    0  0.00000000000E+00  0.00000000000E+00  0.99999998245E-14  0.12500000000E+03  0.12500000000E+03 0.  0.
        -13    1    3    3    0    0  0.55252372262E+02 -0.21634214056E+01  0.24035702694E+02  0.60292878525E+02  0.10566000000E+00 0.  1.
         23    2    1    0    0    0  0.26345590701E+02  0.60065587158E+01  0.13343026189E+01  0.97945439193E+02  0.94134795896E+02 0.  0.
         13    1    3    3    0    0 -0.28906781562E+02  0.81699801214E+01 -0.22701400075E+02  0.37652560668E+02  0.10566000000E+00 0. -1.
         22    1    1    0    0    0 -0.26345590701E+02 -0.60065587158E+01 -0.13343026189E+01  0.27054560807E+02  0.00000000000E+00 0.  1.
</event>
<event>
 5    1  0.1724235E-003  0.9118800E+02  0.7818608E-02  0.1130116E+00
         25   -1    0    0    0    0  0.00000000000E+00  0.00000000000E+00  0.99999998245E-14  0.12500000000E+03  0.12500000000E+03 0.  0.
        -13    1    3    3    0    0 -0.13867390133E+02 -0.15755132490E+02 -0.58273499505E+02  0.61938199985E+02  0.10566000000E+00 0.  1.
         23    2    1    0    0    0 -0.52442163711E+01 -0.14898177861E+01 -0.27776171976E+02  0.96693868297E+02  0.92457920559E+02 0.  0.
         13    1    3    3    0    0  0.86231737618E+01  0.14265314704E+02  0.30497327529E+02  0.34755668311E+02  0.10566000000E+00 0. -1.
         22    1    1    0    0    0  0.52442163711E+01  0.14898177861E+01  0.27776171976E+02  0.28306131703E+02  0.00000000000E+00 0.  1.
</event>
<event>
 5    1  0.1724235E-003  0.9118800E+02  0.7818608E-02  0.1130116E+00
         25   -1    0    0    0    0  0.00000000000E+00  0.00000000000E+00  0.99999998245E-14  0.12500000000E+03  0.12500000000E+03 0.  0.
        -13    1    3    3    0    0  0.13737581496E+02 -0.84359961742E+00  0.49118789525E+02  0.51010777823E+02  0.10566000000E+00 0. -1.
         23    2    1    0    0    0 -0.13209351901E+02 -0.17525000253E+02  0.11421789133E+02  0.10025995395E+03  0.97159603168E+02 0.  0.
         13    1    3    3    0    0 -0.26946933397E+02 -0.16681400636E+02 -0.37697000392E+02  0.49249176127E+02  0.10566000000E+00 0.  1.
         22    1    1    0    0    0  0.13209351901E+02  0.17525000253E+02 -0.11421789133E+02  0.24740046049E+02  0.00000000000E+00 0.  1.
</event>
<event>
 5    1  0.1724235E-003  0.9118800E+02  0.7818608E-02  0.1130116E+00
         25   -1    0    0    0    0  0.00000000000E+00  0.00000000000E+00  0.99999998245E-14  0.12500000000E+03  0.12500000000E+03 0.  0.
        -13    1    3    3    0    0  0.10144020807E+02  0.27942506532E+02 -0.28648767860E+02  0.41284959650E+02  0.10566000000E+00 0. -1.
         23    2    1    0    0    0 -0.24620976370E+02 -0.10369564926E+02 -0.12682554951E+02  0.95426911655E+02  0.90728870343E+02 0.  0.
         13    1    3    3    0    0 -0.34764997178E+02 -0.38312071458E+02  0.15966212909E+02  0.54141952004E+02  0.10566000000E+00 0.  1.
         22    1    1    0    0    0  0.24620976370E+02  0.10369564926E+02  0.12682554951E+02  0.29573088345E+02  0.00000000000E+00 0.  1.
</event>
<event>
 5    1  0.1724235E-003  0.9118800E+02  0.7818608E-02  0.1130116E+00
         25   -1    0    0    0    0  0.00000000000E+00  0.00000000000E+00  0.99999998245E-14  0.12500000000E+03  0.12500000000E+03 0.  0.
        -13    1    3    3    0    0  0.38937747212E+02 -0.88503907606E+01  0.16446792606E+02  0.43185480496E+02  0.10566000000E+00 0.  1.
         23    2    1    0    0    0 -0.12728569968E+01 -0.27963436309E+02 -0.10356675999E+02  0.95153146349E+02  0.90350908060E+02 0.  0.
         13    1    3    3    0    0 -0.40210604209E+02 -0.19113045548E+02 -0.26803468605E+02  0.51967665853E+02  0.10566000000E+00 0. -1.
         22    1    1    0    0    0  0.12728569968E+01  0.27963436309E+02  0.10356675999E+02  0.29846853651E+02  0.00000000000E+00 0. -1.
</event>
<event>
 5    1  0.1724235E-003  0.9118800E+02  0.7818608E-02  0.1130116E+00
         25   -1    0    0    0    0  0.00000000000E+00  0.00000000000E+00  0.99999998245E-14  0.12500000000E+03  0.12500000000E+03 0.  0.
        -13    1    3    3    0    0 -0.41855020441E+01  0.35582700058E+02  0.10387269114E+01  0.35843229325E+02  0.10566000000E+00 0. -1.
         23    2    1    0    0    0  0.21986743885E+02 -0.18701674268E+02 -0.58403912953E+00  0.96129415857E+02  0.91691624286E+02 0.  0.
         13    1    3    3    0    0  0.26172245929E+02 -0.54284374326E+02 -0.16227660409E+01  0.60286186532E+02  0.10566000000E+00 0.  1.
         22    1    1    0    0    0 -0.21986743885E+02  0.18701674268E+02  0.58403912953E+00  0.28870584143E+02  0.00000000000E+00 0.  1.
</event>
<event>
 5    1  0.1724235E-003  0.9118800E+02  0.7818608E-02  0.1130116E+00
         25   -1    0    0    0    0  0.00000000000E+00  0.00000000000E+00  0.99999998245E-14  0.12500000000E+03  0.12500000000E+03 0.  0.
        -13    1    3    3    0    0 -0.40566645796E+01  0.22142363316E+02  0.38310817560E+02  0.44435016450E+02  0.10566000000E+00 0.  1.
         23    2    1    0    0    0 -0.11477734492E-01 -0.23752255550E+02  0.19763048090E+02  0.94101005757E+02  0.88883358618E+02 0.  0.
         13    1    3    3    0    0  0.40451868451E+01 -0.45894618866E+02 -0.18547769470E+02  0.49665989307E+02  0.10566000000E+00 0. -1.
         22    1    1    0    0    0  0.11477734492E-01  0.23752255550E+02 -0.19763048090E+02  0.30898994243E+02  0.00000000000E+00 0.  1.
</event>
<event>
 5    1  0.1724235E-003  0.9118800E+02  0.7818608E-02  0.1130116E+00
         25   -1    0    0    0    0  0.00000000000E+00  0.00000000000E+00  0.99999998245E-14  0.12500000000E+03  0.12500000000E+03 0.  0.
        -13    1    3    3    0    0 -0.11364686349E+02 -0.38674767289E+01 -0.36621027064E+02  0.38538607387E+02  0.10566000000E+00 0.  1.
         23    2    1    0    0    0  0.30754486938E+02 -0.67499960143E+01 -0.14619100305E+01  0.93479560695E+02  0.88005057661E+02 0.  0.
         13    1    3    3    0    0  0.42119173287E+02 -0.28825192854E+01  0.35159117034E+02  0.54940953308E+02  0.10566000000E+00 0. -1.
         22    1    1    0    0    0 -0.30754486938E+02  0.67499960143E+01  0.14619100305E+01  0.31520439305E+02  0.00000000000E+00 0. -1.
</event>
<event>
 5    1  0.1724235E-003  0.9118800E+02  0.7818608E-02  0.1130116E+00
         25   -1    0    0    0    0  0.00000000000E+00  0.00000000000E+00  0.99999998245E-14  0.12500000000E+03  0.12500000000E+03 0.  0.
        -13    1    3    3    0    0  0.27661779134E+02 -0.21945413652E+02 -0.69491502820E+01  0.35987179090E+02  0.10566000000E+00 0.  1.
         23    2    1    0    0    0 -0.27081392950E+02 -0.20342764575E+01 -0.13617493067E+02  0.94619475938E+02  0.89609536237E+02 0.  0.
         13    1    3    3    0    0 -0.54743172084E+02  0.19911137194E+02 -0.66683427855E+01  0.58632296848E+02  0.10566000000E+00 0. -1.
         22    1    1    0    0    0  0.27081392950E+02  0.20342764575E+01  0.13617493067E+02  0.30380524062E+02  0.00000000000E+00 0. -1.
</event>
<event>
 5    1  0.1724235E-003  0.9118800E+02  0.7818608E-02  0.1130116E+00
         25   -1    0    0    0    0  0.00000000000E+00  0.00000000000E+00  0.99999998245E-14  0.12500000000E+03  0.12500000000E+03 0.  0.
        -13    1    3    3    0    0  0.30587555143E+02 -0.25607288622E+02 -0.19737287280E+02  0.44507341343E+02  0.10566000000E+00 0. -1.
         23    2    1    0    0    0 -0.13485313279E+02 -0.10879895846E+01 -0.26356245348E+02  0.95374182469E+02  0.90656194588E+02 0.  0.
         13    1    3    3    0    0 -0.44072868421E+02  0.24519299038E+02 -0.66189580681E+01  0.50866841126E+02  0.10566000000E+00 0.  1.
         22    1    1    0    0    0  0.13485313279E+02  0.10879895846E+01  0.26356245348E+02  0.29625817531E+02  0.00000000000E+00 0.  1.
</event>
<event>
 5    1  0.1724235E-003  0.9118800E+02  0.7818608E-02  0.1130116E+00
         25   -1    0    0    0    0  0.00000000000E+00  0.00000000000E+00  0.99999998245E-14  0.12500000000E+03  0.12500000000E+03 0.  0.
        -13    1    3    3    0    0  0.47184376459E+02 -0.35129526342E+02 -0.16951146397E+02  0.61219290515E+02  0.10566000000E+00 0. -1.
         23    2    1    0    0    0  0.26979660279E+02 -0.89676691569E+01 -0.77749215566E+01  0.95525085851E+02  0.90864027331E+02 0.  0.
         13    1    3    3    0    0 -0.20204716181E+02  0.26161857185E+02  0.91762248409E+01  0.34305795337E+02  0.10566000000E+00 0.  1.
         22    1    1    0    0    0 -0.26979660279E+02  0.89676691569E+01  0.77749215566E+01  0.29474914149E+02  0.00000000000E+00 0. -1.
</event>
<event>
 5    1  0.1724235E-003  0.9118800E+02  0.7818608E-02  0.1130116E+00
         25   -1    0    0    0    0  0.00000000000E+00  0.00000000000E+00  0.99999998245E-14  0.12500000000E+03  0.12500000000E+03 0.  0.
        -13    1    3    3    0    0  0.18486581893E+02 -0.14468627744E+02  0.24418885360E+02  0.33873116555E+02  0.10566000000E+00 0. -1.
         23    2    1    0    0    0 -0.33556718353E+01  0.31716104174E+02 -0.48308613534E+01  0.92743077970E+02  0.86952685367E+02 0.  0.
         13    1    3    3    0    0 -0.21842253729E+02  0.46184731917E+02 -0.29249746713E+02  0.58869961415E+02  0.10566000000E+00 0.  1.
         22    1    1    0    0    0  0.33556718353E+01 -0.31716104174E+02  0.48308613534E+01  0.32256922030E+02  0.00000000000E+00 0.  1.
</event>
<event>
 5    1  0.1724235E-003  0.9118800E+02  0.7818608E-02  0.1130116E+00
         25   -1    0    0    0    0  0.00000000000E+00  0.00000000000E+00  0.99999998245E-14  0.12500000000E+03  0.12500000000E+03 0.  0.
        -13    1    3    3    0    0  0.42512742579E+02 -0.21865048776E+02  0.10779622198E+02  0.49006377731E+02  0.10566000000E+00 0.  1.
         23    2    1    0    0    0  0.82250431056E+01  0.17296843910E+02  0.14181329260E+02  0.10116846117E+03  0.98321489477E+02 0.  0.
         13    1    3    3    0    0 -0.34287699474E+02  0.39161892685E+02  0.34017070618E+01  0.52162083441E+02  0.10566000000E+00 0. -1.
         22    1    1    0    0    0 -0.82250431056E+01 -0.17296843910E+02 -0.14181329260E+02  0.23831538828E+02  0.00000000000E+00 0. -1.
</event>
<event>
 5    1  0.1724235E-003  0.9118800E+02  0.7818608E-02  0.1130116E+00
         25   -1    0    0    0    0  0.00000000000E+00  0.00000000000E+00  0.99999998245E-14  0.12500000000E+03  0.12500000000E+03 0.  0.
        -13    1    3    3    0    0 -0.29895649109E+02 -0.53986292588E+02 -0.27871228088E+00  0.61711898914E+02  0.10566000000E+00 0.  1.
         23    2    1    0    0    0 -0.11877655367E+02 -0.27592802307E+02 -0.64874031732E+01  0.94266828408E+02  0.89116256104E+02 0.  0.
         13    1    3    3    0    0  0.18017993742E+02  0.26393490281E+02 -0.62086908923E+01  0.32554929494E+02  0.10566000000E+00 0. -1.
         22    1    1    0    0    0  0.11877655367E+02  0.27592802307E+02  0.64874031732E+01  0.30733171592E+02  0.00000000000E+00 0.  1.
</event>
<event>
 5    1  0.1724235E-003  0.9118800E+02  0.7818608E-02  0.1130116E+00
         25   -1    0    0    0    0  0.00000000000E+00  0.00000000000E+00  0.99999998245E-14  0.12500000000E+03  0.12500000000E+03 0.  0.
        -13    1    3    3    0    0 -0.15416115097E+02  0.31812682817E+02  0.39624476266E+02  0.53101917820E+02  0.10566000000E+00 0.  1.
         23    2    1    0    0    0  0.16996393595E+02  0.12054915773E+02  0.21116706985E+02  0.95333289643E+02  0.90599792553E+02 0.  0.
         13    1    3    3    0    0  0.32412508691E+02 -0.19757767044E+02 -0.18507769281E+02  0.42231371823E+02  0.10566000000E+00 0. -1.
         22    1    1    0    0    0 -0.16996393595E+02 -0.12054915773E+02 -0.21116706985E+02  0.29666710357E+02  0.00000000000E+00 0.  1.
</event>
<event>
 5    1  0.1724235E-003  0.9118800E+02  0.7818608E-02  0.1130116E+00
         25   -1    0    0    0    0  0.00000000000E+00  0.00000000000E+00  0.99999998245E-14  0.12500000000E+03  0.12500000000E+03 0.  0.
        -13    1    3    3    0    0 -0.40583674848E+02 -0.18065435362E+02  0.31101444821E+02  0.54228273557E+02  0.10566000000E+00 0. -1.
         23    2    1    0    0    0 -0.19289979635E+01 -0.14518730066E+01  0.28516565092E+02  0.96381414204E+02  0.92034523690E+02 0.  0.
         13    1    3    3    0    0  0.38654676884E+02  0.16613562355E+02 -0.25848797292E+01  0.42153140647E+02  0.10566000000E+00 0.  1.
         22    1    1    0    0    0  0.19289979635E+01  0.14518730066E+01 -0.28516565092E+02  0.28618585796E+02  0.00000000000E+00 0.  1.
</event>
<event>
 5    1  0.1724235E-003  0.9118800E+02  0.7818608E-02  0.1130116E+00
         25   -1    0    0    0    0  0.00000000000E+00  0.00000000000E+00  0.99999998245E-14  0.12500000000E+03  0.12500000000E+03 0.  0.
        -13    1    3    3    0    0  0.31431121661E+02 -0.84208627880E+01  0.24692519195E+02  0.40847986575E+02  0.10566000000E+00 0. -1.
         23    2    1    0    0    0 -0.13150973889E+02 -0.46247888303E+01 -0.17689489867E+02  0.10247768134E+03  0.99972097786E+02 0.  0.
         13    1    3    3    0    0 -0.44582095550E+02  0.37960739577E+01 -0.42382009061E+02  0.61629694768E+02  0.10566000000E+00 0.  1.
         22    1    1    0    0    0  0.13150973889E+02  0.46247888303E+01  0.17689489867E+02  0.22522318657E+02  0.00000000000E+00 0.  1.
</event>
<event>
 5    1  0.1724235E-003  0.9118800E+02  0.7818608E-02  0.1130116E+00
         25   -1    0    0    0    0  0.00000000000E+00  0.00000000000E+00  0.99999998245E-14  0.12500000000E+03  0.12500000000E+03 0.  0.
        -13    1    3    3    0    0 -0.23002121061E+02  0.54986490836E+02  0.17324521006E+02  0.62070620585E+02  0.10566000000E+00 0.  1.
         23    2    1    0    0    0 -0.15630552174E+02  0.23968517858E+02  0.80274605328E+01  0.95280576517E+02  0.90527035350E+02 0.  0.
         13    1    3    3    0    0  0.73715688873E+01 -0.31017972978E+02 -0.92970604731E+01  0.33209955932E+02  0.10566000000E+00 0. -1.
         22    1    1    0    0    0  0.15630552174E+02 -0.23968517858E+02 -0.80274605328E+01  0.29719423483E+02  0.00000000000E+00 0.  1.
</event>
<event>
 5    1  0.1724235E-003  0.9118800E+02  0.7818608E-02  0.1130116E+00
         25   -1    0    0    0    0  0.00000000000E+00  0.00000000000E+00  0.99999998245E-14  0.12500000000E+03  0.12500000000E+03 0.  0.
        -13    1    3    3    0    0  0.26700310959E+02 -0.37085227096E+02 -0.16394042835E+02  0.48548908109E+02  0.10566000000E+00 0.  1.
         23    2    1    0    0    0  0.52510798935E+01 -0.18671926774E+02  0.21641112383E+02  0.95938815670E+02  0.91431416469E+02 0.  0.
         13    1    3    3    0    0 -0.21449231066E+02  0.18413300323E+02  0.38035155218E+02  0.47389907560E+02  0.10566000000E+00 0. -1.
         22    1    1    0    0    0 -0.52510798935E+01  0.18671926774E+02 -0.21641112383E+02  0.29061184330E+02  0.00000000000E+00 0.  1.
</event>
<event>
 5    1  0.1724235E-003  0.9118800E+02  0.7818608E-02  0.1130116E+00
         25   -1    0    0    0    0  0.00000000000E+00  0.00000000000E+00  0.99999998245E-14  0.12500000000E+03  0.12500000000E+03 0.  0.
        -13    1    3    3    0    0 -0.16524360477E+02  0.17801462795E+02  0.39043040326E+02  0.45981699933E+02  0.10566000000E+00 0.  1.
         23    2    1    0    0    0  0.23650698102E+02  0.13583386956E+02  0.91615121952E+01  0.96228534490E+02  0.91826649849E+02 0.  0.
         13    1    3    3    0    0  0.40175058578E+02 -0.42180758396E+01 -0.29881528131E+02  0.50246834557E+02  0.10566000000E+00 0. -1.
         22    1    1    0    0    0 -0.23650698102E+02 -0.13583386956E+02 -0.91615121952E+01  0.28771465510E+02  0.00000000000E+00 0. -1.
</event>
<event>
 5    1  0.1724235E-003  0.9118800E+02  0.7818608E-02  0.1130116E+00
         25   -1    0    0    0    0  0.00000000000E+00  0.00000000000E+00  0.99999998245E-14  0.12500000000E+03  0.12500000000E+03 0.  0.
        -13    1    3    3    0    0 -0.34602446776E+02 -0.18618097352E+02  0.31916069995E+02  0.50622223972E+02  0.10566000000E+00 0.  1.
         23    2    1    0    0    0 -0.18427723445E+02  0.18629904582E+02  0.87512082180E+01  0.97373237950E+02  0.93371888101E+02 0.  0.
         13    1    3    3    0    0  0.16174723331E+02  0.37248001933E+02 -0.23164861777E+02  0.46751013979E+02  0.10566000000E+00 0. -1.
         22    1    1    0    0    0  0.18427723445E+02 -0.18629904582E+02 -0.87512082180E+01  0.27626762050E+02  0.00000000000E+00 0.  1.
</event>
<event>
 5    1  0.1724235E-003  0.9118800E+02  0.7818608E-02  0.1130116E+00
         25   -1    0    0    0    0  0.00000000000E+00  0.00000000000E+00  0.99999998245E-14  0.12500000000E+03  0.12500000000E+03 0.  0.
        -13    1    3    3    0    0  0.41511568460E+02 -0.13649818413E+02  0.10777017462E+02  0.45007589673E+02  0.10566000000E+00 0.  1.
         23    2    1    0    0    0  0.69258794476E+01  0.24310592978E+02  0.13326659842E+02  0.96424265545E+02  0.92092705391E+02 0.  0.
         13    1    3    3    0    0 -0.34585689013E+02  0.37960411391E+02  0.25496423804E+01  0.51416675872E+02  0.10566000000E+00 0. -1.
         22    1    1    0    0    0 -0.69258794476E+01 -0.24310592978E+02 -0.13326659842E+02  0.28575734455E+02  0.00000000000E+00 0. -1.
</event>
<event>
 5    1  0.1724235E-003  0.9118800E+02  0.7818608E-02  0.1130116E+00
         25   -1    0    0    0    0  0.00000000000E+00  0.00000000000E+00  0.99999998245E-14  0.12500000000E+03  0.12500000000E+03 0.  0.
        -13    1    3    3    0    0  0.12047196790E+01  0.16145949538E+02  0.34517245011E+02  0.38126033142E+02  0.10566000000E+00 0. -1.
         23    2    1    0    0    0 -0.12934560278E+02  0.16477362072E+02 -0.20953423263E+02  0.95371428370E+02  0.90652397058E+02 0.  0.
         13    1    3    3    0    0 -0.14139279957E+02  0.33141253396E+00 -0.55470668274E+02  0.57245395227E+02  0.10566000000E+00 0.  1.
         22    1    1    0    0    0  0.12934560278E+02 -0.16477362072E+02  0.20953423263E+02  0.29628571630E+02  0.00000000000E+00 0.  1.
</event>
<event>
 5    1  0.1724235E-003  0.9118800E+02  0.7818608E-02  0.1130116E+00
         25   -1    0    0    0    0  0.00000000000E+00  0.00000000000E+00  0.99999998245E-14  0.12500000000E+03  0.12500000000E+03 0.  0.
        -13    1    3    3    0    0  0.74104366854E+01 -0.37401353069E+02 -0.28109864745E+02  0.47370364610E+02  0.10566000000E+00 0. -1.
         23    2    1    0    0    0 -0.26004698742E+02 -0.64759750194E+01 -0.11547985709E+02  0.95818865974E+02  0.91267280520E+02 0.  0.
         13    1    3    3    0    0 -0.33415135427E+02  0.30925378050E+02  0.16561879036E+02  0.48448501364E+02  0.10566000000E+00 0.  1.
         22    1    1    0    0    0  0.26004698742E+02  0.64759750194E+01  0.11547985709E+02  0.29181134026E+02  0.00000000000E+00 0. -1.
</event>
<event>
 5    1  0.1724235E-003  0.9118800E+02  0.7818608E-02  0.1130116E+00
         25   -1    0    0    0    0  0.00000000000E+00  0.00000000000E+00  0.99999998245E-14  0.12500000000E+03  0.12500000000E+03 0.  0.
        -13    1    3    3    0    0  0.24063246555E+02 -0.87837970370E+01  0.53055722061E+02  0.58916175475E+02  0.10566000000E+00 0.  1.
         23    2    1    0    0    0  0.12831226147E+02  0.10820792367E+02  0.21623920611E+02  0.97626219580E+02  0.93709950886E+02 0.  0.
         13    1    3    3    0    0 -0.11232020408E+02  0.19604589404E+02 -0.31431801451E+02  0.38710044105E+02  0.10566000000E+00 0. -1.
         22    1    1    0    0    0 -0.12831226147E+02 -0.10820792367E+02 -0.21623920611E+02  0.27373780420E+02  0.00000000000E+00 0.  1.
</event>
<event>
 5    1  0.1724235E-003  0.9118800E+02  0.7818608E-02  0.1130116E+00
         25   -1    0    0    0    0  0.00000000000E+00  0.00000000000E+00  0.99999998245E-14  0.12500000000E+03  0.12500000000E+03 0.  0.
        -13    1    3    3    0    0 -0.25638549455E+02  0.40286050516E+02  0.16271498614E+01  0.47780329268E+02  0.10566000000E+00 0.  1.
         23    2    1    0    0    0  0.79925768489E+01  0.36399476668E+02 -0.14157989739E+02  0.85134578142E+02  0.75223962509E+02 0.  0.
         13    1    3    3    0    0  0.33631126303E+02 -0.38865738471E+01 -0.15785139601E+02  0.37354248874E+02  0.10566000000E+00 0. -1.
         22    1    1    0    0    0 -0.79925768489E+01 -0.36399476668E+02  0.14157989739E+02  0.39865421858E+02  0.00000000000E+00 0.  1.
</event>
<event>
 5    1  0.1724235E-003  0.9118800E+02  0.7818608E-02  0.1130116E+00
         25   -1    0    0    0    0  0.00000000000E+00  0.00000000000E+00  0.99999998245E-14  0.12500000000E+03  0.12500000000E+03 0.  0.
        -13    1    3    3    0    0 -0.41135899927E+02 -0.16406348407E+02  0.25568336655E+01  0.44360783280E+02  0.10566000000E+00 0.  1.
         23    2    1    0    0    0  0.95274725563E+01 -0.13777534704E+02 -0.19164249103E+02  0.99546873679E+02  0.96237822189E+02 0.  0.
         13    1    3    3    0    0  0.50663372483E+02  0.26288137025E+01 -0.21721082768E+02  0.55186090399E+02  0.10566000000E+00 0. -1.
         22    1    1    0    0    0 -0.95274725563E+01  0.13777534704E+02  0.19164249103E+02  0.25453126321E+02  0.00000000000E+00 0. -1.
</event>
<event>
 5    1  0.1724235E-003  0.9118800E+02  0.7818608E-02  0.1130116E+00
         25   -1    0    0    0    0  0.00000000000E+00  0.00000000000E+00  0.99999998245E-14  0.12500000000E+03  0.12500000000E+03 0.  0.
        -13    1    3    3    0    0  0.76616103271E+01  0.35560244267E+02  0.11595183429E+01  0.36394874529E+02  0.10566000000E+00 0.  1.
         23    2    1    0    0    0  0.10969436031E+02 -0.19220804136E+02 -0.19958654395E+02  0.95198729495E+02  0.90413950106E+02 0.  0.
         13    1    3    3    0    0  0.33078257041E+01 -0.54781048403E+02 -0.21118172738E+02  0.58803854966E+02  0.10566000000E+00 0. -1.
         22    1    1    0    0    0 -0.10969436031E+02  0.19220804136E+02  0.19958654395E+02  0.29801270505E+02  0.00000000000E+00 0. -1.
</event>
<event>
 5    1  0.1724235E-003  0.9118800E+02  0.7818608E-02  0.1130116E+00
         25   -1    0    0    0    0  0.00000000000E+00  0.00000000000E+00  0.99999998245E-14  0.12500000000E+03  0.12500000000E+03 0.  0.
        -13    1    3    3    0    0 -0.34802245876E+02  0.25531602475E+02  0.30219457039E+02  0.52690471536E+02  0.10566000000E+00 0. -1.
         23    2    1    0    0    0 -0.25081987710E+02  0.11557220340E+02 -0.94123558237E+01  0.95823504466E+02  0.91273633194E+02 0.  0.
         13    1    3    3    0    0  0.97202581654E+01 -0.13974382135E+02 -0.39631812863E+02  0.43133032930E+02  0.10566000000E+00 0.  1.
         22    1    1    0    0    0  0.25081987710E+02 -0.11557220340E+02  0.94123558237E+01  0.29176495534E+02  0.00000000000E+00 0.  1.
</event>
<event>
 5    1  0.1724235E-003  0.9118800E+02  0.7818608E-02  0.1130116E+00
         25   -1    0    0    0    0  0.00000000000E+00  0.00000000000E+00  0.99999998245E-14  0.12500000000E+03  0.12500000000E+03 0.  0.
        -13    1    3    3    0    0  0.15476149431E+02 -0.35728618537E+02  0.66036574890E+01  0.39492592217E+02  0.10566000000E+00 0.  1.
         23    2    1    0    0    0 -0.14527279895E+02  0.18350106283E+02  0.21445213601E+01  0.10149750580E+03  0.98738930772E+02 0.  0.
         13    1    3    3    0    0 -0.30003429326E+02  0.54078724820E+02 -0.44591361289E+01  0.62004913583E+02  0.10566000000E+00 0. -1.
         22    1    1    0    0    0  0.14527279895E+02 -0.18350106283E+02 -0.21445213601E+01  0.23502494200E+02  0.00000000000E+00 0. -1.
</event>
<event>
 5    1  0.1724235E-003  0.9118800E+02  0.7818608E-02  0.1130116E+00
         25   -1    0    0    0    0  0.00000000000E+00  0.00000000000E+00  0.99999998245E-14  0.12500000000E+03  0.12500000000E+03 0.  0.
        -13    1    3    3    0    0 -0.29428706205E+02  0.39503323262E+02  0.18182069664E+02  0.52508667084E+02  0.10566000000E+00 0.  1.
         23    2    1    0    0    0  0.81516575724E+01  0.13030648596E+02  0.21470855760E+02  0.98594603372E+02  0.94992898909E+02 0.  0.
         13    1    3    3    0    0  0.37580363777E+02 -0.26472674666E+02  0.32887860959E+01  0.46085936289E+02  0.10566000000E+00 0. -1.
         22    1    1    0    0    0 -0.81516575724E+01 -0.13030648596E+02 -0.21470855760E+02  0.26405396628E+02  0.00000000000E+00 0.  1.
</event>
<event>
 5    1  0.1724235E-003  0.9118800E+02  0.7818608E-02  0.1130116E+00
         25   -1    0    0    0    0  0.00000000000E+00  0.00000000000E+00  0.99999998245E-14  0.12500000000E+03  0.12500000000E+03 0.  0.
        -13    1    3    3    0    0 -0.42779317228E+01  0.53456980446E+02 -0.27590204829E+02  0.60309037671E+02  0.10566000000E+00 0. -1.
         23    2    1    0    0    0 -0.43239514782E+01  0.30634050423E+02 -0.29083589584E+01  0.93925892555E+02  0.88636748241E+02 0.  0.
         13    1    3    3    0    0 -0.46019755409E-01 -0.22822930023E+02  0.24681845871E+02  0.33616854884E+02  0.10566000000E+00 0.  1.
         22    1    1    0    0    0  0.43239514782E+01 -0.30634050423E+02  0.29083589584E+01  0.31074107445E+02  0.00000000000E+00 0. -1.
</event>
<event>
 5    1  0.1724235E-003  0.9118800E+02  0.7818608E-02  0.1130116E+00
         25   -1    0    0    0    0  0.00000000000E+00  0.00000000000E+00  0.99999998245E-14  0.12500000000E+03  0.12500000000E+03 0.  0.
        -13    1    3    3    0    0  0.44174365937E+01  0.33602377261E+02  0.12364881667E+00  0.33891886296E+02  0.10566000000E+00 0.  1.
         23    2    1    0    0    0 -0.15849968999E+02 -0.16276506213E+02 -0.23166254252E+02  0.92552788905E+02  0.86678701111E+02 0.  0.
         13    1    3    3    0    0 -0.20267405592E+02 -0.49878883473E+02 -0.23289903069E+02  0.58660902610E+02  0.10566000000E+00 0. -1.
         22    1    1    0    0    0  0.15849968999E+02  0.16276506213E+02  0.23166254252E+02  0.32447211095E+02  0.00000000000E+00 0. -1.
</event>
<event>
 5    1  0.1724235E-003  0.9118800E+02  0.7818608E-02  0.1130116E+00
         25   -1    0    0    0    0  0.00000000000E+00  0.00000000000E+00  0.99999998245E-14  0.12500000000E+03  0.12500000000E+03 0.  0.
        -13    1    3    3    0    0 -0.30237341973E+02  0.31940907136E+01 -0.16284572502E+02  0.34491992269E+02  0.10566000000E+00 0. -1.
         23    2    1    0    0    0  0.25300422884E+02 -0.16288141385E+02 -0.73849123030E+01  0.94016909812E+02  0.88765012550E+02 0.  0.
         13    1    3    3    0    0  0.55537764856E+02 -0.19482232099E+02  0.88996601994E+01  0.59524917543E+02  0.10566000000E+00 0.  1.
         22    1    1    0    0    0 -0.25300422884E+02  0.16288141385E+02  0.73849123030E+01  0.30983090188E+02  0.00000000000E+00 0.  1.
</event>
<event>
 5    1  0.1724235E-003  0.9118800E+02  0.7818608E-02  0.1130116E+00
         25   -1    0    0    0    0  0.00000000000E+00  0.00000000000E+00  0.99999998245E-14  0.12500000000E+03  0.12500000000E+03 0.  0.
        -13    1    3    3    0    0 -0.58406408630E+02  0.13704714445E+02 -0.83704065587E+01  0.60573943549E+02  0.10566000000E+00 0.  1.
         23    2    1    0    0    0 -0.26748820255E+02 -0.16831887985E+01 -0.11339007264E+02  0.95898357516E+02  0.91376087566E+02 0.  0.
         13    1    3    3    0    0  0.31657588375E+02 -0.15387903244E+02 -0.29686007050E+01  0.35324413967E+02  0.10566000000E+00 0. -1.
         22    1    1    0    0    0  0.26748820255E+02  0.16831887985E+01  0.11339007264E+02  0.29101642484E+02  0.00000000000E+00 0.  1.
</event>
<event>
 5    1  0.1724235E-003  0.9118800E+02  0.7818608E-02  0.1130116E+00
         25   -1    0    0    0    0  0.00000000000E+00  0.00000000000E+00  0.99999998245E-14  0.12500000000E+03  0.12500000000E+03 0.  0.
        -13    1    3    3    0    0 -0.31526545806E+02  0.99645961504E+00 -0.98350697261E+01  0.33040214630E+02  0.10566000000E+00 0. -1.
         23    2    1    0    0    0  0.24161808042E+02  0.17927309145E+02  0.79116992767E+01  0.93890895762E+02  0.88587380255E+02 0.  0.
         13    1    3    3    0    0  0.55688353849E+02  0.16930849530E+02  0.17746769003E+02  0.60850681132E+02  0.10566000000E+00 0.  1.
         22    1    1    0    0    0 -0.24161808042E+02 -0.17927309145E+02 -0.79116992767E+01  0.31109104238E+02  0.00000000000E+00 0.  1.
</event>
<event>
 5    1  0.1724235E-003  0.9118800E+02  0.7818608E-02  0.1130116E+00
         25   -1    0    0    0    0  0.00000000000E+00  0.00000000000E+00  0.99999998245E-14  0.12500000000E+03  0.12500000000E+03 0.  0.
        -13    1    3    3    0    0 -0.19385225394E+02 -0.20421662419E+01  0.36109607731E+02  0.41035013599E+02  0.10566000000E+00 0. -1.
         23    2    1    0    0    0 -0.23827070466E+02  0.14862675524E+02 -0.13650389665E+02  0.93775625728E+02  0.88424580473E+02 0.  0.
         13    1    3    3    0    0 -0.44418450713E+01  0.16904841766E+02 -0.49759997396E+02  0.52740612128E+02  0.10566000000E+00 0.  1.
         22    1    1    0    0    0  0.23827070466E+02 -0.14862675524E+02  0.13650389665E+02  0.31224374272E+02  0.00000000000E+00 0. -1.
</event>
<event>
 5    1  0.1724235E-003  0.9118800E+02  0.7818608E-02  0.1130116E+00
         25   -1    0    0    0    0  0.00000000000E+00  0.00000000000E+00  0.99999998245E-14  0.12500000000E+03  0.12500000000E+03 0.  0.
        -13    1    3    3    0    0 -0.26193163946E+02 -0.25057321534E+02  0.69087665512E+01  0.36901130325E+02  0.10566000000E+00 0.  1.
         23    2    1    0    0    0  0.79194907027E+01  0.22781413181E+02  0.15570696366E+02  0.96291852988E+02  0.91912802411E+02 0.  0.
         13    1    3    3    0    0  0.34112654649E+02  0.47838734715E+02  0.86619298148E+01  0.59390722663E+02  0.10566000000E+00 0. -1.
         22    1    1    0    0    0 -0.79194907027E+01 -0.22781413181E+02 -0.15570696366E+02  0.28708147012E+02  0.00000000000E+00 0. -1.
</event>
<event>
 5    1  0.1724235E-003  0.9118800E+02  0.7818608E-02  0.1130116E+00
         25   -1    0    0    0    0  0.00000000000E+00  0.00000000000E+00  0.99999998245E-14  0.12500000000E+03  0.12500000000E+03 0.  0.
        -13    1    3    3    0    0 -0.10884114688E+02 -0.10355426336E+02 -0.33321544482E+02  0.36551816615E+02  0.10566000000E+00 0. -1.
         23    2    1    0    0    0  0.13087842437E+02  0.29585213403E+02 -0.21988284940E+01  0.92574526703E+02  0.86710043685E+02 0.  0.
         13    1    3    3    0    0  0.23971957125E+02  0.39940639739E+02  0.31122715988E+02  0.56022710089E+02  0.10566000000E+00 0.  1.
         22    1    1    0    0    0 -0.13087842437E+02 -0.29585213403E+02  0.21988284940E+01  0.32425473297E+02  0.00000000000E+00 0.  1.
</event>
<event>
 5    1  0.1724235E-003  0.9118800E+02  0.7818608E-02  0.1130116E+00
         25   -1    0    0    0    0  0.00000000000E+00  0.00000000000E+00  0.99999998245E-14  0.12500000000E+03  0.12500000000E+03 0.  0.
        -13    1    3    3    0    0  0.31707581649E+02 -0.86334441879E+00  0.53595522550E+02  0.62278465773E+02  0.10566000000E+00 0.  1.
         23    2    1    0    0    0  0.17399122614E+02 -0.23537794775E+01  0.23213675815E+02  0.95894253309E+02  0.91370472951E+02 0.  0.
         13    1    3    3    0    0 -0.14308459035E+02 -0.14904350587E+01 -0.30381846735E+02  0.33615787536E+02  0.10566000000E+00 0. -1.
         22    1    1    0    0    0 -0.17399122614E+02  0.23537794775E+01 -0.23213675815E+02  0.29105746691E+02  0.00000000000E+00 0.  1.
</event>
<event>
 5    1  0.1724235E-003  0.9118800E+02  0.7818608E-02  0.1130116E+00
         25   -1    0    0    0    0  0.00000000000E+00  0.00000000000E+00  0.99999998245E-14  0.12500000000E+03  0.12500000000E+03 0.  0.
        -13    1    3    3    0    0  0.28295618447E+02  0.15352141393E+02 -0.45989084423E+02  0.56136773320E+02  0.10566000000E+00 0.  1.
         23    2    1    0    0    0 -0.42446898005E+01  0.13724532668E+00 -0.28672677555E+02  0.96014509390E+02  0.91534842259E+02 0.  0.
         13    1    3    3    0    0 -0.32540308247E+02 -0.15214896066E+02  0.17316406869E+02  0.39877736070E+02  0.10566000000E+00 0. -1.
         22    1    1    0    0    0  0.42446898005E+01 -0.13724532668E+00  0.28672677555E+02  0.28985490610E+02  0.00000000000E+00 0.  1.
</event>
<event>
 5    1  0.1724235E-003  0.9118800E+02  0.7818608E-02  0.1130116E+00
         25   -1    0    0    0    0  0.00000000000E+00  0.00000000000E+00  0.99999998245E-14  0.12500000000E+03  0.12500000000E+03 0.  0.
        -13    1    3    3    0    0  0.10680586805E+02  0.54388454010E+02 -0.50361466855E+01  0.55655662798E+02  0.10566000000E+00 0. -1.
         23    2    1    0    0    0  0.19030197256E+02  0.19776868812E+02  0.11902798218E+02  0.95084292537E+02  0.90255598908E+02 0.  0.
         13    1    3    3    0    0  0.83496104514E+01 -0.34611585198E+02  0.16938944903E+02  0.39428629739E+02  0.10566000000E+00 0.  1.
         22    1    1    0    0    0 -0.19030197256E+02 -0.19776868812E+02 -0.11902798218E+02  0.29915707463E+02  0.00000000000E+00 0. -1.
</event>
<event>
 5    1  0.1724235E-003  0.9118800E+02  0.7818608E-02  0.1130116E+00
         25   -1    0    0    0    0  0.00000000000E+00  0.00000000000E+00  0.99999998245E-14  0.12500000000E+03  0.12500000000E+03 0.  0.
        -13    1    3    3    0    0  0.49237098780E+02 -0.17412091850E+02  0.13404851973E+02  0.53918216396E+02  0.10566000000E+00 0. -1.
         23    2    1    0    0    0  0.11302312312E+02 -0.57078571224E+01  0.26424846551E+02  0.95698218283E+02  0.91101891149E+02 0.  0.
         13    1    3    3    0    0 -0.37934786468E+02  0.11704234727E+02  0.13019994577E+02  0.41780001887E+02  0.10566000000E+00 0.  1.
         22    1    1    0    0    0 -0.11302312312E+02  0.57078571224E+01 -0.26424846551E+02  0.29301781717E+02  0.00000000000E+00 0. -1.
</event>
<event>
 5    1  0.1724235E-003  0.9118800E+02  0.7818608E-02  0.1130116E+00
         25   -1    0    0    0    0  0.00000000000E+00  0.00000000000E+00  0.99999998245E-14  0.12500000000E+03  0.12500000000E+03 0.  0.
        -13    1    3    3    0    0 -0.13260476814E+02  0.28402187269E+02 -0.19077633529E+02  0.36694573879E+02  0.10566000000E+00 0.  1.
         23    2    1    0    0    0 -0.14658667455E+02 -0.15245955291E+02  0.20437381035E+02  0.95589079786E+02  0.90952020024E+02 0.  0.
         13    1    3    3    0    0 -0.13981906410E+01 -0.43648142560E+02  0.39515014564E+02  0.58894505907E+02  0.10566000000E+00 0. -1.
         22    1    1    0    0    0  0.14658667455E+02  0.15245955291E+02 -0.20437381035E+02  0.29410920214E+02  0.00000000000E+00 0. -1.
</event>
<event>
 5    1  0.1724235E-003  0.9118800E+02  0.7818608E-02  0.1130116E+00
         25   -1    0    0    0    0  0.00000000000E+00  0.00000000000E+00  0.99999998245E-14  0.12500000000E+03  0.12500000000E+03 0.  0.
        -13    1    3    3    0    0 -0.49771407350E+02  0.20393397155E+02 -0.30835745925E+02  0.61999500223E+02  0.10566000000E+00 0.  1.
         23    2    1    0    0    0 -0.20503668671E+02  0.13521681315E+02 -0.17226667086E+02  0.95000094110E+02  0.90138912393E+02 0.  0.
         13    1    3    3    0    0  0.29267738679E+02 -0.68717158399E+01  0.13609078840E+02  0.33000593886E+02  0.10566000000E+00 0. -1.
         22    1    1    0    0    0  0.20503668671E+02 -0.13521681315E+02  0.17226667086E+02  0.29999905890E+02  0.00000000000E+00 0.  1.
</event>
<event>
 5    1  0.1724235E-003  0.9118800E+02  0.7818608E-02  0.1130116E+00
         25   -1    0    0    0    0  0.00000000000E+00  0.00000000000E+00  0.99999998245E-14  0.12500000000E+03  0.12500000000E+03 0.  0.
        -13    1    3    3    0    0 -0.34451310784E+01 -0.16572859501E+02  0.36416331654E+02  0.40158298960E+02  0.10566000000E+00 0.  1.
         23    2    1    0    0    0 -0.15386357136E+02 -0.19807501327E+02 -0.16811829778E+02  0.94805385990E+02  0.89868495578E+02 0.  0.
         13    1    3    3    0    0 -0.11941226058E+02 -0.32346418264E+01 -0.53228161431E+02  0.54647087030E+02  0.10566000000E+00 0. -1.
         22    1    1    0    0    0  0.15386357136E+02  0.19807501327E+02  0.16811829778E+02  0.30194614010E+02  0.00000000000E+00 0. -1.
</event>
<event>
 5    1  0.1724235E-003  0.9118800E+02  0.7818608E-02  0.1130116E+00
         25   -1    0    0    0    0  0.00000000000E+00  0.00000000000E+00  0.99999998245E-14  0.12500000000E+03  0.12500000000E+03 0.  0.
        -13    1    3    3    0    0  0.23775952938E+02 -0.11883791583E+02  0.24916529291E+02  0.36433021236E+02  0.10566000000E+00 0. -1.
         23    2    1    0    0    0 -0.18434928511E+02 -0.19326497972E+02 -0.14452498814E+02  0.94631680405E+02  0.89626559129E+02 0.  0.
         13    1    3    3    0    0 -0.42210881448E+02 -0.74427063889E+01 -0.39369028105E+02  0.58198659169E+02  0.10566000000E+00 0.  1.
         22    1    1    0    0    0  0.18434928511E+02  0.19326497972E+02  0.14452498814E+02  0.30368319595E+02  0.00000000000E+00 0.  1.
</event>
<event>
 5    1  0.1724235E-003  0.9118800E+02  0.7818608E-02  0.1130116E+00
         25   -1    0    0    0    0  0.00000000000E+00  0.00000000000E+00  0.99999998245E-14  0.12500000000E+03  0.12500000000E+03 0.  0.
        -13    1    3    3    0    0  0.35285457381E+02 -0.17964931050E+02  0.44327127838E+02  0.59436585338E+02  0.10566000000E+00 0.  1.
         23    2    1    0    0    0  0.16754695364E+02  0.52800794601E+01  0.23165809814E+02  0.95926751124E+02  0.91414920998E+02 0.  0.
         13    1    3    3    0    0 -0.18530762017E+02  0.23245010511E+02 -0.21161318024E+02  0.36490165786E+02  0.10566000000E+00 0. -1.
         22    1    1    0    0    0 -0.16754695364E+02 -0.52800794601E+01 -0.23165809814E+02  0.29073248876E+02  0.00000000000E+00 0.  1.
</event>
<event>
 5    1  0.1724235E-003  0.9118800E+02  0.7818608E-02  0.1130116E+00
         25   -1    0    0    0    0  0.00000000000E+00  0.00000000000E+00  0.99999998245E-14  0.12500000000E+03  0.12500000000E+03 0.  0.
        -13    1    3    3    0    0  0.30188823872E+02  0.33280145754E+02 -0.40496040095E+02  0.60488623853E+02  0.10566000000E+00 0. -1.
         23    2    1    0    0    0  0.96239884245E+01  0.22999415947E+02 -0.11364159825E+02  0.97600393878E+02  0.93675495566E+02 0.  0.
         13    1    3    3    0    0 -0.20564835448E+02 -0.10280729807E+02  0.29131880270E+02  0.37111770026E+02  0.10566000000E+00 0.  1.
         22    1    1    0    0    0 -0.96239884245E+01 -0.22999415947E+02  0.11364159825E+02  0.27399606122E+02  0.00000000000E+00 0. -1.
</event>
<event>
 5    1  0.1724235E-003  0.9118800E+02  0.7818608E-02  0.1130116E+00
         25   -1    0    0    0    0  0.00000000000E+00  0.00000000000E+00  0.99999998245E-14  0.12500000000E+03  0.12500000000E+03 0.  0.
        -13    1    3    3    0    0 -0.84260712125E+01 -0.24354162455E+02 -0.31480232485E+02  0.40683413160E+02  0.10566000000E+00 0. -1.
         23    2    1    0    0    0  0.29852502700E+02  0.38863699689E+01 -0.74021484602E+01  0.93998909844E+02  0.88739661151E+02 0.  0.
         13    1    3    3    0    0  0.38278573913E+02  0.28240532424E+02  0.24078084025E+02  0.53315496685E+02  0.10566000000E+00 0.  1.
         22    1    1    0    0    0 -0.29852502700E+02 -0.38863699689E+01  0.74021484602E+01  0.31001090156E+02  0.00000000000E+00 0.  1.
</event>
<event>
 5    1  0.1724235E-003  0.9118800E+02  0.7818608E-02  0.1130116E+00
         25   -1    0    0    0    0  0.00000000000E+00  0.00000000000E+00  0.99999998245E-14  0.12500000000E+03  0.12500000000E+03 0.  0.
        -13    1    3    3    0    0 -0.91965650939E+01  0.22228477700E+02  0.25592526981E+02  0.35123647756E+02  0.10566000000E+00 0.  1.
         23    2    1    0    0    0  0.24309005322E+02  0.52962238929E+00 -0.18385416604E+02  0.94516696647E+02  0.89466050331E+02 0.  0.
         13    1    3    3    0    0  0.33505570415E+02 -0.21698855311E+02 -0.43977943585E+02  0.59393048891E+02  0.10566000000E+00 0. -1.
         22    1    1    0    0    0 -0.24309005322E+02 -0.52962238929E+00  0.18385416604E+02  0.30483303353E+02  0.00000000000E+00 0. -1.
</event>
<event>
 5    1  0.1724235E-003  0.9118800E+02  0.7818608E-02  0.1130116E+00
         25   -1    0    0    0    0  0.00000000000E+00  0.00000000000E+00  0.99999998245E-14  0.12500000000E+03  0.12500000000E+03 0.  0.
        -13    1    3    3    0    0  0.56616283802E+02  0.13987124925E+02 -0.12253693467E+02  0.59592008045E+02  0.10566000000E+00 0. -1.
         23    2    1    0    0    0  0.21567980240E+02  0.67224425720E+01 -0.18342818950E+02  0.95899690503E+02  0.91377911039E+02 0.  0.
         13    1    3    3    0    0 -0.35048303562E+02 -0.72646823533E+01 -0.60891254837E+01  0.36307682458E+02  0.10566000000E+00 0.  1.
         22    1    1    0    0    0 -0.21567980240E+02 -0.67224425720E+01  0.18342818950E+02  0.29100309497E+02  0.00000000000E+00 0. -1.
</event>
<event>
 5    1  0.1724235E-003  0.9118800E+02  0.7818608E-02  0.1130116E+00
         25   -1    0    0    0    0  0.00000000000E+00  0.00000000000E+00  0.99999998245E-14  0.12500000000E+03  0.12500000000E+03 0.  0.
        -13    1    3    3    0    0 -0.49342947929E+02 -0.11514191282E+01  0.14330789463E+02  0.51394892421E+02  0.10566000000E+00 0.  1.
         23    2    1    0    0    0 -0.19348931926E+02 -0.10720667679E+02 -0.17969433135E+02  0.96500624404E+02  0.92196291145E+02 0.  0.
         13    1    3    3    0    0  0.29994016002E+02 -0.95692485512E+01 -0.32300222598E+02  0.45105731983E+02  0.10566000000E+00 0. -1.
         22    1    1    0    0    0  0.19348931926E+02  0.10720667679E+02  0.17969433135E+02  0.28499375596E+02  0.00000000000E+00 0. -1.
</event>
<event>
 5    1  0.1724235E-003  0.9118800E+02  0.7818608E-02  0.1130116E+00
         25   -1    0    0    0    0  0.00000000000E+00  0.00000000000E+00  0.99999998245E-14  0.12500000000E+03  0.12500000000E+03 0.  0.
        -13    1    3    3    0    0 -0.32094140357E+02  0.15146700809E+01  0.40605299077E+02  0.51779624833E+02  0.10566000000E+00 0. -1.
         23    2    1    0    0    0 -0.17715124926E+01 -0.22145093046E+02  0.18122774799E+02  0.96329834864E+02  0.91964442672E+02 0.  0.
         13    1    3    3    0    0  0.30322627864E+02 -0.23659763127E+02 -0.22482524279E+02  0.44550210031E+02  0.10566000000E+00 0.  1.
         22    1    1    0    0    0  0.17715124926E+01  0.22145093046E+02 -0.18122774799E+02  0.28670165136E+02  0.00000000000E+00 0. -1.
</event>
<event>
 5    1  0.1724235E-003  0.9118800E+02  0.7818608E-02  0.1130116E+00
         25   -1    0    0    0    0  0.00000000000E+00  0.00000000000E+00  0.99999998245E-14  0.12500000000E+03  0.12500000000E+03 0.  0.
        -13    1    3    3    0    0 -0.19860785383E+02  0.31154127098E+02 -0.16874088351E+02  0.40617440257E+02  0.10566000000E+00 0.  1.
         23    2    1    0    0    0  0.26567446041E+01 -0.22293939800E+02 -0.13692434279E+02  0.98702456385E+02  0.95134715515E+02 0.  0.
         13    1    3    3    0    0  0.22517529988E+02 -0.53448066898E+02  0.31816540726E+01  0.58085016128E+02  0.10566000000E+00 0. -1.
         22    1    1    0    0    0 -0.26567446041E+01  0.22293939800E+02  0.13692434279E+02  0.26297543615E+02  0.00000000000E+00 0. -1.
</event>
<event>
 5    1  0.1724235E-003  0.9118800E+02  0.7818608E-02  0.1130116E+00
         25   -1    0    0    0    0  0.00000000000E+00  0.00000000000E+00  0.99999998245E-14  0.12500000000E+03  0.12500000000E+03 0.  0.
        -13    1    3    3    0    0 -0.30546919602E+02  0.45873973568E+01  0.16093840704E+02  0.34830753427E+02  0.10566000000E+00 0.  1.
         23    2    1    0    0    0  0.28691298754E+02  0.59464143028E+01  0.27371215771E+01  0.95571403333E+02  0.90927723128E+02 0.  0.
         13    1    3    3    0    0  0.59238218356E+02  0.13590169459E+01 -0.13356719127E+02  0.60740649906E+02  0.10566000000E+00 0. -1.
         22    1    1    0    0    0 -0.28691298754E+02 -0.59464143028E+01 -0.27371215771E+01  0.29428596667E+02  0.00000000000E+00 0. -1.
</event>
<event>
 5    1  0.1724235E-003  0.9118800E+02  0.7818608E-02  0.1130116E+00
         25   -1    0    0    0    0  0.00000000000E+00  0.00000000000E+00  0.99999998245E-14  0.12500000000E+03  0.12500000000E+03 0.  0.
        -13    1    3    3    0    0  0.53588953944E+02 -0.26669575061E+02  0.55990688833E+00  0.59861230179E+02  0.10566000000E+00 0.  1.
         23    2    1    0    0    0  0.26754446511E+02 -0.67759006094E+01  0.11627581086E+02  0.95051479518E+02  0.90210142885E+02 0.  0.
         13    1    3    3    0    0 -0.26834507433E+02  0.19893674452E+02  0.11067674197E+02  0.35190249339E+02  0.10566000000E+00 0. -1.
         22    1    1    0    0    0 -0.26754446511E+02  0.67759006094E+01 -0.11627581086E+02  0.29948520482E+02  0.00000000000E+00 0.  1.
</event>
<event>
 5    1  0.1724235E-003  0.9118800E+02  0.7818608E-02  0.1130116E+00
         25   -1    0    0    0    0  0.00000000000E+00  0.00000000000E+00  0.99999998245E-14  0.12500000000E+03  0.12500000000E+03 0.  0.
        -13    1    3    3    0    0  0.23695187914E+02 -0.40119366365E+01  0.54109281012E+02  0.59206275187E+02  0.10566000000E+00 0.  1.
         23    2    1    0    0    0  0.21262606298E+02 -0.14499723303E+02  0.30936834177E+02  0.84757881376E+02  0.74595377498E+02 0.  0.
         13    1    3    3    0    0 -0.24325816164E+01 -0.10487786666E+02 -0.23172446835E+02  0.25551606189E+02  0.10566000000E+00 0. -1.
         22    1    1    0    0    0 -0.21262606298E+02  0.14499723303E+02 -0.30936834177E+02  0.40242118624E+02  0.00000000000E+00 0.  1.
</event>
<event>
 5    1  0.1724235E-003  0.9118800E+02  0.7818608E-02  0.1130116E+00
         25   -1    0    0    0    0  0.00000000000E+00  0.00000000000E+00  0.99999998245E-14  0.12500000000E+03  0.12500000000E+03 0.  0.
        -13    1    3    3    0    0 -0.28579076721E+02  0.34404415229E+02  0.30175590091E+02  0.53953728461E+02  0.10566000000E+00 0. -1.
         23    2    1    0    0    0 -0.37353551806E+00  0.28864032021E+02 -0.68211808550E+00  0.96125492932E+02  0.91686276144E+02 0.  0.
         13    1    3    3    0    0  0.28205541203E+02 -0.55403832079E+01 -0.30857708176E+02  0.42171764471E+02  0.10566000000E+00 0.  1.
         22    1    1    0    0    0  0.37353551806E+00 -0.28864032021E+02  0.68211808550E+00  0.28874507068E+02  0.00000000000E+00 0. -1.
</event>
<event>
 5    1  0.1724235E-003  0.9118800E+02  0.7818608E-02  0.1130116E+00
         25   -1    0    0    0    0  0.00000000000E+00  0.00000000000E+00  0.99999998245E-14  0.12500000000E+03  0.12500000000E+03 0.  0.
        -13    1    3    3    0    0 -0.37686501232E+02 -0.10089087809E+02 -0.26082026071E+02  0.46929152091E+02  0.10566000000E+00 0. -1.
         23    2    1    0    0    0 -0.62117660354E+01 -0.32024441653E+02 -0.18067935266E+01  0.92328676132E+02  0.86354901615E+02 0.  0.
         13    1    3    3    0    0  0.31474735197E+02 -0.21935353844E+02  0.24275232545E+02  0.45399524041E+02  0.10566000000E+00 0.  1.
         22    1    1    0    0    0  0.62117660354E+01  0.32024441653E+02  0.18067935266E+01  0.32671323868E+02  0.00000000000E+00 0. -1.
</event>
<event>
 4    1  0.1724235E-003  0.9118800E+02  0.7818608E-02  0.1130116E+00
         25   -1    0    0    0    0  0.00000000000E+00  0.00000000000E+00  0.99999998245E-14  0.12500000000E+03  0.12500000000E+03 0.  0.
        -13    1    1    0    0    0 -0.24325051558E+02  0.16856045568E+02 -0.22726037034E+02  0.37313782022E+02  0.10566000000E+00 0.  1.
         13    1    1    0    0    0 -0.27701649194E+02 -0.82389175610E+01  0.19475488366E+02  0.34850637609E+02  0.10566000000E+00 0. -1.
         22    1    1    0    0    0  0.52026700752E+02 -0.86171280066E+01  0.32505486679E+01  0.52835580368E+02  0.00000000000E+00 0.  1.
</event>
<event>
 5    1  0.1724235E-003  0.9118800E+02  0.7818608E-02  0.1130116E+00
         25   -1    0    0    0    0  0.00000000000E+00  0.00000000000E+00  0.99999998245E-14  0.12500000000E+03  0.12500000000E+03 0.  0.
        -13    1    3    3    0    0 -0.30572163594E+02  0.47789142687E+02  0.12902698226E+02  0.58180324262E+02  0.10566000000E+00 0. -1.
         23    2    1    0    0    0 -0.21938538713E+02  0.58026921803E+01  0.48214148736E+01  0.10180050089E+03  0.99121769675E+02 0.  0.
         13    1    3    3    0    0  0.86336248816E+01 -0.41986450507E+02 -0.80812833528E+01  0.43620176632E+02  0.10566000000E+00 0.  1.
         22    1    1    0    0    0  0.21938538713E+02 -0.58026921803E+01 -0.48214148736E+01  0.23199499106E+02  0.00000000000E+00 0. -1.
</event>
<event>
 5    1  0.1724235E-003  0.9118800E+02  0.7818608E-02  0.1130116E+00
         25   -1    0    0    0    0  0.00000000000E+00  0.00000000000E+00  0.99999998245E-14  0.12500000000E+03  0.12500000000E+03 0.  0.
        -13    1    3    3    0    0 -0.26748096171E+02 -0.79670476940E+01  0.19722868067E+02  0.34175095999E+02  0.10566000000E+00 0. -1.
         23    2    1    0    0    0  0.24362813114E+02 -0.84425781765E+01 -0.14241707230E+02  0.95544100524E+02  0.90890181709E+02 0.  0.
         13    1    3    3    0    0  0.51110909286E+02 -0.47553048247E+00 -0.33964575297E+02  0.61369004525E+02  0.10566000000E+00 0.  1.
         22    1    1    0    0    0 -0.24362813114E+02  0.84425781765E+01  0.14241707230E+02  0.29455899476E+02  0.00000000000E+00 0.  1.
</event>
<event>
 5    1  0.1724235E-003  0.9118800E+02  0.7818608E-02  0.1130116E+00
         25   -1    0    0    0    0  0.00000000000E+00  0.00000000000E+00  0.99999998245E-14  0.12500000000E+03  0.12500000000E+03 0.  0.
        -13    1    3    3    0    0 -0.25182167877E+02 -0.26637208108E+02  0.17988293605E+02  0.40832245905E+02  0.10566000000E+00 0.  1.
         23    2    1    0    0    0  0.14442274233E+02 -0.17771543675E+02 -0.18606583470E+02  0.95493865078E+02  0.90821067322E+02 0.  0.
         13    1    3    3    0    0  0.39624442111E+02  0.88656644332E+01 -0.36594877075E+02  0.54661619173E+02  0.10566000000E+00 0. -1.
         22    1    1    0    0    0 -0.14442274233E+02  0.17771543675E+02  0.18606583470E+02  0.29506134922E+02  0.00000000000E+00 0. -1.
</event>
<event>
 5    1  0.1724235E-003  0.9118800E+02  0.7818608E-02  0.1130116E+00
         25   -1    0    0    0    0  0.00000000000E+00  0.00000000000E+00  0.99999998245E-14  0.12500000000E+03  0.12500000000E+03 0.  0.
        -13    1    3    3    0    0 -0.58736713034E+02  0.38321168585E+00  0.13956957304E+02  0.60373472076E+02  0.10566000000E+00 0. -1.
         23    2    1    0    0    0 -0.30114179430E+02 -0.66680805446E+01 -0.23594461089E+01  0.94066295294E+02  0.88834530581E+02 0.  0.
         13    1    3    3    0    0  0.28622533604E+02 -0.70512922304E+01 -0.16316403413E+02  0.33692823218E+02  0.10566000000E+00 0.  1.
         22    1    1    0    0    0  0.30114179430E+02  0.66680805446E+01  0.23594461089E+01  0.30933704706E+02  0.00000000000E+00 0. -1.
</event>
<event>
 5    1  0.1724235E-003  0.9118800E+02  0.7818608E-02  0.1130116E+00
         25   -1    0    0    0    0  0.00000000000E+00  0.00000000000E+00  0.99999998245E-14  0.12500000000E+03  0.12500000000E+03 0.  0.
        -13    1    3    3    0    0  0.31778974344E+02  0.37076612749E+02  0.92359481020E+01  0.49698011275E+02  0.10566000000E+00 0. -1.
         23    2    1    0    0    0  0.19084473972E+02  0.40179858748E+02 -0.15681690576E+02  0.77834826247E+02  0.61916932755E+02 0.  0.
         13    1    3    3    0    0 -0.12694500372E+02  0.31032459990E+01 -0.24917638678E+02  0.28136814972E+02  0.10566000000E+00 0.  1.
         22    1    1    0    0    0 -0.19084473972E+02 -0.40179858748E+02  0.15681690576E+02  0.47165173753E+02  0.00000000000E+00 0. -1.
</event>
<event>
 5    1  0.1724235E-003  0.9118800E+02  0.7818608E-02  0.1130116E+00
         25   -1    0    0    0    0  0.00000000000E+00  0.00000000000E+00  0.99999998245E-14  0.12500000000E+03  0.12500000000E+03 0.  0.
        -13    1    3    3    0    0 -0.10544427903E+02  0.27579871538E+02 -0.27929377383E+02  0.40643518042E+02  0.10566000000E+00 0.  1.
         23    2    1    0    0    0  0.28834516881E+02  0.52388626439E+01  0.30981356860E+01  0.95530125716E+02  0.90870960318E+02 0.  0.
         13    1    3    3    0    0  0.39378944784E+02 -0.22341008894E+02  0.31027513068E+02  0.54886607674E+02  0.10566000000E+00 0. -1.
         22    1    1    0    0    0 -0.28834516881E+02 -0.52388626439E+01 -0.30981356860E+01  0.29469874284E+02  0.00000000000E+00 0.  1.
</event>
<event>
 5    1  0.1724235E-003  0.9118800E+02  0.7818608E-02  0.1130116E+00
         25   -1    0    0    0    0  0.00000000000E+00  0.00000000000E+00  0.99999998245E-14  0.12500000000E+03  0.12500000000E+03 0.  0.
        -13    1    3    3    0    0  0.10571822700E+02  0.39958166422E+02 -0.85175775222E+01  0.42201644398E+02  0.10566000000E+00 0.  1.
         23    2    1    0    0    0  0.18690244144E+02 -0.11540906284E+02 -0.19667344374E+02  0.95515729978E+02  0.90851155713E+02 0.  0.
         13    1    3    3    0    0  0.81184214444E+01 -0.51499072706E+02 -0.11149766851E+02  0.53314085580E+02  0.10566000000E+00 0. -1.
         22    1    1    0    0    0 -0.18690244144E+02  0.11540906284E+02  0.19667344374E+02  0.29484270022E+02  0.00000000000E+00 0.  1.
</event>
<event>
 5    1  0.1724235E-003  0.9118800E+02  0.7818608E-02  0.1130116E+00
         25   -1    0    0    0    0  0.00000000000E+00  0.00000000000E+00  0.99999998245E-14  0.12500000000E+03  0.12500000000E+03 0.  0.
        -13    1    3    3    0    0  0.19354839688E+02 -0.65809713649E+01  0.54849820445E+02  0.58535740966E+02  0.10566000000E+00 0.  1.
         23    2    1    0    0    0  0.23371107474E+02 -0.48729301529E+01  0.19443120719E+02  0.94210569084E+02  0.89037308310E+02 0.  0.
         13    1    3    3    0    0  0.40162677856E+01  0.17080412120E+01 -0.35406699727E+02  0.35674828119E+02  0.10566000000E+00 0. -1.
         22    1    1    0    0    0 -0.23371107474E+02  0.48729301529E+01 -0.19443120719E+02  0.30789430916E+02  0.00000000000E+00 0.  1.
</event>
<event>
 5    1  0.1724235E-003  0.9118800E+02  0.7818608E-02  0.1130116E+00
         25   -1    0    0    0    0  0.00000000000E+00  0.00000000000E+00  0.99999998245E-14  0.12500000000E+03  0.12500000000E+03 0.  0.
        -13    1    3    3    0    0  0.17645743578E+02 -0.21243172726E+02 -0.31939465600E+02  0.42223042060E+02  0.10566000000E+00 0. -1.
         23    2    1    0    0    0 -0.19480207510E+02 -0.21267818201E+02  0.62555342345E+01  0.95488472012E+02  0.90813644366E+02 0.  0.
         13    1    3    3    0    0 -0.37125951088E+02 -0.24645474676E-01  0.38194999835E+02  0.53265429952E+02  0.10566000000E+00 0.  1.
         22    1    1    0    0    0  0.19480207510E+02  0.21267818201E+02 -0.62555342345E+01  0.29511527988E+02  0.00000000000E+00 0.  1.
</event>
<event>
 5    1  0.1724235E-003  0.9118800E+02  0.7818608E-02  0.1130116E+00
         25   -1    0    0    0    0  0.00000000000E+00  0.00000000000E+00  0.99999998245E-14  0.12500000000E+03  0.12500000000E+03 0.  0.
        -13    1    3    3    0    0 -0.18493895894E+02  0.29699422915E+02 -0.26515309884E+02  0.43899347707E+02  0.10566000000E+00 0. -1.
         23    2    1    0    0    0  0.28459832069E+01  0.15388741484E+02  0.21529682325E+02  0.98383459919E+02  0.94714650291E+02 0.  0.
         13    1    3    3    0    0  0.21339879101E+02 -0.14310681431E+02  0.48044992209E+02  0.54484112212E+02  0.10566000000E+00 0.  1.
         22    1    1    0    0    0 -0.28459832069E+01 -0.15388741484E+02 -0.21529682325E+02  0.26616540081E+02  0.00000000000E+00 0. -1.
</event>
<event>
 5    1  0.1724235E-003  0.9118800E+02  0.7818608E-02  0.1130116E+00
         25   -1    0    0    0    0  0.00000000000E+00  0.00000000000E+00  0.99999998245E-14  0.12500000000E+03  0.12500000000E+03 0.  0.
        -13    1    3    3    0    0  0.57239296469E+01 -0.11857301334E+02  0.20161193140E+02  0.24079946810E+02  0.10566000000E+00 0.  1.
         23    2    1    0    0    0 -0.23395303841E+01  0.32117642882E+02 -0.22372492581E+02  0.85788460741E+02  0.76302786223E+02 0.  0.
         13    1    3    3    0    0 -0.80634600310E+01  0.43974944216E+02 -0.42533685721E+02  0.61708513931E+02  0.10566000000E+00 0. -1.
         22    1    1    0    0    0  0.23395303841E+01 -0.32117642882E+02  0.22372492581E+02  0.39211539259E+02  0.00000000000E+00 0. -1.
</event>
<event>
 5    1  0.1724235E-003  0.9118800E+02  0.7818608E-02  0.1130116E+00
         25   -1    0    0    0    0  0.00000000000E+00  0.00000000000E+00  0.99999998245E-14  0.12500000000E+03  0.12500000000E+03 0.  0.
        -13    1    3    3    0    0  0.27734625506E+02  0.55527249955E+02  0.40599454743E+01  0.62201119450E+02  0.10566000000E+00 0. -1.
         23    2    1    0    0    0  0.12448629049E+02  0.25703652732E+02  0.61741492260E+01  0.95780721302E+02  0.91215022477E+02 0.  0.
         13    1    3    3    0    0 -0.15285996457E+02 -0.29823597223E+02  0.21142037517E+01  0.33579601852E+02  0.10566000000E+00 0.  1.
         22    1    1    0    0    0 -0.12448629049E+02 -0.25703652732E+02 -0.61741492260E+01  0.29219278698E+02  0.00000000000E+00 0. -1.
</event>
<event>
 5    1  0.1724235E-003  0.9118800E+02  0.7818608E-02  0.1130116E+00
         25   -1    0    0    0    0  0.00000000000E+00  0.00000000000E+00  0.99999998245E-14  0.12500000000E+03  0.12500000000E+03 0.  0.
        -13    1    3    3    0    0 -0.95661565750E+01  0.20361783619E+01  0.50430439948E+02  0.51370203536E+02  0.10566000000E+00 0.  1.
         23    2    1    0    0    0  0.21590473071E+02 -0.38390175514E+01  0.19822594385E+02  0.95439522477E+02  0.90746243004E+02 0.  0.
         13    1    3    3    0    0  0.31156629646E+02 -0.58751959133E+01 -0.30607845563E+02  0.44069318941E+02  0.10566000000E+00 0. -1.
         22    1    1    0    0    0 -0.21590473071E+02  0.38390175514E+01 -0.19822594385E+02  0.29560477523E+02  0.00000000000E+00 0. -1.
</event>
<event>
 5    1  0.1724235E-003  0.9118800E+02  0.7818608E-02  0.1130116E+00
         25   -1    0    0    0    0  0.00000000000E+00  0.00000000000E+00  0.99999998245E-14  0.12500000000E+03  0.12500000000E+03 0.  0.
        -13    1    3    3    0    0  0.23620306819E+02 -0.28465124445E+02 -0.10540513744E+02  0.38461614603E+02  0.10566000000E+00 0. -1.
         23    2    1    0    0    0  0.72000860606E+01  0.70378554893E+01  0.29133190115E+02  0.94176057756E+02  0.88988844464E+02 0.  0.
         13    1    3    3    0    0 -0.16420220758E+02  0.35502979934E+02  0.39673703859E+02  0.55714443153E+02  0.10566000000E+00 0.  1.
         22    1    1    0    0    0 -0.72000860606E+01 -0.70378554893E+01 -0.29133190115E+02  0.30823942244E+02  0.00000000000E+00 0.  1.
</event>
<event>
 5    1  0.1724235E-003  0.9118800E+02  0.7818608E-02  0.1130116E+00
         25   -1    0    0    0    0  0.00000000000E+00  0.00000000000E+00  0.99999998245E-14  0.12500000000E+03  0.12500000000E+03 0.  0.
        -13    1    3    3    0    0  0.36187175442E+02 -0.18442197860E+02  0.93414525398E+01  0.41676134993E+02  0.10566000000E+00 0. -1.
         23    2    1    0    0    0  0.48240183111E+01  0.14619064269E+01 -0.29295968273E+02  0.95273545786E+02  0.90517326776E+02 0.  0.
         13    1    3    3    0    0 -0.31363157131E+02  0.19904104287E+02 -0.38637420813E+02  0.53597410793E+02  0.10566000000E+00 0.  1.
         22    1    1    0    0    0 -0.48240183111E+01 -0.14619064269E+01  0.29295968273E+02  0.29726454214E+02  0.00000000000E+00 0.  1.
</event>
<event>
 5    1  0.1724235E-003  0.9118800E+02  0.7818608E-02  0.1130116E+00
         25   -1    0    0    0    0  0.00000000000E+00  0.00000000000E+00  0.99999998245E-14  0.12500000000E+03  0.12500000000E+03 0.  0.
        -13    1    3    3    0    0  0.88229673011E+01  0.20137015427E+02  0.24264907513E+02  0.32743564909E+02  0.10566000000E+00 0.  1.
         23    2    1    0    0    0 -0.12307994246E+02 -0.21568877904E+02 -0.16838295439E+02  0.94996143420E+02  0.90133433614E+02 0.  0.
         13    1    3    3    0    0 -0.21130961547E+02 -0.41705893331E+02 -0.41103202952E+02  0.62252578511E+02  0.10566000000E+00 0. -1.
         22    1    1    0    0    0  0.12307994246E+02  0.21568877904E+02  0.16838295439E+02  0.30003856580E+02  0.00000000000E+00 0. -1.
</event>
<event>
 5    1  0.1724235E-003  0.9118800E+02  0.7818608E-02  0.1130116E+00
         25   -1    0    0    0    0  0.00000000000E+00  0.00000000000E+00  0.99999998245E-14  0.12500000000E+03  0.12500000000E+03 0.  0.
        -13    1    3    3    0    0  0.42871816532E+01 -0.34035178673E+02 -0.32612555995E+02  0.47332476022E+02  0.10566000000E+00 0.  1.
         23    2    1    0    0    0 -0.28302202560E+02 -0.10321908008E+02 -0.12378395785E+02  0.92430364803E+02  0.86501972236E+02 0.  0.
         13    1    3    3    0    0 -0.32589384213E+02  0.23713270665E+02  0.20234160209E+02  0.45097888781E+02  0.10566000000E+00 0. -1.
         22    1    1    0    0    0  0.28302202560E+02  0.10321908008E+02  0.12378395785E+02  0.32569635197E+02  0.00000000000E+00 0.  1.
</event>
<event>
 5    1  0.1724235E-003  0.9118800E+02  0.7818608E-02  0.1130116E+00
         25   -1    0    0    0    0  0.00000000000E+00  0.00000000000E+00  0.99999998245E-14  0.12500000000E+03  0.12500000000E+03 0.  0.
        -13    1    3    3    0    0  0.18476863353E+02 -0.97781468588E+01 -0.30228740620E+02  0.36753157128E+02  0.10566000000E+00 0. -1.
         23    2    1    0    0    0  0.15828892156E+02  0.94213020625E+01  0.24232926094E+02  0.94560724934E+02  0.89527544552E+02 0.  0.
         13    1    3    3    0    0 -0.26479711971E+01  0.19199448921E+02  0.54461666714E+02  0.57807567806E+02  0.10566000000E+00 0.  1.
         22    1    1    0    0    0 -0.15828892156E+02 -0.94213020625E+01 -0.24232926094E+02  0.30439275066E+02  0.00000000000E+00 0.  1.
</event>
<event>
 5    1  0.1724235E-003  0.9118800E+02  0.7818608E-02  0.1130116E+00
         25   -1    0    0    0    0  0.00000000000E+00  0.00000000000E+00  0.99999998245E-14  0.12500000000E+03  0.12500000000E+03 0.  0.
        -13    1    3    3    0    0 -0.23967313650E+02 -0.16937996028E+02  0.25941493842E+02  0.39170142964E+02  0.10566000000E+00 0.  1.
         23    2    1    0    0    0  0.12033087324E+02 -0.14725113078E+01 -0.21266980230E+02  0.10052045899E+03  0.97494178015E+02 0.  0.
         13    1    3    3    0    0  0.36000400974E+02  0.15465484720E+02 -0.47208474072E+02  0.61350316023E+02  0.10566000000E+00 0. -1.
         22    1    1    0    0    0 -0.12033087324E+02  0.14725113078E+01  0.21266980230E+02  0.24479541013E+02  0.00000000000E+00 0. -1.
</event>
<event>
 5    1  0.1724235E-003  0.9118800E+02  0.7818608E-02  0.1130116E+00
         25   -1    0    0    0    0  0.00000000000E+00  0.00000000000E+00  0.99999998245E-14  0.12500000000E+03  0.12500000000E+03 0.  0.
        -13    1    3    3    0    0 -0.64861103353E+01 -0.30833637975E+02 -0.23739766085E+02  0.39450862043E+02  0.10566000000E+00 0. -1.
         23    2    1    0    0    0  0.26912694374E+02 -0.22663021991E+01  0.11363596412E+02  0.95698795801E+02  0.91102683551E+02 0.  0.
         13    1    3    3    0    0  0.33398804709E+02  0.28567335776E+02  0.35103362498E+02  0.56247933758E+02  0.10566000000E+00 0.  1.
         22    1    1    0    0    0 -0.26912694374E+02  0.22663021991E+01 -0.11363596412E+02  0.29301204199E+02  0.00000000000E+00 0.  1.
</event>
<event>
 5    1  0.1724235E-003  0.9118800E+02  0.7818608E-02  0.1130116E+00
         25   -1    0    0    0    0  0.00000000000E+00  0.00000000000E+00  0.99999998245E-14  0.12500000000E+03  0.12500000000E+03 0.  0.
        -13    1    3    3    0    0 -0.41917266045E+02 -0.34754673460E+02 -0.27671754694E+02  0.61079306577E+02  0.10566000000E+00 0. -1.
         23    2    1    0    0    0 -0.15237823555E+02 -0.14106745516E+02 -0.20996288619E+02  0.95469749891E+02  0.90787870736E+02 0.  0.
         13    1    3    3    0    0  0.26679442490E+02  0.20647927944E+02  0.66754660754E+01  0.34390443314E+02  0.10566000000E+00 0.  1.
         22    1    1    0    0    0  0.15237823555E+02  0.14106745516E+02  0.20996288619E+02  0.29530250109E+02  0.00000000000E+00 0. -1.
</event>
<event>
 5    1  0.1724235E-003  0.9118800E+02  0.7818608E-02  0.1130116E+00
         25   -1    0    0    0    0  0.00000000000E+00  0.00000000000E+00  0.99999998245E-14  0.12500000000E+03  0.12500000000E+03 0.  0.
        -13    1    3    3    0    0 -0.31452131020E+02  0.66637392691E+01  0.34862956940E+02  0.47424454634E+02  0.10566000000E+00 0.  1.
         23    2    1    0    0    0 -0.21894058829E+02 -0.21368209809E+02 -0.15575254695E+01  0.94367075099E+02  0.89256757585E+02 0.  0.
         13    1    3    3    0    0  0.95580721915E+01 -0.28031949078E+02 -0.36420482409E+02  0.46942620464E+02  0.10566000000E+00 0. -1.
         22    1    1    0    0    0  0.21894058829E+02  0.21368209809E+02  0.15575254695E+01  0.30632924901E+02  0.00000000000E+00 0.  1.
</event>
<event>
 5    1  0.1724235E-003  0.9118800E+02  0.7818608E-02  0.1130116E+00
         25   -1    0    0    0    0  0.00000000000E+00  0.00000000000E+00  0.99999998245E-14  0.12500000000E+03  0.12500000000E+03 0.  0.
        -13    1    3    3    0    0 -0.61082551223E+01  0.31064586796E+02  0.20846957176E+02  0.37906808372E+02  0.10566000000E+00 0. -1.
         23    2    1    0    0    0  0.19088233014E+02 -0.19982339821E+02  0.67099496991E+01  0.96562736256E+02  0.92280464151E+02 0.  0.
         13    1    3    3    0    0  0.25196488136E+02 -0.51046926617E+02 -0.14137007477E+02  0.58655927883E+02  0.10566000000E+00 0.  1.
         22    1    1    0    0    0 -0.19088233014E+02  0.19982339821E+02 -0.67099496991E+01  0.28437263744E+02  0.00000000000E+00 0.  1.
</event>
<event>
 5    1  0.1724235E-003  0.9118800E+02  0.7818608E-02  0.1130116E+00
         25   -1    0    0    0    0  0.00000000000E+00  0.00000000000E+00  0.99999998245E-14  0.12500000000E+03  0.12500000000E+03 0.  0.
        -13    1    3    3    0    0  0.14894676277E+02  0.16963966179E+02 -0.35247894140E+02  0.41857529015E+02  0.10566000000E+00 0.  1.
         23    2    1    0    0    0  0.61094852239E+01 -0.27093521127E+02 -0.31989339650E+01  0.97042570303E+02  0.92928158142E+02 0.  0.
         13    1    3    3    0    0 -0.87851910529E+01 -0.44057487307E+02  0.32048960175E+02  0.55185041288E+02  0.10566000000E+00 0. -1.
         22    1    1    0    0    0 -0.61094852239E+01  0.27093521127E+02  0.31989339650E+01  0.27957429697E+02  0.00000000000E+00 0. -1.
</event>
<event>
 5    1  0.1724235E-003  0.9118800E+02  0.7818608E-02  0.1130116E+00
         25   -1    0    0    0    0  0.00000000000E+00  0.00000000000E+00  0.99999998245E-14  0.12500000000E+03  0.12500000000E+03 0.  0.
        -13    1    3    3    0    0  0.81868643088E+01 -0.63532552900E+01 -0.33325083647E+02  0.34899297473E+02  0.10566000000E+00 0. -1.
         23    2    1    0    0    0  0.14521446688E+02  0.10502804093E+02  0.24034669585E+02  0.95019228666E+02  0.90165443306E+02 0.  0.
         13    1    3    3    0    0  0.63345823787E+01  0.16856059383E+02  0.57359753232E+02  0.60119931193E+02  0.10566000000E+00 0.  1.
         22    1    1    0    0    0 -0.14521446688E+02 -0.10502804093E+02 -0.24034669585E+02  0.29980771334E+02  0.00000000000E+00 0.  1.
</event>
<event>
 5    1  0.1724235E-003  0.9118800E+02  0.7818608E-02  0.1130116E+00
         25   -1    0    0    0    0  0.00000000000E+00  0.00000000000E+00  0.99999998245E-14  0.12500000000E+03  0.12500000000E+03 0.  0.
        -13    1    3    3    0    0 -0.26806793000E+01 -0.46904691081E+02 -0.25885458973E+02  0.53640509293E+02  0.10566000000E+00 0.  1.
         23    2    1    0    0    0  0.11915939564E+00 -0.26519522698E+02  0.11326527034E+02  0.96162706477E+02  0.91736997003E+02 0.  0.
         13    1    3    3    0    0  0.27998386956E+01  0.20385168383E+02  0.37211986007E+02  0.42522197184E+02  0.10566000000E+00 0. -1.
         22    1    1    0    0    0 -0.11915939564E+00  0.26519522698E+02 -0.11326527034E+02  0.28837293523E+02  0.00000000000E+00 0.  1.
</event>
<event>
 5    1  0.1724235E-003  0.9118800E+02  0.7818608E-02  0.1130116E+00
         25   -1    0    0    0    0  0.00000000000E+00  0.00000000000E+00  0.99999998245E-14  0.12500000000E+03  0.12500000000E+03 0.  0.
        -13    1    3    3    0    0  0.59553105062E+01 -0.50349015650E+02 -0.32907601997E+02  0.60443449053E+02  0.10566000000E+00 0.  1.
         23    2    1    0    0    0 -0.34680754204E+01 -0.27929313313E+02 -0.69562727312E+01  0.96009245964E+02  0.91527654242E+02 0.  0.
         13    1    3    3    0    0 -0.94233859267E+01  0.22419702338E+02  0.25951329266E+02  0.35565796911E+02  0.10566000000E+00 0. -1.
         22    1    1    0    0    0  0.34680754204E+01  0.27929313313E+02  0.69562727312E+01  0.28990754036E+02  0.00000000000E+00 0.  1.
</event>
<event>
 5    1  0.1724235E-003  0.9118800E+02  0.7818608E-02  0.1130116E+00
         25   -1    0    0    0    0  0.00000000000E+00  0.00000000000E+00  0.99999998245E-14  0.12500000000E+03  0.12500000000E+03 0.  0.
        -13    1    3    3    0    0 -0.15142593557E+02 -0.37214549912E+02 -0.13828634897E+01  0.40201297744E+02  0.10566000000E+00 0.  1.
         23    2    1    0    0    0  0.18498081357E+01 -0.51247401815E+01 -0.34936196473E+02  0.89641513380E+02  0.82373407997E+02 0.  0.
         13    1    3    3    0    0  0.16992401693E+02  0.32089809731E+02 -0.33553332983E+02  0.49440215636E+02  0.10566000000E+00 0. -1.
         22    1    1    0    0    0 -0.18498081357E+01  0.51247401815E+01  0.34936196473E+02  0.35358486620E+02  0.00000000000E+00 0. -1.
</event>
<event>
 5    1  0.1724235E-003  0.9118800E+02  0.7818608E-02  0.1130116E+00
         25   -1    0    0    0    0  0.00000000000E+00  0.00000000000E+00  0.99999998245E-14  0.12500000000E+03  0.12500000000E+03 0.  0.
        -13    1    3    3    0    0 -0.26782807143E+02 -0.91602920315E+01  0.49857410281E+02  0.57332383803E+02  0.10566000000E+00 0. -1.
         23    2    1    0    0    0 -0.26492658987E+02 -0.32023984502E+01  0.11855902603E+02  0.95799336265E+02  0.91240528639E+02 0.  0.
         13    1    3    3    0    0  0.29014815551E+00  0.59578935813E+01 -0.38001507678E+02  0.38466952462E+02  0.10566000000E+00 0.  1.
         22    1    1    0    0    0  0.26492658987E+02  0.32023984502E+01 -0.11855902603E+02  0.29200663735E+02  0.00000000000E+00 0. -1.
</event>
<event>
 5    1  0.1724235E-003  0.9118800E+02  0.7818608E-02  0.1130116E+00
         25   -1    0    0    0    0  0.00000000000E+00  0.00000000000E+00  0.99999998245E-14  0.12500000000E+03  0.12500000000E+03 0.  0.
        -13    1    3    3    0    0 -0.21644447376E+01  0.56370673832E+02  0.13990001856E+02  0.58121157983E+02  0.10566000000E+00 0.  1.
         23    2    1    0    0    0 -0.12815994336E+02  0.19686973711E+02  0.16328284879E+02  0.96391617805E+02  0.92048381036E+02 0.  0.
         13    1    3    3    0    0 -0.10651549599E+02 -0.36683700121E+02  0.23382830230E+01  0.38270459822E+02  0.10566000000E+00 0. -1.
         22    1    1    0    0    0  0.12815994336E+02 -0.19686973711E+02 -0.16328284879E+02  0.28608382195E+02  0.00000000000E+00 0.  1.
</event>
<event>
 5    1  0.1724235E-003  0.9118800E+02  0.7818608E-02  0.1130116E+00
         25   -1    0    0    0    0  0.00000000000E+00  0.00000000000E+00  0.99999998245E-14  0.12500000000E+03  0.12500000000E+03 0.  0.
        -13    1    3    3    0    0  0.87618807309E+01  0.96629815951E+01  0.55557621714E+02  0.57068417376E+02  0.10566000000E+00 0. -1.
         23    2    1    0    0    0 -0.58863067630E+01 -0.11120277698E+02  0.26396657006E+02  0.95758032138E+02  0.91183924210E+02 0.  0.
         13    1    3    3    0    0 -0.14648187494E+02 -0.20783259293E+02 -0.29160964708E+02  0.38689614762E+02  0.10566000000E+00 0.  1.
         22    1    1    0    0    0  0.58863067630E+01  0.11120277698E+02 -0.26396657006E+02  0.29241967862E+02  0.00000000000E+00 0. -1.
</event>
<event>
 5    1  0.1724235E-003  0.9118800E+02  0.7818608E-02  0.1130116E+00
         25   -1    0    0    0    0  0.00000000000E+00  0.00000000000E+00  0.99999998245E-14  0.12500000000E+03  0.12500000000E+03 0.  0.
        -13    1    3    3    0    0  0.10987218791E+02 -0.34238114906E+02 -0.42594437802E+02  0.55742845144E+02  0.10566000000E+00 0.  1.
         23    2    1    0    0    0 -0.14981318432E+02 -0.15655549709E+02 -0.23875606955E+02  0.92757469917E+02  0.86973372243E+02 0.  0.
         13    1    3    3    0    0 -0.25968537223E+02  0.18582565196E+02  0.18718830847E+02  0.37014624773E+02  0.10566000000E+00 0. -1.
         22    1    1    0    0    0  0.14981318432E+02  0.15655549709E+02  0.23875606955E+02  0.32242530083E+02  0.00000000000E+00 0.  1.
</event>
<event>
 5    1  0.1724235E-003  0.9118800E+02  0.7818608E-02  0.1130116E+00
         25   -1    0    0    0    0  0.00000000000E+00  0.00000000000E+00  0.99999998245E-14  0.12500000000E+03  0.12500000000E+03 0.  0.
        -13    1    3    3    0    0 -0.14846818142E+02  0.30195043109E+02 -0.25528740321E+02  0.42236197552E+02  0.10566000000E+00 0. -1.
         23    2    1    0    0    0 -0.11619672346E+02  0.98904010935E+01  0.24393936588E+02  0.96226731825E+02  0.91824195920E+02 0.  0.
         13    1    3    3    0    0  0.32271457962E+01 -0.20304642015E+02  0.49922676908E+02  0.53990534273E+02  0.10566000000E+00 0.  1.
         22    1    1    0    0    0  0.11619672346E+02 -0.98904010935E+01 -0.24393936588E+02  0.28773268175E+02  0.00000000000E+00 0.  1.
</event>
<event>
 5    1  0.1724235E-003  0.9118800E+02  0.7818608E-02  0.1130116E+00
         25   -1    0    0    0    0  0.00000000000E+00  0.00000000000E+00  0.99999998245E-14  0.12500000000E+03  0.12500000000E+03 0.  0.
        -13    1    3    3    0    0 -0.16376396361E+02 -0.32392656820E+02 -0.31629080649E+02  0.48144371223E+02  0.10566000000E+00 0.  1.
         23    2    1    0    0    0 -0.19401153352E+02 -0.18362578963E+02  0.13191742132E+02  0.95207196875E+02  0.90425655755E+02 0.  0.
         13    1    3    3    0    0 -0.30247569908E+01  0.14030077858E+02  0.44820822781E+02  0.47062825652E+02  0.10566000000E+00 0. -1.
         22    1    1    0    0    0  0.19401153352E+02  0.18362578963E+02 -0.13191742132E+02  0.29792803125E+02  0.00000000000E+00 0. -1.
</event>
<event>
 5    1  0.1724235E-003  0.9118800E+02  0.7818608E-02  0.1130116E+00
         25   -1    0    0    0    0  0.00000000000E+00  0.00000000000E+00  0.99999998245E-14  0.12500000000E+03  0.12500000000E+03 0.  0.
        -13    1    3    3    0    0 -0.28667176019E+02  0.64164721274E+01 -0.46455954985E+02  0.54964943492E+02  0.10566000000E+00 0. -1.
         23    2    1    0    0    0 -0.73459561720E+00  0.20861965926E+02 -0.20532471906E+02  0.95719568726E+02  0.91131181170E+02 0.  0.
         13    1    3    3    0    0  0.27932580402E+02  0.14445493798E+02  0.25923483079E+02  0.40754625234E+02  0.10566000000E+00 0.  1.
         22    1    1    0    0    0  0.73459561720E+00 -0.20861965926E+02  0.20532471906E+02  0.29280431274E+02  0.00000000000E+00 0. -1.
</event>
<event>
 5    1  0.1724235E-003  0.9118800E+02  0.7818608E-02  0.1130116E+00
         25   -1    0    0    0    0  0.00000000000E+00  0.00000000000E+00  0.99999998245E-14  0.12500000000E+03  0.12500000000E+03 0.  0.
        -13    1    3    3    0    0  0.46459688719E+02 -0.46431581699E+01 -0.26969990859E+02  0.53920804562E+02  0.10566000000E+00 0. -1.
         23    2    1    0    0    0  0.14067453240E+02  0.19248129827E+02 -0.17919139383E+02  0.95175860470E+02  0.90382327462E+02 0.  0.
         13    1    3    3    0    0 -0.32392235479E+02  0.23891287997E+02  0.90508514761E+01  0.41255055908E+02  0.10566000000E+00 0.  1.
         22    1    1    0    0    0 -0.14067453240E+02 -0.19248129827E+02  0.17919139383E+02  0.29824139530E+02  0.00000000000E+00 0.  1.
</event>
<event>
 5    1  0.1724235E-003  0.9118800E+02  0.7818608E-02  0.1130116E+00
         25   -1    0    0    0    0  0.00000000000E+00  0.00000000000E+00  0.99999998245E-14  0.12500000000E+03  0.12500000000E+03 0.  0.
        -13    1    3    3    0    0  0.50105279585E+01 -0.28756406292E+02  0.15744263736E+02  0.33165182012E+02  0.10566000000E+00 0.  1.
         23    2    1    0    0    0 -0.22122645285E+02  0.20121925599E+02 -0.82146036469E+01  0.93987372938E+02  0.88723408605E+02 0.  0.
         13    1    3    3    0    0 -0.27133173243E+02  0.48878331891E+02 -0.23958867383E+02  0.60822190926E+02  0.10566000000E+00 0. -1.
         22    1    1    0    0    0  0.22122645285E+02 -0.20121925599E+02  0.82146036469E+01  0.31012627062E+02  0.00000000000E+00 0. -1.
</event>
<event>
 5    1  0.1724235E-003  0.9118800E+02  0.7818608E-02  0.1130116E+00
         25   -1    0    0    0    0  0.00000000000E+00  0.00000000000E+00  0.99999998245E-14  0.12500000000E+03  0.12500000000E+03 0.  0.
        -13    1    3    3    0    0 -0.49522608297E+01 -0.27047141870E+02  0.38976477186E+02  0.47699577656E+02  0.10566000000E+00 0. -1.
         23    2    1    0    0    0  0.24966308700E+02  0.20097565891E+01  0.14838574399E+02  0.95887477234E+02  0.91361202425E+02 0.  0.
         13    1    3    3    0    0  0.29918569529E+02  0.29056898459E+02 -0.24137902788E+02  0.48187899578E+02  0.10566000000E+00 0.  1.
         22    1    1    0    0    0 -0.24966308700E+02 -0.20097565891E+01 -0.14838574399E+02  0.29112522766E+02  0.00000000000E+00 0. -1.
</event>
<event>
 5    1  0.1724235E-003  0.9118800E+02  0.7818608E-02  0.1130116E+00
         25   -1    0    0    0    0  0.00000000000E+00  0.00000000000E+00  0.99999998245E-14  0.12500000000E+03  0.12500000000E+03 0.  0.
        -13    1    3    3    0    0  0.24811198166E+02  0.53369771843E+02 -0.72961786435E+01  0.59305762687E+02  0.10566000000E+00 0.  1.
         23    2    1    0    0    0  0.20156767476E+02  0.14973151868E+02 -0.97559818750E+01  0.98061742182E+02  0.94289106186E+02 0.  0.
         13    1    3    3    0    0 -0.46544306896E+01 -0.38396619976E+02 -0.24598032315E+01  0.38755979495E+02  0.10566000000E+00 0. -1.
         22    1    1    0    0    0 -0.20156767476E+02 -0.14973151868E+02  0.97559818750E+01  0.26938257818E+02  0.00000000000E+00 0.  1.
</event>
<event>
 5    1  0.1724235E-003  0.9118800E+02  0.7818608E-02  0.1130116E+00
         25   -1    0    0    0    0  0.00000000000E+00  0.00000000000E+00  0.99999998245E-14  0.12500000000E+03  0.12500000000E+03 0.  0.
        -13    1    3    3    0    0  0.11515197216E+02  0.91687544494E+01 -0.52266256138E+02  0.54299525963E+02  0.10566000000E+00 0.  1.
         23    2    1    0    0    0  0.97861306737E+01  0.20817121763E+02 -0.71733878497E+01  0.10090480535E+03  0.97985720068E+02 0.  0.
         13    1    3    3    0    0 -0.17290665419E+01  0.11648367313E+02  0.45092868288E+02  0.46605279386E+02  0.10566000000E+00 0. -1.
         22    1    1    0    0    0 -0.97861306737E+01 -0.20817121763E+02  0.71733878497E+01  0.24095194651E+02  0.00000000000E+00 0.  1.
</event>
<event>
 5    1  0.1724235E-003  0.9118800E+02  0.7818608E-02  0.1130116E+00
         25   -1    0    0    0    0  0.00000000000E+00  0.00000000000E+00  0.99999998245E-14  0.12500000000E+03  0.12500000000E+03 0.  0.
        -13    1    3    3    0    0  0.90052637295E+01  0.18881050444E+02  0.14545811469E+02  0.25479023451E+02  0.10566000000E+00 0. -1.
         23    2    1    0    0    0  0.55118792194E+01 -0.54728479611E+01 -0.39437632329E+02  0.84804730116E+02  0.74673840995E+02 0.  0.
         13    1    3    3    0    0 -0.34933845102E+01 -0.24353898405E+02 -0.53983443799E+02  0.59325706664E+02  0.10566000000E+00 0.  1.
         22    1    1    0    0    0 -0.55118792194E+01  0.54728479611E+01  0.39437632329E+02  0.40195269884E+02  0.00000000000E+00 0.  1.
</event>
<event>
 5    1  0.1724235E-003  0.9118800E+02  0.7818608E-02  0.1130116E+00
         25   -1    0    0    0    0  0.00000000000E+00  0.00000000000E+00  0.99999998245E-14  0.12500000000E+03  0.12500000000E+03 0.  0.
        -13    1    3    3    0    0  0.29229979641E+02  0.22621677031E+02  0.19933792936E+02  0.41994038224E+02  0.10566000000E+00 0.  1.
         23    2    1    0    0    0  0.36444334521E+01  0.11231760925E+02 -0.26368949761E+02  0.96107858159E+02  0.91662230716E+02 0.  0.
         13    1    3    3    0    0 -0.25585546189E+02 -0.11389916106E+02 -0.46302742697E+02  0.54113819935E+02  0.10566000000E+00 0. -1.
         22    1    1    0    0    0 -0.36444334521E+01 -0.11231760925E+02  0.26368949761E+02  0.28892141841E+02  0.00000000000E+00 0.  1.
</event>
<event>
 5    1  0.1724235E-003  0.9118800E+02  0.7818608E-02  0.1130116E+00
         25   -1    0    0    0    0  0.00000000000E+00  0.00000000000E+00  0.99999998245E-14  0.12500000000E+03  0.12500000000E+03 0.  0.
        -13    1    3    3    0    0  0.37536486591E+02 -0.10341078245E+01  0.55507280762E+01  0.37958911349E+02  0.10566000000E+00 0. -1.
         23    2    1    0    0    0 -0.11446962744E+02 -0.26219207493E+02 -0.91455114194E+01  0.94964684508E+02  0.90089794799E+02 0.  0.
         13    1    3    3    0    0 -0.48983449335E+02 -0.25185099668E+02 -0.14696239496E+02  0.57005773158E+02  0.10566000000E+00 0.  1.
         22    1    1    0    0    0  0.11446962744E+02  0.26219207493E+02  0.91455114194E+01  0.30035315492E+02  0.00000000000E+00 0.  1.
</event>
<event>
 5    1  0.1724235E-003  0.9118800E+02  0.7818608E-02  0.1130116E+00
         25   -1    0    0    0    0  0.00000000000E+00  0.00000000000E+00  0.99999998245E-14  0.12500000000E+03  0.12500000000E+03 0.  0.
        -13    1    3    3    0    0 -0.18964948628E+02 -0.87931855649E+01  0.50118983943E+02  0.54303895849E+02  0.10566000000E+00 0. -1.
         23    2    1    0    0    0 -0.87267758350E+01  0.18614994785E+02  0.22133994928E+02  0.94790922245E+02  0.89848375396E+02 0.  0.
         13    1    3    3    0    0  0.10238172793E+02  0.27408180350E+02 -0.27984989015E+02  0.40487026397E+02  0.10566000000E+00 0.  1.
         22    1    1    0    0    0  0.87267758350E+01 -0.18614994785E+02 -0.22133994928E+02  0.30209077755E+02  0.00000000000E+00 0. -1.
</event>
<event>
 5    1  0.1724235E-003  0.9118800E+02  0.7818608E-02  0.1130116E+00
         25   -1    0    0    0    0  0.00000000000E+00  0.00000000000E+00  0.99999998245E-14  0.12500000000E+03  0.12500000000E+03 0.  0.
        -13    1    3    3    0    0  0.13329479833E+02  0.11236183183E+02  0.28545823435E+02  0.33448498393E+02  0.10566000000E+00 0. -1.
         23    2    1    0    0    0 -0.11341357053E+02 -0.10271948317E+02 -0.24696972380E+02  0.95946949441E+02  0.91442535837E+02 0.  0.
         13    1    3    3    0    0 -0.24670836886E+02 -0.21508131499E+02 -0.53242795815E+02  0.62498451048E+02  0.10566000000E+00 0.  1.
         22    1    1    0    0    0  0.11341357053E+02  0.10271948317E+02  0.24696972380E+02  0.29053050559E+02  0.00000000000E+00 0.  1.
</event>
<event>
 5    1  0.1724235E-003  0.9118800E+02  0.7818608E-02  0.1130116E+00
         25   -1    0    0    0    0  0.00000000000E+00  0.00000000000E+00  0.99999998245E-14  0.12500000000E+03  0.12500000000E+03 0.  0.
        -13    1    3    3    0    0  0.77985195560E+01 -0.13233256760E+02 -0.29445972233E+02  0.33211631043E+02  0.10566000000E+00 0.  1.
         23    2    1    0    0    0  0.18150354355E+02  0.10191425436E+02  0.24453774408E+02  0.92886333152E+02  0.87158380480E+02 0.  0.
         13    1    3    3    0    0  0.10351834799E+02  0.23424682196E+02  0.53899746641E+02  0.59674702109E+02  0.10566000000E+00 0. -1.
         22    1    1    0    0    0 -0.18150354355E+02 -0.10191425436E+02 -0.24453774408E+02  0.32113666848E+02  0.00000000000E+00 0. -1.
</event>
<event>
 5    1  0.1724235E-003  0.9118800E+02  0.7818608E-02  0.1130116E+00
         25   -1    0    0    0    0  0.00000000000E+00  0.00000000000E+00  0.99999998245E-14  0.12500000000E+03  0.12500000000E+03 0.  0.
        -13    1    3    3    0    0  0.34062179515E+01 -0.24212065437E+02  0.54517491957E+02  0.59749431184E+02  0.10566000000E+00 0.  1.
         23    2    1    0    0    0  0.90216273498E+01 -0.19706557592E+02  0.18424675697E+02  0.96553438755E+02  0.92267869211E+02 0.  0.
         13    1    3    3    0    0  0.56154093983E+01  0.45055078450E+01 -0.36092816261E+02  0.36804007571E+02  0.10566000000E+00 0. -1.
         22    1    1    0    0    0 -0.90216273498E+01  0.19706557592E+02 -0.18424675697E+02  0.28446561245E+02  0.00000000000E+00 0.  1.
</event>
<event>
 5    1  0.1724235E-003  0.9118800E+02  0.7818608E-02  0.1130116E+00
         25   -1    0    0    0    0  0.00000000000E+00  0.00000000000E+00  0.99999998245E-14  0.12500000000E+03  0.12500000000E+03 0.  0.
        -13    1    3    3    0    0  0.24034302781E+02 -0.32906926308E+02 -0.36771287627E+02  0.54887633097E+02  0.10566000000E+00 0.  1.
         23    2    1    0    0    0  0.20608241585E+02 -0.21406958257E+02  0.17491968224E+01  0.95233959407E+02  0.90462643405E+02 0.  0.
         13    1    3    3    0    0 -0.34260611963E+01  0.11499968051E+02  0.38520484449E+02  0.40346326310E+02  0.10566000000E+00 0. -1.
         22    1    1    0    0    0 -0.20608241585E+02  0.21406958257E+02 -0.17491968224E+01  0.29766040593E+02  0.00000000000E+00 0.  1.
</event>
<event>
 5    1  0.1724235E-003  0.9118800E+02  0.7818608E-02  0.1130116E+00
         25   -1    0    0    0    0  0.00000000000E+00  0.00000000000E+00  0.99999998245E-14  0.12500000000E+03  0.12500000000E+03 0.  0.
        -13    1    3    3    0    0 -0.53120278547E+02  0.17327298882E+02  0.10378808421E+02  0.56830714475E+02  0.10566000000E+00 0. -1.
         23    2    1    0    0    0 -0.18603951670E+02  0.18286476122E+02 -0.10157314103E+02  0.97005835313E+02  0.92878731841E+02 0.  0.
         13    1    3    3    0    0  0.34516326877E+02  0.95917724040E+00 -0.20536122524E+02  0.40175120839E+02  0.10566000000E+00 0.  1.
         22    1    1    0    0    0  0.18603951670E+02 -0.18286476122E+02  0.10157314103E+02  0.27994164687E+02  0.00000000000E+00 0. -1.
</event>
<event>
 5    1  0.1724235E-003  0.9118800E+02  0.7818608E-02  0.1130116E+00
         25   -1    0    0    0    0  0.00000000000E+00  0.00000000000E+00  0.99999998245E-14  0.12500000000E+03  0.12500000000E+03 0.  0.
        -13    1    3    3    0    0  0.76208854553E+01  0.10965148127E+02 -0.40436107859E+02  0.42584062176E+02  0.10566000000E+00 0.  1.
         23    2    1    0    0    0 -0.27798364725E+02  0.34920521977E+01  0.16960625510E+00  0.96982643304E+02  0.92847513839E+02 0.  0.
         13    1    3    3    0    0 -0.35419250180E+02 -0.74730959292E+01  0.40605714114E+02  0.54398581129E+02  0.10566000000E+00 0. -1.
         22    1    1    0    0    0  0.27798364725E+02 -0.34920521977E+01 -0.16960625510E+00  0.28017356696E+02  0.00000000000E+00 0.  1.
</event>
<event>
 5    1  0.1724235E-003  0.9118800E+02  0.7818608E-02  0.1130116E+00
         25   -1    0    0    0    0  0.00000000000E+00  0.00000000000E+00  0.99999998245E-14  0.12500000000E+03  0.12500000000E+03 0.  0.
        -13    1    3    3    0    0 -0.49197968363E+02 -0.27842017326E+02 -0.13228345208E+02  0.58057026282E+02  0.10566000000E+00 0.  1.
         23    2    1    0    0    0 -0.11810994918E+02 -0.25195547144E+02 -0.88897327244E+01  0.95787972601E+02  0.91224959032E+02 0.  0.
         13    1    3    3    0    0  0.37386973445E+02  0.26464701819E+01  0.43386124840E+01  0.37730946319E+02  0.10566000000E+00 0. -1.
         22    1    1    0    0    0  0.11810994918E+02  0.25195547144E+02  0.88897327244E+01  0.29212027399E+02  0.00000000000E+00 0.  1.
</event>
<event>
 5    1  0.1724235E-003  0.9118800E+02  0.7818608E-02  0.1130116E+00
         25   -1    0    0    0    0  0.00000000000E+00  0.00000000000E+00  0.99999998245E-14  0.12500000000E+03  0.12500000000E+03 0.  0.
        -13    1    3    3    0    0  0.62418243913E+01  0.37641821065E+02  0.34748530201E+01  0.38313872584E+02  0.10566000000E+00 0. -1.
         23    2    1    0    0    0 -0.25921362139E+02 -0.10182766522E+02  0.77086614390E+01  0.96103128017E+02  0.91655779983E+02 0.  0.
         13    1    3    3    0    0 -0.32163186531E+02 -0.47824587588E+02  0.42338084190E+01  0.57789255433E+02  0.10566000000E+00 0.  1.
         22    1    1    0    0    0  0.25921362139E+02  0.10182766522E+02 -0.77086614390E+01  0.28896871983E+02  0.00000000000E+00 0.  1.
</event>
<event>
 5    1  0.1724235E-003  0.9118800E+02  0.7818608E-02  0.1130116E+00
         25   -1    0    0    0    0  0.00000000000E+00  0.00000000000E+00  0.99999998245E-14  0.12500000000E+03  0.12500000000E+03 0.  0.
        -13    1    3    3    0    0  0.26481531363E+02  0.16067429632E+01 -0.36926721096E+02  0.45469187602E+02  0.10566000000E+00 0. -1.
         23    2    1    0    0    0  0.11423162742E+02  0.27542026454E+02  0.25824570333E+01  0.95071402429E+02  0.90237744915E+02 0.  0.
         13    1    3    3    0    0 -0.15058368621E+02  0.25935283491E+02  0.39509178129E+02  0.49602214827E+02  0.10566000000E+00 0.  1.
         22    1    1    0    0    0 -0.11423162742E+02 -0.27542026454E+02 -0.25824570333E+01  0.29928597571E+02  0.00000000000E+00 0.  1.
</event>
<event>
 5    1  0.1724235E-003  0.9118800E+02  0.7818608E-02  0.1130116E+00
         25   -1    0    0    0    0  0.00000000000E+00  0.00000000000E+00  0.99999998245E-14  0.12500000000E+03  0.12500000000E+03 0.  0.
        -13    1    3    3    0    0  0.18432697702E+01  0.13718307396E+02 -0.37336549433E+02  0.39819827836E+02  0.10566000000E+00 0.  1.
         23    2    1    0    0    0 -0.28013160879E+02 -0.16333496199E+02 -0.72679902735E+01  0.91768328915E+02  0.85539945223E+02 0.  0.
         13    1    3    3    0    0 -0.29856430649E+02 -0.30051803595E+02  0.30068559159E+02  0.51948501079E+02  0.10566000000E+00 0. -1.
         22    1    1    0    0    0  0.28013160879E+02  0.16333496199E+02  0.72679902735E+01  0.33231671085E+02  0.00000000000E+00 0. -1.
</event>
<event>
 5    1  0.1724235E-003  0.9118800E+02  0.7818608E-02  0.1130116E+00
         25   -1    0    0    0    0  0.00000000000E+00  0.00000000000E+00  0.99999998245E-14  0.12500000000E+03  0.12500000000E+03 0.  0.
        -13    1    3    3    0    0  0.22762380457E+02 -0.34425539816E+02 -0.13840837925E+02  0.43529572869E+02  0.10566000000E+00 0. -1.
         23    2    1    0    0    0  0.62415214759E+01 -0.74248470954E+01  0.27639347997E+02  0.95708047139E+02  0.91115376225E+02 0.  0.
         13    1    3    3    0    0 -0.16520858981E+02  0.27000692720E+02  0.41480185922E+02  0.52178474269E+02  0.10566000000E+00 0.  1.
         22    1    1    0    0    0 -0.62415214759E+01  0.74248470954E+01 -0.27639347997E+02  0.29291952861E+02  0.00000000000E+00 0.  1.
</event>
<event>
 5    1  0.1724235E-003  0.9118800E+02  0.7818608E-02  0.1130116E+00
         25   -1    0    0    0    0  0.00000000000E+00  0.00000000000E+00  0.99999998245E-14  0.12500000000E+03  0.12500000000E+03 0.  0.
        -13    1    3    3    0    0 -0.25464900547E+02 -0.45156517248E+02  0.14723987536E+02  0.53892292425E+02  0.10566000000E+00 0. -1.
         23    2    1    0    0    0  0.10874143563E+02 -0.26501670705E+02  0.76746332219E+01  0.95343878483E+02  0.90614400735E+02 0.  0.
         13    1    3    3    0    0  0.36339044110E+02  0.18654846544E+02 -0.70493543142E+01  0.41451586057E+02  0.10566000000E+00 0.  1.
         22    1    1    0    0    0 -0.10874143563E+02  0.26501670705E+02 -0.76746332219E+01  0.29656121517E+02  0.00000000000E+00 0. -1.
</event>
<event>
 5    1  0.1724235E-003  0.9118800E+02  0.7818608E-02  0.1130116E+00
         25   -1    0    0    0    0  0.00000000000E+00  0.00000000000E+00  0.99999998245E-14  0.12500000000E+03  0.12500000000E+03 0.  0.
        -13    1    3    3    0    0  0.54002095270E+02  0.32209671886E+01  0.12162615841E+02  0.55448546521E+02  0.10566000000E+00 0. -1.
         23    2    1    0    0    0  0.16143735108E+02  0.50686643907E+01  0.24425175244E+02  0.95286354522E+02  0.90535013284E+02 0.  0.
         13    1    3    3    0    0 -0.37858360162E+02  0.18476972021E+01  0.12262559403E+02  0.39837808000E+02  0.10566000000E+00 0.  1.
         22    1    1    0    0    0 -0.16143735108E+02 -0.50686643907E+01 -0.24425175244E+02  0.29713645478E+02  0.00000000000E+00 0. -1.
</event>
<event>
 5    1  0.1724235E-003  0.9118800E+02  0.7818608E-02  0.1130116E+00
         25   -1    0    0    0    0  0.00000000000E+00  0.00000000000E+00  0.99999998245E-14  0.12500000000E+03  0.12500000000E+03 0.  0.
        -13    1    3    3    0    0 -0.14067260103E+02 -0.21005142056E+02 -0.44646515581E+02  0.51307176079E+02  0.10566000000E+00 0.  1.
         23    2    1    0    0    0 -0.89573883795E+01 -0.28925806835E+02 -0.23649264694E+01  0.94626821292E+02  0.89619781985E+02 0.  0.
         13    1    3    3    0    0  0.51098717237E+01 -0.79206647782E+01  0.42281589112E+02  0.43319645213E+02  0.10566000000E+00 0. -1.
         22    1    1    0    0    0  0.89573883795E+01  0.28925806835E+02  0.23649264694E+01  0.30373178708E+02  0.00000000000E+00 0.  1.
</event>
<event>
 5    1  0.1724235E-003  0.9118800E+02  0.7818608E-02  0.1130116E+00
         25   -1    0    0    0    0  0.00000000000E+00  0.00000000000E+00  0.99999998245E-14  0.12500000000E+03  0.12500000000E+03 0.  0.
        -13    1    3    3    0    0 -0.21844191509E+02 -0.23145981612E+00 -0.29017244212E+02  0.36321259643E+02  0.10566000000E+00 0.  1.
         23    2    1    0    0    0  0.26449682984E+02  0.15238888699E+02 -0.56475098147E+00  0.94469222048E+02  0.89399695256E+02 0.  0.
         13    1    3    3    0    0  0.48293874493E+02  0.15470348515E+02  0.28452493231E+02  0.58147962405E+02  0.10566000000E+00 0. -1.
         22    1    1    0    0    0 -0.26449682984E+02 -0.15238888699E+02  0.56475098147E+00  0.30530777952E+02  0.00000000000E+00 0. -1.
</event>
<event>
 5    1  0.1724235E-003  0.9118800E+02  0.7818608E-02  0.1130116E+00
         25   -1    0    0    0    0  0.00000000000E+00  0.00000000000E+00  0.99999998245E-14  0.12500000000E+03  0.12500000000E+03 0.  0.
        -13    1    3    3    0    0 -0.30789901218E+01  0.31429525961E+02  0.21835252262E+02  0.38393810539E+02  0.10566000000E+00 0.  1.
         23    2    1    0    0    0  0.16650743896E+02  0.73149415757E+01 -0.24657304524E+02  0.94361163388E+02  0.89248478122E+02 0.  0.
         13    1    3    3    0    0  0.19729734018E+02 -0.24114584385E+02 -0.46492556786E+02  0.55967352850E+02  0.10566000000E+00 0. -1.
         22    1    1    0    0    0 -0.16650743896E+02 -0.73149415757E+01  0.24657304524E+02  0.30638836612E+02  0.00000000000E+00 0. -1.
</event>
<event>
 5    1  0.1724235E-003  0.9118800E+02  0.7818608E-02  0.1130116E+00
         25   -1    0    0    0    0  0.00000000000E+00  0.00000000000E+00  0.99999998245E-14  0.12500000000E+03  0.12500000000E+03 0.  0.
        -13    1    3    3    0    0 -0.14438856779E+02  0.28873898236E+02 -0.18951302363E+02  0.37434551015E+02  0.10566000000E+00 0. -1.
         23    2    1    0    0    0  0.29815872332E+02 -0.37445885802E+01 -0.23744265398E+01  0.94856242969E+02  0.89939205813E+02 0.  0.
         13    1    3    3    0    0  0.44254729111E+02 -0.32618486816E+02  0.16576875823E+02  0.57421691954E+02  0.10566000000E+00 0.  1.
         22    1    1    0    0    0 -0.29815872332E+02  0.37445885802E+01  0.23744265398E+01  0.30143757031E+02  0.00000000000E+00 0.  1.
</event>
<event>
 5    1  0.1724235E-003  0.9118800E+02  0.7818608E-02  0.1130116E+00
         25   -1    0    0    0    0  0.00000000000E+00  0.00000000000E+00  0.99999998245E-14  0.12500000000E+03  0.12500000000E+03 0.  0.
        -13    1    3    3    0    0  0.47897563275E+02  0.53368773919E+01  0.28821677085E+02  0.56154777731E+02  0.10566000000E+00 0.  1.
         23    2    1    0    0    0  0.12353582380E+02 -0.10346412947E+02  0.25086157669E+02  0.95184323501E+02  0.90394031193E+02 0.  0.
         13    1    3    3    0    0 -0.35543980895E+02 -0.15683290338E+02 -0.37355194165E+01  0.39029545770E+02  0.10566000000E+00 0. -1.
         22    1    1    0    0    0 -0.12353582380E+02  0.10346412947E+02 -0.25086157669E+02  0.29815676499E+02  0.00000000000E+00 0.  1.
</event>
<event>
 5    1  0.1724235E-003  0.9118800E+02  0.7818608E-02  0.1130116E+00
         25   -1    0    0    0    0  0.00000000000E+00  0.00000000000E+00  0.99999998245E-14  0.12500000000E+03  0.12500000000E+03 0.  0.
        -13    1    3    3    0    0 -0.26940853700E+02  0.29394826527E+02 -0.44122170816E+01  0.40116633062E+02  0.10566000000E+00 0. -1.
         23    2    1    0    0    0  0.20717144063E+02  0.13102418307E+02  0.17334895619E+02  0.94977141547E+02  0.90107077339E+02 0.  0.
         13    1    3    3    0    0  0.47657997763E+02 -0.16292408220E+02  0.21747112700E+02  0.54860508485E+02  0.10566000000E+00 0.  1.
         22    1    1    0    0    0 -0.20717144063E+02 -0.13102418307E+02 -0.17334895619E+02  0.30022858453E+02  0.00000000000E+00 0. -1.
</event>
<event>
 5    1  0.1724235E-003  0.9118800E+02  0.7818608E-02  0.1130116E+00
         25   -1    0    0    0    0  0.00000000000E+00  0.00000000000E+00  0.99999998245E-14  0.12500000000E+03  0.12500000000E+03 0.  0.
        -13    1    3    3    0    0 -0.35035018185E+02 -0.27568465190E+02  0.15592293574E+02  0.47229265875E+02  0.10566000000E+00 0. -1.
         23    2    1    0    0    0 -0.24909139578E+02  0.17134136718E+02  0.83665161026E+01  0.93630548820E+02  0.88219256430E+02 0.  0.
         13    1    3    3    0    0  0.10125878607E+02  0.44702601908E+02 -0.72257774713E+01  0.46401282946E+02  0.10566000000E+00 0.  1.
         22    1    1    0    0    0  0.24909139578E+02 -0.17134136718E+02 -0.83665161026E+01  0.31369451180E+02  0.00000000000E+00 0. -1.
</event>
<event>
 5    1  0.1724235E-003  0.9118800E+02  0.7818608E-02  0.1130116E+00
         25   -1    0    0    0    0  0.00000000000E+00  0.00000000000E+00  0.99999998245E-14  0.12500000000E+03  0.12500000000E+03 0.  0.
        -13    1    3    3    0    0  0.18307036339E+02  0.43414276074E+02  0.25127597684E+02  0.53398073710E+02  0.10566000000E+00 0.  1.
         23    2    1    0    0    0  0.27423914750E+02  0.22510186270E+02 -0.27483439702E+01  0.89414427352E+02  0.82028085665E+02 0.  0.
         13    1    3    3    0    0  0.91168784113E+01 -0.20904089804E+02 -0.27875941654E+02  0.36016353642E+02  0.10566000000E+00 0. -1.
         22    1    1    0    0    0 -0.27423914750E+02 -0.22510186270E+02  0.27483439702E+01  0.35585572648E+02  0.00000000000E+00 0.  1.
</event>
<event>
 5    1  0.1724235E-003  0.9118800E+02  0.7818608E-02  0.1130116E+00
         25   -1    0    0    0    0  0.00000000000E+00  0.00000000000E+00  0.99999998245E-14  0.12500000000E+03  0.12500000000E+03 0.  0.
        -13    1    3    3    0    0  0.32075341835E+02 -0.16234165027E+02 -0.21189419387E+02  0.41729825376E+02  0.10566000000E+00 0. -1.
         23    2    1    0    0    0 -0.11540109192E+02 -0.24760430093E+02  0.98756374597E+01  0.95952087273E+02  0.91449558874E+02 0.  0.
         13    1    3    3    0    0 -0.43615451026E+02 -0.85262650666E+01  0.31065056847E+02  0.54222261897E+02  0.10566000000E+00 0.  1.
         22    1    1    0    0    0  0.11540109192E+02  0.24760430093E+02 -0.98756374597E+01  0.29047912727E+02  0.00000000000E+00 0.  1.
</event>
<event>
 5    1  0.1724235E-003  0.9118800E+02  0.7818608E-02  0.1130116E+00
         25   -1    0    0    0    0  0.00000000000E+00  0.00000000000E+00  0.99999998245E-14  0.12500000000E+03  0.12500000000E+03 0.  0.
        -13    1    3    3    0    0 -0.44431755025E+02 -0.93113593931E+01  0.31086492403E+02  0.55020572900E+02  0.10566000000E+00 0.  1.
         23    2    1    0    0    0 -0.18434591015E+02  0.17300161098E+02  0.15420463810E+02  0.95387157786E+02  0.90674083654E+02 0.  0.
         13    1    3    3    0    0  0.25997164010E+02  0.26611520491E+02 -0.15666028593E+02  0.40366584885E+02  0.10566000000E+00 0. -1.
         22    1    1    0    0    0  0.18434591015E+02 -0.17300161098E+02 -0.15420463810E+02  0.29612842214E+02  0.00000000000E+00 0.  1.
</event>
<event>
 5    1  0.1724235E-003  0.9118800E+02  0.7818608E-02  0.1130116E+00
         25   -1    0    0    0    0  0.00000000000E+00  0.00000000000E+00  0.99999998245E-14  0.12500000000E+03  0.12500000000E+03 0.  0.
        -13    1    3    3    0    0 -0.20033084227E+02 -0.26077406024E+02  0.73604374884E+01  0.33697815548E+02  0.10566000000E+00 0.  1.
         23    2    1    0    0    0  0.18227053210E+02  0.22567582433E+02  0.44210213468E+01  0.95656062375E+02  0.91044031072E+02 0.  0.
         13    1    3    3    0    0  0.38260137437E+02  0.48644988457E+02 -0.29394161416E+01  0.61958246828E+02  0.10566000000E+00 0. -1.
         22    1    1    0    0    0 -0.18227053210E+02 -0.22567582433E+02 -0.44210213468E+01  0.29343937625E+02  0.00000000000E+00 0. -1.
</event>
<event>
 5    1  0.1724235E-003  0.9118800E+02  0.7818608E-02  0.1130116E+00
         25   -1    0    0    0    0  0.00000000000E+00  0.00000000000E+00  0.99999998245E-14  0.12500000000E+03  0.12500000000E+03 0.  0.
        -13    1    3    3    0    0  0.35333577325E+02 -0.12518701359E+02  0.28800085768E+02  0.47271933265E+02  0.10566000000E+00 0. -1.
         23    2    1    0    0    0  0.21844762541E+02 -0.59927863108E+01 -0.17780337670E+02  0.96203341411E+02  0.91792349097E+02 0.  0.
         13    1    3    3    0    0 -0.13488814784E+02  0.65259150479E+01 -0.46580423438E+02  0.48931408147E+02  0.10566000000E+00 0.  1.
         22    1    1    0    0    0 -0.21844762541E+02  0.59927863108E+01  0.17780337670E+02  0.28796658589E+02  0.00000000000E+00 0. -1.
</event>
<event>
 5    1  0.1724235E-003  0.9118800E+02  0.7818608E-02  0.1130116E+00
         25   -1    0    0    0    0  0.00000000000E+00  0.00000000000E+00  0.99999998245E-14  0.12500000000E+03  0.12500000000E+03 0.  0.
        -13    1    3    3    0    0 -0.35709038582E+02  0.20006516188E+02 -0.26542942401E+02  0.48784578319E+02  0.10566000000E+00 0. -1.
         23    2    1    0    0    0 -0.33848949263E+01 -0.13364788198E+02 -0.26368681880E+02  0.95244622985E+02  0.90477376985E+02 0.  0.
         13    1    3    3    0    0  0.32324143656E+02 -0.33371304387E+02  0.17426052121E+00  0.46460044665E+02  0.10566000000E+00 0.  1.
         22    1    1    0    0    0  0.33848949263E+01  0.13364788198E+02  0.26368681880E+02  0.29755377015E+02  0.00000000000E+00 0. -1.
</event>
<event>
 5    1  0.1724235E-003  0.9118800E+02  0.7818608E-02  0.1130116E+00
         25   -1    0    0    0    0  0.00000000000E+00  0.00000000000E+00  0.99999998245E-14  0.12500000000E+03  0.12500000000E+03 0.  0.
        -13    1    3    3    0    0 -0.29498000945E+02 -0.44072095001E+02 -0.59475155071E+01  0.53365398174E+02  0.10566000000E+00 0. -1.
         23    2    1    0    0    0  0.17464260012E+01 -0.18693732400E+02 -0.21444142520E+02  0.96498124917E+02  0.92192902271E+02 0.  0.
         13    1    3    3    0    0  0.31244426946E+02  0.25378362601E+02 -0.15496627013E+02  0.43132726743E+02  0.10566000000E+00 0.  1.
         22    1    1    0    0    0 -0.17464260012E+01  0.18693732400E+02  0.21444142520E+02  0.28501875083E+02  0.00000000000E+00 0. -1.
</event>
<event>
 5    1  0.1724235E-003  0.9118800E+02  0.7818608E-02  0.1130116E+00
         25   -1    0    0    0    0  0.00000000000E+00  0.00000000000E+00  0.99999998245E-14  0.12500000000E+03  0.12500000000E+03 0.  0.
        -13    1    3    3    0    0  0.14689648658E+02 -0.36582935084E+02  0.25192485917E+02  0.46784286121E+02  0.10566000000E+00 0.  1.
         23    2    1    0    0    0 -0.17754879429E+02 -0.22181278119E+02 -0.81050216305E+01  0.95454505959E+02  0.90766879916E+02 0.  0.
         13    1    3    3    0    0 -0.32444528087E+02  0.14401656965E+02 -0.33297507548E+02  0.48670219838E+02  0.10566000000E+00 0. -1.
         22    1    1    0    0    0  0.17754879429E+02  0.22181278119E+02  0.81050216305E+01  0.29545494041E+02  0.00000000000E+00 0.  1.
</event>
<event>
 5    1  0.1724235E-003  0.9118800E+02  0.7818608E-02  0.1130116E+00
         25   -1    0    0    0    0  0.00000000000E+00  0.00000000000E+00  0.99999998245E-14  0.12500000000E+03  0.12500000000E+03 0.  0.
        -13    1    3    3    0    0 -0.21325033508E+02  0.25968420501E+02 -0.13756105808E+02  0.36309193443E+02  0.10566000000E+00 0.  1.
         23    2    1    0    0    0  0.28646744587E+02 -0.38128986580E+01  0.60204650476E-01  0.96100557164E+02  0.91652273791E+02 0.  0.
         13    1    3    3    0    0  0.49971778096E+02 -0.29781319159E+02  0.13816310459E+02  0.59791363721E+02  0.10566000000E+00 0. -1.
         22    1    1    0    0    0 -0.28646744587E+02  0.38128986580E+01 -0.60204650476E-01  0.28899442836E+02  0.00000000000E+00 0. -1.
</event>
<event>
 5    1  0.1724235E-003  0.9118800E+02  0.7818608E-02  0.1130116E+00
         25   -1    0    0    0    0  0.00000000000E+00  0.00000000000E+00  0.99999998245E-14  0.12500000000E+03  0.12500000000E+03 0.  0.
        -13    1    3    3    0    0 -0.18514148334E+02 -0.19843195038E+02 -0.15465291947E+02  0.31236396990E+02  0.10566000000E+00 0. -1.
         23    2    1    0    0    0 -0.22041042887E+02  0.24748563888E+02  0.18172456714E+02  0.87204005911E+02  0.78587540220E+02 0.  0.
         13    1    3    3    0    0 -0.35268945536E+01  0.44591758927E+02  0.33637748662E+02  0.55967608922E+02  0.10566000000E+00 0.  1.
         22    1    1    0    0    0  0.22041042887E+02 -0.24748563888E+02 -0.18172456714E+02  0.37795994089E+02  0.00000000000E+00 0.  1.
</event>
<event>
 5    1  0.1724235E-003  0.9118800E+02  0.7818608E-02  0.1130116E+00
         25   -1    0    0    0    0  0.00000000000E+00  0.00000000000E+00  0.99999998245E-14  0.12500000000E+03  0.12500000000E+03 0.  0.
        -13    1    3    3    0    0 -0.26893681521E+02  0.25355586984E+02  0.14277856958E+02  0.39623784025E+02  0.10566000000E+00 0.  1.
         23    2    1    0    0    0  0.54953842986E+01  0.15403117708E+02 -0.27248821399E+02  0.93220233617E+02  0.87635942422E+02 0.  0.
         13    1    3    3    0    0  0.32389065820E+02 -0.99524692763E+01 -0.41526678358E+02  0.53596449592E+02  0.10566000000E+00 0. -1.
         22    1    1    0    0    0 -0.54953842986E+01 -0.15403117708E+02  0.27248821399E+02  0.31779766383E+02  0.00000000000E+00 0. -1.
</event>
<event>
 5    1  0.1724235E-003  0.9118800E+02  0.7818608E-02  0.1130116E+00
         25   -1    0    0    0    0  0.00000000000E+00  0.00000000000E+00  0.99999998245E-14  0.12500000000E+03  0.12500000000E+03 0.  0.
        -13    1    3    3    0    0 -0.32527960133E+02  0.10401866494E+01 -0.14929471499E+02  0.35805732250E+02  0.10566000000E+00 0. -1.
         23    2    1    0    0    0  0.15006206455E+02 -0.85507569403E+01  0.22194666065E+02  0.96876968901E+02  0.92705135917E+02 0.  0.
         13    1    3    3    0    0  0.47534166588E+02 -0.95909435898E+01  0.37124137564E+02  0.61071236651E+02  0.10566000000E+00 0.  1.
         22    1    1    0    0    0 -0.15006206455E+02  0.85507569403E+01 -0.22194666065E+02  0.28123031099E+02  0.00000000000E+00 0.  1.
</event>
<event>
 5    1  0.1724235E-003  0.9118800E+02  0.7818608E-02  0.1130116E+00
         25   -1    0    0    0    0  0.00000000000E+00  0.00000000000E+00  0.99999998245E-14  0.12500000000E+03  0.12500000000E+03 0.  0.
        -13    1    3    3    0    0 -0.83830168803E+01  0.10461330129E+02  0.51801299061E+02  0.53507944723E+02  0.10566000000E+00 0.  1.
         23    2    1    0    0    0  0.16728720502E+02 -0.72440414700E+01  0.23285088577E+02  0.95427689024E+02  0.90729941342E+02 0.  0.
         13    1    3    3    0    0  0.25111737382E+02 -0.17705371599E+02 -0.28516210484E+02  0.41919744301E+02  0.10566000000E+00 0. -1.
         22    1    1    0    0    0 -0.16728720502E+02  0.72440414700E+01 -0.23285088577E+02  0.29572310976E+02  0.00000000000E+00 0.  1.
</event>
