<event>
 5    1  0.9034713E-005  0.9118800E+02  0.7818608E-02  0.1130116E+00
         25   -1    0    0    0    0  0.00000000000E+00  0.00000000000E+00  0.99999998245E-14  0.12500000000E+03  0.12500000000E+03 0.  0.
        -13    1    3    3    0    0  0.12497872856E+02 -0.47070406299E+02 -0.23332582673E+02  0.54002227300E+02  0.10566000000E+00 0. -1.
         23    2    1    0    0    0  0.26606767539E+02 -0.13335427350E+02 -0.53124746804E+01  0.94767962544E+02  0.89816427429E+02 0.  0.
         13    1    3    3    0    0  0.14108894684E+02  0.33734978949E+02  0.18020107993E+02  0.40765735244E+02  0.10566000000E+00 0.  1.
         22    1    1    0    0    0 -0.26606767539E+02  0.13335427350E+02  0.53124746804E+01  0.30232037456E+02  0.00000000000E+00 0. -1.
</event>
<event>
 5    1  0.9034713E-005  0.9118800E+02  0.7818608E-02  0.1130116E+00
         25   -1    0    0    0    0  0.00000000000E+00  0.00000000000E+00  0.99999998245E-14  0.12500000000E+03  0.12500000000E+03 0.  0.
        -13    1    3    3    0    0  0.27601112795E+02  0.10456123757E+02 -0.44099440758E+02  0.53065278580E+02  0.10566000000E+00 0.  1.
         23    2    1    0    0    0  0.13617233538E+02 -0.17991859504E+02 -0.81142467665E+01  0.10102132076E+03  0.98134245753E+02 0.  0.
         13    1    3    3    0    0 -0.13983879257E+02 -0.28447983261E+02  0.35985193992E+02  0.47956042178E+02  0.10566000000E+00 0. -1.
         22    1    1    0    0    0 -0.13617233538E+02  0.17991859504E+02  0.81142467665E+01  0.23978679242E+02  0.00000000000E+00 0.  1.
</event>
<event>
 5    1  0.9034713E-005  0.9118800E+02  0.7818608E-02  0.1130116E+00
         25   -1    0    0    0    0  0.00000000000E+00  0.00000000000E+00  0.99999998245E-14  0.12500000000E+03  0.12500000000E+03 0.  0.
        -13    1    3    3    0    0 -0.10392409773E+02 -0.33650940872E+02  0.53301145277E+01  0.35620349344E+02  0.10566000000E+00 0.  1.
         23    2    1    0    0    0  0.48513941579E+01  0.19498845424E+02  0.23740692092E+02  0.93897565061E+02  0.88596790378E+02 0.  0.
         13    1    3    3    0    0  0.15243803931E+02  0.53149786295E+02  0.18410577564E+02  0.58277215718E+02  0.10566000000E+00 0. -1.
         22    1    1    0    0    0 -0.48513941579E+01 -0.19498845424E+02 -0.23740692092E+02  0.31102434939E+02  0.00000000000E+00 0. -1.
</event>
<event>
 5    1  0.9034713E-005  0.9118800E+02  0.7818608E-02  0.1130116E+00
         25   -1    0    0    0    0  0.00000000000E+00  0.00000000000E+00  0.99999998245E-14  0.12500000000E+03  0.12500000000E+03 0.  0.
        -13    1    3    3    0    0 -0.23692545322E+02 -0.22991124718E+02 -0.34474698292E+02  0.47733054648E+02  0.10566000000E+00 0.  1.
         23    2    1    0    0    0 -0.20294617439E+02 -0.12867896359E+02  0.13877482472E+02  0.97250427508E+02  0.93207332743E+02 0.  0.
         13    1    3    3    0    0  0.33979278829E+01  0.10123228358E+02  0.48352180765E+02  0.49517372861E+02  0.10566000000E+00 0. -1.
         22    1    1    0    0    0  0.20294617439E+02  0.12867896359E+02 -0.13877482472E+02  0.27749572492E+02  0.00000000000E+00 0. -1.
</event>
<event>
 5    1  0.9034713E-005  0.9118800E+02  0.7818608E-02  0.1130116E+00
         25   -1    0    0    0    0  0.00000000000E+00  0.00000000000E+00  0.99999998245E-14  0.12500000000E+03  0.12500000000E+03 0.  0.
        -13    1    3    3    0    0  0.60636564932E+00 -0.23848466836E+02 -0.43795501073E+02  0.49871576353E+02  0.10566000000E+00 0.  1.
         23    2    1    0    0    0  0.22796182233E+02  0.30275098305E+01 -0.29629976830E+02  0.87493103739E+02  0.79046036806E+02 0.  0.
         13    1    3    3    0    0  0.22189816583E+02  0.26875976666E+02  0.14165524242E+02  0.37621527386E+02  0.10566000000E+00 0. -1.
         22    1    1    0    0    0 -0.22796182233E+02 -0.30275098305E+01  0.29629976830E+02  0.37506896261E+02  0.00000000000E+00 0.  1.
</event>
<event>
 5    1  0.9034713E-005  0.9118800E+02  0.7818608E-02  0.1130116E+00
         25   -1    0    0    0    0  0.00000000000E+00  0.00000000000E+00  0.99999998245E-14  0.12500000000E+03  0.12500000000E+03 0.  0.
        -13    1    3    3    0    0 -0.13744891591E+02  0.20454514025E+01  0.29854637288E+02  0.32930479011E+02  0.10566000000E+00 0. -1.
         23    2    1    0    0    0 -0.14348150412E+02 -0.21134716448E+02 -0.22986381597E+02  0.90635492169E+02  0.83868188500E+02 0.  0.
         13    1    3    3    0    0 -0.60325882056E+00 -0.23180167850E+02 -0.52841018884E+02  0.57705013158E+02  0.10566000000E+00 0.  1.
         22    1    1    0    0    0  0.14348150412E+02  0.21134716448E+02  0.22986381597E+02  0.34364507831E+02  0.00000000000E+00 0.  1.
</event>
<event>
 5    1  0.9034713E-005  0.9118800E+02  0.7818608E-02  0.1130116E+00
         25   -1    0    0    0    0  0.00000000000E+00  0.00000000000E+00  0.99999998245E-14  0.12500000000E+03  0.12500000000E+03 0.  0.
        -13    1    3    3    0    0 -0.38853092876E+02  0.17968655955E+02  0.59304027833E+01  0.43215926047E+02  0.10566000000E+00 0. -1.
         23    2    1    0    0    0  0.10747733996E+02  0.24146820131E+02 -0.11532510321E+02  0.96162845099E+02  0.91737185888E+02 0.  0.
         13    1    3    3    0    0  0.49600826872E+02  0.61781641759E+01 -0.17462913104E+02  0.52946919052E+02  0.10566000000E+00 0.  1.
         22    1    1    0    0    0 -0.10747733996E+02 -0.24146820131E+02  0.11532510321E+02  0.28837154901E+02  0.00000000000E+00 0.  1.
</event>
<event>
 5    1  0.9034713E-005  0.9118800E+02  0.7818608E-02  0.1130116E+00
         25   -1    0    0    0    0  0.00000000000E+00  0.00000000000E+00  0.99999998245E-14  0.12500000000E+03  0.12500000000E+03 0.  0.
        -13    1    3    3    0    0 -0.14063927113E+02 -0.30641327157E+02  0.16201916185E+02  0.37405858202E+02  0.10566000000E+00 0.  1.
         23    2    1    0    0    0 -0.20237525842E+02  0.69271027092E+01 -0.24051980884E+02  0.92812424935E+02  0.87052318945E+02 0.  0.
         13    1    3    3    0    0 -0.61735987289E+01  0.37568429866E+02 -0.40253897068E+02  0.55406566733E+02  0.10566000000E+00 0. -1.
         22    1    1    0    0    0  0.20237525842E+02 -0.69271027092E+01  0.24051980884E+02  0.32187575065E+02  0.00000000000E+00 0. -1.
</event>
<event>
 5    1  0.9034713E-005  0.9118800E+02  0.7818608E-02  0.1130116E+00
         25   -1    0    0    0    0  0.00000000000E+00  0.00000000000E+00  0.99999998245E-14  0.12500000000E+03  0.12500000000E+03 0.  0.
        -13    1    3    3    0    0 -0.44259319603E+02 -0.14537583247E+02 -0.22685795876E+02  0.51815877846E+02  0.10566000000E+00 0.  1.
         23    2    1    0    0    0 -0.15005583666E+02 -0.25783882599E+02  0.63040166990E+01  0.94508742736E+02  0.89454936610E+02 0.  0.
         13    1    3    3    0    0  0.29253735937E+02 -0.11246299352E+02  0.28989812575E+02  0.42692864890E+02  0.10566000000E+00 0. -1.
         22    1    1    0    0    0  0.15005583666E+02  0.25783882599E+02 -0.63040166990E+01  0.30491257264E+02  0.00000000000E+00 0.  1.
</event>
<event>
 5    1  0.9034713E-005  0.9118800E+02  0.7818608E-02  0.1130116E+00
         25   -1    0    0    0    0  0.00000000000E+00  0.00000000000E+00  0.99999998245E-14  0.12500000000E+03  0.12500000000E+03 0.  0.
        -13    1    3    3    0    0  0.12376843596E+02 -0.21572313846E+02 -0.40592030801E+02  0.47605410519E+02  0.10566000000E+00 0.  1.
         23    2    1    0    0    0 -0.19954297181E+02 -0.17787742022E+02 -0.18544916589E+01  0.98204162981E+02  0.94477726186E+02 0.  0.
         13    1    3    3    0    0 -0.32331140778E+02  0.37845718234E+01  0.38737539142E+02  0.50598752462E+02  0.10566000000E+00 0. -1.
         22    1    1    0    0    0  0.19954297181E+02  0.17787742022E+02  0.18544916589E+01  0.26795837019E+02  0.00000000000E+00 0.  1.
</event>
<event>
 5    1  0.9034713E-005  0.9118800E+02  0.7818608E-02  0.1130116E+00
         25   -1    0    0    0    0  0.00000000000E+00  0.00000000000E+00  0.99999998245E-14  0.12500000000E+03  0.12500000000E+03 0.  0.
        -13    1    3    3    0    0 -0.23702768260E+02 -0.41799384370E+02  0.30315260377E+02  0.56815807067E+02  0.10566000000E+00 0.  1.
         23    2    1    0    0    0  0.53867551744E+01 -0.25864708426E+02  0.20953554879E+02  0.91279802264E+02  0.84823054449E+02 0.  0.
         13    1    3    3    0    0  0.29089523434E+02  0.15934675944E+02 -0.93617054981E+01  0.34463995197E+02  0.10566000000E+00 0. -1.
         22    1    1    0    0    0 -0.53867551744E+01  0.25864708426E+02 -0.20953554879E+02  0.33720197736E+02  0.00000000000E+00 0.  1.
</event>
<event>
 5    1  0.9034713E-005  0.9118800E+02  0.7818608E-02  0.1130116E+00
         25   -1    0    0    0    0  0.00000000000E+00  0.00000000000E+00  0.99999998245E-14  0.12500000000E+03  0.12500000000E+03 0.  0.
        -13    1    3    3    0    0 -0.40043171169E+02 -0.47714047922E+02 -0.16550266212E+01  0.62312408103E+02  0.10566000000E+00 0. -1.
         23    2    1    0    0    0 -0.17729645024E+02 -0.25248669247E+02 -0.29846158951E+01  0.94004136672E+02  0.88747023432E+02 0.  0.
         13    1    3    3    0    0  0.22313526145E+02  0.22465378676E+02 -0.13295892739E+01  0.31691728569E+02  0.10566000000E+00 0.  1.
         22    1    1    0    0    0  0.17729645024E+02  0.25248669247E+02  0.29846158951E+01  0.30995863328E+02  0.00000000000E+00 0. -1.
</event>
<event>
 5    1  0.9034713E-005  0.9118800E+02  0.7818608E-02  0.1130116E+00
         25   -1    0    0    0    0  0.00000000000E+00  0.00000000000E+00  0.99999998245E-14  0.12500000000E+03  0.12500000000E+03 0.  0.
        -13    1    3    3    0    0  0.33652407133E+02 -0.38122320503E+02 -0.30278412852E+01  0.50940895293E+02  0.10566000000E+00 0.  1.
         23    2    1    0    0    0  0.60955699422E+00 -0.19793237446E+02  0.21327841742E+02  0.95896380951E+02  0.91373383640E+02 0.  0.
         13    1    3    3    0    0 -0.33042850139E+02  0.18329083056E+02  0.24355683028E+02  0.44955485658E+02  0.10566000000E+00 0. -1.
         22    1    1    0    0    0 -0.60955699422E+00  0.19793237446E+02 -0.21327841742E+02  0.29103619049E+02  0.00000000000E+00 0.  1.
</event>
<event>
 5    1  0.9034713E-005  0.9118800E+02  0.7818608E-02  0.1130116E+00
         25   -1    0    0    0    0  0.00000000000E+00  0.00000000000E+00  0.99999998245E-14  0.12500000000E+03  0.12500000000E+03 0.  0.
        -13    1    3    3    0    0 -0.19325452446E+02  0.18148903685E+02 -0.15814002522E+02  0.30869882685E+02  0.10566000000E+00 0.  1.
         23    2    1    0    0    0 -0.89945517782E+01 -0.11086313466E+02  0.33195732481E+02  0.88864630029E+02  0.81185944025E+02 0.  0.
         13    1    3    3    0    0  0.10330900668E+02 -0.29235217151E+02  0.49009735003E+02  0.57994747344E+02  0.10566000000E+00 0. -1.
         22    1    1    0    0    0  0.89945517782E+01  0.11086313466E+02 -0.33195732481E+02  0.36135369971E+02  0.00000000000E+00 0. -1.
</event>
<event>
 5    1  0.9034713E-005  0.9118800E+02  0.7818608E-02  0.1130116E+00
         25   -1    0    0    0    0  0.00000000000E+00  0.00000000000E+00  0.99999998245E-14  0.12500000000E+03  0.12500000000E+03 0.  0.
        -13    1    3    3    0    0 -0.23121647271E+01  0.37816955545E+02  0.13330060088E+02  0.40164286355E+02  0.10566000000E+00 0. -1.
         23    2    1    0    0    0  0.11309259520E+02  0.25049726294E+01  0.37954052033E+02  0.85317707923E+02  0.75527657058E+02 0.  0.
         13    1    3    3    0    0  0.13621424247E+02 -0.35311982916E+02  0.24623991945E+02  0.45153421568E+02  0.10566000000E+00 0.  1.
         22    1    1    0    0    0 -0.11309259520E+02 -0.25049726294E+01 -0.37954052033E+02  0.39682292077E+02  0.00000000000E+00 0.  1.
</event>
<event>
 5    1  0.9034713E-005  0.9118800E+02  0.7818608E-02  0.1130116E+00
         25   -1    0    0    0    0  0.00000000000E+00  0.00000000000E+00  0.99999998245E-14  0.12500000000E+03  0.12500000000E+03 0.  0.
        -13    1    3    3    0    0 -0.20934547028E+02 -0.16695286406E+02  0.46349068327E+02  0.53527891293E+02  0.10566000000E+00 0.  1.
         23    2    1    0    0    0  0.55458381563E+01 -0.25210320926E+02  0.16319479291E+02  0.94460811957E+02  0.89387935367E+02 0.  0.
         13    1    3    3    0    0  0.26480385184E+02 -0.85150345194E+01 -0.30029589036E+02  0.40932920664E+02  0.10566000000E+00 0. -1.
         22    1    1    0    0    0 -0.55458381563E+01  0.25210320926E+02 -0.16319479291E+02  0.30539188043E+02  0.00000000000E+00 0.  1.
</event>
<event>
 5    1  0.9034713E-005  0.9118800E+02  0.7818608E-02  0.1130116E+00
         25   -1    0    0    0    0  0.00000000000E+00  0.00000000000E+00  0.99999998245E-14  0.12500000000E+03  0.12500000000E+03 0.  0.
        -13    1    3    3    0    0  0.61733836128E+02  0.29758429510E+01 -0.72160084959E+01  0.62225429745E+02  0.10566000000E+00 0.  1.
         23    2    1    0    0    0  0.42209088098E+02  0.27489971970E+01 -0.11000393183E+01  0.82687186455E+02  0.71040809494E+02 0.  0.
         13    1    3    3    0    0 -0.19524748030E+02 -0.22684575398E+00  0.61159691775E+01  0.20461756710E+02  0.10566000000E+00 0. -1.
         22    1    1    0    0    0 -0.42209088098E+02 -0.27489971970E+01  0.11000393183E+01  0.42312813545E+02  0.00000000000E+00 0.  1.
</event>
<event>
 5    1  0.9034713E-005  0.9118800E+02  0.7818608E-02  0.1130116E+00
         25   -1    0    0    0    0  0.00000000000E+00  0.00000000000E+00  0.99999998245E-14  0.12500000000E+03  0.12500000000E+03 0.  0.
        -13    1    3    3    0    0 -0.10452349833E+02 -0.13547075849E+01 -0.34686583579E+02  0.36252683957E+02  0.10566000000E+00 0.  1.
         23    2    1    0    0    0 -0.53595119985E+01  0.16393920771E+02  0.22673644019E+02  0.96511771901E+02  0.92211403716E+02 0.  0.
         13    1    3    3    0    0  0.50928378341E+01  0.17748628355E+02  0.57360227598E+02  0.60259087944E+02  0.10566000000E+00 0. -1.
         22    1    1    0    0    0  0.53595119985E+01 -0.16393920771E+02 -0.22673644019E+02  0.28488228099E+02  0.00000000000E+00 0. -1.
</event>
<event>
 5    1  0.9034713E-005  0.9118800E+02  0.7818608E-02  0.1130116E+00
         25   -1    0    0    0    0  0.00000000000E+00  0.00000000000E+00  0.99999998245E-14  0.12500000000E+03  0.12500000000E+03 0.  0.
        -13    1    3    3    0    0  0.11057481015E+02 -0.47623430798E+02 -0.24040656864E+02  0.54481404110E+02  0.10566000000E+00 0. -1.
         23    2    1    0    0    0 -0.14167074566E+02 -0.24670310727E+02  0.58126395185E+00  0.96545332529E+02  0.92256886638E+02 0.  0.
         13    1    3    3    0    0 -0.25224555581E+02  0.22953120071E+02  0.24621920816E+02  0.42063928418E+02  0.10566000000E+00 0.  1.
         22    1    1    0    0    0  0.14167074566E+02  0.24670310727E+02 -0.58126395185E+00  0.28454667471E+02  0.00000000000E+00 0. -1.
</event>
<event>
 5    1  0.9034713E-005  0.9118800E+02  0.7818608E-02  0.1130116E+00
         25   -1    0    0    0    0  0.00000000000E+00  0.00000000000E+00  0.99999998245E-14  0.12500000000E+03  0.12500000000E+03 0.  0.
        -13    1    3    3    0    0  0.19076045102E+02 -0.48603469232E+02  0.17822937768E+02  0.55171197130E+02  0.10566000000E+00 0.  1.
         23    2    1    0    0    0  0.46039955012E+01 -0.89529544572E+01  0.25057363915E+02  0.97995858568E+02  0.94201723137E+02 0.  0.
         13    1    3    3    0    0 -0.14472049600E+02  0.39650514775E+02  0.72344261476E+01  0.42824661438E+02  0.10566000000E+00 0. -1.
         22    1    1    0    0    0 -0.46039955012E+01  0.89529544572E+01 -0.25057363915E+02  0.27004141432E+02  0.00000000000E+00 0.  1.
</event>
<event>
 5    1  0.9034713E-005  0.9118800E+02  0.7818608E-02  0.1130116E+00
         25   -1    0    0    0    0  0.00000000000E+00  0.00000000000E+00  0.99999998245E-14  0.12500000000E+03  0.12500000000E+03 0.  0.
        -13    1    3    3    0    0 -0.31477086522E+02  0.13202975395E+02 -0.12565892117E+02  0.36373594047E+02  0.10566000000E+00 0. -1.
         23    2    1    0    0    0  0.42922441099E+01 -0.18507354288E+02  0.22421752143E+02  0.95611558540E+02  0.90982908478E+02 0.  0.
         13    1    3    3    0    0  0.35769330632E+02 -0.31710329683E+02  0.34987644260E+02  0.59237964493E+02  0.10566000000E+00 0.  1.
         22    1    1    0    0    0 -0.42922441099E+01  0.18507354288E+02 -0.22421752143E+02  0.29388441460E+02  0.00000000000E+00 0.  1.
</event>
<event>
 5    1  0.9034713E-005  0.9118800E+02  0.7818608E-02  0.1130116E+00
         25   -1    0    0    0    0  0.00000000000E+00  0.00000000000E+00  0.99999998245E-14  0.12500000000E+03  0.12500000000E+03 0.  0.
        -13    1    3    3    0    0 -0.30166669174E+02 -0.94080088443E+01 -0.18427814240E+02  0.36580514774E+02  0.10566000000E+00 0.  1.
         23    2    1    0    0    0  0.49677702334E+01 -0.10949452044E+02  0.27826880010E+02  0.94686562513E+02  0.89703069224E+02 0.  0.
         13    1    3    3    0    0  0.35134439407E+02 -0.15414432000E+01  0.46254694250E+02  0.58106047739E+02  0.10566000000E+00 0. -1.
         22    1    1    0    0    0 -0.49677702334E+01  0.10949452044E+02 -0.27826880010E+02  0.30313437487E+02  0.00000000000E+00 0. -1.
</event>
<event>
 5    1  0.9034713E-005  0.9118800E+02  0.7818608E-02  0.1130116E+00
         25   -1    0    0    0    0  0.00000000000E+00  0.00000000000E+00  0.99999998245E-14  0.12500000000E+03  0.12500000000E+03 0.  0.
        -13    1    3    3    0    0  0.25615444411E+02  0.29955414039E+01 -0.32417223564E+02  0.41424772882E+02  0.10566000000E+00 0.  1.
         23    2    1    0    0    0  0.16129527162E+02 -0.26851173060E+02  0.81111220404E+01  0.92643587314E+02  0.86809543418E+02 0.  0.
         13    1    3    3    0    0 -0.94859172491E+01 -0.29846714464E+02  0.40528345604E+02  0.51218814432E+02  0.10566000000E+00 0. -1.
         22    1    1    0    0    0 -0.16129527162E+02  0.26851173060E+02 -0.81111220404E+01  0.32356412686E+02  0.00000000000E+00 0. -1.
</event>
<event>
 5    1  0.9034713E-005  0.9118800E+02  0.7818608E-02  0.1130116E+00
         25   -1    0    0    0    0  0.00000000000E+00  0.00000000000E+00  0.99999998245E-14  0.12500000000E+03  0.12500000000E+03 0.  0.
        -13    1    3    3    0    0  0.43120550836E+02  0.18412845938E+02  0.15832490530E+02  0.49488319029E+02  0.10566000000E+00 0. -1.
         23    2    1    0    0    0  0.19044297351E+02 -0.20460368294E+02  0.36340004717E+01  0.96812806246E+02  0.92618581081E+02 0.  0.
         13    1    3    3    0    0 -0.24076253484E+02 -0.38873214232E+02 -0.12198490058E+02  0.47324487217E+02  0.10566000000E+00 0.  1.
         22    1    1    0    0    0 -0.19044297351E+02  0.20460368294E+02 -0.36340004717E+01  0.28187193754E+02  0.00000000000E+00 0.  1.
</event>
<event>
 5    1  0.9034713E-005  0.9118800E+02  0.7818608E-02  0.1130116E+00
         25   -1    0    0    0    0  0.00000000000E+00  0.00000000000E+00  0.99999998245E-14  0.12500000000E+03  0.12500000000E+03 0.  0.
        -13    1    3    3    0    0 -0.36800131212E+02  0.44256517042E+02  0.81671662448E+01  0.58134350658E+02  0.10566000000E+00 0. -1.
         23    2    1    0    0    0 -0.18797798773E+01  0.27261079254E+02  0.59477240986E+01  0.97034388323E+02  0.92917151704E+02 0.  0.
         13    1    3    3    0    0  0.34920351335E+02 -0.16995437787E+02 -0.22194421462E+01  0.38900037666E+02  0.10566000000E+00 0.  1.
         22    1    1    0    0    0  0.18797798773E+01 -0.27261079254E+02 -0.59477240986E+01  0.27965611677E+02  0.00000000000E+00 0. -1.
</event>
<event>
 5    1  0.9034713E-005  0.9118800E+02  0.7818608E-02  0.1130116E+00
         25   -1    0    0    0    0  0.00000000000E+00  0.00000000000E+00  0.99999998245E-14  0.12500000000E+03  0.12500000000E+03 0.  0.
        -13    1    3    3    0    0 -0.16301197102E+02  0.52378422966E+02 -0.19961863042E+02  0.58375640121E+02  0.10566000000E+00 0.  1.
         23    2    1    0    0    0 -0.21395513796E+02  0.16996625315E+02 -0.12768193552E+02  0.94839097340E+02  0.89915373185E+02 0.  0.
         13    1    3    3    0    0 -0.50943166936E+01 -0.35381797651E+02  0.71936694904E+01  0.36463457219E+02  0.10566000000E+00 0. -1.
         22    1    1    0    0    0  0.21395513796E+02 -0.16996625315E+02  0.12768193552E+02  0.30160902660E+02  0.00000000000E+00 0.  1.
</event>
<event>
 5    1  0.9034713E-005  0.9118800E+02  0.7818608E-02  0.1130116E+00
         25   -1    0    0    0    0  0.00000000000E+00  0.00000000000E+00  0.99999998245E-14  0.12500000000E+03  0.12500000000E+03 0.  0.
        -13    1    3    3    0    0 -0.25643153710E+02 -0.44883258189E+02  0.28538854636E+02  0.59047062465E+02  0.10566000000E+00 0.  1.
         23    2    1    0    0    0 -0.11799768058E+02 -0.27029481955E+02 -0.77986780575E-01  0.95507060117E+02  0.90839226270E+02 0.  0.
         13    1    3    3    0    0  0.13843385652E+02  0.17853776233E+02 -0.28616841416E+02  0.36459997652E+02  0.10566000000E+00 0. -1.
         22    1    1    0    0    0  0.11799768058E+02  0.27029481955E+02  0.77986780575E-01  0.29492939883E+02  0.00000000000E+00 0.  1.
</event>
<event>
 5    1  0.9034713E-005  0.9118800E+02  0.7818608E-02  0.1130116E+00
         25   -1    0    0    0    0  0.00000000000E+00  0.00000000000E+00  0.99999998245E-14  0.12500000000E+03  0.12500000000E+03 0.  0.
        -13    1    3    3    0    0 -0.31905720867E+02 -0.34948838503E+02  0.36185982239E+02  0.59572080805E+02  0.10566000000E+00 0.  1.
         23    2    1    0    0    0 -0.24103295787E+02 -0.67530815120E+01  0.13746836118E+02  0.96442190543E+02  0.92117032279E+02 0.  0.
         13    1    3    3    0    0  0.78024250801E+01  0.28195756991E+02 -0.22439146121E+02  0.36870109738E+02  0.10566000000E+00 0. -1.
         22    1    1    0    0    0  0.24103295787E+02  0.67530815120E+01 -0.13746836118E+02  0.28557809457E+02  0.00000000000E+00 0.  1.
</event>
<event>
 5    1  0.9034713E-005  0.9118800E+02  0.7818608E-02  0.1130116E+00
         25   -1    0    0    0    0  0.00000000000E+00  0.00000000000E+00  0.99999998245E-14  0.12500000000E+03  0.12500000000E+03 0.  0.
        -13    1    3    3    0    0  0.35899307962E+02 -0.12220628409E+02  0.46642725246E+02  0.60113717680E+02  0.10566000000E+00 0.  1.
         23    2    1    0    0    0  0.16225299923E+02  0.57796488752E+01  0.25891668814E+02  0.93902681584E+02  0.88604008916E+02 0.  0.
         13    1    3    3    0    0 -0.19674008039E+02  0.18000277285E+02 -0.20751056432E+02  0.33788963904E+02  0.10566000000E+00 0. -1.
         22    1    1    0    0    0 -0.16225299923E+02 -0.57796488752E+01 -0.25891668814E+02  0.31097318416E+02  0.00000000000E+00 0.  1.
</event>
<event>
 5    1  0.9034713E-005  0.9118800E+02  0.7818608E-02  0.1130116E+00
         25   -1    0    0    0    0  0.00000000000E+00  0.00000000000E+00  0.99999998245E-14  0.12500000000E+03  0.12500000000E+03 0.  0.
        -13    1    3    3    0    0  0.15726955042E+02  0.78570889078E+00 -0.38595063055E+02  0.41683863899E+02  0.10566000000E+00 0.  1.
         23    2    1    0    0    0  0.17846433175E+02  0.21735409242E+02  0.10402451065E+02  0.95014433803E+02  0.90158795749E+02 0.  0.
         13    1    3    3    0    0  0.21194781326E+01  0.20949700351E+02  0.48997514119E+02  0.53330569904E+02  0.10566000000E+00 0. -1.
         22    1    1    0    0    0 -0.17846433175E+02 -0.21735409242E+02 -0.10402451065E+02  0.29985566197E+02  0.00000000000E+00 0. -1.
</event>
<event>
 5    1  0.9034713E-005  0.9118800E+02  0.7818608E-02  0.1130116E+00
         25   -1    0    0    0    0  0.00000000000E+00  0.00000000000E+00  0.99999998245E-14  0.12500000000E+03  0.12500000000E+03 0.  0.
        -13    1    3    3    0    0 -0.20460564184E+02 -0.86195275364E+01  0.48085675739E+02  0.52963896354E+02  0.10566000000E+00 0. -1.
         23    2    1    0    0    0 -0.27403786745E+02  0.53715359950E+01  0.80515282591E+01  0.95937170919E+02  0.91429167828E+02 0.  0.
         13    1    3    3    0    0 -0.69432225605E+01  0.13991063531E+02 -0.40034147480E+02  0.42973274564E+02  0.10566000000E+00 0.  1.
         22    1    1    0    0    0  0.27403786745E+02 -0.53715359950E+01 -0.80515282591E+01  0.29062829081E+02  0.00000000000E+00 0.  1.
</event>
<event>
 5    1  0.9034713E-005  0.9118800E+02  0.7818608E-02  0.1130116E+00
         25   -1    0    0    0    0  0.00000000000E+00  0.00000000000E+00  0.99999998245E-14  0.12500000000E+03  0.12500000000E+03 0.  0.
        -13    1    3    3    0    0 -0.36448724335E+02  0.19247907786E+02 -0.74229609894E+01  0.41882012532E+02  0.10566000000E+00 0.  1.
         23    2    1    0    0    0  0.16297364879E+02  0.22150667121E+02 -0.12183057615E+02  0.94922050457E+02  0.90030620425E+02 0.  0.
         13    1    3    3    0    0  0.52746089214E+02  0.29027593344E+01 -0.47600966257E+01  0.53040037925E+02  0.10566000000E+00 0. -1.
         22    1    1    0    0    0 -0.16297364879E+02 -0.22150667121E+02  0.12183057615E+02  0.30077949543E+02  0.00000000000E+00 0. -1.
</event>
<event>
 5    1  0.9034713E-005  0.9118800E+02  0.7818608E-02  0.1130116E+00
         25   -1    0    0    0    0  0.00000000000E+00  0.00000000000E+00  0.99999998245E-14  0.12500000000E+03  0.12500000000E+03 0.  0.
        -13    1    3    3    0    0  0.15420014651E+02  0.15066581452E+02  0.45533998992E+02  0.50379906279E+02  0.10566000000E+00 0.  1.
         23    2    1    0    0    0 -0.19396549808E+02 -0.14314379898E+01  0.22462465575E+02  0.95287418172E+02  0.90536481835E+02 0.  0.
         13    1    3    3    0    0 -0.34816564459E+02 -0.16498019442E+02 -0.23071533417E+02  0.44907511893E+02  0.10566000000E+00 0. -1.
         22    1    1    0    0    0  0.19396549808E+02  0.14314379898E+01 -0.22462465575E+02  0.29712581828E+02  0.00000000000E+00 0. -1.
</event>
<event>
 5    1  0.9034713E-005  0.9118800E+02  0.7818608E-02  0.1130116E+00
         25   -1    0    0    0    0  0.00000000000E+00  0.00000000000E+00  0.99999998245E-14  0.12500000000E+03  0.12500000000E+03 0.  0.
        -13    1    3    3    0    0 -0.12042592406E+01  0.37348527500E+02  0.33425708797E+02  0.50136333326E+02  0.10566000000E+00 0. -1.
         23    2    1    0    0    0  0.26677296544E+02  0.11866547537E+02  0.13719285011E+02  0.92739933624E+02  0.86948165053E+02 0.  0.
         13    1    3    3    0    0  0.27881555785E+02 -0.25481979963E+02 -0.19706423786E+02  0.42603600298E+02  0.10566000000E+00 0.  1.
         22    1    1    0    0    0 -0.26677296544E+02 -0.11866547537E+02 -0.13719285011E+02  0.32260066376E+02  0.00000000000E+00 0. -1.
</event>
<event>
 5    1  0.9034713E-005  0.9118800E+02  0.7818608E-02  0.1130116E+00
         25   -1    0    0    0    0  0.00000000000E+00  0.00000000000E+00  0.99999998245E-14  0.12500000000E+03  0.12500000000E+03 0.  0.
        -13    1    3    3    0    0  0.38167175488E+02  0.33853487704E+01 -0.13427922105E+02  0.40601898073E+02  0.10566000000E+00 0.  1.
         23    2    1    0    0    0 -0.14316290957E+02  0.21943313978E+02 -0.11724248739E+02  0.96295937159E+02  0.91918356653E+02 0.  0.
         13    1    3    3    0    0 -0.52483466445E+02  0.18557965207E+02  0.17036733664E+01  0.55694039086E+02  0.10566000000E+00 0. -1.
         22    1    1    0    0    0  0.14316290957E+02 -0.21943313978E+02  0.11724248739E+02  0.28704062841E+02  0.00000000000E+00 0. -1.
</event>
<event>
 5    1  0.9034713E-005  0.9118800E+02  0.7818608E-02  0.1130116E+00
         25   -1    0    0    0    0  0.00000000000E+00  0.00000000000E+00  0.99999998245E-14  0.12500000000E+03  0.12500000000E+03 0.  0.
        -13    1    3    3    0    0  0.27221596302E+02 -0.11869059787E+02  0.22593597399E+02  0.37314497088E+02  0.10566000000E+00 0.  1.
         23    2    1    0    0    0 -0.13841710978E+02  0.24597020579E+02 -0.20066489038E+00  0.96775070406E+02  0.92567637982E+02 0.  0.
         13    1    3    3    0    0 -0.41063307280E+02  0.36466080366E+02 -0.22794262289E+02  0.59460573319E+02  0.10566000000E+00 0. -1.
         22    1    1    0    0    0  0.13841710978E+02 -0.24597020579E+02  0.20066489038E+00  0.28224929594E+02  0.00000000000E+00 0. -1.
</event>
<event>
 5    1  0.9034713E-005  0.9118800E+02  0.7818608E-02  0.1130116E+00
         25   -1    0    0    0    0  0.00000000000E+00  0.00000000000E+00  0.99999998245E-14  0.12500000000E+03  0.12500000000E+03 0.  0.
        -13    1    3    3    0    0 -0.26943305057E+02 -0.30320940170E+02 -0.28308825438E+02  0.49464147237E+02  0.10566000000E+00 0. -1.
         23    2    1    0    0    0  0.11652726327E+01  0.58283187056E+01 -0.29136699916E+02  0.95263247635E+02  0.90503104415E+02 0.  0.
         13    1    3    3    0    0  0.28108577690E+02  0.36149258876E+02 -0.82787447791E+00  0.45799100397E+02  0.10566000000E+00 0.  1.
         22    1    1    0    0    0 -0.11652726327E+01 -0.58283187056E+01  0.29136699916E+02  0.29736752365E+02  0.00000000000E+00 0. -1.
</event>
<event>
 5    1  0.9034713E-005  0.9118800E+02  0.7818608E-02  0.1130116E+00
         25   -1    0    0    0    0  0.00000000000E+00  0.00000000000E+00  0.99999998245E-14  0.12500000000E+03  0.12500000000E+03 0.  0.
        -13    1    3    3    0    0 -0.12670996688E+02 -0.18555223154E+01  0.48729189366E+02  0.50383947647E+02  0.10566000000E+00 0.  1.
         23    2    1    0    0    0  0.19777123150E+02 -0.10387848747E+02  0.24968473284E+02  0.91496766427E+02  0.85142184649E+02 0.  0.
         13    1    3    3    0    0  0.32448119838E+02 -0.85323264312E+01 -0.23760716082E+02  0.41112818781E+02  0.10566000000E+00 0. -1.
         22    1    1    0    0    0 -0.19777123150E+02  0.10387848747E+02 -0.24968473284E+02  0.33503233573E+02  0.00000000000E+00 0.  1.
</event>
<event>
 5    1  0.9034713E-005  0.9118800E+02  0.7818608E-02  0.1130116E+00
         25   -1    0    0    0    0  0.00000000000E+00  0.00000000000E+00  0.99999998245E-14  0.12500000000E+03  0.12500000000E+03 0.  0.
        -13    1    3    3    0    0  0.28798911738E+02 -0.19398768743E+02 -0.46967811083E+02  0.58409553910E+02  0.10566000000E+00 0. -1.
         23    2    1    0    0    0  0.66162828644E+01  0.52944238872E+01 -0.25958385652E+02  0.97693518921E+02  0.93799678732E+02 0.  0.
         13    1    3    3    0    0 -0.22182628874E+02  0.24693192630E+02  0.21009425431E+02  0.39283965011E+02  0.10566000000E+00 0.  1.
         22    1    1    0    0    0 -0.66162828644E+01 -0.52944238872E+01  0.25958385652E+02  0.27306481079E+02  0.00000000000E+00 0. -1.
</event>
<event>
 5    1  0.9034713E-005  0.9118800E+02  0.7818608E-02  0.1130116E+00
         25   -1    0    0    0    0  0.00000000000E+00  0.00000000000E+00  0.99999998245E-14  0.12500000000E+03  0.12500000000E+03 0.  0.
        -13    1    3    3    0    0 -0.24754038782E+02 -0.51334522738E+02  0.72187793125E+01  0.57446650029E+02  0.10566000000E+00 0. -1.
         23    2    1    0    0    0 -0.58163997599E+01 -0.27651165671E+02 -0.13003635304E+02  0.93895145070E+02  0.88593375979E+02 0.  0.
         13    1    3    3    0    0  0.18937639022E+02  0.23683357068E+02 -0.20222414617E+02  0.36448495040E+02  0.10566000000E+00 0.  1.
         22    1    1    0    0    0  0.58163997599E+01  0.27651165671E+02  0.13003635304E+02  0.31104854930E+02  0.00000000000E+00 0. -1.
</event>
<event>
 5    1  0.9034713E-005  0.9118800E+02  0.7818608E-02  0.1130116E+00
         25   -1    0    0    0    0  0.00000000000E+00  0.00000000000E+00  0.99999998245E-14  0.12500000000E+03  0.12500000000E+03 0.  0.
        -13    1    3    3    0    0  0.52436417716E+02  0.31931746219E+02 -0.43901179348E+01  0.61550780815E+02  0.10566000000E+00 0.  1.
         23    2    1    0    0    0  0.28136283760E+02  0.91346238977E+01  0.14675681519E+01  0.95381668280E+02  0.90666515705E+02 0.  0.
         13    1    3    3    0    0 -0.24300133956E+02 -0.22797122321E+02  0.58576860867E+01  0.33830887466E+02  0.10566000000E+00 0. -1.
         22    1    1    0    0    0 -0.28136283760E+02 -0.91346238977E+01 -0.14675681519E+01  0.29618331720E+02  0.00000000000E+00 0.  1.
</event>
<event>
 5    1  0.9034713E-005  0.9118800E+02  0.7818608E-02  0.1130116E+00
         25   -1    0    0    0    0  0.00000000000E+00  0.00000000000E+00  0.99999998245E-14  0.12500000000E+03  0.12500000000E+03 0.  0.
        -13    1    3    3    0    0  0.45189500739E+02  0.15944336733E+02  0.67328522033E+00  0.47924704777E+02  0.10566000000E+00 0. -1.
         23    2    1    0    0    0  0.11601926322E+02 -0.19551448049E+01 -0.27375502472E+02  0.95203264924E+02  0.90420220255E+02 0.  0.
         13    1    3    3    0    0 -0.33587574417E+02 -0.17899481538E+02 -0.28048787692E+02  0.47278560147E+02  0.10566000000E+00 0.  1.
         22    1    1    0    0    0 -0.11601926322E+02  0.19551448049E+01  0.27375502472E+02  0.29796735076E+02  0.00000000000E+00 0. -1.
</event>
<event>
 5    1  0.9034713E-005  0.9118800E+02  0.7818608E-02  0.1130116E+00
         25   -1    0    0    0    0  0.00000000000E+00  0.00000000000E+00  0.99999998245E-14  0.12500000000E+03  0.12500000000E+03 0.  0.
        -13    1    3    3    0    0 -0.15507026355E+02  0.45344851149E+02  0.35357531254E+02  0.59554929036E+02  0.10566000000E+00 0.  1.
         23    2    1    0    0    0  0.55748668192E+01  0.25373766734E+02  0.18132410991E+02  0.93318909320E+02  0.87776576203E+02 0.  0.
         13    1    3    3    0    0  0.21081893175E+02 -0.19971084414E+02 -0.17225120262E+02  0.33763980284E+02  0.10566000000E+00 0. -1.
         22    1    1    0    0    0 -0.55748668192E+01 -0.25373766734E+02 -0.18132410991E+02  0.31681090680E+02  0.00000000000E+00 0.  1.
</event>
<event>
 5    1  0.9034713E-005  0.9118800E+02  0.7818608E-02  0.1130116E+00
         25   -1    0    0    0    0  0.00000000000E+00  0.00000000000E+00  0.99999998245E-14  0.12500000000E+03  0.12500000000E+03 0.  0.
        -13    1    3    3    0    0  0.19517215140E+02 -0.13918029196E+02 -0.21808743571E+02  0.32407802821E+02  0.10566000000E+00 0. -1.
         23    2    1    0    0    0 -0.13872060281E+02  0.28005354853E+02  0.65872904427E+01  0.93060583095E+02  0.87407927408E+02 0.  0.
         13    1    3    3    0    0 -0.33389275421E+02  0.41923384048E+02  0.28396034014E+02  0.60652780274E+02  0.10566000000E+00 0.  1.
         22    1    1    0    0    0  0.13872060281E+02 -0.28005354853E+02 -0.65872904427E+01  0.31939416905E+02  0.00000000000E+00 0.  1.
</event>
<event>
 5    1  0.9034713E-005  0.9118800E+02  0.7818608E-02  0.1130116E+00
         25   -1    0    0    0    0  0.00000000000E+00  0.00000000000E+00  0.99999998245E-14  0.12500000000E+03  0.12500000000E+03 0.  0.
        -13    1    3    3    0    0  0.48036788196E+02  0.32362154724E+01  0.12931134416E+02  0.49852096366E+02  0.10566000000E+00 0. -1.
         23    2    1    0    0    0  0.13529203924E+02  0.15458412686E+02 -0.17930072797E+02  0.97732998110E+02  0.93852275025E+02 0.  0.
         13    1    3    3    0    0 -0.34507584273E+02  0.12222197213E+02 -0.30861207214E+02  0.47880901743E+02  0.10566000000E+00 0.  1.
         22    1    1    0    0    0 -0.13529203924E+02 -0.15458412686E+02  0.17930072797E+02  0.27267001890E+02  0.00000000000E+00 0. -1.
</event>
<event>
 5    1  0.9034713E-005  0.9118800E+02  0.7818608E-02  0.1130116E+00
         25   -1    0    0    0    0  0.00000000000E+00  0.00000000000E+00  0.99999998245E-14  0.12500000000E+03  0.12500000000E+03 0.  0.
        -13    1    3    3    0    0  0.44363487587E+02  0.24183484165E+02 -0.26897827666E+01  0.50598478560E+02  0.10566000000E+00 0.  1.
         23    2    1    0    0    0  0.39425508943E+00  0.28869428044E+02 -0.77510626237E+01  0.95105547598E+02  0.90285031425E+02 0.  0.
         13    1    3    3    0    0 -0.43969232498E+02  0.46859438788E+01 -0.50612798571E+01  0.44507069037E+02  0.10566000000E+00 0. -1.
         22    1    1    0    0    0 -0.39425508943E+00 -0.28869428044E+02  0.77510626237E+01  0.29894452402E+02  0.00000000000E+00 0.  1.
</event>
<event>
 5    1  0.9034713E-005  0.9118800E+02  0.7818608E-02  0.1130116E+00
         25   -1    0    0    0    0  0.00000000000E+00  0.00000000000E+00  0.99999998245E-14  0.12500000000E+03  0.12500000000E+03 0.  0.
        -13    1    3    3    0    0  0.20120523601E+02  0.46811634198E+02  0.17261205023E+02  0.53797071753E+02  0.10566000000E+00 0. -1.
         23    2    1    0    0    0  0.14948037463E+02  0.62763891296E+01  0.24819923342E+02  0.95354334563E+02  0.90628823455E+02 0.  0.
         13    1    3    3    0    0 -0.51724861389E+01 -0.40535245068E+02  0.75587183193E+01  0.41557262810E+02  0.10566000000E+00 0.  1.
         22    1    1    0    0    0 -0.14948037463E+02 -0.62763891296E+01 -0.24819923342E+02  0.29645665437E+02  0.00000000000E+00 0. -1.
</event>
<event>
 5    1  0.9034713E-005  0.9118800E+02  0.7818608E-02  0.1130116E+00
         25   -1    0    0    0    0  0.00000000000E+00  0.00000000000E+00  0.99999998245E-14  0.12500000000E+03  0.12500000000E+03 0.  0.
        -13    1    3    3    0    0 -0.32012734086E+02 -0.22445398125E+02  0.37833217769E+02  0.54405648341E+02  0.10566000000E+00 0.  1.
         23    2    1    0    0    0 -0.16367243417E+02 -0.25922710429E+02  0.12827398140E+01  0.94315818498E+02  0.89184946176E+02 0.  0.
         13    1    3    3    0    0  0.15645490669E+02 -0.34773123037E+01 -0.36550477955E+02  0.39910170156E+02  0.10566000000E+00 0. -1.
         22    1    1    0    0    0  0.16367243417E+02  0.25922710429E+02 -0.12827398140E+01  0.30684181502E+02  0.00000000000E+00 0.  1.
</event>
<event>
 5    1  0.9034713E-005  0.9118800E+02  0.7818608E-02  0.1130116E+00
         25   -1    0    0    0    0  0.00000000000E+00  0.00000000000E+00  0.99999998245E-14  0.12500000000E+03  0.12500000000E+03 0.  0.
        -13    1    3    3    0    0 -0.89474851842E+01  0.36388585183E+02  0.30323027086E+01  0.37595114662E+02  0.10566000000E+00 0.  1.
         23    2    1    0    0    0 -0.15187049318E+02 -0.17753652000E+02 -0.17472993921E+02  0.95825625236E+02  0.91276537560E+02 0.  0.
         13    1    3    3    0    0 -0.62395641341E+01 -0.54142237183E+02 -0.20505296630E+02  0.58230510573E+02  0.10566000000E+00 0. -1.
         22    1    1    0    0    0  0.15187049318E+02  0.17753652000E+02  0.17472993921E+02  0.29174374764E+02  0.00000000000E+00 0. -1.
</event>
<event>
 5    1  0.9034713E-005  0.9118800E+02  0.7818608E-02  0.1130116E+00
         25   -1    0    0    0    0  0.00000000000E+00  0.00000000000E+00  0.99999998245E-14  0.12500000000E+03  0.12500000000E+03 0.  0.
        -13    1    3    3    0    0 -0.17473304957E+02  0.20489169841E+02 -0.24062645768E+02  0.36112941618E+02  0.10566000000E+00 0. -1.
         23    2    1    0    0    0 -0.83889920728E+01 -0.21254248238E+02  0.17883473861E+02  0.95983851160E+02  0.91492965796E+02 0.  0.
         13    1    3    3    0    0  0.90843128839E+01 -0.41743418079E+02  0.41946119629E+02  0.59870909543E+02  0.10566000000E+00 0.  1.
         22    1    1    0    0    0  0.83889920728E+01  0.21254248238E+02 -0.17883473861E+02  0.29016148840E+02  0.00000000000E+00 0.  1.
</event>
<event>
 5    1  0.9034713E-005  0.9118800E+02  0.7818608E-02  0.1130116E+00
         25   -1    0    0    0    0  0.00000000000E+00  0.00000000000E+00  0.99999998245E-14  0.12500000000E+03  0.12500000000E+03 0.  0.
        -13    1    3    3    0    0 -0.14298529925E+02  0.16216928852E+02  0.29465116196E+02  0.36546422203E+02  0.10566000000E+00 0. -1.
         23    2    1    0    0    0  0.16362529423E+02 -0.22160722471E+02 -0.55871540453E+01  0.96892238085E+02  0.92725722005E+02 0.  0.
         13    1    3    3    0    0  0.30661059347E+02 -0.38377651323E+02 -0.35052270241E+02  0.60345815882E+02  0.10566000000E+00 0.  1.
         22    1    1    0    0    0 -0.16362529423E+02  0.22160722471E+02  0.55871540453E+01  0.28107761915E+02  0.00000000000E+00 0.  1.
</event>
<event>
 5    1  0.9034713E-005  0.9118800E+02  0.7818608E-02  0.1130116E+00
         25   -1    0    0    0    0  0.00000000000E+00  0.00000000000E+00  0.99999998245E-14  0.12500000000E+03  0.12500000000E+03 0.  0.
        -13    1    3    3    0    0  0.34019472552E+02 -0.16109732322E+01  0.11160087934E+02  0.35839621569E+02  0.10566000000E+00 0.  1.
         23    2    1    0    0    0 -0.23622505552E+02  0.72931177688E+00  0.19794566855E+02  0.94171773629E+02  0.88982826473E+02 0.  0.
         13    1    3    3    0    0 -0.57641978104E+02  0.23402850091E+01  0.86344789208E+01  0.58332152060E+02  0.10566000000E+00 0. -1.
         22    1    1    0    0    0  0.23622505552E+02 -0.72931177688E+00 -0.19794566855E+02  0.30828226371E+02  0.00000000000E+00 0. -1.
</event>
<event>
 5    1  0.9034713E-005  0.9118800E+02  0.7818608E-02  0.1130116E+00
         25   -1    0    0    0    0  0.00000000000E+00  0.00000000000E+00  0.99999998245E-14  0.12500000000E+03  0.12500000000E+03 0.  0.
        -13    1    3    3    0    0 -0.56694956695E+02 -0.17999444817E+02  0.17571782403E+02  0.62024808176E+02  0.10566000000E+00 0. -1.
         23    2    1    0    0    0 -0.37350942073E+02 -0.10352554003E+02  0.61476751877E+01  0.85756374297E+02  0.76250203766E+02 0.  0.
         13    1    3    3    0    0  0.19344014623E+02  0.76468908140E+01 -0.11424107216E+02  0.23731566121E+02  0.10566000000E+00 0.  1.
         22    1    1    0    0    0  0.37350942073E+02  0.10352554003E+02 -0.61476751877E+01  0.39243625703E+02  0.00000000000E+00 0. -1.
</event>
<event>
 5    1  0.9034713E-005  0.9118800E+02  0.7818608E-02  0.1130116E+00
         25   -1    0    0    0    0  0.00000000000E+00  0.00000000000E+00  0.99999998245E-14  0.12500000000E+03  0.12500000000E+03 0.  0.
        -13    1    3    3    0    0  0.33495257760E+02  0.31453274885E+02 -0.23632058037E+02  0.51669392531E+02  0.10566000000E+00 0. -1.
         23    2    1    0    0    0  0.10138577051E+02 -0.83195678095E+01 -0.23836277973E+02  0.97793859135E+02  0.93933299654E+02 0.  0.
         13    1    3    3    0    0 -0.23356680709E+02 -0.39772842694E+02 -0.20421993581E+00  0.46124466605E+02  0.10566000000E+00 0.  1.
         22    1    1    0    0    0 -0.10138577051E+02  0.83195678095E+01  0.23836277973E+02  0.27206140865E+02  0.00000000000E+00 0. -1.
</event>
<event>
 5    1  0.9034713E-005  0.9118800E+02  0.7818608E-02  0.1130116E+00
         25   -1    0    0    0    0  0.00000000000E+00  0.00000000000E+00  0.99999998245E-14  0.12500000000E+03  0.12500000000E+03 0.  0.
        -13    1    3    3    0    0 -0.36237795816E+02 -0.14562622723E+02 -0.11870816611E+00  0.39054744678E+02  0.10566000000E+00 0.  1.
         23    2    1    0    0    0  0.26706700809E+01  0.19622794437E+02  0.22023256893E+02  0.95382262336E+02  0.90667334713E+02 0.  0.
         13    1    3    3    0    0  0.38908465897E+02  0.34185417160E+02  0.22141965059E+02  0.56327517658E+02  0.10566000000E+00 0. -1.
         22    1    1    0    0    0 -0.26706700809E+01 -0.19622794437E+02 -0.22023256893E+02  0.29617737664E+02  0.00000000000E+00 0. -1.
</event>
<event>
 5    1  0.9034713E-005  0.9118800E+02  0.7818608E-02  0.1130116E+00
         25   -1    0    0    0    0  0.00000000000E+00  0.00000000000E+00  0.99999998245E-14  0.12500000000E+03  0.12500000000E+03 0.  0.
        -13    1    3    3    0    0 -0.30793919944E+02  0.26195910284E+02 -0.35774323731E+02  0.53984299787E+02  0.10566000000E+00 0.  1.
         23    2    1    0    0    0 -0.33689823921E+02  0.17907836134E+01 -0.31328906577E+02  0.78959674967E+02  0.64147632395E+02 0.  0.
         13    1    3    3    0    0 -0.28959039779E+01 -0.24405126671E+02  0.44454171538E+01  0.24975375180E+02  0.10566000000E+00 0. -1.
         22    1    1    0    0    0  0.33689823921E+02 -0.17907836134E+01  0.31328906577E+02  0.46040325033E+02  0.00000000000E+00 0.  1.
</event>
<event>
 5    1  0.9034713E-005  0.9118800E+02  0.7818608E-02  0.1130116E+00
         25   -1    0    0    0    0  0.00000000000E+00  0.00000000000E+00  0.99999998245E-14  0.12500000000E+03  0.12500000000E+03 0.  0.
        -13    1    3    3    0    0 -0.27921455837E+02  0.26718057588E+02  0.20464822307E+01  0.38699632438E+02  0.10566000000E+00 0.  1.
         23    2    1    0    0    0 -0.31551969193E+01 -0.10456952865E+02 -0.29603840152E+02  0.93445436423E+02  0.87956575114E+02 0.  0.
         13    1    3    3    0    0  0.24766258918E+02 -0.37175010453E+02 -0.31650322382E+02  0.54745803984E+02  0.10566000000E+00 0. -1.
         22    1    1    0    0    0  0.31551969193E+01  0.10456952865E+02  0.29603840152E+02  0.31554563577E+02  0.00000000000E+00 0. -1.
</event>
<event>
 5    1  0.9034713E-005  0.9118800E+02  0.7818608E-02  0.1130116E+00
         25   -1    0    0    0    0  0.00000000000E+00  0.00000000000E+00  0.99999998245E-14  0.12500000000E+03  0.12500000000E+03 0.  0.
        -13    1    3    3    0    0 -0.23710134163E+02 -0.18434392784E+02  0.63536366455E+01  0.30698162192E+02  0.10566000000E+00 0. -1.
         23    2    1    0    0    0  0.32499500924E+02  0.52829755055E+01  0.47944874191E+01  0.91726669838E+02  0.85479046903E+02 0.  0.
         13    1    3    3    0    0  0.56209635086E+02  0.23717368289E+02 -0.15591492264E+01  0.61028507646E+02  0.10566000000E+00 0.  1.
         22    1    1    0    0    0 -0.32499500924E+02 -0.52829755055E+01 -0.47944874191E+01  0.33273330162E+02  0.00000000000E+00 0.  1.
</event>
<event>
 5    1  0.9034713E-005  0.9118800E+02  0.7818608E-02  0.1130116E+00
         25   -1    0    0    0    0  0.00000000000E+00  0.00000000000E+00  0.99999998245E-14  0.12500000000E+03  0.12500000000E+03 0.  0.
        -13    1    3    3    0    0  0.40043686464E+02  0.24232224507E+02 -0.16772769496E+02  0.49719558433E+02  0.10566000000E+00 0.  1.
         23    2    1    0    0    0  0.21183128899E+02  0.29936737935E+01  0.19679355188E+02  0.95931734601E+02  0.91421735108E+02 0.  0.
         13    1    3    3    0    0 -0.18860557566E+02 -0.21238550713E+02  0.36452124684E+02  0.46212176167E+02  0.10566000000E+00 0. -1.
         22    1    1    0    0    0 -0.21183128899E+02 -0.29936737935E+01 -0.19679355188E+02  0.29068265399E+02  0.00000000000E+00 0. -1.
</event>
<event>
 5    1  0.9034713E-005  0.9118800E+02  0.7818608E-02  0.1130116E+00
         25   -1    0    0    0    0  0.00000000000E+00  0.00000000000E+00  0.99999998245E-14  0.12500000000E+03  0.12500000000E+03 0.  0.
        -13    1    3    3    0    0  0.10076773316E+02  0.57452007553E+02 -0.19625634402E+02  0.61542271830E+02  0.10566000000E+00 0. -1.
         23    2    1    0    0    0 -0.27889354128E+01  0.26418805074E+02 -0.11148572764E+02  0.96189895922E+02  0.91774037617E+02 0.  0.
         13    1    3    3    0    0 -0.12865708729E+02 -0.31033202478E+02  0.84770616379E+01  0.34647624092E+02  0.10566000000E+00 0.  1.
         22    1    1    0    0    0  0.27889354128E+01 -0.26418805074E+02  0.11148572764E+02  0.28810104078E+02  0.00000000000E+00 0. -1.
</event>
<event>
 5    1  0.9034713E-005  0.9118800E+02  0.7818608E-02  0.1130116E+00
         25   -1    0    0    0    0  0.00000000000E+00  0.00000000000E+00  0.99999998245E-14  0.12500000000E+03  0.12500000000E+03 0.  0.
        -13    1    3    3    0    0 -0.48730549115E+02 -0.21797312818E+02 -0.53595195599E+00  0.53386212374E+02  0.10566000000E+00 0.  1.
         23    2    1    0    0    0 -0.12403977435E+02 -0.21414956180E+02 -0.18679651511E+02  0.93993736359E+02  0.88732373403E+02 0.  0.
         13    1    3    3    0    0  0.36326571680E+02  0.38235663728E+00 -0.18143699555E+02  0.40607523985E+02  0.10566000000E+00 0. -1.
         22    1    1    0    0    0  0.12403977435E+02  0.21414956180E+02  0.18679651511E+02  0.31006263641E+02  0.00000000000E+00 0.  1.
</event>
<event>
 5    1  0.9034713E-005  0.9118800E+02  0.7818608E-02  0.1130116E+00
         25   -1    0    0    0    0  0.00000000000E+00  0.00000000000E+00  0.99999998245E-14  0.12500000000E+03  0.12500000000E+03 0.  0.
        -13    1    3    3    0    0  0.38014423847E+02 -0.14323750489E+02  0.41748803541E+02  0.58251523667E+02  0.10566000000E+00 0. -1.
         23    2    1    0    0    0  0.27635117384E+02 -0.26451538256E+01  0.69728593298E+01  0.96376280486E+02  0.92027550882E+02 0.  0.
         13    1    3    3    0    0 -0.10379306462E+02  0.11678596663E+02 -0.34775944211E+02  0.38124756818E+02  0.10566000000E+00 0.  1.
         22    1    1    0    0    0 -0.27635117384E+02  0.26451538256E+01 -0.69728593298E+01  0.28623719514E+02  0.00000000000E+00 0. -1.
</event>
<event>
 5    1  0.9034713E-005  0.9118800E+02  0.7818608E-02  0.1130116E+00
         25   -1    0    0    0    0  0.00000000000E+00  0.00000000000E+00  0.99999998245E-14  0.12500000000E+03  0.12500000000E+03 0.  0.
        -13    1    3    3    0    0 -0.17618086547E+02 -0.49976188007E+02  0.16397205324E+02  0.55469774181E+02  0.10566000000E+00 0. -1.
         23    2    1    0    0    0  0.12825628476E+02 -0.24455808908E+02  0.95452960593E+01  0.95781923198E+02  0.91216669527E+02 0.  0.
         13    1    3    3    0    0  0.30443715023E+02  0.25520379099E+02 -0.68519092644E+01  0.40312149017E+02  0.10566000000E+00 0.  1.
         22    1    1    0    0    0 -0.12825628476E+02  0.24455808908E+02 -0.95452960593E+01  0.29218076802E+02  0.00000000000E+00 0. -1.
</event>
<event>
 5    1  0.9034713E-005  0.9118800E+02  0.7818608E-02  0.1130116E+00
         25   -1    0    0    0    0  0.00000000000E+00  0.00000000000E+00  0.99999998245E-14  0.12500000000E+03  0.12500000000E+03 0.  0.
        -13    1    3    3    0    0 -0.31239435352E+02  0.14216115527E+02 -0.40831744072E+02  0.53340816921E+02  0.10566000000E+00 0.  1.
         23    2    1    0    0    0 -0.11284437115E+02 -0.17302552637E+02 -0.20806857326E+02  0.95680345150E+02  0.91077364298E+02 0.  0.
         13    1    3    3    0    0  0.19954998237E+02 -0.31518668164E+02  0.20024886746E+02  0.42339528229E+02  0.10566000000E+00 0. -1.
         22    1    1    0    0    0  0.11284437115E+02  0.17302552637E+02  0.20806857326E+02  0.29319654850E+02  0.00000000000E+00 0.  1.
</event>
<event>
 5    1  0.9034713E-005  0.9118800E+02  0.7818608E-02  0.1130116E+00
         25   -1    0    0    0    0  0.00000000000E+00  0.00000000000E+00  0.99999998245E-14  0.12500000000E+03  0.12500000000E+03 0.  0.
        -13    1    3    3    0    0 -0.30845309997E+02 -0.34275009337E+02  0.28970984515E+02  0.54456758273E+02  0.10566000000E+00 0. -1.
         23    2    1    0    0    0 -0.29278497198E+02 -0.73134797701E+01 -0.10057184744E+01  0.94805151861E+02  0.89868169922E+02 0.  0.
         13    1    3    3    0    0  0.15668127992E+01  0.26961529567E+02 -0.29976702989E+02  0.40348393587E+02  0.10566000000E+00 0.  1.
         22    1    1    0    0    0  0.29278497198E+02  0.73134797701E+01  0.10057184744E+01  0.30194848139E+02  0.00000000000E+00 0.  1.
</event>
<event>
 5    1  0.9034713E-005  0.9118800E+02  0.7818608E-02  0.1130116E+00
         25   -1    0    0    0    0  0.00000000000E+00  0.00000000000E+00  0.99999998245E-14  0.12500000000E+03  0.12500000000E+03 0.  0.
        -13    1    3    3    0    0  0.32909668911E+02  0.47368433154E+02 -0.66558570136E+01  0.58061401670E+02  0.10566000000E+00 0. -1.
         23    2    1    0    0    0  0.19629620476E+02  0.13771486951E+02 -0.16961129465E+02  0.95628997879E+02  0.91006864959E+02 0.  0.
         13    1    3    3    0    0 -0.13280048435E+02 -0.33596946202E+02 -0.10305272451E+02  0.37567596208E+02  0.10566000000E+00 0.  1.
         22    1    1    0    0    0 -0.19629620476E+02 -0.13771486951E+02  0.16961129465E+02  0.29371002121E+02  0.00000000000E+00 0. -1.
</event>
<event>
 5    1  0.9034713E-005  0.9118800E+02  0.7818608E-02  0.1130116E+00
         25   -1    0    0    0    0  0.00000000000E+00  0.00000000000E+00  0.99999998245E-14  0.12500000000E+03  0.12500000000E+03 0.  0.
        -13    1    3    3    0    0  0.16959327984E+02 -0.16326890013E+02  0.22586044617E+02  0.32624020578E+02  0.10566000000E+00 0. -1.
         23    2    1    0    0    0 -0.24516022584E+02  0.18330636106E+02  0.23058725846E+02  0.86675694122E+02  0.77742675093E+02 0.  0.
         13    1    3    3    0    0 -0.41475350568E+02  0.34657526119E+02  0.47268122909E+00  0.54051673544E+02  0.10566000000E+00 0.  1.
         22    1    1    0    0    0  0.24516022584E+02 -0.18330636106E+02 -0.23058725846E+02  0.38324305878E+02  0.00000000000E+00 0.  1.
</event>
<event>
 5    1  0.9034713E-005  0.9118800E+02  0.7818608E-02  0.1130116E+00
         25   -1    0    0    0    0  0.00000000000E+00  0.00000000000E+00  0.99999998245E-14  0.12500000000E+03  0.12500000000E+03 0.  0.
        -13    1    3    3    0    0  0.17845955513E+02  0.40962170723E+02 -0.20096613464E+02  0.48992474884E+02  0.10566000000E+00 0.  1.
         23    2    1    0    0    0 -0.20249347137E+02  0.19501497391E+02 -0.15337908130E+02  0.92975073993E+02  0.87285557214E+02 0.  0.
         13    1    3    3    0    0 -0.38095302650E+02 -0.21460673332E+02  0.47587053335E+01  0.43982599109E+02  0.10566000000E+00 0. -1.
         22    1    1    0    0    0  0.20249347137E+02 -0.19501497391E+02  0.15337908130E+02  0.32024926007E+02  0.00000000000E+00 0.  1.
</event>
<event>
 5    1  0.9034713E-005  0.9118800E+02  0.7818608E-02  0.1130116E+00
         25   -1    0    0    0    0  0.00000000000E+00  0.00000000000E+00  0.99999998245E-14  0.12500000000E+03  0.12500000000E+03 0.  0.
        -13    1    3    3    0    0  0.25245397195E+02 -0.19137853387E+02 -0.13166404315E+02  0.34306746835E+02  0.10566000000E+00 0.  1.
         23    2    1    0    0    0 -0.12147992323E+02  0.25313925544E+02  0.74593839834E+01  0.95948133393E+02  0.91444154259E+02 0.  0.
         13    1    3    3    0    0 -0.37393389518E+02  0.44451778931E+02  0.20625788298E+02  0.61641386558E+02  0.10566000000E+00 0. -1.
         22    1    1    0    0    0  0.12147992323E+02 -0.25313925544E+02 -0.74593839834E+01  0.29051866607E+02  0.00000000000E+00 0. -1.
</event>
<event>
 5    1  0.9034713E-005  0.9118800E+02  0.7818608E-02  0.1130116E+00
         25   -1    0    0    0    0  0.00000000000E+00  0.00000000000E+00  0.99999998245E-14  0.12500000000E+03  0.12500000000E+03 0.  0.
        -13    1    3    3    0    0 -0.15435258064E+02  0.14429135957E+02 -0.41830068710E+02  0.46863770316E+02  0.10566000000E+00 0.  1.
         23    2    1    0    0    0 -0.34689680070E+02  0.21132622186E+02 -0.12659245065E+02  0.82453341971E+02  0.70628149435E+02 0.  0.
         13    1    3    3    0    0 -0.19254422006E+02  0.67034862296E+01  0.29170823644E+02  0.35589571654E+02  0.10566000000E+00 0. -1.
         22    1    1    0    0    0  0.34689680070E+02 -0.21132622186E+02  0.12659245065E+02  0.42546658029E+02  0.00000000000E+00 0. -1.
</event>
<event>
 5    1  0.9034713E-005  0.9118800E+02  0.7818608E-02  0.1130116E+00
         25   -1    0    0    0    0  0.00000000000E+00  0.00000000000E+00  0.99999998245E-14  0.12500000000E+03  0.12500000000E+03 0.  0.
        -13    1    3    3    0    0 -0.28680264687E+02  0.23392344495E+02 -0.22697879131E+01  0.37079946935E+02  0.10566000000E+00 0.  1.
         23    2    1    0    0    0 -0.93047728064E+01 -0.17961511389E+02  0.26955277300E+02  0.91298640047E+02  0.84850810319E+02 0.  0.
         13    1    3    3    0    0  0.19375491880E+02 -0.41353855884E+02  0.29225065213E+02  0.54218693112E+02  0.10566000000E+00 0. -1.
         22    1    1    0    0    0  0.93047728064E+01  0.17961511389E+02 -0.26955277300E+02  0.33701359953E+02  0.00000000000E+00 0.  1.
</event>
<event>
 5    1  0.9034713E-005  0.9118800E+02  0.7818608E-02  0.1130116E+00
         25   -1    0    0    0    0  0.00000000000E+00  0.00000000000E+00  0.99999998245E-14  0.12500000000E+03  0.12500000000E+03 0.  0.
        -13    1    3    3    0    0 -0.14665201553E+02  0.27543461992E+02 -0.22009279724E+02  0.38185468350E+02  0.10566000000E+00 0. -1.
         23    2    1    0    0    0 -0.27756369840E+01  0.78331298741E+01  0.29365385739E+02  0.94481350556E+02  0.89416651911E+02 0.  0.
         13    1    3    3    0    0  0.11889564569E+02 -0.19710332118E+02  0.51374665463E+02  0.56295882206E+02  0.10566000000E+00 0.  1.
         22    1    1    0    0    0  0.27756369840E+01 -0.78331298741E+01 -0.29365385739E+02  0.30518649444E+02  0.00000000000E+00 0.  1.
</event>
<event>
 5    1  0.9034713E-005  0.9118800E+02  0.7818608E-02  0.1130116E+00
         25   -1    0    0    0    0  0.00000000000E+00  0.00000000000E+00  0.99999998245E-14  0.12500000000E+03  0.12500000000E+03 0.  0.
        -13    1    3    3    0    0  0.19092181881E+02 -0.27700553069E+02 -0.49814420253E+01  0.34009674771E+02  0.10566000000E+00 0. -1.
         23    2    1    0    0    0  0.36343130026E+02 -0.50540724146E+01  0.28920884014E+02  0.78279723030E+02  0.62808683774E+02 0.  0.
         13    1    3    3    0    0  0.17250948145E+02  0.22646480655E+02  0.33902326039E+02  0.44270048259E+02  0.10566000000E+00 0.  1.
         22    1    1    0    0    0 -0.36343130026E+02  0.50540724146E+01 -0.28920884014E+02  0.46720276970E+02  0.00000000000E+00 0.  1.
</event>
<event>
 5    1  0.9034713E-005  0.9118800E+02  0.7818608E-02  0.1130116E+00
         25   -1    0    0    0    0  0.00000000000E+00  0.00000000000E+00  0.99999998245E-14  0.12500000000E+03  0.12500000000E+03 0.  0.
        -13    1    3    3    0    0  0.41323849814E+02  0.22124211837E+02  0.15280666786E+02  0.49301635412E+02  0.10566000000E+00 0. -1.
         23    2    1    0    0    0 -0.68288827947E+01  0.20497154174E+02  0.16994114259E+02  0.97512423007E+02  0.93558034139E+02 0.  0.
         13    1    3    3    0    0 -0.48152732608E+02 -0.16270576630E+01  0.17134474726E+01  0.48210787595E+02  0.10566000000E+00 0.  1.
         22    1    1    0    0    0  0.68288827947E+01 -0.20497154174E+02 -0.16994114259E+02  0.27487576993E+02  0.00000000000E+00 0.  1.
</event>
<event>
 5    1  0.9034713E-005  0.9118800E+02  0.7818608E-02  0.1130116E+00
         25   -1    0    0    0    0  0.00000000000E+00  0.00000000000E+00  0.99999998245E-14  0.12500000000E+03  0.12500000000E+03 0.  0.
        -13    1    3    3    0    0  0.32687133043E+01  0.24134005265E+02 -0.28257803721E+02  0.37304816471E+02  0.10566000000E+00 0. -1.
         23    2    1    0    0    0 -0.47876165714E+01 -0.28605121927E+02 -0.47281622462E+01  0.95614122590E+02  0.90986431118E+02 0.  0.
         13    1    3    3    0    0 -0.80563298756E+01 -0.52739127192E+02  0.23529641475E+02  0.58309306119E+02  0.10566000000E+00 0.  1.
         22    1    1    0    0    0  0.47876165714E+01  0.28605121927E+02  0.47281622462E+01  0.29385877410E+02  0.00000000000E+00 0.  1.
</event>
<event>
 5    1  0.9034713E-005  0.9118800E+02  0.7818608E-02  0.1130116E+00
         25   -1    0    0    0    0  0.00000000000E+00  0.00000000000E+00  0.99999998245E-14  0.12500000000E+03  0.12500000000E+03 0.  0.
        -13    1    3    3    0    0  0.19334280038E+02 -0.72220451206E+01 -0.38450025056E+02  0.43639293202E+02  0.10566000000E+00 0.  1.
         23    2    1    0    0    0 -0.13658326925E+02 -0.17853008991E+02  0.75948091339E+01  0.10127320185E+03  0.98454560401E+02 0.  0.
         13    1    3    3    0    0 -0.32992606963E+02 -0.10630963871E+02  0.46044834190E+02  0.57633908653E+02  0.10566000000E+00 0. -1.
         22    1    1    0    0    0  0.13658326925E+02  0.17853008991E+02 -0.75948091339E+01  0.23726798145E+02  0.00000000000E+00 0. -1.
</event>
<event>
 5    1  0.9034713E-005  0.9118800E+02  0.7818608E-02  0.1130116E+00
         25   -1    0    0    0    0  0.00000000000E+00  0.00000000000E+00  0.99999998245E-14  0.12500000000E+03  0.12500000000E+03 0.  0.
        -13    1    3    3    0    0  0.17904124112E+02  0.24521565300E+02  0.10621983426E+02  0.32166792208E+02  0.10566000000E+00 0.  1.
         23    2    1    0    0    0 -0.21497081165E+02 -0.95583897896E+01 -0.21299584031E+02  0.93264222179E+02  0.87698663301E+02 0.  0.
         13    1    3    3    0    0 -0.39401205276E+02 -0.34079955090E+02 -0.31921567457E+02  0.61097429972E+02  0.10566000000E+00 0. -1.
         22    1    1    0    0    0  0.21497081165E+02  0.95583897896E+01  0.21299584031E+02  0.31735777821E+02  0.00000000000E+00 0. -1.
</event>
<event>
 5    1  0.9034713E-005  0.9118800E+02  0.7818608E-02  0.1130116E+00
         25   -1    0    0    0    0  0.00000000000E+00  0.00000000000E+00  0.99999998245E-14  0.12500000000E+03  0.12500000000E+03 0.  0.
        -13    1    3    3    0    0 -0.37512059366E+02 -0.27233008556E+02 -0.37449775865E+02  0.59592686038E+02  0.10566000000E+00 0. -1.
         23    2    1    0    0    0 -0.14428227847E+02 -0.29090876972E+00 -0.22885110077E+02  0.97944748200E+02  0.94133878333E+02 0.  0.
         13    1    3    3    0    0  0.23083831519E+02  0.26942099787E+02  0.14564665787E+02  0.38352062162E+02  0.10566000000E+00 0.  1.
         22    1    1    0    0    0  0.14428227847E+02  0.29090876972E+00  0.22885110077E+02  0.27055251800E+02  0.00000000000E+00 0. -1.
</event>
<event>
 5    1  0.9034713E-005  0.9118800E+02  0.7818608E-02  0.1130116E+00
         25   -1    0    0    0    0  0.00000000000E+00  0.00000000000E+00  0.99999998245E-14  0.12500000000E+03  0.12500000000E+03 0.  0.
        -13    1    3    3    0    0  0.35878733803E+01  0.22102178811E+02  0.22187436436E+02  0.31522573550E+02  0.10566000000E+00 0.  1.
         23    2    1    0    0    0 -0.33246607735E+02 -0.16529571684E+02  0.12844742530E+02  0.85711947406E+02  0.76177338175E+02 0.  0.
         13    1    3    3    0    0 -0.36834481116E+02 -0.38631750495E+02 -0.93426939060E+01  0.54189373855E+02  0.10566000000E+00 0. -1.
         22    1    1    0    0    0  0.33246607735E+02  0.16529571684E+02 -0.12844742530E+02  0.39288052594E+02  0.00000000000E+00 0. -1.
</event>
<event>
 5    1  0.9034713E-005  0.9118800E+02  0.7818608E-02  0.1130116E+00
         25   -1    0    0    0    0  0.00000000000E+00  0.00000000000E+00  0.99999998245E-14  0.12500000000E+03  0.12500000000E+03 0.  0.
        -13    1    3    3    0    0  0.70258317377E+01 -0.40638154034E+02 -0.20489057865E+02  0.46050347785E+02  0.10566000000E+00 0.  1.
         23    2    1    0    0    0 -0.14174221475E+02 -0.17830903623E+02  0.18292422166E+02  0.95785921422E+02  0.91222148383E+02 0.  0.
         13    1    3    3    0    0 -0.21200053213E+02  0.22807250411E+02  0.38781480031E+02  0.49735573637E+02  0.10566000000E+00 0. -1.
         22    1    1    0    0    0  0.14174221475E+02  0.17830903623E+02 -0.18292422166E+02  0.29214078578E+02  0.00000000000E+00 0. -1.
</event>
<event>
 5    1  0.9034713E-005  0.9118800E+02  0.7818608E-02  0.1130116E+00
         25   -1    0    0    0    0  0.00000000000E+00  0.00000000000E+00  0.99999998245E-14  0.12500000000E+03  0.12500000000E+03 0.  0.
        -13    1    3    3    0    0  0.20152374645E+02  0.42924883929E+02 -0.40109587129E+02  0.62108405291E+02  0.10566000000E+00 0.  1.
         23    2    1    0    0    0  0.13381298116E+02  0.17228724764E+02 -0.19551442553E+02  0.95705853790E+02  0.91112367149E+02 0.  0.
         13    1    3    3    0    0 -0.67710765288E+01 -0.25696159164E+02  0.20558144577E+02  0.33597448499E+02  0.10566000000E+00 0. -1.
         22    1    1    0    0    0 -0.13381298116E+02 -0.17228724764E+02  0.19551442553E+02  0.29294146210E+02  0.00000000000E+00 0.  1.
</event>
<event>
 5    1  0.9034713E-005  0.9118800E+02  0.7818608E-02  0.1130116E+00
         25   -1    0    0    0    0  0.00000000000E+00  0.00000000000E+00  0.99999998245E-14  0.12500000000E+03  0.12500000000E+03 0.  0.
        -13    1    3    3    0    0  0.52678744317E+01 -0.32360597951E+02  0.21084437688E+02  0.38981065628E+02  0.10566000000E+00 0. -1.
         23    2    1    0    0    0  0.12787096925E+02  0.23436563768E+02  0.10727740089E+02  0.96227325872E+02  0.91825004591E+02 0.  0.
         13    1    3    3    0    0  0.75192224936E+01  0.55797161719E+02 -0.10356697599E+02  0.57246260245E+02  0.10566000000E+00 0.  1.
         22    1    1    0    0    0 -0.12787096925E+02 -0.23436563768E+02 -0.10727740089E+02  0.28772674128E+02  0.00000000000E+00 0. -1.
</event>
<event>
 5    1  0.9034713E-005  0.9118800E+02  0.7818608E-02  0.1130116E+00
         25   -1    0    0    0    0  0.00000000000E+00  0.00000000000E+00  0.99999998245E-14  0.12500000000E+03  0.12500000000E+03 0.  0.
        -13    1    3    3    0    0 -0.30906873723E+02  0.21262548387E+02 -0.36314678837E+02  0.52212047176E+02  0.10566000000E+00 0.  1.
         23    2    1    0    0    0 -0.28840792848E+02 -0.65316930888E+01 -0.35670338643E+01  0.95214465302E+02  0.90435702714E+02 0.  0.
         13    1    3    3    0    0  0.20660808755E+01 -0.27794241476E+02  0.32747644972E+02  0.43002418126E+02  0.10566000000E+00 0. -1.
         22    1    1    0    0    0  0.28840792848E+02  0.65316930888E+01  0.35670338643E+01  0.29785534698E+02  0.00000000000E+00 0.  1.
</event>
<event>
 5    1  0.9034713E-005  0.9118800E+02  0.7818608E-02  0.1130116E+00
         25   -1    0    0    0    0  0.00000000000E+00  0.00000000000E+00  0.99999998245E-14  0.12500000000E+03  0.12500000000E+03 0.  0.
        -13    1    3    3    0    0  0.36831979129E+02 -0.29851495150E+02 -0.70451534004E+00  0.47415334599E+02  0.10566000000E+00 0.  1.
         23    2    1    0    0    0  0.16964785890E+02  0.76897775985E+01  0.22480623349E+02  0.95805564469E+02  0.91249060911E+02 0.  0.
         13    1    3    3    0    0 -0.19867193239E+02  0.37541272749E+02  0.23185138689E+02  0.48390229870E+02  0.10566000000E+00 0. -1.
         22    1    1    0    0    0 -0.16964785890E+02 -0.76897775985E+01 -0.22480623349E+02  0.29194435531E+02  0.00000000000E+00 0. -1.
</event>
<event>
 5    1  0.9034713E-005  0.9118800E+02  0.7818608E-02  0.1130116E+00
         25   -1    0    0    0    0  0.00000000000E+00  0.00000000000E+00  0.99999998245E-14  0.12500000000E+03  0.12500000000E+03 0.  0.
        -13    1    3    3    0    0  0.41656609453E+02  0.10936055112E+02  0.29098187981E+02  0.51976784436E+02  0.10566000000E+00 0.  1.
         23    2    1    0    0    0 -0.16250981692E+01  0.87832175943E+01  0.28304637655E+02  0.95319394073E+02  0.90580618889E+02 0.  0.
         13    1    3    3    0    0 -0.43281707622E+02 -0.21528375177E+01 -0.79355032524E+00  0.43342609638E+02  0.10566000000E+00 0. -1.
         22    1    1    0    0    0  0.16250981692E+01 -0.87832175943E+01 -0.28304637655E+02  0.29680605927E+02  0.00000000000E+00 0.  1.
</event>
<event>
 5    1  0.9034713E-005  0.9118800E+02  0.7818608E-02  0.1130116E+00
         25   -1    0    0    0    0  0.00000000000E+00  0.00000000000E+00  0.99999998245E-14  0.12500000000E+03  0.12500000000E+03 0.  0.
        -13    1    3    3    0    0  0.25106785820E+01 -0.35625816115E+02  0.10895745987E+01  0.35730947618E+02  0.10566000000E+00 0. -1.
         23    2    1    0    0    0 -0.22101444442E+02  0.18257555083E+02  0.76447684909E+01  0.95330914249E+02  0.90596515177E+02 0.  0.
         13    1    3    3    0    0 -0.24612123024E+02  0.53883371199E+02  0.65551938922E+01  0.59599966631E+02  0.10566000000E+00 0.  1.
         22    1    1    0    0    0  0.22101444442E+02 -0.18257555083E+02 -0.76447684909E+01  0.29669085751E+02  0.00000000000E+00 0.  1.
</event>
<event>
 5    1  0.9034713E-005  0.9118800E+02  0.7818608E-02  0.1130116E+00
         25   -1    0    0    0    0  0.00000000000E+00  0.00000000000E+00  0.99999998245E-14  0.12500000000E+03  0.12500000000E+03 0.  0.
        -13    1    3    3    0    0 -0.30609868338E+02  0.92409314227E+01  0.11595266255E+02  0.34012059873E+02  0.10566000000E+00 0.  1.
         23    2    1    0    0    0  0.27998417123E+02  0.43533258356E+01 -0.72190333907E+01  0.95760005979E+02  0.91186630022E+02 0.  0.
         13    1    3    3    0    0  0.58608285462E+02 -0.48876055871E+01 -0.18814299646E+02  0.61747946106E+02  0.10566000000E+00 0. -1.
         22    1    1    0    0    0 -0.27998417123E+02 -0.43533258356E+01  0.72190333907E+01  0.29239994021E+02  0.00000000000E+00 0. -1.
</event>
<event>
 5    1  0.9034713E-005  0.9118800E+02  0.7818608E-02  0.1130116E+00
         25   -1    0    0    0    0  0.00000000000E+00  0.00000000000E+00  0.99999998245E-14  0.12500000000E+03  0.12500000000E+03 0.  0.
        -13    1    3    3    0    0  0.43695610807E+02  0.32388477920E+02  0.29910482975E+02  0.62072280944E+02  0.10566000000E+00 0.  1.
         23    2    1    0    0    0  0.16755235794E+02  0.16875654316E+02  0.17166104620E+02  0.95670820282E+02  0.91064290864E+02 0.  0.
         13    1    3    3    0    0 -0.26940375012E+02 -0.15512823604E+02 -0.12744378355E+02  0.33598539338E+02  0.10566000000E+00 0. -1.
         22    1    1    0    0    0 -0.16755235794E+02 -0.16875654316E+02 -0.17166104620E+02  0.29329179718E+02  0.00000000000E+00 0.  1.
</event>
<event>
 5    1  0.9034713E-005  0.9118800E+02  0.7818608E-02  0.1130116E+00
         25   -1    0    0    0    0  0.00000000000E+00  0.00000000000E+00  0.99999998245E-14  0.12500000000E+03  0.12500000000E+03 0.  0.
        -13    1    3    3    0    0 -0.58628750276E+02  0.51092664653E+01 -0.96601647503E-01  0.58851129630E+02  0.10566000000E+00 0.  1.
         23    2    1    0    0    0 -0.27846228608E+02  0.22604770414E+00  0.14875933930E+02  0.93428542074E+02  0.87932562333E+02 0.  0.
         13    1    3    3    0    0  0.30782521668E+02 -0.48832187612E+01  0.14972535578E+02  0.34577412445E+02  0.10566000000E+00 0. -1.
         22    1    1    0    0    0  0.27846228608E+02 -0.22604770414E+00 -0.14875933930E+02  0.31571457926E+02  0.00000000000E+00 0.  1.
</event>
<event>
 5    1  0.9034713E-005  0.9118800E+02  0.7818608E-02  0.1130116E+00
         25   -1    0    0    0    0  0.00000000000E+00  0.00000000000E+00  0.99999998245E-14  0.12500000000E+03  0.12500000000E+03 0.  0.
        -13    1    3    3    0    0 -0.35411464896E+02  0.98479140403E+01 -0.29360912552E+02  0.47042827369E+02  0.10566000000E+00 0. -1.
         23    2    1    0    0    0  0.81158949206E+01  0.83434656194E+01 -0.32271620074E+02  0.90693460812E+02  0.83954542479E+02 0.  0.
         13    1    3    3    0    0  0.43527359816E+02 -0.15044484209E+01 -0.29107075220E+01  0.43650633443E+02  0.10566000000E+00 0.  1.
         22    1    1    0    0    0 -0.81158949206E+01 -0.83434656194E+01  0.32271620074E+02  0.34306539188E+02  0.00000000000E+00 0. -1.
</event>
<event>
 5    1  0.9034713E-005  0.9118800E+02  0.7818608E-02  0.1130116E+00
         25   -1    0    0    0    0  0.00000000000E+00  0.00000000000E+00  0.99999998245E-14  0.12500000000E+03  0.12500000000E+03 0.  0.
        -13    1    3    3    0    0  0.41959983817E+02  0.11737611645E+02  0.32972783933E+02  0.54640895064E+02  0.10566000000E+00 0.  1.
         23    2    1    0    0    0  0.19187122474E+01  0.20880118488E+02  0.13184796801E+02  0.10023107448E+03  0.97122441381E+02 0.  0.
         13    1    3    3    0    0 -0.40041271570E+02  0.91425068431E+01 -0.19787987132E+02  0.45590179415E+02  0.10566000000E+00 0. -1.
         22    1    1    0    0    0 -0.19187122474E+01 -0.20880118488E+02 -0.13184796801E+02  0.24768925521E+02  0.00000000000E+00 0.  1.
</event>
<event>
 5    1  0.9034713E-005  0.9118800E+02  0.7818608E-02  0.1130116E+00
         25   -1    0    0    0    0  0.00000000000E+00  0.00000000000E+00  0.99999998245E-14  0.12500000000E+03  0.12500000000E+03 0.  0.
        -13    1    3    3    0    0  0.45434922521E+02 -0.67115784403E+01 -0.51131384345E+01  0.46211825524E+02  0.10566000000E+00 0. -1.
         23    2    1    0    0    0  0.51741366604E+01 -0.28226314245E+02  0.10478616559E+02  0.94450075106E+02  0.89372919704E+02 0.  0.
         13    1    3    3    0    0 -0.40260785860E+02 -0.21514735805E+02  0.15591754994E+02  0.48238249581E+02  0.10566000000E+00 0.  1.
         22    1    1    0    0    0 -0.51741366604E+01  0.28226314245E+02 -0.10478616559E+02  0.30549924894E+02  0.00000000000E+00 0.  1.
</event>
<event>
 5    1  0.9034713E-005  0.9118800E+02  0.7818608E-02  0.1130116E+00
         25   -1    0    0    0    0  0.00000000000E+00  0.00000000000E+00  0.99999998245E-14  0.12500000000E+03  0.12500000000E+03 0.  0.
        -13    1    3    3    0    0 -0.28210238111E+02 -0.17921328642E+02  0.27524738458E+02  0.43296812190E+02  0.10566000000E+00 0.  1.
         23    2    1    0    0    0  0.14523559140E+02 -0.25956694338E+02 -0.89431962436E+00  0.95242924226E+02  0.90475030016E+02 0.  0.
         13    1    3    3    0    0  0.42733797251E+02 -0.80353656956E+01 -0.28419058082E+02  0.51946112036E+02  0.10566000000E+00 0. -1.
         22    1    1    0    0    0 -0.14523559140E+02  0.25956694338E+02  0.89431962436E+00  0.29757075774E+02  0.00000000000E+00 0.  1.
</event>
<event>
 5    1  0.9034713E-005  0.9118800E+02  0.7818608E-02  0.1130116E+00
         25   -1    0    0    0    0  0.00000000000E+00  0.00000000000E+00  0.99999998245E-14  0.12500000000E+03  0.12500000000E+03 0.  0.
        -13    1    3    3    0    0 -0.23854023103E+02 -0.27218920219E+02 -0.44871730653E+02  0.57648654901E+02  0.10566000000E+00 0.  1.
         23    2    1    0    0    0 -0.67285323904E+01  0.22020216270E+01 -0.28888778579E+02  0.95256369166E+02  0.90493603595E+02 0.  0.
         13    1    3    3    0    0  0.17125490713E+02  0.29420941846E+02  0.15982952073E+02  0.37607714265E+02  0.10566000000E+00 0. -1.
         22    1    1    0    0    0  0.67285323904E+01 -0.22020216270E+01  0.28888778579E+02  0.29743630834E+02  0.00000000000E+00 0.  1.
</event>
<event>
 5    1  0.9034713E-005  0.9118800E+02  0.7818608E-02  0.1130116E+00
         25   -1    0    0    0    0  0.00000000000E+00  0.00000000000E+00  0.99999998245E-14  0.12500000000E+03  0.12500000000E+03 0.  0.
        -13    1    3    3    0    0  0.53168085862E+01  0.33223572199E+02  0.34294419461E+02  0.48043652790E+02  0.10566000000E+00 0.  1.
         23    2    1    0    0    0 -0.25852839975E+02  0.44912437317E+01  0.98945703530E+01  0.96956406659E+02  0.92812184893E+02 0.  0.
         13    1    3    3    0    0 -0.31169648561E+02 -0.28732328467E+02 -0.24399849108E+02  0.48912753869E+02  0.10566000000E+00 0. -1.
         22    1    1    0    0    0  0.25852839975E+02 -0.44912437317E+01 -0.98945703530E+01  0.28043593341E+02  0.00000000000E+00 0.  1.
</event>
<event>
 5    1  0.9034713E-005  0.9118800E+02  0.7818608E-02  0.1130116E+00
         25   -1    0    0    0    0  0.00000000000E+00  0.00000000000E+00  0.99999998245E-14  0.12500000000E+03  0.12500000000E+03 0.  0.
        -13    1    3    3    0    0 -0.17070558300E+02 -0.57866236887E+01 -0.33907232020E+02  0.38400527623E+02  0.10566000000E+00 0.  1.
         23    2    1    0    0    0 -0.21193034903E+02  0.98448301843E+01  0.19727273389E+02  0.94418457771E+02  0.89328687680E+02 0.  0.
         13    1    3    3    0    0 -0.41224766023E+01  0.15631453873E+02  0.53634505410E+02  0.56017930148E+02  0.10566000000E+00 0. -1.
         22    1    1    0    0    0  0.21193034903E+02 -0.98448301843E+01 -0.19727273389E+02  0.30581542229E+02  0.00000000000E+00 0. -1.
</event>
<event>
 5    1  0.9034713E-005  0.9118800E+02  0.7818608E-02  0.1130116E+00
         25   -1    0    0    0    0  0.00000000000E+00  0.00000000000E+00  0.99999998245E-14  0.12500000000E+03  0.12500000000E+03 0.  0.
        -13    1    3    3    0    0  0.23209540370E+02 -0.28747428808E+02  0.19761519155E+01  0.37000186050E+02  0.10566000000E+00 0.  1.
         23    2    1    0    0    0  0.17454442467E+01  0.22314294710E+02 -0.18406533352E+02  0.96021131940E+02  0.91543885568E+02 0.  0.
         13    1    3    3    0    0 -0.21464096123E+02  0.51061723518E+02 -0.20382685267E+02  0.59020945890E+02  0.10566000000E+00 0. -1.
         22    1    1    0    0    0 -0.17454442467E+01 -0.22314294710E+02  0.18406533352E+02  0.28978868060E+02  0.00000000000E+00 0. -1.
</event>
<event>
 5    1  0.9034713E-005  0.9118800E+02  0.7818608E-02  0.1130116E+00
         25   -1    0    0    0    0  0.00000000000E+00  0.00000000000E+00  0.99999998245E-14  0.12500000000E+03  0.12500000000E+03 0.  0.
        -13    1    3    3    0    0 -0.94356259363E+01  0.13610493029E+02  0.55462951062E+02  0.57882870194E+02  0.10566000000E+00 0.  1.
         23    2    1    0    0    0 -0.19896257117E+02  0.11204865970E+02  0.21005617523E+02  0.93973462388E+02  0.88703808244E+02 0.  0.
         13    1    3    3    0    0 -0.10460631181E+02 -0.24056270587E+01 -0.34457333539E+02  0.36090592194E+02  0.10566000000E+00 0. -1.
         22    1    1    0    0    0  0.19896257117E+02 -0.11204865970E+02 -0.21005617523E+02  0.31026537612E+02  0.00000000000E+00 0.  1.
</event>
<event>
 5    1  0.9034713E-005  0.9118800E+02  0.7818608E-02  0.1130116E+00
         25   -1    0    0    0    0  0.00000000000E+00  0.00000000000E+00  0.99999998245E-14  0.12500000000E+03  0.12500000000E+03 0.  0.
        -13    1    3    3    0    0 -0.48860339109E+02  0.16614516858E+02 -0.25723822858E+02  0.57663689916E+02  0.10566000000E+00 0.  1.
         23    2    1    0    0    0 -0.12837730890E+02  0.20637048392E+02 -0.18082132767E+02  0.94707119217E+02  0.89731710138E+02 0.  0.
         13    1    3    3    0    0  0.36022608220E+02  0.40225315343E+01  0.76416900914E+01  0.37043429301E+02  0.10566000000E+00 0. -1.
         22    1    1    0    0    0  0.12837730890E+02 -0.20637048392E+02  0.18082132767E+02  0.30292880783E+02  0.00000000000E+00 0.  1.
</event>
<event>
 5    1  0.9034713E-005  0.9118800E+02  0.7818608E-02  0.1130116E+00
         25   -1    0    0    0    0  0.00000000000E+00  0.00000000000E+00  0.99999998245E-14  0.12500000000E+03  0.12500000000E+03 0.  0.
        -13    1    3    3    0    0  0.36698878728E+02  0.18656737616E+02 -0.29285344760E+02  0.50522511222E+02  0.10566000000E+00 0.  1.
         23    2    1    0    0    0 -0.18118181922E+01 -0.31398691321E+01 -0.30002174385E+02  0.94779610672E+02  0.89832636987E+02 0.  0.
         13    1    3    3    0    0 -0.38510696920E+02 -0.21796606748E+02 -0.71682962442E+00  0.44257099450E+02  0.10566000000E+00 0. -1.
         22    1    1    0    0    0  0.18118181922E+01  0.31398691321E+01  0.30002174385E+02  0.30220389328E+02  0.00000000000E+00 0.  1.
</event>
<event>
 5    1  0.9034713E-005  0.9118800E+02  0.7818608E-02  0.1130116E+00
         25   -1    0    0    0    0  0.00000000000E+00  0.00000000000E+00  0.99999998245E-14  0.12500000000E+03  0.12500000000E+03 0.  0.
        -13    1    3    3    0    0 -0.23000285965E+02  0.24550910217E+02 -0.21914582923E+02  0.40149974541E+02  0.10566000000E+00 0. -1.
         23    2    1    0    0    0  0.40580953625E+01 -0.24717307887E+02 -0.11993604490E+02  0.97228431881E+02  0.93177829821E+02 0.  0.
         13    1    3    3    0    0  0.27058381328E+02 -0.49268218103E+02  0.99209784329E+01  0.57078457340E+02  0.10566000000E+00 0.  1.
         22    1    1    0    0    0 -0.40580953625E+01  0.24717307887E+02  0.11993604490E+02  0.27771568119E+02  0.00000000000E+00 0.  1.
</event>
<event>
 5    1  0.9034713E-005  0.9118800E+02  0.7818608E-02  0.1130116E+00
         25   -1    0    0    0    0  0.00000000000E+00  0.00000000000E+00  0.99999998245E-14  0.12500000000E+03  0.12500000000E+03 0.  0.
        -13    1    3    3    0    0 -0.75041885327E+01  0.36207585615E+02  0.11571888408E+01  0.36995301751E+02  0.10566000000E+00 0. -1.
         23    2    1    0    0    0  0.13843098736E+02 -0.19835734379E+02  0.12095027509E+02  0.97956009329E+02  0.94148830753E+02 0.  0.
         13    1    3    3    0    0  0.21347287269E+02 -0.56043319994E+02  0.10937838668E+02  0.60960707578E+02  0.10566000000E+00 0.  1.
         22    1    1    0    0    0 -0.13843098736E+02  0.19835734379E+02 -0.12095027509E+02  0.27043990671E+02  0.00000000000E+00 0.  1.
</event>
<event>
 5    1  0.9034713E-005  0.9118800E+02  0.7818608E-02  0.1130116E+00
         25   -1    0    0    0    0  0.00000000000E+00  0.00000000000E+00  0.99999998245E-14  0.12500000000E+03  0.12500000000E+03 0.  0.
        -13    1    3    3    0    0  0.11050195363E+02 -0.11595963212E+02  0.58403838674E+02  0.60560653203E+02  0.10566000000E+00 0.  1.
         23    2    1    0    0    0 -0.18555070168E+01  0.31424709750E+01  0.28221825184E+02  0.96543200341E+02  0.92253997665E+02 0.  0.
         13    1    3    3    0    0 -0.12905702380E+02  0.14738434187E+02 -0.30182013490E+02  0.35982547138E+02  0.10566000000E+00 0. -1.
         22    1    1    0    0    0  0.18555070168E+01 -0.31424709750E+01 -0.28221825184E+02  0.28456799659E+02  0.00000000000E+00 0.  1.
</event>
<event>
 5    1  0.9034713E-005  0.9118800E+02  0.7818608E-02  0.1130116E+00
         25   -1    0    0    0    0  0.00000000000E+00  0.00000000000E+00  0.99999998245E-14  0.12500000000E+03  0.12500000000E+03 0.  0.
        -13    1    3    3    0    0 -0.14149070707E+02  0.30525468094E+02  0.28373668633E+02  0.44012232845E+02  0.10566000000E+00 0.  1.
         23    2    1    0    0    0 -0.18390613169E+02 -0.18822399431E+02  0.92341365480E+01  0.97111531938E+02  0.93020873918E+02 0.  0.
         13    1    3    3    0    0 -0.42415424614E+01 -0.49347867525E+02 -0.19139532085E+02  0.53099299093E+02  0.10566000000E+00 0. -1.
         22    1    1    0    0    0  0.18390613169E+02  0.18822399431E+02 -0.92341365480E+01  0.27888468062E+02  0.00000000000E+00 0. -1.
</event>
<event>
 5    1  0.9034713E-005  0.9118800E+02  0.7818608E-02  0.1130116E+00
         25   -1    0    0    0    0  0.00000000000E+00  0.00000000000E+00  0.99999998245E-14  0.12500000000E+03  0.12500000000E+03 0.  0.
        -13    1    3    3    0    0 -0.16942240988E+02  0.18664024105E+02 -0.40736753488E+02  0.47904901359E+02  0.10566000000E+00 0. -1.
         23    2    1    0    0    0  0.20620609249E+02 -0.33063302424E+01 -0.19901210479E+02  0.96152131378E+02  0.91722586338E+02 0.  0.
         13    1    3    3    0    0  0.37562850237E+02 -0.21970354347E+02  0.20835543008E+02  0.48247230019E+02  0.10566000000E+00 0.  1.
         22    1    1    0    0    0 -0.20620609249E+02  0.33063302424E+01  0.19901210479E+02  0.28847868622E+02  0.00000000000E+00 0. -1.
</event>
<event>
 5    1  0.9034713E-005  0.9118800E+02  0.7818608E-02  0.1130116E+00
         25   -1    0    0    0    0  0.00000000000E+00  0.00000000000E+00  0.99999998245E-14  0.12500000000E+03  0.12500000000E+03 0.  0.
        -13    1    3    3    0    0  0.10240476248E+02 -0.33298114853E+02  0.17554844075E+02  0.39010453998E+02  0.10566000000E+00 0.  1.
         23    2    1    0    0    0  0.18429148126E+02  0.21758136208E+02  0.62630962412E+01  0.95806227266E+02  0.91249968858E+02 0.  0.
         13    1    3    3    0    0  0.81886718785E+01  0.55056251061E+02 -0.11291747834E+02  0.56795773269E+02  0.10566000000E+00 0. -1.
         22    1    1    0    0    0 -0.18429148126E+02 -0.21758136208E+02 -0.62630962412E+01  0.29193772734E+02  0.00000000000E+00 0. -1.
</event>
<event>
 5    1  0.9034713E-005  0.9118800E+02  0.7818608E-02  0.1130116E+00
         25   -1    0    0    0    0  0.00000000000E+00  0.00000000000E+00  0.99999998245E-14  0.12500000000E+03  0.12500000000E+03 0.  0.
        -13    1    3    3    0    0  0.13941295435E+02 -0.49413817093E+02  0.23843016622E+02  0.56609059732E+02  0.10566000000E+00 0.  1.
         23    2    1    0    0    0 -0.11870701192E+02 -0.25867400404E+02  0.57143330441E+01  0.95970884399E+02  0.91475248563E+02 0.  0.
         13    1    3    3    0    0 -0.25811996627E+02  0.23546416689E+02 -0.18128683578E+02  0.39361824666E+02  0.10566000000E+00 0. -1.
         22    1    1    0    0    0  0.11870701192E+02  0.25867400404E+02 -0.57143330441E+01  0.29029115601E+02  0.00000000000E+00 0.  1.
</event>
<event>
 5    1  0.9034713E-005  0.9118800E+02  0.7818608E-02  0.1130116E+00
         25   -1    0    0    0    0  0.00000000000E+00  0.00000000000E+00  0.99999998245E-14  0.12500000000E+03  0.12500000000E+03 0.  0.
        -13    1    3    3    0    0  0.11476958914E+02  0.26422912160E+02  0.41055424806E+01  0.29099098200E+02  0.10566000000E+00 0.  1.
         23    2    1    0    0    0 -0.24311749090E+02 -0.10129737579E+02 -0.25613630202E+02  0.88261317670E+02  0.80251663020E+02 0.  0.
         13    1    3    3    0    0 -0.35788708004E+02 -0.36552649740E+02 -0.29719172683E+02  0.59162219470E+02  0.10566000000E+00 0. -1.
         22    1    1    0    0    0  0.24311749090E+02  0.10129737579E+02  0.25613630202E+02  0.36738682330E+02  0.00000000000E+00 0. -1.
</event>
<event>
 5    1  0.9034713E-005  0.9118800E+02  0.7818608E-02  0.1130116E+00
         25   -1    0    0    0    0  0.00000000000E+00  0.00000000000E+00  0.99999998245E-14  0.12500000000E+03  0.12500000000E+03 0.  0.
        -13    1    3    3    0    0 -0.47360462093E+02 -0.10952573694E+02  0.97555001410E+01  0.49579765905E+02  0.10566000000E+00 0. -1.
         23    2    1    0    0    0 -0.17135501592E+02  0.22697572980E+02 -0.25246271447E+01  0.96448660693E+02  0.92125811656E+02 0.  0.
         13    1    3    3    0    0  0.30224960501E+02  0.33650146674E+02 -0.12280127286E+02  0.46868894788E+02  0.10566000000E+00 0.  1.
         22    1    1    0    0    0  0.17135501592E+02 -0.22697572980E+02  0.25246271447E+01  0.28551339307E+02  0.00000000000E+00 0. -1.
</event>
<event>
 5    1  0.9034713E-005  0.9118800E+02  0.7818608E-02  0.1130116E+00
         25   -1    0    0    0    0  0.00000000000E+00  0.00000000000E+00  0.99999998245E-14  0.12500000000E+03  0.12500000000E+03 0.  0.
        -13    1    3    3    0    0  0.14223545513E+02 -0.25584350863E+02  0.24057356752E+02  0.37889785351E+02  0.10566000000E+00 0.  1.
         23    2    1    0    0    0 -0.12697066844E+02 -0.19023058328E+02 -0.23041331483E+02  0.92534707593E+02  0.86652621993E+02 0.  0.
         13    1    3    3    0    0 -0.26920612356E+02  0.65612925352E+01 -0.47098688234E+02  0.54644922242E+02  0.10566000000E+00 0. -1.
         22    1    1    0    0    0  0.12697066844E+02  0.19023058328E+02  0.23041331483E+02  0.32465292407E+02  0.00000000000E+00 0. -1.
</event>
<event>
 5    1  0.9034713E-005  0.9118800E+02  0.7818608E-02  0.1130116E+00
         25   -1    0    0    0    0  0.00000000000E+00  0.00000000000E+00  0.99999998245E-14  0.12500000000E+03  0.12500000000E+03 0.  0.
        -13    1    3    3    0    0  0.25669769624E+02 -0.16175127543E+02  0.19491246340E+02  0.36062330367E+02  0.10566000000E+00 0.  1.
         23    2    1    0    0    0 -0.25777053336E+01  0.24599068796E+02 -0.14625645556E+02  0.96265556238E+02  0.91877032274E+02 0.  0.
         13    1    3    3    0    0 -0.28247474957E+02  0.40774196339E+02 -0.34116891896E+02  0.60203225871E+02  0.10566000000E+00 0. -1.
         22    1    1    0    0    0  0.25777053336E+01 -0.24599068796E+02  0.14625645556E+02  0.28734443762E+02  0.00000000000E+00 0. -1.
</event>
<event>
 5    1  0.9034713E-005  0.9118800E+02  0.7818608E-02  0.1130116E+00
         25   -1    0    0    0    0  0.00000000000E+00  0.00000000000E+00  0.99999998245E-14  0.12500000000E+03  0.12500000000E+03 0.  0.
        -13    1    3    3    0    0 -0.11428552610E+02 -0.41076956135E+02  0.30631555943E+02  0.52499824034E+02  0.10566000000E+00 0.  1.
         23    2    1    0    0    0 -0.71903148862E+01  0.11701775693E+01  0.29116313247E+02  0.94986175839E+02  0.90119609185E+02 0.  0.
         13    1    3    3    0    0  0.42382377242E+01  0.42247133704E+02 -0.15152426967E+01  0.42486351805E+02  0.10566000000E+00 0. -1.
         22    1    1    0    0    0  0.71903148862E+01 -0.11701775693E+01 -0.29116313247E+02  0.30013824161E+02  0.00000000000E+00 0. -1.
</event>
<event>
 5    1  0.9034713E-005  0.9118800E+02  0.7818608E-02  0.1130116E+00
         25   -1    0    0    0    0  0.00000000000E+00  0.00000000000E+00  0.99999998245E-14  0.12500000000E+03  0.12500000000E+03 0.  0.
        -13    1    3    3    0    0 -0.97723277574E+01  0.23646880171E+02 -0.45955857183E+02  0.52598719615E+02  0.10566000000E+00 0.  1.
         23    2    1    0    0    0 -0.15935683853E+02 -0.99165726561E+01 -0.56742926652E+01  0.10539178666E+03  0.10355166182E+03 0.  0.
         13    1    3    3    0    0 -0.61633560954E+01 -0.33563452827E+02  0.40281564518E+02  0.52793067046E+02  0.10566000000E+00 0. -1.
         22    1    1    0    0    0  0.15935683853E+02  0.99165726561E+01  0.56742926652E+01  0.19608213339E+02  0.00000000000E+00 0.  1.
</event>
<event>
 5    1  0.9034713E-005  0.9118800E+02  0.7818608E-02  0.1130116E+00
         25   -1    0    0    0    0  0.00000000000E+00  0.00000000000E+00  0.99999998245E-14  0.12500000000E+03  0.12500000000E+03 0.  0.
        -13    1    3    3    0    0 -0.78172437380E+01 -0.57662709894E+02 -0.14309565058E+02  0.59923886958E+02  0.10566000000E+00 0.  1.
         23    2    1    0    0    0 -0.61294982328E+01 -0.35833119760E+02 -0.21248383071E+02  0.82892079089E+02  0.71400418572E+02 0.  0.
         13    1    3    3    0    0  0.16877455052E+01  0.21829590134E+02 -0.69388180126E+01  0.22968192131E+02  0.10566000000E+00 0. -1.
         22    1    1    0    0    0  0.61294982328E+01  0.35833119760E+02  0.21248383071E+02  0.42107920911E+02  0.00000000000E+00 0.  1.
</event>
<event>
 5    1  0.9034713E-005  0.9118800E+02  0.7818608E-02  0.1130116E+00
         25   -1    0    0    0    0  0.00000000000E+00  0.00000000000E+00  0.99999998245E-14  0.12500000000E+03  0.12500000000E+03 0.  0.
        -13    1    3    3    0    0  0.80050579754E+00 -0.14409073758E+02 -0.32087596665E+02  0.35183621755E+02  0.10566000000E+00 0.  1.
         23    2    1    0    0    0  0.84632496568E+01  0.20340251848E+02  0.17948960604E+02  0.96583145376E+02  0.92308105516E+02 0.  0.
         13    1    3    3    0    0  0.76627438592E+01  0.34749325605E+02  0.50036557268E+02  0.61399523620E+02  0.10566000000E+00 0. -1.
         22    1    1    0    0    0 -0.84632496568E+01 -0.20340251848E+02 -0.17948960604E+02  0.28416854624E+02  0.00000000000E+00 0. -1.
</event>
<event>
 5    1  0.9034713E-005  0.9118800E+02  0.7818608E-02  0.1130116E+00
         25   -1    0    0    0    0  0.00000000000E+00  0.00000000000E+00  0.99999998245E-14  0.12500000000E+03  0.12500000000E+03 0.  0.
        -13    1    3    3    0    0 -0.50587468111E+00  0.60967858698E+02  0.80738434367E+01  0.61502307398E+02  0.10566000000E+00 0.  1.
         23    2    1    0    0    0  0.65604108448E+01  0.28000557441E+02  0.77303981531E+01  0.95220321307E+02  0.90443796507E+02 0.  0.
         13    1    3    3    0    0  0.70662855259E+01 -0.32967301256E+02 -0.34344528355E+00  0.33718013909E+02  0.10566000000E+00 0. -1.
         22    1    1    0    0    0 -0.65604108448E+01 -0.28000557441E+02 -0.77303981531E+01  0.29779678693E+02  0.00000000000E+00 0.  1.
</event>
<event>
 5    1  0.9034713E-005  0.9118800E+02  0.7818608E-02  0.1130116E+00
         25   -1    0    0    0    0  0.00000000000E+00  0.00000000000E+00  0.99999998245E-14  0.12500000000E+03  0.12500000000E+03 0.  0.
        -13    1    3    3    0    0  0.15154347519E+02  0.28366454868E+02 -0.91841507908E+01  0.33446521497E+02  0.10566000000E+00 0. -1.
         23    2    1    0    0    0 -0.32675574185E+02  0.21331804132E+02 -0.17029751959E+02  0.82423580850E+02  0.70575457580E+02 0.  0.
         13    1    3    3    0    0 -0.47829921704E+02 -0.70346507358E+01 -0.78456011677E+01  0.48977059353E+02  0.10566000000E+00 0.  1.
         22    1    1    0    0    0  0.32675574185E+02 -0.21331804132E+02  0.17029751959E+02  0.42576419150E+02  0.00000000000E+00 0. -1.
</event>
<event>
 5    1  0.9034713E-005  0.9118800E+02  0.7818608E-02  0.1130116E+00
         25   -1    0    0    0    0  0.00000000000E+00  0.00000000000E+00  0.99999998245E-14  0.12500000000E+03  0.12500000000E+03 0.  0.
        -13    1    3    3    0    0 -0.96449649968E+01 -0.57297890284E+02 -0.98297974895E+01  0.58929701030E+02  0.10566000000E+00 0. -1.
         23    2    1    0    0    0  0.90375925345E+01 -0.25282562063E+02 -0.10923242080E+02  0.96013740482E+02  0.91533792233E+02 0.  0.
         13    1    3    3    0    0  0.18682557531E+02  0.32015328221E+02 -0.10934445906E+01  0.37084039452E+02  0.10566000000E+00 0.  1.
         22    1    1    0    0    0 -0.90375925345E+01  0.25282562063E+02  0.10923242080E+02  0.28986259518E+02  0.00000000000E+00 0. -1.
</event>
<event>
 5    1  0.9034713E-005  0.9118800E+02  0.7818608E-02  0.1130116E+00
         25   -1    0    0    0    0  0.00000000000E+00  0.00000000000E+00  0.99999998245E-14  0.12500000000E+03  0.12500000000E+03 0.  0.
        -13    1    3    3    0    0  0.12065214287E+02 -0.33514133525E+02 -0.49287283438E+01  0.35959283487E+02  0.10566000000E+00 0.  1.
         23    2    1    0    0    0 -0.27174362992E+02  0.10690201523E+02  0.31996152320E+01  0.95623751937E+02  0.90999659254E+02 0.  0.
         13    1    3    3    0    0 -0.39239577279E+02  0.44204335049E+02  0.81283435759E+01  0.59664468450E+02  0.10566000000E+00 0. -1.
         22    1    1    0    0    0  0.27174362992E+02 -0.10690201523E+02 -0.31996152320E+01  0.29376248063E+02  0.00000000000E+00 0. -1.
</event>
<event>
 5    1  0.9034713E-005  0.9118800E+02  0.7818608E-02  0.1130116E+00
         25   -1    0    0    0    0  0.00000000000E+00  0.00000000000E+00  0.99999998245E-14  0.12500000000E+03  0.12500000000E+03 0.  0.
        -13    1    3    3    0    0 -0.15104625527E+02  0.45546066675E+02  0.39352346912E+02  0.62058136239E+02  0.10566000000E+00 0.  1.
         23    2    1    0    0    0 -0.10704992504E+02  0.22934086537E+02  0.15001955324E+02  0.95578445769E+02  0.90937403978E+02 0.  0.
         13    1    3    3    0    0  0.43996330223E+01 -0.22611980138E+02 -0.24350391588E+02  0.33520309531E+02  0.10566000000E+00 0. -1.
         22    1    1    0    0    0  0.10704992504E+02 -0.22934086537E+02 -0.15001955324E+02  0.29421554231E+02  0.00000000000E+00 0.  1.
</event>
<event>
 5    1  0.9034713E-005  0.9118800E+02  0.7818608E-02  0.1130116E+00
         25   -1    0    0    0    0  0.00000000000E+00  0.00000000000E+00  0.99999998245E-14  0.12500000000E+03  0.12500000000E+03 0.  0.
        -13    1    3    3    0    0  0.56176991714E+01 -0.54052794154E+02  0.21139870420E+02  0.58310962822E+02  0.10566000000E+00 0.  1.
         23    2    1    0    0    0 -0.71107048816E+01 -0.40348958923E+02  0.24425623503E+02  0.77300820829E+02  0.60829312073E+02 0.  0.
         13    1    3    3    0    0 -0.12728404053E+02  0.13703835231E+02  0.32857530834E+01  0.18989858007E+02  0.10566000000E+00 0. -1.
         22    1    1    0    0    0  0.71107048816E+01  0.40348958923E+02 -0.24425623503E+02  0.47699179171E+02  0.00000000000E+00 0.  1.
</event>
<event>
 5    1  0.9034713E-005  0.9118800E+02  0.7818608E-02  0.1130116E+00
         25   -1    0    0    0    0  0.00000000000E+00  0.00000000000E+00  0.99999998245E-14  0.12500000000E+03  0.12500000000E+03 0.  0.
        -13    1    3    3    0    0  0.21451223414E+02  0.12175004256E+02  0.24001016053E+02  0.34415776182E+02  0.10566000000E+00 0. -1.
         23    2    1    0    0    0 -0.11409824935E+02 -0.19673725553E+02 -0.17585430150E+02  0.96251314191E+02  0.91857653724E+02 0.  0.
         13    1    3    3    0    0 -0.32861048349E+02 -0.31848729809E+02 -0.41586446203E+02  0.61835538009E+02  0.10566000000E+00 0.  1.
         22    1    1    0    0    0  0.11409824935E+02  0.19673725553E+02  0.17585430150E+02  0.28748685809E+02  0.00000000000E+00 0.  1.
</event>
<event>
 5    1  0.9034713E-005  0.9118800E+02  0.7818608E-02  0.1130116E+00
         25   -1    0    0    0    0  0.00000000000E+00  0.00000000000E+00  0.99999998245E-14  0.12500000000E+03  0.12500000000E+03 0.  0.
        -13    1    3    3    0    0  0.19866903504E+02  0.97976697094E+01  0.41882056723E+02  0.47379383976E+02  0.10566000000E+00 0. -1.
         23    2    1    0    0    0 -0.11850607202E+02 -0.18779999889E+02  0.18750326960E+02  0.95936276081E+02  0.91427944417E+02 0.  0.
         13    1    3    3    0    0 -0.31717510706E+02 -0.28577669599E+02 -0.23131729763E+02  0.48556892105E+02  0.10566000000E+00 0.  1.
         22    1    1    0    0    0  0.11850607202E+02  0.18779999889E+02 -0.18750326960E+02  0.29063723919E+02  0.00000000000E+00 0.  1.
</event>
<event>
 5    1  0.9034713E-005  0.9118800E+02  0.7818608E-02  0.1130116E+00
         25   -1    0    0    0    0  0.00000000000E+00  0.00000000000E+00  0.99999998245E-14  0.12500000000E+03  0.12500000000E+03 0.  0.
        -13    1    3    3    0    0  0.23666624966E+02 -0.71601351461E+01 -0.23441116639E+02  0.34071597936E+02  0.10566000000E+00 0.  1.
         23    2    1    0    0    0 -0.11642181433E+02  0.25406661428E+02  0.12816637930E+02  0.94254186605E+02  0.89098522161E+02 0.  0.
         13    1    3    3    0    0 -0.35308806399E+02  0.32566796575E+02  0.36257754569E+02  0.60182588669E+02  0.10566000000E+00 0. -1.
         22    1    1    0    0    0  0.11642181433E+02 -0.25406661428E+02 -0.12816637930E+02  0.30745813395E+02  0.00000000000E+00 0. -1.
</event>
<event>
 5    1  0.9034713E-005  0.9118800E+02  0.7818608E-02  0.1130116E+00
         25   -1    0    0    0    0  0.00000000000E+00  0.00000000000E+00  0.99999998245E-14  0.12500000000E+03  0.12500000000E+03 0.  0.
        -13    1    3    3    0    0  0.22829755730E+02 -0.42444653332E+02  0.27666431959E+02  0.55571476177E+02  0.10566000000E+00 0.  1.
         23    2    1    0    0    0  0.15478126389E+02 -0.70532669370E+01  0.28592778360E+02  0.91730375035E+02  0.85484465014E+02 0.  0.
         13    1    3    3    0    0 -0.73516293408E+01  0.35391386395E+02  0.92634640117E+00  0.36158898858E+02  0.10566000000E+00 0. -1.
         22    1    1    0    0    0 -0.15478126389E+02  0.70532669370E+01 -0.28592778360E+02  0.33269624965E+02  0.00000000000E+00 0.  1.
</event>
<event>
 5    1  0.9034713E-005  0.9118800E+02  0.7818608E-02  0.1130116E+00
         25   -1    0    0    0    0  0.00000000000E+00  0.00000000000E+00  0.99999998245E-14  0.12500000000E+03  0.12500000000E+03 0.  0.
        -13    1    3    3    0    0  0.48662544609E+01 -0.43787274026E+02 -0.31091482036E+02  0.53923067590E+02  0.10566000000E+00 0.  1.
         23    2    1    0    0    0  0.24115127355E+02 -0.15875170103E+02 -0.76859134450E+01  0.95123024607E+02  0.90309225176E+02 0.  0.
         13    1    3    3    0    0  0.19248872894E+02  0.27912103923E+02  0.23405568591E+02  0.41199957017E+02  0.10566000000E+00 0. -1.
         22    1    1    0    0    0 -0.24115127355E+02  0.15875170103E+02  0.76859134450E+01  0.29876975393E+02  0.00000000000E+00 0.  1.
</event>
<event>
 5    1  0.9034713E-005  0.9118800E+02  0.7818608E-02  0.1130116E+00
         25   -1    0    0    0    0  0.00000000000E+00  0.00000000000E+00  0.99999998245E-14  0.12500000000E+03  0.12500000000E+03 0.  0.
        -13    1    3    3    0    0 -0.55799959089E+01  0.96624367195E+01 -0.52386880489E+02  0.53562070993E+02  0.10566000000E+00 0.  1.
         23    2    1    0    0    0  0.12022992666E+02  0.21897215191E+02 -0.17535211022E+02  0.94479121714E+02  0.89413536047E+02 0.  0.
         13    1    3    3    0    0  0.17602988575E+02  0.12234778471E+02  0.34851669467E+02  0.40917050720E+02  0.10566000000E+00 0. -1.
         22    1    1    0    0    0 -0.12022992666E+02 -0.21897215191E+02  0.17535211022E+02  0.30520878286E+02  0.00000000000E+00 0.  1.
</event>
<event>
 5    1  0.9034713E-005  0.9118800E+02  0.7818608E-02  0.1130116E+00
         25   -1    0    0    0    0  0.00000000000E+00  0.00000000000E+00  0.99999998245E-14  0.12500000000E+03  0.12500000000E+03 0.  0.
        -13    1    3    3    0    0 -0.54539021438E+02  0.18564198151E+02 -0.18596680313E+02  0.60539094766E+02  0.10566000000E+00 0. -1.
         23    2    1    0    0    0 -0.26503428594E+02 -0.20283061188E+01 -0.11482428322E+02  0.96045001932E+02  0.91576473414E+02 0.  0.
         13    1    3    3    0    0  0.28035592844E+02 -0.20592504269E+02  0.71142519914E+01  0.35505907166E+02  0.10566000000E+00 0.  1.
         22    1    1    0    0    0  0.26503428594E+02  0.20283061188E+01  0.11482428322E+02  0.28954998068E+02  0.00000000000E+00 0. -1.
</event>
<event>
 5    1  0.9034713E-005  0.9118800E+02  0.7818608E-02  0.1130116E+00
         25   -1    0    0    0    0  0.00000000000E+00  0.00000000000E+00  0.99999998245E-14  0.12500000000E+03  0.12500000000E+03 0.  0.
        -13    1    3    3    0    0  0.48434766245E+01  0.86610913276E+01 -0.38243178575E+02  0.39509817012E+02  0.10566000000E+00 0. -1.
         23    2    1    0    0    0 -0.71191021629E+01 -0.32362221626E+02 -0.11476478334E+02  0.89932856416E+02  0.82814335136E+02 0.  0.
         13    1    3    3    0    0 -0.11962578787E+02 -0.41023312954E+02  0.26766700241E+02  0.50423039404E+02  0.10566000000E+00 0.  1.
         22    1    1    0    0    0  0.71191021629E+01  0.32362221626E+02  0.11476478334E+02  0.35067143584E+02  0.00000000000E+00 0. -1.
</event>
<event>
 5    1  0.9034713E-005  0.9118800E+02  0.7818608E-02  0.1130116E+00
         25   -1    0    0    0    0  0.00000000000E+00  0.00000000000E+00  0.99999998245E-14  0.12500000000E+03  0.12500000000E+03 0.  0.
        -13    1    3    3    0    0 -0.15452444156E+02  0.22407185678E+02  0.47057756038E+02  0.54362703830E+02  0.10566000000E+00 0. -1.
         23    2    1    0    0    0  0.98113252115E+01 -0.44412409311E+01  0.26090342567E+02  0.96774254684E+02  0.92566536453E+02 0.  0.
         13    1    3    3    0    0  0.25263769368E+02 -0.26848426610E+02 -0.20967413471E+02  0.42411550853E+02  0.10566000000E+00 0.  1.
         22    1    1    0    0    0 -0.98113252115E+01  0.44412409311E+01 -0.26090342567E+02  0.28225745316E+02  0.00000000000E+00 0. -1.
</event>
<event>
 5    1  0.9034713E-005  0.9118800E+02  0.7818608E-02  0.1130116E+00
         25   -1    0    0    0    0  0.00000000000E+00  0.00000000000E+00  0.99999998245E-14  0.12500000000E+03  0.12500000000E+03 0.  0.
        -13    1    3    3    0    0  0.34813460872E+02 -0.66937564860E+01  0.42829211808E+02  0.55597985413E+02  0.10566000000E+00 0.  1.
         23    2    1    0    0    0 -0.24292584808E+01  0.14074730389E+01  0.28570910477E+02  0.96291478572E+02  0.91912293209E+02 0.  0.
         13    1    3    3    0    0 -0.37242719353E+02  0.81012295249E+01 -0.14258301332E+02  0.40693493159E+02  0.10566000000E+00 0. -1.
         22    1    1    0    0    0  0.24292584808E+01 -0.14074730389E+01 -0.28570910477E+02  0.28708521428E+02  0.00000000000E+00 0.  1.
</event>
<event>
 5    1  0.9034713E-005  0.9118800E+02  0.7818608E-02  0.1130116E+00
         25   -1    0    0    0    0  0.00000000000E+00  0.00000000000E+00  0.99999998245E-14  0.12500000000E+03  0.12500000000E+03 0.  0.
        -13    1    3    3    0    0 -0.28585663455E+02  0.52040518586E+02 -0.16275479935E+02  0.61565072412E+02  0.10566000000E+00 0.  1.
         23    2    1    0    0    0 -0.15690219212E+02  0.21705029477E+02 -0.14425742322E+02  0.94579721811E+02  0.89554064413E+02 0.  0.
         13    1    3    3    0    0  0.12895444242E+02 -0.30335489110E+02  0.18497376124E+01  0.33014649400E+02  0.10566000000E+00 0. -1.
         22    1    1    0    0    0  0.15690219212E+02 -0.21705029477E+02  0.14425742322E+02  0.30420278189E+02  0.00000000000E+00 0.  1.
</event>
<event>
 5    1  0.9034713E-005  0.9118800E+02  0.7818608E-02  0.1130116E+00
         25   -1    0    0    0    0  0.00000000000E+00  0.00000000000E+00  0.99999998245E-14  0.12500000000E+03  0.12500000000E+03 0.  0.
        -13    1    3    3    0    0 -0.21585834752E+02 -0.38718384218E+00  0.24574063038E+02  0.32710761402E+02  0.10566000000E+00 0.  1.
         23    2    1    0    0    0  0.19274627410E+02 -0.29836443004E+01 -0.22582106036E+02  0.95161016972E+02  0.90361796369E+02 0.  0.
         13    1    3    3    0    0  0.40860462162E+02 -0.25964604582E+01 -0.47156169074E+02  0.62450255570E+02  0.10566000000E+00 0. -1.
         22    1    1    0    0    0 -0.19274627410E+02  0.29836443004E+01  0.22582106036E+02  0.29838983028E+02  0.00000000000E+00 0. -1.
</event>
<event>
 5    1  0.9034713E-005  0.9118800E+02  0.7818608E-02  0.1130116E+00
         25   -1    0    0    0    0  0.00000000000E+00  0.00000000000E+00  0.99999998245E-14  0.12500000000E+03  0.12500000000E+03 0.  0.
        -13    1    3    3    0    0  0.10429509242E+02 -0.27878663956E+02 -0.33789684356E+02  0.45030528533E+02  0.10566000000E+00 0.  1.
         23    2    1    0    0    0 -0.27737086588E+02 -0.86729072257E+01 -0.83261076553E+01  0.94769396949E+02  0.89818423707E+02 0.  0.
         13    1    3    3    0    0 -0.38166595831E+02  0.19205756730E+02  0.25463576701E+02  0.49738868416E+02  0.10566000000E+00 0. -1.
         22    1    1    0    0    0  0.27737086588E+02  0.86729072257E+01  0.83261076553E+01  0.30230603051E+02  0.00000000000E+00 0. -1.
</event>
<event>
 5    1  0.9034713E-005  0.9118800E+02  0.7818608E-02  0.1130116E+00
         25   -1    0    0    0    0  0.00000000000E+00  0.00000000000E+00  0.99999998245E-14  0.12500000000E+03  0.12500000000E+03 0.  0.
        -13    1    3    3    0    0 -0.15385169450E+01  0.83704503506E+01 -0.33637859637E+02  0.34697957266E+02  0.10566000000E+00 0.  1.
         23    2    1    0    0    0 -0.14332674358E+02  0.11537668866E+01  0.25550174682E+02  0.95681607163E+02  0.91079096344E+02 0.  0.
         13    1    3    3    0    0 -0.12794157413E+02 -0.72166834641E+01  0.59188034319E+02  0.60983649897E+02  0.10566000000E+00 0. -1.
         22    1    1    0    0    0  0.14332674358E+02 -0.11537668866E+01 -0.25550174682E+02  0.29318392837E+02  0.00000000000E+00 0. -1.
</event>
<event>
 5    1  0.9034713E-005  0.9118800E+02  0.7818608E-02  0.1130116E+00
         25   -1    0    0    0    0  0.00000000000E+00  0.00000000000E+00  0.99999998245E-14  0.12500000000E+03  0.12500000000E+03 0.  0.
        -13    1    3    3    0    0  0.38866286271E+02 -0.11517660183E+02 -0.37439701190E+02  0.55181401702E+02  0.10566000000E+00 0. -1.
         23    2    1    0    0    0  0.39817939984E+00 -0.11311996175E+02 -0.28010478947E+02  0.94788963355E+02  0.89845650083E+02 0.  0.
         13    1    3    3    0    0 -0.38468106871E+02  0.20566400776E+00  0.94292222428E+01  0.39607561653E+02  0.10566000000E+00 0.  1.
         22    1    1    0    0    0 -0.39817939984E+00  0.11311996175E+02  0.28010478947E+02  0.30211036645E+02  0.00000000000E+00 0.  1.
</event>
<event>
 5    1  0.9034713E-005  0.9118800E+02  0.7818608E-02  0.1130116E+00
         25   -1    0    0    0    0  0.00000000000E+00  0.00000000000E+00  0.99999998245E-14  0.12500000000E+03  0.12500000000E+03 0.  0.
        -13    1    3    3    0    0  0.34775809116E+02  0.28503723429E+01 -0.43269476547E+02  0.55585432326E+02  0.10566000000E+00 0.  1.
         23    2    1    0    0    0  0.10642742275E+01  0.15193058477E+02 -0.24643859888E+02  0.96029643846E+02  0.91555507544E+02 0.  0.
         13    1    3    3    0    0 -0.33711534888E+02  0.12342686134E+02  0.18625616660E+02  0.40444211520E+02  0.10566000000E+00 0. -1.
         22    1    1    0    0    0 -0.10642742275E+01 -0.15193058477E+02  0.24643859888E+02  0.28970356154E+02  0.00000000000E+00 0. -1.
</event>
<event>
 5    1  0.9034713E-005  0.9118800E+02  0.7818608E-02  0.1130116E+00
         25   -1    0    0    0    0  0.00000000000E+00  0.00000000000E+00  0.99999998245E-14  0.12500000000E+03  0.12500000000E+03 0.  0.
        -13    1    3    3    0    0 -0.26838084102E+02 -0.41867520603E+01 -0.19789857873E+02  0.33607458841E+02  0.10566000000E+00 0. -1.
         23    2    1    0    0    0  0.25771304713E+02 -0.12539620082E+02  0.10006655461E+02  0.94643198917E+02  0.89642622281E+02 0.  0.
         13    1    3    3    0    0  0.52609388816E+02 -0.83528680220E+01  0.29796513334E+02  0.61035740076E+02  0.10566000000E+00 0.  1.
         22    1    1    0    0    0 -0.25771304713E+02  0.12539620082E+02 -0.10006655461E+02  0.30356801083E+02  0.00000000000E+00 0.  1.
</event>
<event>
 5    1  0.9034713E-005  0.9118800E+02  0.7818608E-02  0.1130116E+00
         25   -1    0    0    0    0  0.00000000000E+00  0.00000000000E+00  0.99999998245E-14  0.12500000000E+03  0.12500000000E+03 0.  0.
        -13    1    3    3    0    0  0.11044117272E+02 -0.31189095373E+02  0.51960946082E+02  0.61601000628E+02  0.10566000000E+00 0.  1.
         23    2    1    0    0    0 -0.10034297052E+01 -0.11699162465E+02  0.27397421376E+02  0.95192350452E+02  0.90405130457E+02 0.  0.
         13    1    3    3    0    0 -0.12047546977E+02  0.19489932909E+02 -0.24563524707E+02  0.33591349824E+02  0.10566000000E+00 0. -1.
         22    1    1    0    0    0  0.10034297052E+01  0.11699162465E+02 -0.27397421376E+02  0.29807649548E+02  0.00000000000E+00 0.  1.
</event>
<event>
 5    1  0.9034713E-005  0.9118800E+02  0.7818608E-02  0.1130116E+00
         25   -1    0    0    0    0  0.00000000000E+00  0.00000000000E+00  0.99999998245E-14  0.12500000000E+03  0.12500000000E+03 0.  0.
        -13    1    3    3    0    0  0.36469733941E+02  0.28291657358E+02 -0.27274121934E+02  0.53612948632E+02  0.10566000000E+00 0. -1.
         23    2    1    0    0    0  0.24720526185E+02  0.11878810756E+02  0.98406684856E+01  0.95861549182E+02  0.91325720887E+02 0.  0.
         13    1    3    3    0    0 -0.11749207756E+02 -0.16412846601E+02  0.37114790420E+02  0.42248600549E+02  0.10566000000E+00 0.  1.
         22    1    1    0    0    0 -0.24720526185E+02 -0.11878810756E+02 -0.98406684856E+01  0.29138450818E+02  0.00000000000E+00 0. -1.
</event>
<event>
 5    1  0.9034713E-005  0.9118800E+02  0.7818608E-02  0.1130116E+00
         25   -1    0    0    0    0  0.00000000000E+00  0.00000000000E+00  0.99999998245E-14  0.12500000000E+03  0.12500000000E+03 0.  0.
        -13    1    3    3    0    0 -0.16006726835E+01  0.15654902823E+02 -0.15463422742E+02  0.22062790902E+02  0.10566000000E+00 0. -1.
         23    2    1    0    0    0  0.79419668762E+01 -0.34304254729E+02  0.20407591301E+02  0.84302008488E+02  0.73827516022E+02 0.  0.
         13    1    3    3    0    0  0.95426395597E+01 -0.49959157553E+02  0.35871014044E+02  0.62239217586E+02  0.10566000000E+00 0.  1.
         22    1    1    0    0    0 -0.79419668762E+01  0.34304254729E+02 -0.20407591301E+02  0.40697991512E+02  0.00000000000E+00 0.  1.
</event>
<event>
 5    1  0.9034713E-005  0.9118800E+02  0.7818608E-02  0.1130116E+00
         25   -1    0    0    0    0  0.00000000000E+00  0.00000000000E+00  0.99999998245E-14  0.12500000000E+03  0.12500000000E+03 0.  0.
        -13    1    3    3    0    0  0.86557311980E+01  0.34733114776E+02 -0.23463059353E+02  0.42799968024E+02  0.10566000000E+00 0. -1.
         23    2    1    0    0    0  0.87389145549E+01  0.14839142370E+02  0.24688019045E+02  0.94899052204E+02  0.89998683607E+02 0.  0.
         13    1    3    3    0    0  0.83183356871E-01 -0.19893972406E+02  0.48151078397E+02  0.52099084180E+02  0.10566000000E+00 0.  1.
         22    1    1    0    0    0 -0.87389145549E+01 -0.14839142370E+02 -0.24688019045E+02  0.30100947796E+02  0.00000000000E+00 0.  1.
</event>
<event>
 5    1  0.9034713E-005  0.9118800E+02  0.7818608E-02  0.1130116E+00
         25   -1    0    0    0    0  0.00000000000E+00  0.00000000000E+00  0.99999998245E-14  0.12500000000E+03  0.12500000000E+03 0.  0.
        -13    1    3    3    0    0  0.57079974201E+02 -0.87242282943E+01  0.23497414370E+02  0.62340799323E+02  0.10566000000E+00 0. -1.
         23    2    1    0    0    0  0.25458892105E+02 -0.19912834785E+01  0.13083958478E+02  0.96306614585E+02  0.91932875764E+02 0.  0.
         13    1    3    3    0    0 -0.31621082096E+02  0.67329448158E+01 -0.10413455892E+02  0.33965815263E+02  0.10566000000E+00 0.  1.
         22    1    1    0    0    0 -0.25458892105E+02  0.19912834785E+01 -0.13083958478E+02  0.28693385415E+02  0.00000000000E+00 0. -1.
</event>
<event>
 5    1  0.9034713E-005  0.9118800E+02  0.7818608E-02  0.1130116E+00
         25   -1    0    0    0    0  0.00000000000E+00  0.00000000000E+00  0.99999998245E-14  0.12500000000E+03  0.12500000000E+03 0.  0.
        -13    1    3    3    0    0  0.83419259904E+01 -0.72774277610E+01 -0.39692994415E+02  0.41207931927E+02  0.10566000000E+00 0. -1.
         23    2    1    0    0    0 -0.17385669098E+02 -0.25193362568E+02  0.30747447095E+01  0.94236042802E+02  0.89073063832E+02 0.  0.
         13    1    3    3    0    0 -0.25727595089E+02 -0.17915934807E+02  0.42767739125E+02  0.53028110874E+02  0.10566000000E+00 0.  1.
         22    1    1    0    0    0  0.17385669098E+02  0.25193362568E+02 -0.30747447095E+01  0.30763957198E+02  0.00000000000E+00 0.  1.
</event>
<event>
 5    1  0.9034713E-005  0.9118800E+02  0.7818608E-02  0.1130116E+00
         25   -1    0    0    0    0  0.00000000000E+00  0.00000000000E+00  0.99999998245E-14  0.12500000000E+03  0.12500000000E+03 0.  0.
        -13    1    3    3    0    0  0.13188116995E+02  0.30555941388E+02 -0.25833872111E+02  0.42130655065E+02  0.10566000000E+00 0. -1.
         23    2    1    0    0    0 -0.13127532756E+02 -0.17284858898E+02 -0.16974771416E+02  0.97445665894E+02  0.93468799465E+02 0.  0.
         13    1    3    3    0    0 -0.26315649751E+02 -0.47840800286E+02  0.88591006946E+01  0.55315010829E+02  0.10566000000E+00 0.  1.
         22    1    1    0    0    0  0.13127532756E+02  0.17284858898E+02  0.16974771416E+02  0.27554334106E+02  0.00000000000E+00 0.  1.
</event>
<event>
 5    1  0.9034713E-005  0.9118800E+02  0.7818608E-02  0.1130116E+00
         25   -1    0    0    0    0  0.00000000000E+00  0.00000000000E+00  0.99999998245E-14  0.12500000000E+03  0.12500000000E+03 0.  0.
        -13    1    3    3    0    0  0.32572725362E+02 -0.64234774650E+01 -0.32513963658E+02  0.46469479199E+02  0.10566000000E+00 0. -1.
         23    2    1    0    0    0  0.31741411875E+01  0.26875251415E+02 -0.12031980648E+02  0.95383739783E+02  0.90669371597E+02 0.  0.
         13    1    3    3    0    0 -0.29398584174E+02  0.33298728880E+02  0.20481983010E+02  0.48914260585E+02  0.10566000000E+00 0.  1.
         22    1    1    0    0    0 -0.31741411875E+01 -0.26875251415E+02  0.12031980648E+02  0.29616260217E+02  0.00000000000E+00 0.  1.
</event>
<event>
 5    1  0.9034713E-005  0.9118800E+02  0.7818608E-02  0.1130116E+00
         25   -1    0    0    0    0  0.00000000000E+00  0.00000000000E+00  0.99999998245E-14  0.12500000000E+03  0.12500000000E+03 0.  0.
        -13    1    3    3    0    0 -0.16486087442E+02  0.89676913936E+01 -0.39172151689E+02  0.43435920620E+02  0.10566000000E+00 0.  1.
         23    2    1    0    0    0 -0.11483682023E+02 -0.27004196301E+02 -0.17207559340E+01  0.95605058741E+02  0.90973978066E+02 0.  0.
         13    1    3    3    0    0  0.50024054188E+01 -0.35971887694E+02  0.37451395755E+02  0.52169138121E+02  0.10566000000E+00 0. -1.
         22    1    1    0    0    0  0.11483682023E+02  0.27004196301E+02  0.17207559340E+01  0.29394941259E+02  0.00000000000E+00 0. -1.
</event>
<event>
 5    1  0.9034713E-005  0.9118800E+02  0.7818608E-02  0.1130116E+00
         25   -1    0    0    0    0  0.00000000000E+00  0.00000000000E+00  0.99999998245E-14  0.12500000000E+03  0.12500000000E+03 0.  0.
        -13    1    3    3    0    0 -0.72543502300E+01  0.56978718382E+02 -0.11058024111E+02  0.58493512521E+02  0.10566000000E+00 0. -1.
         23    2    1    0    0    0  0.41585966308E+01  0.26152497771E+02  0.90356320537E+01  0.97019833592E+02  0.92897569387E+02 0.  0.
         13    1    3    3    0    0  0.11412946861E+02 -0.30826220611E+02  0.20093656164E+02  0.38526321071E+02  0.10566000000E+00 0.  1.
         22    1    1    0    0    0 -0.41585966308E+01 -0.26152497771E+02 -0.90356320537E+01  0.27980166408E+02  0.00000000000E+00 0. -1.
</event>
<event>
 5    1  0.9034713E-005  0.9118800E+02  0.7818608E-02  0.1130116E+00
         25   -1    0    0    0    0  0.00000000000E+00  0.00000000000E+00  0.99999998245E-14  0.12500000000E+03  0.12500000000E+03 0.  0.
        -13    1    3    3    0    0  0.88501920342E+01  0.27707620749E+02  0.15480753917E+02  0.32950008384E+02  0.10566000000E+00 0.  1.
         23    2    1    0    0    0 -0.10627748045E+02 -0.27752692468E+02 -0.43045893561E+01  0.94971838930E+02  0.90099721045E+02 0.  0.
         13    1    3    3    0    0 -0.19477940079E+02 -0.55460313217E+02 -0.19785343273E+02  0.62021830546E+02  0.10566000000E+00 0. -1.
         22    1    1    0    0    0  0.10627748045E+02  0.27752692468E+02  0.43045893561E+01  0.30028161070E+02  0.00000000000E+00 0. -1.
</event>
<event>
 5    1  0.9034713E-005  0.9118800E+02  0.7818608E-02  0.1130116E+00
         25   -1    0    0    0    0  0.00000000000E+00  0.00000000000E+00  0.99999998245E-14  0.12500000000E+03  0.12500000000E+03 0.  0.
        -13    1    3    3    0    0 -0.30346228901E+02  0.21623657874E+02  0.42002708184E+00  0.37264779284E+02  0.10566000000E+00 0.  1.
         23    2    1    0    0    0 -0.12783353520E+02 -0.30288964233E+02 -0.13461473327E+01  0.92096389344E+02  0.86018005883E+02 0.  0.
         13    1    3    3    0    0  0.17562875380E+02 -0.51912622107E+02 -0.17661744145E+01  0.54831610060E+02  0.10566000000E+00 0. -1.
         22    1    1    0    0    0  0.12783353520E+02  0.30288964233E+02  0.13461473327E+01  0.32903610656E+02  0.00000000000E+00 0. -1.
</event>
<event>
 5    1  0.9034713E-005  0.9118800E+02  0.7818608E-02  0.1130116E+00
         25   -1    0    0    0    0  0.00000000000E+00  0.00000000000E+00  0.99999998245E-14  0.12500000000E+03  0.12500000000E+03 0.  0.
        -13    1    3    3    0    0 -0.31363595087E+02  0.11934931777E+02  0.99591174474E+01  0.35004469396E+02  0.10566000000E+00 0. -1.
         23    2    1    0    0    0  0.15147564552E+02 -0.25544821971E+02  0.39880493479E+01  0.95035167629E+02  0.90187537428E+02 0.  0.
         13    1    3    3    0    0  0.46511159639E+02 -0.37479753749E+02 -0.59710680996E+01  0.60030698233E+02  0.10566000000E+00 0.  1.
         22    1    1    0    0    0 -0.15147564552E+02  0.25544821971E+02 -0.39880493479E+01  0.29964832371E+02  0.00000000000E+00 0.  1.
</event>
<event>
 5    1  0.9034713E-005  0.9118800E+02  0.7818608E-02  0.1130116E+00
         25   -1    0    0    0    0  0.00000000000E+00  0.00000000000E+00  0.99999998245E-14  0.12500000000E+03  0.12500000000E+03 0.  0.
        -13    1    3    3    0    0 -0.41345521705E+02 -0.66126188419E+01  0.48877154404E+00  0.41873965118E+02  0.10566000000E+00 0.  1.
         23    2    1    0    0    0  0.55984849659E+01 -0.27684364444E+02 -0.11156423617E+02  0.94631712980E+02  0.89626604560E+02 0.  0.
         13    1    3    3    0    0  0.46944006671E+02 -0.21071745602E+02 -0.11645195161E+02  0.52757747862E+02  0.10566000000E+00 0. -1.
         22    1    1    0    0    0 -0.55984849659E+01  0.27684364444E+02  0.11156423617E+02  0.30368287020E+02  0.00000000000E+00 0. -1.
</event>
<event>
 5    1  0.9034713E-005  0.9118800E+02  0.7818608E-02  0.1130116E+00
         25   -1    0    0    0    0  0.00000000000E+00  0.00000000000E+00  0.99999998245E-14  0.12500000000E+03  0.12500000000E+03 0.  0.
        -13    1    3    3    0    0 -0.36268288286E+02  0.38245409293E+02 -0.13397997590E+02  0.54383982666E+02  0.10566000000E+00 0. -1.
         23    2    1    0    0    0  0.24611183122E+01  0.28288119571E+02 -0.11334912609E+02  0.94426235822E+02  0.89339571050E+02 0.  0.
         13    1    3    3    0    0  0.38729406599E+02 -0.99572897220E+01  0.20630849811E+01  0.40042253155E+02  0.10566000000E+00 0.  1.
         22    1    1    0    0    0 -0.24611183122E+01 -0.28288119571E+02  0.11334912609E+02  0.30573764178E+02  0.00000000000E+00 0. -1.
</event>
<event>
 5    1  0.9034713E-005  0.9118800E+02  0.7818608E-02  0.1130116E+00
         25   -1    0    0    0    0  0.00000000000E+00  0.00000000000E+00  0.99999998245E-14  0.12500000000E+03  0.12500000000E+03 0.  0.
        -13    1    3    3    0    0 -0.23638865245E+02 -0.35486245907E+02 -0.29794216496E+02  0.52017075074E+02  0.10566000000E+00 0. -1.
         23    2    1    0    0    0 -0.29042615462E+01  0.58603689389E+01 -0.25732200824E+02  0.98449579693E+02  0.94801871939E+02 0.  0.
         13    1    3    3    0    0  0.20734603699E+02  0.41346614846E+02  0.40620156717E+01  0.46432504618E+02  0.10566000000E+00 0.  1.
         22    1    1    0    0    0  0.29042615462E+01 -0.58603689389E+01  0.25732200824E+02  0.26550420307E+02  0.00000000000E+00 0.  1.
</event>
<event>
 5    1  0.9034713E-005  0.9118800E+02  0.7818608E-02  0.1130116E+00
         25   -1    0    0    0    0  0.00000000000E+00  0.00000000000E+00  0.99999998245E-14  0.12500000000E+03  0.12500000000E+03 0.  0.
        -13    1    3    3    0    0 -0.26718821106E+02 -0.18606476395E+02  0.15792436596E+02  0.36187132835E+02  0.10566000000E+00 0.  1.
         23    2    1    0    0    0  0.12780607977E+02  0.25215902893E+02  0.28500124183E+01  0.96586829291E+02  0.92313093994E+02 0.  0.
         13    1    3    3    0    0  0.39499429083E+02  0.43822379288E+02 -0.12942424178E+02  0.60399696456E+02  0.10566000000E+00 0. -1.
         22    1    1    0    0    0 -0.12780607977E+02 -0.25215902893E+02 -0.28500124183E+01  0.28413170709E+02  0.00000000000E+00 0. -1.
</event>
<event>
 5    1  0.9034713E-005  0.9118800E+02  0.7818608E-02  0.1130116E+00
         25   -1    0    0    0    0  0.00000000000E+00  0.00000000000E+00  0.99999998245E-14  0.12500000000E+03  0.12500000000E+03 0.  0.
        -13    1    3    3    0    0  0.16706487126E+02 -0.47639171964E+02 -0.18105298132E+02  0.53632176927E+02  0.10566000000E+00 0.  1.
         23    2    1    0    0    0 -0.14573622052E+02 -0.28681767125E+02 -0.52469760436E+01  0.92402991200E+02  0.86462406860E+02 0.  0.
         13    1    3    3    0    0 -0.31280109178E+02  0.18957404839E+02  0.12858322088E+02  0.38770814273E+02  0.10566000000E+00 0. -1.
         22    1    1    0    0    0  0.14573622052E+02  0.28681767125E+02  0.52469760436E+01  0.32597008800E+02  0.00000000000E+00 0.  1.
</event>
<event>
 5    1  0.9034713E-005  0.9118800E+02  0.7818608E-02  0.1130116E+00
         25   -1    0    0    0    0  0.00000000000E+00  0.00000000000E+00  0.99999998245E-14  0.12500000000E+03  0.12500000000E+03 0.  0.
        -13    1    3    3    0    0 -0.12402664424E+02  0.27995532456E+02 -0.37804435307E+02  0.48649382475E+02  0.10566000000E+00 0. -1.
         23    2    1    0    0    0  0.20653935607E+02 -0.61785477985E+00 -0.39083512098E+01  0.10397044913E+03  0.10182147260E+03 0.  0.
         13    1    3    3    0    0  0.33056600031E+02 -0.28613387236E+02  0.33896084097E+02  0.55321066655E+02  0.10566000000E+00 0.  1.
         22    1    1    0    0    0 -0.20653935607E+02  0.61785477985E+00  0.39083512098E+01  0.21029550869E+02  0.00000000000E+00 0.  1.
</event>
<event>
 5    1  0.9034713E-005  0.9118800E+02  0.7818608E-02  0.1130116E+00
         25   -1    0    0    0    0  0.00000000000E+00  0.00000000000E+00  0.99999998245E-14  0.12500000000E+03  0.12500000000E+03 0.  0.
        -13    1    3    3    0    0  0.12324500363E+02  0.30906878911E+02  0.36890575956E+02  0.49679515212E+02  0.10566000000E+00 0.  1.
         23    2    1    0    0    0  0.27551517054E+02  0.16941333277E+01  0.25304960421E+01  0.97280700046E+02  0.93247922290E+02 0.  0.
         13    1    3    3    0    0  0.15227016691E+02 -0.29212745584E+02 -0.34360079914E+02  0.47601184834E+02  0.10566000000E+00 0. -1.
         22    1    1    0    0    0 -0.27551517054E+02 -0.16941333277E+01 -0.25304960421E+01  0.27719299954E+02  0.00000000000E+00 0. -1.
</event>
<event>
 5    1  0.9034713E-005  0.9118800E+02  0.7818608E-02  0.1130116E+00
         25   -1    0    0    0    0  0.00000000000E+00  0.00000000000E+00  0.99999998245E-14  0.12500000000E+03  0.12500000000E+03 0.  0.
        -13    1    3    3    0    0 -0.16724476597E+02  0.35513205606E+02  0.11395268443E+02  0.40874921367E+02  0.10566000000E+00 0.  1.
         23    2    1    0    0    0 -0.42788248467E+01  0.29662786200E+00 -0.28879525944E+02  0.95803710015E+02  0.91246520502E+02 0.  0.
         13    1    3    3    0    0  0.12445651750E+02 -0.35216577744E+02 -0.40274794386E+02  0.54928788648E+02  0.10566000000E+00 0. -1.
         22    1    1    0    0    0  0.42788248467E+01 -0.29662786200E+00  0.28879525944E+02  0.29196289985E+02  0.00000000000E+00 0. -1.
</event>
<event>
 5    1  0.9034713E-005  0.9118800E+02  0.7818608E-02  0.1130116E+00
         25   -1    0    0    0    0  0.00000000000E+00  0.00000000000E+00  0.99999998245E-14  0.12500000000E+03  0.12500000000E+03 0.  0.
        -13    1    3    3    0    0 -0.55634416794E+01 -0.46929326439E+02  0.83040000810E+01  0.47982091917E+02  0.10566000000E+00 0. -1.
         23    2    1    0    0    0  0.25203978919E+02 -0.12695689835E+02 -0.59337998334E+01  0.96161985606E+02  0.91736014747E+02 0.  0.
         13    1    3    3    0    0  0.30767420598E+02  0.34233636605E+02 -0.14237799914E+02  0.48179893689E+02  0.10566000000E+00 0.  1.
         22    1    1    0    0    0 -0.25203978919E+02  0.12695689835E+02  0.59337998334E+01  0.28838014394E+02  0.00000000000E+00 0.  1.
</event>
<event>
 5    1  0.9034713E-005  0.9118800E+02  0.7818608E-02  0.1130116E+00
         25   -1    0    0    0    0  0.00000000000E+00  0.00000000000E+00  0.99999998245E-14  0.12500000000E+03  0.12500000000E+03 0.  0.
        -13    1    3    3    0    0 -0.27031422394E+02 -0.13113265866E+02 -0.24639360988E+02  0.38855692148E+02  0.10566000000E+00 0. -1.
         23    2    1    0    0    0 -0.12164244972E+02  0.14770462512E+02  0.22410291625E+02  0.95532109182E+02  0.90873688686E+02 0.  0.
         13    1    3    3    0    0  0.14867177422E+02  0.27883728378E+02  0.47049652613E+02  0.56676417034E+02  0.10566000000E+00 0.  1.
         22    1    1    0    0    0  0.12164244972E+02 -0.14770462512E+02 -0.22410291625E+02  0.29467890818E+02  0.00000000000E+00 0.  1.
</event>
<event>
 5    1  0.9034713E-005  0.9118800E+02  0.7818608E-02  0.1130116E+00
         25   -1    0    0    0    0  0.00000000000E+00  0.00000000000E+00  0.99999998245E-14  0.12500000000E+03  0.12500000000E+03 0.  0.
        -13    1    3    3    0    0  0.37337771142E+02 -0.27138307271E+02  0.12520098528E+01  0.46175486658E+02  0.10566000000E+00 0.  1.
         23    2    1    0    0    0 -0.97194041668E+01 -0.28205527949E+02  0.89120805346E+01  0.93864107469E+02  0.88549572937E+02 0.  0.
         13    1    3    3    0    0 -0.47057175308E+02 -0.10672206775E+01  0.76600706817E+01  0.47688620811E+02  0.10566000000E+00 0. -1.
         22    1    1    0    0    0  0.97194041668E+01  0.28205527949E+02 -0.89120805346E+01  0.31135892531E+02  0.00000000000E+00 0.  1.
</event>
<event>
 5    1  0.9034713E-005  0.9118800E+02  0.7818608E-02  0.1130116E+00
         25   -1    0    0    0    0  0.00000000000E+00  0.00000000000E+00  0.99999998245E-14  0.12500000000E+03  0.12500000000E+03 0.  0.
        -13    1    3    3    0    0 -0.51883877127E+02 -0.96478187080E+01 -0.11558568521E+02  0.54024335089E+02  0.10566000000E+00 0. -1.
         23    2    1    0    0    0 -0.26920485513E+02  0.16524352208E+02  0.35338805192E+01  0.93215490130E+02  0.87629176263E+02 0.  0.
         13    1    3    3    0    0  0.24963391614E+02  0.26172170916E+02  0.15092449040E+02  0.39191155041E+02  0.10566000000E+00 0.  1.
         22    1    1    0    0    0  0.26920485513E+02 -0.16524352208E+02 -0.35338805192E+01  0.31784509870E+02  0.00000000000E+00 0. -1.
</event>
<event>
 5    1  0.9034713E-005  0.9118800E+02  0.7818608E-02  0.1130116E+00
         25   -1    0    0    0    0  0.00000000000E+00  0.00000000000E+00  0.99999998245E-14  0.12500000000E+03  0.12500000000E+03 0.  0.
        -13    1    3    3    0    0  0.31284035956E+01 -0.20815024221E+02 -0.31745043487E+02  0.38089514206E+02  0.10566000000E+00 0. -1.
         23    2    1    0    0    0 -0.27243507393E+02  0.13181628528E+02  0.17886173383E+01  0.94682295969E+02  0.89697123657E+02 0.  0.
         13    1    3    3    0    0 -0.30371910989E+02  0.33996652749E+02  0.33533660826E+02  0.56592781763E+02  0.10566000000E+00 0.  1.
         22    1    1    0    0    0  0.27243507393E+02 -0.13181628528E+02 -0.17886173383E+01  0.30317704031E+02  0.00000000000E+00 0.  1.
</event>
<event>
 5    1  0.9034713E-005  0.9118800E+02  0.7818608E-02  0.1130116E+00
         25   -1    0    0    0    0  0.00000000000E+00  0.00000000000E+00  0.99999998245E-14  0.12500000000E+03  0.12500000000E+03 0.  0.
        -13    1    3    3    0    0 -0.42399244186E+02  0.85039303028E+01 -0.12832648489E+02  0.45107657547E+02  0.10566000000E+00 0.  1.
         23    2    1    0    0    0  0.70409691668E+01  0.15372010487E+02 -0.23401637244E+02  0.96129416720E+02  0.91691625463E+02 0.  0.
         13    1    3    3    0    0  0.49440213353E+02  0.68680801837E+01 -0.10568988755E+02  0.51021759173E+02  0.10566000000E+00 0. -1.
         22    1    1    0    0    0 -0.70409691668E+01 -0.15372010487E+02  0.23401637244E+02  0.28870583280E+02  0.00000000000E+00 0. -1.
</event>
<event>
 5    1  0.9034713E-005  0.9118800E+02  0.7818608E-02  0.1130116E+00
         25   -1    0    0    0    0  0.00000000000E+00  0.00000000000E+00  0.99999998245E-14  0.12500000000E+03  0.12500000000E+03 0.  0.
        -13    1    3    3    0    0 -0.53590963762E+01 -0.45234033829E+02 -0.13227337435E+02  0.47432176316E+02  0.10566000000E+00 0. -1.
         23    2    1    0    0    0 -0.45915622484E+01 -0.29867274966E+02  0.23152530431E+02  0.86931952727E+02  0.78153619122E+02 0.  0.
         13    1    3    3    0    0  0.76753412775E+00  0.15366758862E+02  0.36379867866E+02  0.39499776412E+02  0.10566000000E+00 0.  1.
         22    1    1    0    0    0  0.45915622484E+01  0.29867274966E+02 -0.23152530431E+02  0.38068047273E+02  0.00000000000E+00 0.  1.
</event>
<event>
 5    1  0.9034713E-005  0.9118800E+02  0.7818608E-02  0.1130116E+00
         25   -1    0    0    0    0  0.00000000000E+00  0.00000000000E+00  0.99999998245E-14  0.12500000000E+03  0.12500000000E+03 0.  0.
        -13    1    3    3    0    0  0.11646880468E+01 -0.59082114739E+02 -0.93680771975E+00  0.59101112959E+02  0.10566000000E+00 0.  1.
         23    2    1    0    0    0 -0.58367434616E+01 -0.21966098899E+02  0.12340524262E+02  0.99137563646E+02  0.95704706841E+02 0.  0.
         13    1    3    3    0    0 -0.70014315084E+01  0.37116015840E+02  0.13277331982E+02  0.40036450687E+02  0.10566000000E+00 0. -1.
         22    1    1    0    0    0  0.58367434616E+01  0.21966098899E+02 -0.12340524262E+02  0.25862436354E+02  0.00000000000E+00 0.  1.
</event>
<event>
 5    1  0.9034713E-005  0.9118800E+02  0.7818608E-02  0.1130116E+00
         25   -1    0    0    0    0  0.00000000000E+00  0.00000000000E+00  0.99999998245E-14  0.12500000000E+03  0.12500000000E+03 0.  0.
        -13    1    3    3    0    0  0.14657769318E+02  0.56087070895E+02 -0.16481901622E+02  0.60268349638E+02  0.10566000000E+00 0.  1.
         23    2    1    0    0    0  0.17619676625E+02  0.21117344284E+02 -0.71191832871E+01  0.96590881663E+02  0.92318581097E+02 0.  0.
         13    1    3    3    0    0  0.29619073066E+01 -0.34969726610E+02  0.93627183350E+01  0.36322532026E+02  0.10566000000E+00 0. -1.
         22    1    1    0    0    0 -0.17619676625E+02 -0.21117344284E+02  0.71191832871E+01  0.28409118337E+02  0.00000000000E+00 0.  1.
</event>
<event>
 5    1  0.9034713E-005  0.9118800E+02  0.7818608E-02  0.1130116E+00
         25   -1    0    0    0    0  0.00000000000E+00  0.00000000000E+00  0.99999998245E-14  0.12500000000E+03  0.12500000000E+03 0.  0.
        -13    1    3    3    0    0 -0.40667978974E+02 -0.21174666112E+01 -0.19384441861E+02  0.45101396087E+02  0.10566000000E+00 0. -1.
         23    2    1    0    0    0  0.63903440048E+00 -0.28489453867E+02 -0.66067042470E+01  0.95747549033E+02  0.91169552254E+02 0.  0.
         13    1    3    3    0    0  0.41307013374E+02 -0.26371987255E+02  0.12777737614E+02  0.50646152946E+02  0.10566000000E+00 0.  1.
         22    1    1    0    0    0 -0.63903440048E+00  0.28489453867E+02  0.66067042470E+01  0.29252450967E+02  0.00000000000E+00 0. -1.
</event>
<event>
 5    1  0.9034713E-005  0.9118800E+02  0.7818608E-02  0.1130116E+00
         25   -1    0    0    0    0  0.00000000000E+00  0.00000000000E+00  0.99999998245E-14  0.12500000000E+03  0.12500000000E+03 0.  0.
        -13    1    3    3    0    0 -0.84428043522E+01 -0.27248352212E+02  0.16786730817E+02  0.33099231701E+02  0.10566000000E+00 0. -1.
         23    2    1    0    0    0  0.16518658390E+02  0.23084404953E+02 -0.94181472796E+01  0.95092520581E+02  0.90266993664E+02 0.  0.
         13    1    3    3    0    0  0.24961462742E+02  0.50332757165E+02 -0.26204878097E+02  0.61993288880E+02  0.10566000000E+00 0.  1.
         22    1    1    0    0    0 -0.16518658390E+02 -0.23084404953E+02  0.94181472796E+01  0.29907479419E+02  0.00000000000E+00 0.  1.
</event>
<event>
 5    1  0.9034713E-005  0.9118800E+02  0.7818608E-02  0.1130116E+00
         25   -1    0    0    0    0  0.00000000000E+00  0.00000000000E+00  0.99999998245E-14  0.12500000000E+03  0.12500000000E+03 0.  0.
        -13    1    3    3    0    0  0.33447380700E+02  0.17537837172E+01 -0.23894884159E+01  0.33578621949E+02  0.10566000000E+00 0.  1.
         23    2    1    0    0    0 -0.45452730411E+01  0.37612717454E+02 -0.84827369678E+01  0.86175615295E+02  0.76934412480E+02 0.  0.
         13    1    3    3    0    0 -0.37992653742E+02  0.35858933737E+02 -0.60932485519E+01  0.52596993346E+02  0.10566000000E+00 0. -1.
         22    1    1    0    0    0  0.45452730411E+01 -0.37612717454E+02  0.84827369678E+01  0.38824384705E+02  0.00000000000E+00 0. -1.
</event>
<event>
 5    1  0.9034713E-005  0.9118800E+02  0.7818608E-02  0.1130116E+00
         25   -1    0    0    0    0  0.00000000000E+00  0.00000000000E+00  0.99999998245E-14  0.12500000000E+03  0.12500000000E+03 0.  0.
        -13    1    3    3    0    0  0.48047404768E+02 -0.34138564013E+02  0.19425634556E+02  0.62059335315E+02  0.10566000000E+00 0.  1.
         23    2    1    0    0    0  0.18957463642E+02 -0.18690775611E+02  0.11866906404E+02  0.95852890567E+02  0.91313868836E+02 0.  0.
         13    1    3    3    0    0 -0.29089941126E+02  0.15447788402E+02 -0.75587281520E+01  0.33793555252E+02  0.10566000000E+00 0. -1.
         22    1    1    0    0    0 -0.18957463642E+02  0.18690775611E+02 -0.11866906404E+02  0.29147109433E+02  0.00000000000E+00 0.  1.
</event>
<event>
 5    1  0.9034713E-005  0.9118800E+02  0.7818608E-02  0.1130116E+00
         25   -1    0    0    0    0  0.00000000000E+00  0.00000000000E+00  0.99999998245E-14  0.12500000000E+03  0.12500000000E+03 0.  0.
        -13    1    3    3    0    0 -0.20256995131E+02 -0.42493556581E+02 -0.40916985311E+02  0.62371941237E+02  0.10566000000E+00 0.  1.
         23    2    1    0    0    0 -0.83146328553E+01 -0.23233955807E+02 -0.23085715789E+02  0.91207987698E+02  0.84717158383E+02 0.  0.
         13    1    3    3    0    0  0.11942362275E+02  0.19259600775E+02  0.17831269522E+02  0.28836046461E+02  0.10566000000E+00 0. -1.
         22    1    1    0    0    0  0.83146328553E+01  0.23233955807E+02  0.23085715789E+02  0.33792012302E+02  0.00000000000E+00 0.  1.
</event>
<event>
 5    1  0.9034713E-005  0.9118800E+02  0.7818608E-02  0.1130116E+00
         25   -1    0    0    0    0  0.00000000000E+00  0.00000000000E+00  0.99999998245E-14  0.12500000000E+03  0.12500000000E+03 0.  0.
        -13    1    3    3    0    0  0.66263506390E+01  0.23294513473E+02  0.22361752029E+02  0.32963646622E+02  0.10566000000E+00 0.  1.
         23    2    1    0    0    0 -0.35671531155E+01 -0.25662500023E+02 -0.14703424824E+02  0.95209411044E+02  0.90428716462E+02 0.  0.
         13    1    3    3    0    0 -0.10193503755E+02 -0.48957013496E+02 -0.37065176854E+02  0.62245764422E+02  0.10566000000E+00 0. -1.
         22    1    1    0    0    0  0.35671531155E+01  0.25662500023E+02  0.14703424824E+02  0.29790588956E+02  0.00000000000E+00 0. -1.
</event>
<event>
 5    1  0.9034713E-005  0.9118800E+02  0.7818608E-02  0.1130116E+00
         25   -1    0    0    0    0  0.00000000000E+00  0.00000000000E+00  0.99999998245E-14  0.12500000000E+03  0.12500000000E+03 0.  0.
        -13    1    3    3    0    0  0.17312499141E+02  0.24970291911E+02 -0.36615349565E+02  0.47580805925E+02  0.10566000000E+00 0. -1.
         23    2    1    0    0    0  0.28514933547E+02 -0.79137342143E+01 -0.41714105549E+01  0.95114731214E+02  0.90297745285E+02 0.  0.
         13    1    3    3    0    0  0.11202434406E+02 -0.32884026126E+02  0.32443939010E+02  0.47533925289E+02  0.10566000000E+00 0.  1.
         22    1    1    0    0    0 -0.28514933547E+02  0.79137342143E+01  0.41714105549E+01  0.29885268786E+02  0.00000000000E+00 0.  1.
</event>
<event>
 5    1  0.9034713E-005  0.9118800E+02  0.7818608E-02  0.1130116E+00
         25   -1    0    0    0    0  0.00000000000E+00  0.00000000000E+00  0.99999998245E-14  0.12500000000E+03  0.12500000000E+03 0.  0.
        -13    1    3    3    0    0 -0.30714838890E+01  0.17332150396E+02  0.15814142975E+02  0.23662961199E+02  0.10566000000E+00 0.  1.
         23    2    1    0    0    0 -0.13326614147E+02 -0.24318533472E+02 -0.28428949931E+02  0.85286086707E+02  0.75475305079E+02 0.  0.
         13    1    3    3    0    0 -0.10255130258E+02 -0.41650683868E+02 -0.44243092907E+02  0.61623125507E+02  0.10566000000E+00 0. -1.
         22    1    1    0    0    0  0.13326614147E+02  0.24318533472E+02  0.28428949931E+02  0.39713913293E+02  0.00000000000E+00 0. -1.
</event>
<event>
 5    1  0.9034713E-005  0.9118800E+02  0.7818608E-02  0.1130116E+00
         25   -1    0    0    0    0  0.00000000000E+00  0.00000000000E+00  0.99999998245E-14  0.12500000000E+03  0.12500000000E+03 0.  0.
        -13    1    3    3    0    0  0.43350853811E+02  0.25796780099E+02  0.20064595448E+02  0.54289681746E+02  0.10566000000E+00 0. -1.
         23    2    1    0    0    0  0.23961868587E+02 -0.10369054534E+02  0.12642599479E+02  0.95990971066E+02  0.91502692674E+02 0.  0.
         13    1    3    3    0    0 -0.19388985224E+02 -0.36165834633E+02 -0.74219959691E+01  0.41701289320E+02  0.10566000000E+00 0.  1.
         22    1    1    0    0    0 -0.23961868587E+02  0.10369054534E+02 -0.12642599479E+02  0.29009028934E+02  0.00000000000E+00 0. -1.
</event>
<event>
 5    1  0.9034713E-005  0.9118800E+02  0.7818608E-02  0.1130116E+00
         25   -1    0    0    0    0  0.00000000000E+00  0.00000000000E+00  0.99999998245E-14  0.12500000000E+03  0.12500000000E+03 0.  0.
        -13    1    3    3    0    0 -0.10116456438E+02  0.51780400812E+02 -0.14811161422E+02  0.54799035263E+02  0.10566000000E+00 0.  1.
         23    2    1    0    0    0 -0.23343006232E+02  0.11633984929E+02 -0.86882908133E+01  0.97509420840E+02  0.93554022950E+02 0.  0.
         13    1    3    3    0    0 -0.13226549794E+02 -0.40146415882E+02  0.61228706086E+01  0.42710385577E+02  0.10566000000E+00 0. -1.
         22    1    1    0    0    0  0.23343006232E+02 -0.11633984929E+02  0.86882908133E+01  0.27490579160E+02  0.00000000000E+00 0.  1.
</event>
<event>
 5    1  0.9034713E-005  0.9118800E+02  0.7818608E-02  0.1130116E+00
         25   -1    0    0    0    0  0.00000000000E+00  0.00000000000E+00  0.99999998245E-14  0.12500000000E+03  0.12500000000E+03 0.  0.
        -13    1    3    3    0    0 -0.23502488052E+02 -0.18659906056E+02  0.40587914013E+02  0.50477212350E+02  0.10566000000E+00 0.  1.
         23    2    1    0    0    0 -0.27514256549E+02 -0.95672770083E+01 -0.34897631838E+01  0.95661534637E+02  0.91051543970E+02 0.  0.
         13    1    3    3    0    0 -0.40117684961E+01  0.90926290476E+01 -0.44077677197E+02  0.45184322287E+02  0.10566000000E+00 0. -1.
         22    1    1    0    0    0  0.27514256549E+02  0.95672770083E+01  0.34897631838E+01  0.29338465363E+02  0.00000000000E+00 0.  1.
</event>
<event>
 5    1  0.9034713E-005  0.9118800E+02  0.7818608E-02  0.1130116E+00
         25   -1    0    0    0    0  0.00000000000E+00  0.00000000000E+00  0.99999998245E-14  0.12500000000E+03  0.12500000000E+03 0.  0.
        -13    1    3    3    0    0  0.78037600580E+01  0.55735614460E+02  0.72078104639E+01  0.56739061378E+02  0.10566000000E+00 0. -1.
         23    2    1    0    0    0 -0.11654549814E+02  0.30954199407E+02 -0.68199390487E+01  0.91228672503E+02  0.84747673276E+02 0.  0.
         13    1    3    3    0    0 -0.19458309872E+02 -0.24781415053E+02 -0.14027749513E+02  0.34489611125E+02  0.10566000000E+00 0.  1.
         22    1    1    0    0    0  0.11654549814E+02 -0.30954199407E+02  0.68199390487E+01  0.33771327497E+02  0.00000000000E+00 0. -1.
</event>
<event>
 5    1  0.9034713E-005  0.9118800E+02  0.7818608E-02  0.1130116E+00
         25   -1    0    0    0    0  0.00000000000E+00  0.00000000000E+00  0.99999998245E-14  0.12500000000E+03  0.12500000000E+03 0.  0.
        -13    1    3    3    0    0 -0.28555305042E+02 -0.34521939067E+02  0.41480601878E+01  0.44993191600E+02  0.10566000000E+00 0. -1.
         23    2    1    0    0    0 -0.24362563019E+02  0.16033295508E+02  0.10734709742E+01  0.95815185770E+02  0.91262239960E+02 0.  0.
         13    1    3    3    0    0  0.41927420231E+01  0.50555234575E+02 -0.30745892136E+01  0.50821994170E+02  0.10566000000E+00 0.  1.
         22    1    1    0    0    0  0.24362563019E+02 -0.16033295508E+02 -0.10734709742E+01  0.29184814230E+02  0.00000000000E+00 0.  1.
</event>
<event>
 5    1  0.9034713E-005  0.9118800E+02  0.7818608E-02  0.1130116E+00
         25   -1    0    0    0    0  0.00000000000E+00  0.00000000000E+00  0.99999998245E-14  0.12500000000E+03  0.12500000000E+03 0.  0.
        -13    1    3    3    0    0 -0.37300600820E+02  0.43797885561E+02 -0.49202469730E+01  0.57739151323E+02  0.10566000000E+00 0. -1.
         23    2    1    0    0    0 -0.28292248242E+02  0.69567666308E+01 -0.29315885853E+01  0.95717887300E+02  0.91128874814E+02 0.  0.
         13    1    3    3    0    0  0.90083525775E+01 -0.36841118930E+02  0.19886583877E+01  0.37978735977E+02  0.10566000000E+00 0.  1.
         22    1    1    0    0    0  0.28292248242E+02 -0.69567666308E+01  0.29315885853E+01  0.29282112700E+02  0.00000000000E+00 0. -1.
</event>
<event>
 5    1  0.9034713E-005  0.9118800E+02  0.7818608E-02  0.1130116E+00
         25   -1    0    0    0    0  0.00000000000E+00  0.00000000000E+00  0.99999998245E-14  0.12500000000E+03  0.12500000000E+03 0.  0.
        -13    1    3    3    0    0 -0.35554666478E+02  0.19086103278E+02  0.25666433381E+02  0.47824581683E+02  0.10566000000E+00 0. -1.
         23    2    1    0    0    0 -0.23698145429E+02  0.77748517923E+01 -0.17853576364E+02  0.94327526899E+02  0.89201354949E+02 0.  0.
         13    1    3    3    0    0  0.11856521049E+02 -0.11311251486E+02 -0.43520009744E+02  0.46502945216E+02  0.10566000000E+00 0.  1.
         22    1    1    0    0    0  0.23698145429E+02 -0.77748517923E+01  0.17853576364E+02  0.30672473101E+02  0.00000000000E+00 0. -1.
</event>
<event>
 5    1  0.9034713E-005  0.9118800E+02  0.7818608E-02  0.1130116E+00
         25   -1    0    0    0    0  0.00000000000E+00  0.00000000000E+00  0.99999998245E-14  0.12500000000E+03  0.12500000000E+03 0.  0.
        -13    1    3    3    0    0 -0.52542421091E+02 -0.25696542467E+02 -0.11870416889E+02  0.59681959334E+02  0.10566000000E+00 0.  1.
         23    2    1    0    0    0 -0.29249788069E+02 -0.32659901750E+01  0.32688029854E+01  0.95387471117E+02  0.90674515599E+02 0.  0.
         13    1    3    3    0    0  0.23292633022E+02  0.22430552292E+02  0.15139219875E+02  0.35705511782E+02  0.10566000000E+00 0. -1.
         22    1    1    0    0    0  0.29249788069E+02  0.32659901750E+01 -0.32688029854E+01  0.29612528883E+02  0.00000000000E+00 0.  1.
</event>
<event>
 5    1  0.9034713E-005  0.9118800E+02  0.7818608E-02  0.1130116E+00
         25   -1    0    0    0    0  0.00000000000E+00  0.00000000000E+00  0.99999998245E-14  0.12500000000E+03  0.12500000000E+03 0.  0.
        -13    1    3    3    0    0  0.15990097374E+02  0.47104070834E+02  0.34480228958E+02  0.60525813140E+02  0.10566000000E+00 0. -1.
         23    2    1    0    0    0  0.17373887999E+02  0.16903666443E+02  0.14822372237E+02  0.96587174689E+02  0.92313561692E+02 0.  0.
         13    1    3    3    0    0  0.13837906257E+01 -0.30200404391E+02 -0.19657856721E+02  0.36061361549E+02  0.10566000000E+00 0.  1.
         22    1    1    0    0    0 -0.17373887999E+02 -0.16903666443E+02 -0.14822372237E+02  0.28412825311E+02  0.00000000000E+00 0. -1.
</event>
<event>
 5    1  0.9034713E-005  0.9118800E+02  0.7818608E-02  0.1130116E+00
         25   -1    0    0    0    0  0.00000000000E+00  0.00000000000E+00  0.99999998245E-14  0.12500000000E+03  0.12500000000E+03 0.  0.
        -13    1    3    3    0    0 -0.26961614623E+02  0.16950109002E+02 -0.21017755802E+02  0.38157464293E+02  0.10566000000E+00 0. -1.
         23    2    1    0    0    0  0.24635285019E+02 -0.80917616684E+01 -0.12755310369E+02  0.96102390800E+02  0.91654774562E+02 0.  0.
         13    1    3    3    0    0  0.51596899642E+02 -0.25041870670E+02  0.82624454337E+01  0.57944926507E+02  0.10566000000E+00 0.  1.
         22    1    1    0    0    0 -0.24635285019E+02  0.80917616684E+01  0.12755310369E+02  0.28897609200E+02  0.00000000000E+00 0.  1.
</event>
<event>
 5    1  0.9034713E-005  0.9118800E+02  0.7818608E-02  0.1130116E+00
         25   -1    0    0    0    0  0.00000000000E+00  0.00000000000E+00  0.99999998245E-14  0.12500000000E+03  0.12500000000E+03 0.  0.
        -13    1    3    3    0    0  0.49041453556E+02  0.30898710414E+02 -0.76426864573E+00  0.57968868738E+02  0.10566000000E+00 0.  1.
         23    2    1    0    0    0  0.12053273941E+02  0.22395019318E+02 -0.11018720967E+02  0.97283028400E+02  0.93251043426E+02 0.  0.
         13    1    3    3    0    0 -0.36988179615E+02 -0.85036910969E+01 -0.10254452321E+02  0.39314159662E+02  0.10566000000E+00 0. -1.
         22    1    1    0    0    0 -0.12053273941E+02 -0.22395019318E+02  0.11018720967E+02  0.27716971600E+02  0.00000000000E+00 0.  1.
</event>
<event>
 5    1  0.9034713E-005  0.9118800E+02  0.7818608E-02  0.1130116E+00
         25   -1    0    0    0    0  0.00000000000E+00  0.00000000000E+00  0.99999998245E-14  0.12500000000E+03  0.12500000000E+03 0.  0.
        -13    1    3    3    0    0  0.12903058947E+02 -0.20382943085E+02 -0.47781904472E+02  0.53526394032E+02  0.10566000000E+00 0.  1.
         23    2    1    0    0    0  0.32038713364E+01  0.13963651226E+02 -0.25932193094E+02  0.95373542470E+02  0.90655312131E+02 0.  0.
         13    1    3    3    0    0 -0.96991876105E+01  0.34346594311E+02  0.21849711378E+02  0.41847148438E+02  0.10566000000E+00 0. -1.
         22    1    1    0    0    0 -0.32038713364E+01 -0.13963651226E+02  0.25932193094E+02  0.29626457530E+02  0.00000000000E+00 0.  1.
</event>
<event>
 5    1  0.9034713E-005  0.9118800E+02  0.7818608E-02  0.1130116E+00
         25   -1    0    0    0    0  0.00000000000E+00  0.00000000000E+00  0.99999998245E-14  0.12500000000E+03  0.12500000000E+03 0.  0.
        -13    1    3    3    0    0 -0.95061414934E+01  0.12898422140E+02 -0.50968754960E+02  0.53428093415E+02  0.10566000000E+00 0. -1.
         23    2    1    0    0    0 -0.44959694833E+00 -0.17830328402E+02 -0.22521696933E+02  0.96271101986E+02  0.91884577033E+02 0.  0.
         13    1    3    3    0    0  0.90565445451E+01 -0.30728750542E+02  0.28447058027E+02  0.42843008571E+02  0.10566000000E+00 0.  1.
         22    1    1    0    0    0  0.44959694833E+00  0.17830328402E+02  0.22521696933E+02  0.28728898014E+02  0.00000000000E+00 0. -1.
</event>
<event>
 5    1  0.9034713E-005  0.9118800E+02  0.7818608E-02  0.1130116E+00
         25   -1    0    0    0    0  0.00000000000E+00  0.00000000000E+00  0.99999998245E-14  0.12500000000E+03  0.12500000000E+03 0.  0.
        -13    1    3    3    0    0  0.21870885454E+02  0.83544686928E+01  0.19094273397E+02  0.30211508044E+02  0.10566000000E+00 0. -1.
         23    2    1    0    0    0  0.53916880041E+01 -0.16898342797E+01 -0.35985012638E+02  0.88574089249E+02  0.80737366271E+02 0.  0.
         13    1    3    3    0    0 -0.16479197450E+02 -0.10044302972E+02 -0.55079286035E+02  0.58362581206E+02  0.10566000000E+00 0.  1.
         22    1    1    0    0    0 -0.53916880041E+01  0.16898342797E+01  0.35985012638E+02  0.36425910751E+02  0.00000000000E+00 0.  1.
</event>
<event>
 5    1  0.9034713E-005  0.9118800E+02  0.7818608E-02  0.1130116E+00
         25   -1    0    0    0    0  0.00000000000E+00  0.00000000000E+00  0.99999998245E-14  0.12500000000E+03  0.12500000000E+03 0.  0.
        -13    1    3    3    0    0 -0.12360105311E+02 -0.22326570871E+01 -0.51875085438E+02  0.53374081858E+02  0.10566000000E+00 0. -1.
         23    2    1    0    0    0  0.96605076700E+01 -0.19259716401E+02 -0.22078481590E+02  0.94150017283E+02  0.88952258661E+02 0.  0.
         13    1    3    3    0    0  0.22020612981E+02 -0.17027059314E+02  0.29796603848E+02  0.40775935425E+02  0.10566000000E+00 0.  1.
         22    1    1    0    0    0 -0.96605076700E+01  0.19259716401E+02  0.22078481590E+02  0.30849982717E+02  0.00000000000E+00 0. -1.
</event>
<event>
 5    1  0.9034713E-005  0.9118800E+02  0.7818608E-02  0.1130116E+00
         25   -1    0    0    0    0  0.00000000000E+00  0.00000000000E+00  0.99999998245E-14  0.12500000000E+03  0.12500000000E+03 0.  0.
        -13    1    3    3    0    0  0.59371069732E+01  0.12606235321E+02 -0.25064998536E+02  0.28678070435E+02  0.10566000000E+00 0.  1.
         23    2    1    0    0    0 -0.14453431445E+02 -0.12795938897E+02  0.28028283422E+02  0.90967333275E+02  0.84361325966E+02 0.  0.
         13    1    3    3    0    0 -0.20390538419E+02 -0.25402174218E+02  0.53093281959E+02  0.62289262840E+02  0.10566000000E+00 0. -1.
         22    1    1    0    0    0  0.14453431445E+02  0.12795938897E+02 -0.28028283422E+02  0.34032666725E+02  0.00000000000E+00 0. -1.
</event>
<event>
 5    1  0.9034713E-005  0.9118800E+02  0.7818608E-02  0.1130116E+00
         25   -1    0    0    0    0  0.00000000000E+00  0.00000000000E+00  0.99999998245E-14  0.12500000000E+03  0.12500000000E+03 0.  0.
        -13    1    3    3    0    0  0.30005379780E+01  0.89234976211E+01 -0.41715894484E+02  0.42765161693E+02  0.10566000000E+00 0. -1.
         23    2    1    0    0    0 -0.20338802314E+02  0.20383093874E+02  0.45609497919E+01  0.95846275394E+02  0.91304812844E+02 0.  0.
         13    1    3    3    0    0 -0.23339340292E+02  0.11459596252E+02  0.46276844276E+02  0.53081113701E+02  0.10566000000E+00 0.  1.
         22    1    1    0    0    0  0.20338802314E+02 -0.20383093874E+02 -0.45609497919E+01  0.29153724606E+02  0.00000000000E+00 0. -1.
</event>
<event>
 5    1  0.9034713E-005  0.9118800E+02  0.7818608E-02  0.1130116E+00
         25   -1    0    0    0    0  0.00000000000E+00  0.00000000000E+00  0.99999998245E-14  0.12500000000E+03  0.12500000000E+03 0.  0.
        -13    1    3    3    0    0  0.38764604320E+02 -0.23688637253E+02 -0.21128822268E+01  0.45478802956E+02  0.10566000000E+00 0.  1.
         23    2    1    0    0    0  0.78307542063E+01 -0.43804421206E+01  0.29764065999E+02  0.93912886764E+02  0.88618404922E+02 0.  0.
         13    1    3    3    0    0 -0.30933850113E+02  0.19308195132E+02  0.31876948225E+02  0.48434083808E+02  0.10566000000E+00 0. -1.
         22    1    1    0    0    0 -0.78307542063E+01  0.43804421206E+01 -0.29764065999E+02  0.31087113236E+02  0.00000000000E+00 0. -1.
</event>
<event>
 5    1  0.9034713E-005  0.9118800E+02  0.7818608E-02  0.1130116E+00
         25   -1    0    0    0    0  0.00000000000E+00  0.00000000000E+00  0.99999998245E-14  0.12500000000E+03  0.12500000000E+03 0.  0.
        -13    1    3    3    0    0 -0.30213581079E+02 -0.33790651457E+02 -0.24736381502E+01  0.45396020280E+02  0.10566000000E+00 0.  1.
         23    2    1    0    0    0 -0.68984239232E+01  0.59000290317E+01 -0.26263402637E+02  0.97212144500E+02  0.93155977398E+02 0.  0.
         13    1    3    3    0    0  0.23315157156E+02  0.39690680488E+02 -0.23789764487E+02  0.51816124220E+02  0.10566000000E+00 0. -1.
         22    1    1    0    0    0  0.68984239232E+01 -0.59000290317E+01  0.26263402637E+02  0.27787855500E+02  0.00000000000E+00 0. -1.
</event>
<event>
 5    1  0.9034713E-005  0.9118800E+02  0.7818608E-02  0.1130116E+00
         25   -1    0    0    0    0  0.00000000000E+00  0.00000000000E+00  0.99999998245E-14  0.12500000000E+03  0.12500000000E+03 0.  0.
        -13    1    3    3    0    0 -0.12196887934E+02  0.32730610106E+02  0.55907817124E+01  0.35374071258E+02  0.10566000000E+00 0.  1.
         23    2    1    0    0    0  0.45322296453E+01 -0.26452068613E+02  0.82195756513E+01  0.96931967234E+02  0.92779263892E+02 0.  0.
         13    1    3    3    0    0  0.16729117579E+02 -0.59182678719E+02  0.26287939389E+01  0.61557895976E+02  0.10566000000E+00 0. -1.
         22    1    1    0    0    0 -0.45322296453E+01  0.26452068613E+02 -0.82195756513E+01  0.28068032766E+02  0.00000000000E+00 0. -1.
</event>
<event>
 5    1  0.9034713E-005  0.9118800E+02  0.7818608E-02  0.1130116E+00
         25   -1    0    0    0    0  0.00000000000E+00  0.00000000000E+00  0.99999998245E-14  0.12500000000E+03  0.12500000000E+03 0.  0.
        -13    1    3    3    0    0  0.69339164980E+01  0.41015788492E+02  0.45837715966E+02  0.61898961806E+02  0.10566000000E+00 0.  1.
         23    2    1    0    0    0  0.66080177186E+01  0.22609667189E+02  0.17650577972E+02  0.95565227174E+02  0.90919232254E+02 0.  0.
         13    1    3    3    0    0 -0.32589877938E+00 -0.18406121304E+02 -0.28187137995E+02  0.33666265368E+02  0.10566000000E+00 0. -1.
         22    1    1    0    0    0 -0.66080177186E+01 -0.22609667189E+02 -0.17650577972E+02  0.29434772826E+02  0.00000000000E+00 0.  1.
</event>
<event>
 5    1  0.9034713E-005  0.9118800E+02  0.7818608E-02  0.1130116E+00
         25   -1    0    0    0    0  0.00000000000E+00  0.00000000000E+00  0.99999998245E-14  0.12500000000E+03  0.12500000000E+03 0.  0.
        -13    1    3    3    0    0 -0.27215016985E+02  0.55766856259E+02 -0.55615157765E+01  0.62302014641E+02  0.10566000000E+00 0.  1.
         23    2    1    0    0    0 -0.15633202262E+02  0.25258051961E+02 -0.76917207106E+00  0.95285393701E+02  0.90533686688E+02 0.  0.
         13    1    3    3    0    0  0.11581814724E+02 -0.30508804298E+02  0.47923437054E+01  0.32983379060E+02  0.10566000000E+00 0. -1.
         22    1    1    0    0    0  0.15633202262E+02 -0.25258051961E+02  0.76917207106E+00  0.29714606299E+02  0.00000000000E+00 0.  1.
</event>
<event>
 5    1  0.9034713E-005  0.9118800E+02  0.7818608E-02  0.1130116E+00
         25   -1    0    0    0    0  0.00000000000E+00  0.00000000000E+00  0.99999998245E-14  0.12500000000E+03  0.12500000000E+03 0.  0.
        -13    1    3    3    0    0  0.88685430444E+01  0.20656150147E+02 -0.48279841649E+02  0.53256754204E+02  0.10566000000E+00 0.  1.
         23    2    1    0    0    0 -0.81702925300E+00  0.28694319328E+02 -0.83785424750E+01  0.95096296676E+02  0.90272222577E+02 0.  0.
         13    1    3    3    0    0 -0.96855722974E+01  0.80381691810E+01  0.39901299174E+02  0.41839542473E+02  0.10566000000E+00 0. -1.
         22    1    1    0    0    0  0.81702925300E+00 -0.28694319328E+02  0.83785424750E+01  0.29903703324E+02  0.00000000000E+00 0.  1.
</event>
<event>
 5    1  0.9034713E-005  0.9118800E+02  0.7818608E-02  0.1130116E+00
         25   -1    0    0    0    0  0.00000000000E+00  0.00000000000E+00  0.99999998245E-14  0.12500000000E+03  0.12500000000E+03 0.  0.
        -13    1    3    3    0    0  0.19900067498E+02 -0.36418138407E+02 -0.16306438568E+02  0.44589287887E+02  0.10566000000E+00 0. -1.
         23    2    1    0    0    0 -0.12901170055E+02 -0.18970239435E+02  0.18522226006E+02  0.95514698082E+02  0.90849735941E+02 0.  0.
         13    1    3    3    0    0 -0.32801237553E+02  0.17447898972E+02  0.34828664573E+02  0.50925410195E+02  0.10566000000E+00 0.  1.
         22    1    1    0    0    0  0.12901170055E+02  0.18970239435E+02 -0.18522226006E+02  0.29485301918E+02  0.00000000000E+00 0.  1.
</event>
<event>
 5    1  0.9034713E-005  0.9118800E+02  0.7818608E-02  0.1130116E+00
         25   -1    0    0    0    0  0.00000000000E+00  0.00000000000E+00  0.99999998245E-14  0.12500000000E+03  0.12500000000E+03 0.  0.
        -13    1    3    3    0    0  0.23275437431E+02 -0.46232427816E+02 -0.34142091627E+02  0.62007071807E+02  0.10566000000E+00 0.  1.
         23    2    1    0    0    0  0.73507844218E+01 -0.20199639402E+02 -0.19988938167E+02  0.95646684810E+02  0.91031155120E+02 0.  0.
         13    1    3    3    0    0 -0.15924653009E+02  0.26032788414E+02  0.14153153460E+02  0.33639613003E+02  0.10566000000E+00 0. -1.
         22    1    1    0    0    0 -0.73507844218E+01  0.20199639402E+02  0.19988938167E+02  0.29353315190E+02  0.00000000000E+00 0.  1.
</event>
<event>
 5    1  0.9034713E-005  0.9118800E+02  0.7818608E-02  0.1130116E+00
         25   -1    0    0    0    0  0.00000000000E+00  0.00000000000E+00  0.99999998245E-14  0.12500000000E+03  0.12500000000E+03 0.  0.
        -13    1    3    3    0    0  0.37179296616E+02 -0.14696011059E+02 -0.18126849667E+02  0.43896089585E+02  0.10566000000E+00 0.  1.
         23    2    1    0    0    0  0.10727468183E+02 -0.20909490980E+02  0.22297975198E+02  0.92604242800E+02  0.86752871422E+02 0.  0.
         13    1    3    3    0    0 -0.26451828433E+02 -0.62134799208E+01  0.40424824865E+02  0.48708153215E+02  0.10566000000E+00 0. -1.
         22    1    1    0    0    0 -0.10727468183E+02  0.20909490980E+02 -0.22297975198E+02  0.32395757200E+02  0.00000000000E+00 0. -1.
</event>
<event>
 5    1  0.9034713E-005  0.9118800E+02  0.7818608E-02  0.1130116E+00
         25   -1    0    0    0    0  0.00000000000E+00  0.00000000000E+00  0.99999998245E-14  0.12500000000E+03  0.12500000000E+03 0.  0.
        -13    1    3    3    0    0  0.37863484021E+02  0.29009168141E+02 -0.29237932046E+02  0.55946788047E+02  0.10566000000E+00 0. -1.
         23    2    1    0    0    0  0.68735022680E+01  0.34655712920E+01 -0.27822537541E+02  0.96132218426E+02  0.91695444851E+02 0.  0.
         13    1    3    3    0    0 -0.30989981753E+02 -0.25543596849E+02  0.14153945052E+01  0.40185430378E+02  0.10566000000E+00 0.  1.
         22    1    1    0    0    0 -0.68735022680E+01 -0.34655712920E+01  0.27822537541E+02  0.28867781574E+02  0.00000000000E+00 0.  1.
</event>
<event>
 5    1  0.9034713E-005  0.9118800E+02  0.7818608E-02  0.1130116E+00
         25   -1    0    0    0    0  0.00000000000E+00  0.00000000000E+00  0.99999998245E-14  0.12500000000E+03  0.12500000000E+03 0.  0.
        -13    1    3    3    0    0  0.50551328374E+02 -0.26977338008E+02 -0.40045808449E+00  0.57300829811E+02  0.10566000000E+00 0.  1.
         23    2    1    0    0    0  0.28820770780E+02  0.47782137980E+01 -0.56707300980E+00  0.95780319521E+02  0.91214471880E+02 0.  0.
         13    1    3    3    0    0 -0.21730557593E+02  0.31755551806E+02 -0.16661492531E+00  0.38479489710E+02  0.10566000000E+00 0. -1.
         22    1    1    0    0    0 -0.28820770780E+02 -0.47782137980E+01  0.56707300980E+00  0.29219680479E+02  0.00000000000E+00 0.  1.
</event>
<event>
 5    1  0.9034713E-005  0.9118800E+02  0.7818608E-02  0.1130116E+00
         25   -1    0    0    0    0  0.00000000000E+00  0.00000000000E+00  0.99999998245E-14  0.12500000000E+03  0.12500000000E+03 0.  0.
        -13    1    3    3    0    0  0.22815622137E+01 -0.13610361978E+02  0.52729414460E+02  0.54505502407E+02  0.10566000000E+00 0. -1.
         23    2    1    0    0    0 -0.19824794105E+02 -0.10775550343E+02  0.36548125605E+02  0.82047695851E+02  0.69906537338E+02 0.  0.
         13    1    3    3    0    0 -0.22106356319E+02  0.28348116347E+01 -0.16181288854E+02  0.27542193444E+02  0.10566000000E+00 0.  1.
         22    1    1    0    0    0  0.19824794105E+02  0.10775550343E+02 -0.36548125605E+02  0.42952304149E+02  0.00000000000E+00 0. -1.
</event>
<event>
 5    1  0.9034713E-005  0.9118800E+02  0.7818608E-02  0.1130116E+00
         25   -1    0    0    0    0  0.00000000000E+00  0.00000000000E+00  0.99999998245E-14  0.12500000000E+03  0.12500000000E+03 0.  0.
        -13    1    3    3    0    0  0.36211808567E+02 -0.41276914972E+02  0.33007914965E+01  0.55008955433E+02  0.10566000000E+00 0.  1.
         23    2    1    0    0    0 -0.20879817284E+01 -0.29855203978E+02  0.62120382011E+00  0.95065425233E+02  0.90229464745E+02 0.  0.
         13    1    3    3    0    0 -0.38299790296E+02  0.11421710993E+02 -0.26795876764E+01  0.40056469800E+02  0.10566000000E+00 0. -1.
         22    1    1    0    0    0  0.20879817284E+01  0.29855203978E+02 -0.62120382011E+00  0.29934574767E+02  0.00000000000E+00 0.  1.
</event>
<event>
 5    1  0.9034713E-005  0.9118800E+02  0.7818608E-02  0.1130116E+00
         25   -1    0    0    0    0  0.00000000000E+00  0.00000000000E+00  0.99999998245E-14  0.12500000000E+03  0.12500000000E+03 0.  0.
        -13    1    3    3    0    0 -0.12064871320E+02  0.24461186404E+02 -0.47742137953E+02  0.54983940024E+02  0.10566000000E+00 0.  1.
         23    2    1    0    0    0  0.66610995070E+00  0.27553356132E+02 -0.88048337107E+01  0.96066347737E+02  0.91605605365E+02 0.  0.
         13    1    3    3    0    0  0.12730981271E+02  0.30921697285E+01  0.38937304243E+02  0.41082407712E+02  0.10566000000E+00 0. -1.
         22    1    1    0    0    0 -0.66610995070E+00 -0.27553356132E+02  0.88048337107E+01  0.28933652263E+02  0.00000000000E+00 0.  1.
</event>
<event>
 5    1  0.9034713E-005  0.9118800E+02  0.7818608E-02  0.1130116E+00
         25   -1    0    0    0    0  0.00000000000E+00  0.00000000000E+00  0.99999998245E-14  0.12500000000E+03  0.12500000000E+03 0.  0.
        -13    1    3    3    0    0 -0.26764162482E+02 -0.25652172555E+02  0.24931741841E+02  0.44676137539E+02  0.10566000000E+00 0.  1.
         23    2    1    0    0    0 -0.23836461044E+02 -0.23868867320E+01 -0.18966749733E+02  0.94444939882E+02  0.89365737117E+02 0.  0.
         13    1    3    3    0    0  0.29277014378E+01  0.23265285823E+02 -0.43898491574E+02  0.49768802343E+02  0.10566000000E+00 0. -1.
         22    1    1    0    0    0  0.23836461044E+02  0.23868867320E+01  0.18966749733E+02  0.30555060118E+02  0.00000000000E+00 0. -1.
</event>
<event>
 5    1  0.9034713E-005  0.9118800E+02  0.7818608E-02  0.1130116E+00
         25   -1    0    0    0    0  0.00000000000E+00  0.00000000000E+00  0.99999998245E-14  0.12500000000E+03  0.12500000000E+03 0.  0.
        -13    1    3    3    0    0  0.15403084799E+02 -0.48218929419E+02 -0.88784677370E+01  0.51392202998E+02  0.10566000000E+00 0. -1.
         23    2    1    0    0    0 -0.19067683254E+02 -0.24604470708E+02 -0.13964194826E+01  0.93840627239E+02  0.88516421131E+02 0.  0.
         13    1    3    3    0    0 -0.34470768053E+02  0.23614458711E+02  0.74820482543E+01  0.42448424241E+02  0.10566000000E+00 0.  1.
         22    1    1    0    0    0  0.19067683254E+02  0.24604470708E+02  0.13964194826E+01  0.31159372761E+02  0.00000000000E+00 0. -1.
</event>
<event>
 5    1  0.9034713E-005  0.9118800E+02  0.7818608E-02  0.1130116E+00
         25   -1    0    0    0    0  0.00000000000E+00  0.00000000000E+00  0.99999998245E-14  0.12500000000E+03  0.12500000000E+03 0.  0.
        -13    1    3    3    0    0 -0.36090550063E+02  0.17261822895E+02 -0.80868231487E+01  0.40815514282E+02  0.10566000000E+00 0.  1.
         23    2    1    0    0    0  0.70091356424E+01  0.11092321946E+02 -0.31946608223E+02  0.90463738396E+02  0.83611808969E+02 0.  0.
         13    1    3    3    0    0  0.43099685705E+02 -0.61695009483E+01 -0.23859785074E+02  0.49648224114E+02  0.10566000000E+00 0. -1.
         22    1    1    0    0    0 -0.70091356424E+01 -0.11092321946E+02  0.31946608223E+02  0.34536261604E+02  0.00000000000E+00 0. -1.
</event>
<event>
 5    1  0.9034713E-005  0.9118800E+02  0.7818608E-02  0.1130116E+00
         25   -1    0    0    0    0  0.00000000000E+00  0.00000000000E+00  0.99999998245E-14  0.12500000000E+03  0.12500000000E+03 0.  0.
        -13    1    3    3    0    0  0.42946300889E+02 -0.11499292289E+02 -0.30349447727E+02  0.53830461865E+02  0.10566000000E+00 0.  1.
         23    2    1    0    0    0  0.32718444005E+01 -0.15409349367E+02 -0.26875095493E+02  0.93848374497E+02  0.88527360880E+02 0.  0.
         13    1    3    3    0    0 -0.39674456488E+02 -0.39100570785E+01  0.34743522341E+01  0.40017912633E+02  0.10566000000E+00 0. -1.
         22    1    1    0    0    0 -0.32718444005E+01  0.15409349367E+02  0.26875095493E+02  0.31151625503E+02  0.00000000000E+00 0.  1.
</event>
<event>
 5    1  0.9034713E-005  0.9118800E+02  0.7818608E-02  0.1130116E+00
         25   -1    0    0    0    0  0.00000000000E+00  0.00000000000E+00  0.99999998245E-14  0.12500000000E+03  0.12500000000E+03 0.  0.
        -13    1    3    3    0    0 -0.15466984176E+02 -0.39524476519E+02  0.14070349652E+02  0.44714625649E+02  0.10566000000E+00 0. -1.
         23    2    1    0    0    0 -0.28665326173E+02  0.70196016707E+01 -0.12484922980E+01  0.95461305627E+02  0.90776243625E+02 0.  0.
         13    1    3    3    0    0 -0.13198341998E+02  0.46544078190E+02 -0.15318841950E+02  0.50746679978E+02  0.10566000000E+00 0.  1.
         22    1    1    0    0    0  0.28665326173E+02 -0.70196016707E+01  0.12484922980E+01  0.29538694373E+02  0.00000000000E+00 0.  1.
</event>
<event>
 5    1  0.9034713E-005  0.9118800E+02  0.7818608E-02  0.1130116E+00
         25   -1    0    0    0    0  0.00000000000E+00  0.00000000000E+00  0.99999998245E-14  0.12500000000E+03  0.12500000000E+03 0.  0.
        -13    1    3    3    0    0  0.40922532019E+02 -0.18906942080E+02 -0.20102909694E+01  0.45124034831E+02  0.10566000000E+00 0.  1.
         23    2    1    0    0    0 -0.90238670599E+01 -0.26273039897E+02  0.68645155163E+01  0.96384892531E+02  0.92039247785E+02 0.  0.
         13    1    3    3    0    0 -0.49946399078E+02 -0.73660978169E+01  0.88748064857E+01  0.51260857700E+02  0.10566000000E+00 0. -1.
         22    1    1    0    0    0  0.90238670599E+01  0.26273039897E+02 -0.68645155163E+01  0.28615107469E+02  0.00000000000E+00 0.  1.
</event>
<event>
 5    1  0.9034713E-005  0.9118800E+02  0.7818608E-02  0.1130116E+00
         25   -1    0    0    0    0  0.00000000000E+00  0.00000000000E+00  0.99999998245E-14  0.12500000000E+03  0.12500000000E+03 0.  0.
        -13    1    3    3    0    0 -0.17333460470E+02 -0.35115139628E+02  0.13593964680E+02  0.41452731186E+02  0.10566000000E+00 0. -1.
         23    2    1    0    0    0 -0.30091222309E+02  0.12809531879E+02  0.30599185630E+01  0.92152947337E+02  0.86100155832E+02 0.  0.
         13    1    3    3    0    0 -0.12757761840E+02  0.47924671507E+02 -0.10534046117E+02  0.50700216152E+02  0.10566000000E+00 0.  1.
         22    1    1    0    0    0  0.30091222309E+02 -0.12809531879E+02 -0.30599185630E+01  0.32847052663E+02  0.00000000000E+00 0.  1.
</event>
<event>
 5    1  0.9034713E-005  0.9118800E+02  0.7818608E-02  0.1130116E+00
         25   -1    0    0    0    0  0.00000000000E+00  0.00000000000E+00  0.99999998245E-14  0.12500000000E+03  0.12500000000E+03 0.  0.
        -13    1    3    3    0    0 -0.40641648232E+02  0.56173826267E+01 -0.28206347256E+01  0.41125000947E+02  0.10566000000E+00 0. -1.
         23    2    1    0    0    0  0.90604136563E+01  0.41363291175E+01  0.24990173299E+02  0.98098158507E+02  0.94337371316E+02 0.  0.
         13    1    3    3    0    0  0.49702061888E+02 -0.14810535093E+01  0.27810808024E+02  0.56973157561E+02  0.10566000000E+00 0.  1.
         22    1    1    0    0    0 -0.90604136563E+01 -0.41363291175E+01 -0.24990173299E+02  0.26901841493E+02  0.00000000000E+00 0.  1.
</event>
<event>
 5    1  0.9034713E-005  0.9118800E+02  0.7818608E-02  0.1130116E+00
         25   -1    0    0    0    0  0.00000000000E+00  0.00000000000E+00  0.99999998245E-14  0.12500000000E+03  0.12500000000E+03 0.  0.
        -13    1    3    3    0    0  0.16443937063E+02  0.29538150318E+02 -0.58997896912E+01  0.34317984684E+02  0.10566000000E+00 0. -1.
         23    2    1    0    0    0  0.45257323760E+01 -0.29706812510E+02 -0.13787507920E+01  0.94918811247E+02  0.90026122941E+02 0.  0.
         13    1    3    3    0    0 -0.11918204687E+02 -0.59244962828E+02  0.45210388992E+01  0.60600826563E+02  0.10566000000E+00 0.  1.
         22    1    1    0    0    0 -0.45257323760E+01  0.29706812510E+02  0.13787507920E+01  0.30081188753E+02  0.00000000000E+00 0.  1.
</event>
<event>
 5    1  0.9034713E-005  0.9118800E+02  0.7818608E-02  0.1130116E+00
         25   -1    0    0    0    0  0.00000000000E+00  0.00000000000E+00  0.99999998245E-14  0.12500000000E+03  0.12500000000E+03 0.  0.
        -13    1    3    3    0    0  0.46388631830E+02  0.10328766379E+01 -0.32576497653E+02  0.56694015210E+02  0.10566000000E+00 0. -1.
         23    2    1    0    0    0  0.28660574118E+02 -0.66005913697E+01  0.11648088268E+01  0.95566123348E+02  0.90920464346E+02 0.  0.
         13    1    3    3    0    0 -0.17728057713E+02 -0.76334680077E+01  0.33741306480E+02  0.38872108138E+02  0.10566000000E+00 0.  1.
         22    1    1    0    0    0 -0.28660574118E+02  0.66005913697E+01 -0.11648088268E+01  0.29433876652E+02  0.00000000000E+00 0. -1.
</event>
<event>
 5    1  0.9034713E-005  0.9118800E+02  0.7818608E-02  0.1130116E+00
         25   -1    0    0    0    0  0.00000000000E+00  0.00000000000E+00  0.99999998245E-14  0.12500000000E+03  0.12500000000E+03 0.  0.
        -13    1    3    3    0    0  0.31839296115E+02 -0.38168069160E+02 -0.20517096233E+02  0.53772713177E+02  0.10566000000E+00 0.  1.
         23    2    1    0    0    0  0.30358874452E+02 -0.47836850446E+01  0.22117453518E+01  0.94187068979E+02  0.89004310260E+02 0.  0.
         13    1    3    3    0    0 -0.14804216637E+01  0.33384384115E+02  0.22728841585E+02  0.40414355802E+02  0.10566000000E+00 0. -1.
         22    1    1    0    0    0 -0.30358874452E+02  0.47836850446E+01 -0.22117453518E+01  0.30812931021E+02  0.00000000000E+00 0.  1.
</event>
<event>
 5    1  0.9034713E-005  0.9118800E+02  0.7818608E-02  0.1130116E+00
         25   -1    0    0    0    0  0.00000000000E+00  0.00000000000E+00  0.99999998245E-14  0.12500000000E+03  0.12500000000E+03 0.  0.
        -13    1    3    3    0    0  0.32932970221E+02  0.24634172807E+02 -0.19513507156E+02  0.45521545701E+02  0.10566000000E+00 0. -1.
         23    2    1    0    0    0  0.16550401672E+02 -0.22045393545E+02 -0.64281989315E+01  0.96693871449E+02  0.92457924821E+02 0.  0.
         13    1    3    3    0    0 -0.16382568549E+02 -0.46679566352E+02  0.13085308224E+02  0.51172325748E+02  0.10566000000E+00 0.  1.
         22    1    1    0    0    0 -0.16550401672E+02  0.22045393545E+02  0.64281989315E+01  0.28306128551E+02  0.00000000000E+00 0.  1.
</event>
<event>
 5    1  0.9034713E-005  0.9118800E+02  0.7818608E-02  0.1130116E+00
         25   -1    0    0    0    0  0.00000000000E+00  0.00000000000E+00  0.99999998245E-14  0.12500000000E+03  0.12500000000E+03 0.  0.
        -13    1    3    3    0    0  0.67373775227E+01  0.16097611146E+02  0.45502387964E+02  0.48734010865E+02  0.10566000000E+00 0. -1.
         23    2    1    0    0    0 -0.87230551459E+01  0.27568406750E+02  0.23461692605E+01  0.95989428617E+02  0.91500585540E+02 0.  0.
         13    1    3    3    0    0 -0.15460432669E+02  0.11470795604E+02 -0.43156218704E+02  0.47255417752E+02  0.10566000000E+00 0.  1.
         22    1    1    0    0    0  0.87230551459E+01 -0.27568406750E+02 -0.23461692605E+01  0.29010571383E+02  0.00000000000E+00 0. -1.
</event>
<event>
 5    1  0.9034713E-005  0.9118800E+02  0.7818608E-02  0.1130116E+00
         25   -1    0    0    0    0  0.00000000000E+00  0.00000000000E+00  0.99999998245E-14  0.12500000000E+03  0.12500000000E+03 0.  0.
        -13    1    3    3    0    0 -0.30474781132E+02 -0.39395811660E+02  0.27670934467E+02  0.56977487130E+02  0.10566000000E+00 0.  1.
         23    2    1    0    0    0 -0.27495909441E+02 -0.11598284219E+02  0.17424724566E+01  0.95107167363E+02  0.90287273969E+02 0.  0.
         13    1    3    3    0    0  0.29788716909E+01  0.27797527441E+02 -0.25928462011E+02  0.38129680233E+02  0.10566000000E+00 0. -1.
         22    1    1    0    0    0  0.27495909441E+02  0.11598284219E+02 -0.17424724566E+01  0.29892832637E+02  0.00000000000E+00 0.  1.
</event>
<event>
 5    1  0.9034713E-005  0.9118800E+02  0.7818608E-02  0.1130116E+00
         25   -1    0    0    0    0  0.00000000000E+00  0.00000000000E+00  0.99999998245E-14  0.12500000000E+03  0.12500000000E+03 0.  0.
        -13    1    3    3    0    0  0.23196502941E+02  0.29148012390E+02 -0.10770111837E+01  0.37267351557E+02  0.10566000000E+00 0.  1.
         23    2    1    0    0    0  0.22966684744E+01 -0.25514893852E+02  0.11162349631E+02  0.97055724313E+02  0.92945850248E+02 0.  0.
         13    1    3    3    0    0 -0.20899834467E+02 -0.54662906242E+02  0.12239360815E+02  0.59788372756E+02  0.10566000000E+00 0. -1.
         22    1    1    0    0    0 -0.22966684744E+01  0.25514893852E+02 -0.11162349631E+02  0.27944275687E+02  0.00000000000E+00 0. -1.
</event>
<event>
 5    1  0.9034713E-005  0.9118800E+02  0.7818608E-02  0.1130116E+00
         25   -1    0    0    0    0  0.00000000000E+00  0.00000000000E+00  0.99999998245E-14  0.12500000000E+03  0.12500000000E+03 0.  0.
        -13    1    3    3    0    0  0.50979460387E+02  0.82370976891E+01 -0.10367265474E+02  0.52671116536E+02  0.10566000000E+00 0. -1.
         23    2    1    0    0    0  0.36820625567E+02 -0.16679121289E+02  0.33423320357E+01  0.84439887358E+02  0.74060595728E+02 0.  0.
         13    1    3    3    0    0 -0.14158834821E+02 -0.24916218978E+02  0.13709597509E+02  0.31768770822E+02  0.10566000000E+00 0.  1.
         22    1    1    0    0    0 -0.36820625567E+02  0.16679121289E+02 -0.33423320357E+01  0.40560112642E+02  0.00000000000E+00 0.  1.
</event>
<event>
 5    1  0.9034713E-005  0.9118800E+02  0.7818608E-02  0.1130116E+00
         25   -1    0    0    0    0  0.00000000000E+00  0.00000000000E+00  0.99999998245E-14  0.12500000000E+03  0.12500000000E+03 0.  0.
        -13    1    3    3    0    0 -0.35727094234E+02  0.81975351309E+01  0.34365154503E+02  0.50245396333E+02  0.10566000000E+00 0. -1.
         23    2    1    0    0    0 -0.12238290310E+02 -0.23277317004E+02  0.19593598706E+02  0.92204903615E+02  0.86175552820E+02 0.  0.
         13    1    3    3    0    0  0.23488803924E+02 -0.31474852135E+02 -0.14771555796E+02  0.41959507282E+02  0.10566000000E+00 0.  1.
         22    1    1    0    0    0  0.12238290310E+02  0.23277317004E+02 -0.19593598706E+02  0.32795096385E+02  0.00000000000E+00 0. -1.
</event>
<event>
 5    1  0.9034713E-005  0.9118800E+02  0.7818608E-02  0.1130116E+00
         25   -1    0    0    0    0  0.00000000000E+00  0.00000000000E+00  0.99999998245E-14  0.12500000000E+03  0.12500000000E+03 0.  0.
        -13    1    3    3    0    0  0.44784106441E+02 -0.42929580268E+02  0.58055085591E+01  0.62307946085E+02  0.10566000000E+00 0.  1.
         23    2    1    0    0    0  0.21871871356E+02 -0.17736943476E+02  0.51820676740E+01  0.96367295869E+02  0.92015346368E+02 0.  0.
         13    1    3    3    0    0 -0.22912235085E+02  0.25192636792E+02 -0.62344088504E+00  0.34059349784E+02  0.10566000000E+00 0. -1.
         22    1    1    0    0    0 -0.21871871356E+02  0.17736943476E+02 -0.51820676740E+01  0.28632704131E+02  0.00000000000E+00 0.  1.
</event>
<event>
 5    1  0.9034713E-005  0.9118800E+02  0.7818608E-02  0.1130116E+00
         25   -1    0    0    0    0  0.00000000000E+00  0.00000000000E+00  0.99999998245E-14  0.12500000000E+03  0.12500000000E+03 0.  0.
        -13    1    3    3    0    0  0.21606908855E+02 -0.15799103343E+02  0.21668215724E+02  0.34438247827E+02  0.10566000000E+00 0.  1.
         23    2    1    0    0    0 -0.56170183867E+01  0.10551541761E+02 -0.26621812662E+02  0.95817696484E+02  0.91265678768E+02 0.  0.
         13    1    3    3    0    0 -0.27223927242E+02  0.26350645104E+02 -0.48290028386E+02  0.61379448657E+02  0.10566000000E+00 0. -1.
         22    1    1    0    0    0  0.56170183867E+01 -0.10551541761E+02  0.26621812662E+02  0.29182303516E+02  0.00000000000E+00 0. -1.
</event>
<event>
 5    1  0.9034713E-005  0.9118800E+02  0.7818608E-02  0.1130116E+00
         25   -1    0    0    0    0  0.00000000000E+00  0.00000000000E+00  0.99999998245E-14  0.12500000000E+03  0.12500000000E+03 0.  0.
        -13    1    3    3    0    0 -0.16228363017E+02 -0.17089596446E+02  0.37248486931E+02  0.44078055941E+02  0.10566000000E+00 0.  1.
         23    2    1    0    0    0 -0.55359769007E+01  0.26397063490E+02  0.12093203945E+02  0.95441624152E+02  0.90749137946E+02 0.  0.
         13    1    3    3    0    0  0.10692386116E+02  0.43486659935E+02 -0.25155282986E+02  0.51363568211E+02  0.10566000000E+00 0. -1.
         22    1    1    0    0    0  0.55359769007E+01 -0.26397063490E+02 -0.12093203945E+02  0.29558375848E+02  0.00000000000E+00 0. -1.
</event>
<event>
 5    1  0.9034713E-005  0.9118800E+02  0.7818608E-02  0.1130116E+00
         25   -1    0    0    0    0  0.00000000000E+00  0.00000000000E+00  0.99999998245E-14  0.12500000000E+03  0.12500000000E+03 0.  0.
        -13    1    3    3    0    0 -0.60460810002E+01 -0.32572642768E+02 -0.42036801454E+01  0.33394823598E+02  0.10566000000E+00 0.  1.
         23    2    1    0    0    0 -0.25803380210E+02  0.20849424959E+02  0.60776676778E+01  0.91273882587E+02  0.84814330432E+02 0.  0.
         13    1    3    3    0    0 -0.19757299209E+02  0.53422067727E+02  0.10281347823E+02  0.57879058989E+02  0.10566000000E+00 0. -1.
         22    1    1    0    0    0  0.25803380210E+02 -0.20849424959E+02 -0.60776676778E+01  0.33726117413E+02  0.00000000000E+00 0. -1.
</event>
<event>
 5    1  0.9034713E-005  0.9118800E+02  0.7818608E-02  0.1130116E+00
         25   -1    0    0    0    0  0.00000000000E+00  0.00000000000E+00  0.99999998245E-14  0.12500000000E+03  0.12500000000E+03 0.  0.
        -13    1    3    3    0    0  0.46334344238E+01 -0.66649850203E+01  0.54359436886E+02  0.54962262348E+02  0.10566000000E+00 0. -1.
         23    2    1    0    0    0  0.13012632656E+02 -0.19765342261E+02  0.15783046751E+02  0.96555282949E+02  0.92270367601E+02 0.  0.
         13    1    3    3    0    0  0.83791982322E+01 -0.13100357241E+02 -0.38576390134E+02  0.41593020601E+02  0.10566000000E+00 0.  1.
         22    1    1    0    0    0 -0.13012632656E+02  0.19765342261E+02 -0.15783046751E+02  0.28444717051E+02  0.00000000000E+00 0. -1.
</event>
<event>
 5    1  0.9034713E-005  0.9118800E+02  0.7818608E-02  0.1130116E+00
         25   -1    0    0    0    0  0.00000000000E+00  0.00000000000E+00  0.99999998245E-14  0.12500000000E+03  0.12500000000E+03 0.  0.
        -13    1    3    3    0    0 -0.22267342448E+02  0.22557688597E+02 -0.25694205116E+02  0.40803029239E+02  0.10566000000E+00 0. -1.
         23    2    1    0    0    0  0.22087423376E+02  0.18551072066E+02  0.60931950469E+01  0.95519098181E+02  0.90855789828E+02 0.  0.
         13    1    3    3    0    0  0.44354765824E+02 -0.40066165316E+01  0.31787400163E+02  0.54716068942E+02  0.10566000000E+00 0.  1.
         22    1    1    0    0    0 -0.22087423376E+02 -0.18551072066E+02 -0.60931950469E+01  0.29480901819E+02  0.00000000000E+00 0.  1.
</event>
<event>
 5    1  0.9034713E-005  0.9118800E+02  0.7818608E-02  0.1130116E+00
         25   -1    0    0    0    0  0.00000000000E+00  0.00000000000E+00  0.99999998245E-14  0.12500000000E+03  0.12500000000E+03 0.  0.
        -13    1    3    3    0    0 -0.39197688407E+02 -0.22236902932E+02 -0.35733746937E+02  0.57513915383E+02  0.10566000000E+00 0.  1.
         23    2    1    0    0    0 -0.45660697295E+01 -0.21821590286E+02 -0.17520235635E+02  0.96645292241E+02  0.92392224024E+02 0.  0.
         13    1    3    3    0    0  0.34631618678E+02  0.41531264569E+00  0.18213511302E+02  0.39131376858E+02  0.10566000000E+00 0. -1.
         22    1    1    0    0    0  0.45660697295E+01  0.21821590286E+02  0.17520235635E+02  0.28354707759E+02  0.00000000000E+00 0.  1.
</event>
<event>
 5    1  0.9034713E-005  0.9118800E+02  0.7818608E-02  0.1130116E+00
         25   -1    0    0    0    0  0.00000000000E+00  0.00000000000E+00  0.99999998245E-14  0.12500000000E+03  0.12500000000E+03 0.  0.
        -13    1    3    3    0    0  0.26961695804E+02  0.25091457075E+02  0.36426461225E+02  0.51801665033E+02  0.10566000000E+00 0. -1.
         23    2    1    0    0    0  0.23271158145E+02  0.15637963492E+02 -0.67555477935E+01  0.96160268212E+02  0.91733674586E+02 0.  0.
         13    1    3    3    0    0 -0.36905376589E+01 -0.94534935829E+01 -0.43182009018E+02  0.44358603179E+02  0.10566000000E+00 0.  1.
         22    1    1    0    0    0 -0.23271158145E+02 -0.15637963492E+02  0.67555477935E+01  0.28839731788E+02  0.00000000000E+00 0. -1.
</event>
<event>
 5    1  0.9034713E-005  0.9118800E+02  0.7818608E-02  0.1130116E+00
         25   -1    0    0    0    0  0.00000000000E+00  0.00000000000E+00  0.99999998245E-14  0.12500000000E+03  0.12500000000E+03 0.  0.
        -13    1    3    3    0    0 -0.13338222067E+02  0.31962887422E+02 -0.42396464785E+02  0.54744915111E+02  0.10566000000E+00 0. -1.
         23    2    1    0    0    0 -0.20811525173E+02 -0.19479057746E+01 -0.20032446388E+02  0.96048094618E+02  0.91580694770E+02 0.  0.
         13    1    3    3    0    0 -0.74733031056E+01 -0.33910793196E+02  0.22364018397E+02  0.41303179507E+02  0.10566000000E+00 0.  1.
         22    1    1    0    0    0  0.20811525173E+02  0.19479057746E+01  0.20032446388E+02  0.28951905382E+02  0.00000000000E+00 0. -1.
</event>
<event>
 5    1  0.9034713E-005  0.9118800E+02  0.7818608E-02  0.1130116E+00
         25   -1    0    0    0    0  0.00000000000E+00  0.00000000000E+00  0.99999998245E-14  0.12500000000E+03  0.12500000000E+03 0.  0.
        -13    1    3    3    0    0 -0.10221645812E+02  0.38213297923E+02 -0.28163504042E+02  0.48558545131E+02  0.10566000000E+00 0.  1.
         23    2    1    0    0    0 -0.63631971636E+01 -0.97835273296E+01 -0.25701004559E+02  0.96773251684E+02  0.92565182012E+02 0.  0.
         13    1    3    3    0    0  0.38584486481E+01 -0.47996825252E+02  0.24624994826E+01  0.48214706553E+02  0.10566000000E+00 0. -1.
         22    1    1    0    0    0  0.63631971636E+01  0.97835273296E+01  0.25701004559E+02  0.28226748316E+02  0.00000000000E+00 0.  1.
</event>
<event>
 5    1  0.9034713E-005  0.9118800E+02  0.7818608E-02  0.1130116E+00
         25   -1    0    0    0    0  0.00000000000E+00  0.00000000000E+00  0.99999998245E-14  0.12500000000E+03  0.12500000000E+03 0.  0.
        -13    1    3    3    0    0  0.45657772133E+01 -0.39507567883E+02  0.17583303849E+02  0.43484226794E+02  0.10566000000E+00 0.  1.
         23    2    1    0    0    0 -0.54551067388E+01  0.14411219572E+02  0.21592862739E+02  0.98472784535E+02  0.94832463501E+02 0.  0.
         13    1    3    3    0    0 -0.10020883952E+02  0.53918787455E+02  0.40095588901E+01  0.54988557740E+02  0.10566000000E+00 0. -1.
         22    1    1    0    0    0  0.54551067388E+01 -0.14411219572E+02 -0.21592862739E+02  0.26527215465E+02  0.00000000000E+00 0. -1.
</event>
<event>
 5    1  0.9034713E-005  0.9118800E+02  0.7818608E-02  0.1130116E+00
         25   -1    0    0    0    0  0.00000000000E+00  0.00000000000E+00  0.99999998245E-14  0.12500000000E+03  0.12500000000E+03 0.  0.
        -13    1    3    3    0    0  0.20835157549E+02 -0.41825635020E+02 -0.16044856062E+02  0.49405830679E+02  0.10566000000E+00 0.  1.
         23    2    1    0    0    0 -0.88668904960E+01 -0.27229044402E+02  0.13104487820E+02  0.93507616681E+02  0.88044898604E+02 0.  0.
         13    1    3    3    0    0 -0.29702048045E+02  0.14596590618E+02  0.29149343882E+02  0.44101786002E+02  0.10566000000E+00 0. -1.
         22    1    1    0    0    0  0.88668904960E+01  0.27229044402E+02 -0.13104487820E+02  0.31492383319E+02  0.00000000000E+00 0.  1.
</event>
<event>
 5    1  0.9034713E-005  0.9118800E+02  0.7818608E-02  0.1130116E+00
         25   -1    0    0    0    0  0.00000000000E+00  0.00000000000E+00  0.99999998245E-14  0.12500000000E+03  0.12500000000E+03 0.  0.
        -13    1    3    3    0    0  0.72824753783E+01  0.19885334762E+00  0.42630027405E+02  0.43248172110E+02  0.10566000000E+00 0.  1.
         23    2    1    0    0    0 -0.18130839847E+02 -0.16186637972E+02 -0.54923737105E+01  0.10008211944E+03  0.96930541426E+02 0.  0.
         13    1    3    3    0    0 -0.25413315226E+02 -0.16385491319E+02 -0.48122401115E+02  0.56833947335E+02  0.10566000000E+00 0. -1.
         22    1    1    0    0    0  0.18130839847E+02  0.16186637972E+02  0.54923737105E+01  0.24917880555E+02  0.00000000000E+00 0. -1.
</event>
<event>
 5    1  0.9034713E-005  0.9118800E+02  0.7818608E-02  0.1130116E+00
         25   -1    0    0    0    0  0.00000000000E+00  0.00000000000E+00  0.99999998245E-14  0.12500000000E+03  0.12500000000E+03 0.  0.
        -13    1    3    3    0    0 -0.40423279501E+02  0.95480968307E+01  0.49804112937E+01  0.41833280285E+02  0.10566000000E+00 0.  1.
         23    2    1    0    0    0  0.17290047995E+01 -0.56261102235E+01 -0.27313263393E+02  0.97059761436E+02  0.92951279491E+02 0.  0.
         13    1    3    3    0    0  0.42152284301E+02 -0.15174207054E+02 -0.32293674687E+02  0.55226481151E+02  0.10566000000E+00 0. -1.
         22    1    1    0    0    0 -0.17290047995E+01  0.56261102235E+01  0.27313263393E+02  0.27940238564E+02  0.00000000000E+00 0.  1.
</event>
<event>
 5    1  0.9034713E-005  0.9118800E+02  0.7818608E-02  0.1130116E+00
         25   -1    0    0    0    0  0.00000000000E+00  0.00000000000E+00  0.99999998245E-14  0.12500000000E+03  0.12500000000E+03 0.  0.
        -13    1    3    3    0    0 -0.20982108050E+02 -0.80850587373E+01 -0.28858479168E+02  0.36584696486E+02  0.10566000000E+00 0.  1.
         23    2    1    0    0    0  0.19368762676E+02  0.21127061129E+02  0.37062536143E+01  0.96099515655E+02  0.91650853317E+02 0.  0.
         13    1    3    3    0    0  0.40350870726E+02  0.29212119867E+02  0.32564732783E+02  0.59514819169E+02  0.10566000000E+00 0. -1.
         22    1    1    0    0    0 -0.19368762676E+02 -0.21127061129E+02 -0.37062536143E+01  0.28900484345E+02  0.00000000000E+00 0. -1.
</event>
<event>
 5    1  0.9034713E-005  0.9118800E+02  0.7818608E-02  0.1130116E+00
         25   -1    0    0    0    0  0.00000000000E+00  0.00000000000E+00  0.99999998245E-14  0.12500000000E+03  0.12500000000E+03 0.  0.
        -13    1    3    3    0    0 -0.46321561027E+02  0.31723368854E+02 -0.15443917099E+02  0.58228729050E+02  0.10566000000E+00 0.  1.
         23    2    1    0    0    0 -0.29976444159E+02  0.31561998045E+01  0.61760224432E+00  0.94851530153E+02  0.89932655571E+02 0.  0.
         13    1    3    3    0    0  0.16345116868E+02 -0.28567169049E+02  0.16061519344E+02  0.36622801102E+02  0.10566000000E+00 0. -1.
         22    1    1    0    0    0  0.29976444159E+02 -0.31561998045E+01 -0.61760224432E+00  0.30148469847E+02  0.00000000000E+00 0.  1.
</event>
<event>
 5    1  0.9034713E-005  0.9118800E+02  0.7818608E-02  0.1130116E+00
         25   -1    0    0    0    0  0.00000000000E+00  0.00000000000E+00  0.99999998245E-14  0.12500000000E+03  0.12500000000E+03 0.  0.
        -13    1    3    3    0    0 -0.26679228377E+01  0.36171251798E+02 -0.43876137745E+02  0.56926302324E+02  0.10566000000E+00 0. -1.
         23    2    1    0    0    0 -0.19856453306E+02  0.21411777026E+02 -0.27564761347E+02  0.84843319343E+02  0.74738409373E+02 0.  0.
         13    1    3    3    0    0 -0.17188530468E+02 -0.14759474772E+02  0.16311376397E+02  0.27917017018E+02  0.10566000000E+00 0.  1.
         22    1    1    0    0    0  0.19856453306E+02 -0.21411777026E+02  0.27564761347E+02  0.40156680657E+02  0.00000000000E+00 0. -1.
</event>
<event>
 5    1  0.9034713E-005  0.9118800E+02  0.7818608E-02  0.1130116E+00
         25   -1    0    0    0    0  0.00000000000E+00  0.00000000000E+00  0.99999998245E-14  0.12500000000E+03  0.12500000000E+03 0.  0.
        -13    1    3    3    0    0 -0.22230396492E+02 -0.90765459674E+01 -0.26669339633E+02  0.35886474547E+02  0.10566000000E+00 0.  1.
         23    2    1    0    0    0  0.22983585041E+02 -0.19581597815E+02  0.79309725127E+01  0.93781664373E+02  0.88433116496E+02 0.  0.
         13    1    3    3    0    0  0.45213981533E+02 -0.10505051847E+02  0.34600312146E+02  0.57895189826E+02  0.10566000000E+00 0. -1.
         22    1    1    0    0    0 -0.22983585041E+02  0.19581597815E+02 -0.79309725127E+01  0.31218335627E+02  0.00000000000E+00 0. -1.
</event>
<event>
 5    1  0.9034713E-005  0.9118800E+02  0.7818608E-02  0.1130116E+00
         25   -1    0    0    0    0  0.00000000000E+00  0.00000000000E+00  0.99999998245E-14  0.12500000000E+03  0.12500000000E+03 0.  0.
        -13    1    3    3    0    0  0.89202395973E+01  0.25548142586E+02  0.32699262672E+02  0.42444448487E+02  0.10566000000E+00 0.  1.
         23    2    1    0    0    0  0.29643886552E+02 -0.49011828165E+01 -0.42952193399E+01  0.94648220611E+02  0.89649624387E+02 0.  0.
         13    1    3    3    0    0  0.20723646955E+02 -0.30449325402E+02 -0.36994482012E+02  0.52203772124E+02  0.10566000000E+00 0. -1.
         22    1    1    0    0    0 -0.29643886552E+02  0.49011828165E+01  0.42952193399E+01  0.30351779389E+02  0.00000000000E+00 0. -1.
</event>
<event>
 5    1  0.9034713E-005  0.9118800E+02  0.7818608E-02  0.1130116E+00
         25   -1    0    0    0    0  0.00000000000E+00  0.00000000000E+00  0.99999998245E-14  0.12500000000E+03  0.12500000000E+03 0.  0.
        -13    1    3    3    0    0 -0.20707611322E+01 -0.31765184192E+02 -0.18999058880E+02  0.37071422696E+02  0.10566000000E+00 0. -1.
         23    2    1    0    0    0 -0.82815891084E+01  0.72810585132E+01  0.25871909416E+02  0.96876091522E+02  0.92703952885E+02 0.  0.
         13    1    3    3    0    0 -0.62108279762E+01  0.39046242705E+02  0.44870968296E+02  0.59804668826E+02  0.10566000000E+00 0.  1.
         22    1    1    0    0    0  0.82815891084E+01 -0.72810585132E+01 -0.25871909416E+02  0.28123908478E+02  0.00000000000E+00 0.  1.
</event>
<event>
 5    1  0.9034713E-005  0.9118800E+02  0.7818608E-02  0.1130116E+00
         25   -1    0    0    0    0  0.00000000000E+00  0.00000000000E+00  0.99999998245E-14  0.12500000000E+03  0.12500000000E+03 0.  0.
        -13    1    3    3    0    0  0.61738607756E+01  0.17277014318E+02  0.31590367010E+02  0.36531824927E+02  0.10566000000E+00 0.  1.
         23    2    1    0    0    0  0.15661317279E+02 -0.23812196388E+02 -0.90489138517E+01  0.95097150677E+02  0.90273405105E+02 0.  0.
         13    1    3    3    0    0  0.94874565039E+01 -0.41089210705E+02 -0.40639280862E+02  0.58565325751E+02  0.10566000000E+00 0. -1.
         22    1    1    0    0    0 -0.15661317279E+02  0.23812196388E+02  0.90489138517E+01  0.29902849323E+02  0.00000000000E+00 0. -1.
</event>
<event>
 5    1  0.9034713E-005  0.9118800E+02  0.7818608E-02  0.1130116E+00
         25   -1    0    0    0    0  0.00000000000E+00  0.00000000000E+00  0.99999998245E-14  0.12500000000E+03  0.12500000000E+03 0.  0.
        -13    1    3    3    0    0  0.28041761541E+01 -0.57466248363E+02  0.23423148105E+02  0.62119949582E+02  0.10566000000E+00 0. -1.
         23    2    1    0    0    0 -0.24364994974E+01 -0.27794473675E+02  0.79690428767E+01  0.95983195540E+02  0.91492070066E+02 0.  0.
         13    1    3    3    0    0 -0.52406756515E+01  0.29671774688E+02 -0.15454105229E+02  0.33863245959E+02  0.10566000000E+00 0.  1.
         22    1    1    0    0    0  0.24364994974E+01  0.27794473675E+02 -0.79690428767E+01  0.29016804460E+02  0.00000000000E+00 0. -1.
</event>
<event>
 5    1  0.9034713E-005  0.9118800E+02  0.7818608E-02  0.1130116E+00
         25   -1    0    0    0    0  0.00000000000E+00  0.00000000000E+00  0.99999998245E-14  0.12500000000E+03  0.12500000000E+03 0.  0.
        -13    1    3    3    0    0  0.13971557442E+02 -0.24424253237E+02  0.40180395590E+02  0.49053276317E+02  0.10566000000E+00 0. -1.
         23    2    1    0    0    0 -0.20839949853E+02 -0.17927825537E+02  0.94791768884E+01  0.95921395618E+02  0.91407597630E+02 0.  0.
         13    1    3    3    0    0 -0.34811507295E+02  0.64964277007E+01 -0.30701218702E+02  0.46868119301E+02  0.10566000000E+00 0.  1.
         22    1    1    0    0    0  0.20839949853E+02  0.17927825537E+02 -0.94791768884E+01  0.29078604382E+02  0.00000000000E+00 0.  1.
</event>
<event>
 5    1  0.9034713E-005  0.9118800E+02  0.7818608E-02  0.1130116E+00
         25   -1    0    0    0    0  0.00000000000E+00  0.00000000000E+00  0.99999998245E-14  0.12500000000E+03  0.12500000000E+03 0.  0.
        -13    1    3    3    0    0  0.45214501429E+02 -0.24047864765E+02 -0.22255681513E+02  0.55838852629E+02  0.10566000000E+00 0.  1.
         23    2    1    0    0    0  0.17267516230E+02 -0.22805001364E+02  0.61873495504E+01  0.95733662709E+02  0.91150511119E+02 0.  0.
         13    1    3    3    0    0 -0.27946985199E+02  0.12428634016E+01  0.28443031064E+02  0.39894810080E+02  0.10566000000E+00 0. -1.
         22    1    1    0    0    0 -0.17267516230E+02  0.22805001364E+02 -0.61873495504E+01  0.29266337291E+02  0.00000000000E+00 0.  1.
</event>
<event>
 5    1  0.9034713E-005  0.9118800E+02  0.7818608E-02  0.1130116E+00
         25   -1    0    0    0    0  0.00000000000E+00  0.00000000000E+00  0.99999998245E-14  0.12500000000E+03  0.12500000000E+03 0.  0.
        -13    1    3    3    0    0  0.29516736992E+02  0.82254963838E+01 -0.29436954404E+02  0.42490493079E+02  0.10566000000E+00 0.  1.
         23    2    1    0    0    0 -0.92267479739E+01 -0.23861862458E+02 -0.32298905235E+01  0.99213306708E+02  0.95803583842E+02 0.  0.
         13    1    3    3    0    0 -0.38743484966E+02 -0.32087358842E+02  0.26207063881E+02  0.56722813630E+02  0.10566000000E+00 0. -1.
         22    1    1    0    0    0  0.92267479739E+01  0.23861862458E+02  0.32298905235E+01  0.25786693292E+02  0.00000000000E+00 0. -1.
</event>
<event>
 5    1  0.9034713E-005  0.9118800E+02  0.7818608E-02  0.1130116E+00
         25   -1    0    0    0    0  0.00000000000E+00  0.00000000000E+00  0.99999998245E-14  0.12500000000E+03  0.12500000000E+03 0.  0.
        -13    1    3    3    0    0  0.12437605728E+02  0.11620687210E+02  0.29037086799E+02  0.33658549899E+02  0.10566000000E+00 0.  1.
         23    2    1    0    0    0 -0.28030852085E+01 -0.22931464240E+02 -0.19228685935E+02  0.94942526692E+02  0.90059045482E+02 0.  0.
         13    1    3    3    0    0 -0.15240690936E+02 -0.34552151450E+02 -0.48265772734E+02  0.61283976794E+02  0.10566000000E+00 0. -1.
         22    1    1    0    0    0  0.28030852085E+01  0.22931464240E+02  0.19228685935E+02  0.30057473308E+02  0.00000000000E+00 0. -1.
</event>
<event>
 5    1  0.9034713E-005  0.9118800E+02  0.7818608E-02  0.1130116E+00
         25   -1    0    0    0    0  0.00000000000E+00  0.00000000000E+00  0.99999998245E-14  0.12500000000E+03  0.12500000000E+03 0.  0.
        -13    1    3    3    0    0  0.87980893316E+01  0.22476646829E+02  0.31266592401E+02  0.39499582187E+02  0.10566000000E+00 0.  1.
         23    2    1    0    0    0 -0.21938858137E+02  0.15450083680E+02 -0.14054002881E+02  0.94709183255E+02  0.89734585383E+02 0.  0.
         13    1    3    3    0    0 -0.30736947468E+02 -0.70265631490E+01 -0.45320595282E+02  0.55209601068E+02  0.10566000000E+00 0. -1.
         22    1    1    0    0    0  0.21938858137E+02 -0.15450083680E+02  0.14054002881E+02  0.30290816745E+02  0.00000000000E+00 0. -1.
</event>
<event>
 5    1  0.9034713E-005  0.9118800E+02  0.7818608E-02  0.1130116E+00
         25   -1    0    0    0    0  0.00000000000E+00  0.00000000000E+00  0.99999998245E-14  0.12500000000E+03  0.12500000000E+03 0.  0.
        -13    1    3    3    0    0 -0.98140500667E+01  0.47097276167E+02  0.19646555290E+02  0.51966020627E+02  0.10566000000E+00 0. -1.
         23    2    1    0    0    0  0.68708728980E+01  0.11092873209E+02  0.29404100808E+02  0.92830730895E+02  0.87078600838E+02 0.  0.
         13    1    3    3    0    0  0.16684922965E+02 -0.36004402958E+02  0.97575455179E+01  0.40864710268E+02  0.10566000000E+00 0.  1.
         22    1    1    0    0    0 -0.68708728980E+01 -0.11092873209E+02 -0.29404100808E+02  0.32169269105E+02  0.00000000000E+00 0. -1.
</event>
<event>
 5    1  0.9034713E-005  0.9118800E+02  0.7818608E-02  0.1130116E+00
         25   -1    0    0    0    0  0.00000000000E+00  0.00000000000E+00  0.99999998245E-14  0.12500000000E+03  0.12500000000E+03 0.  0.
        -13    1    3    3    0    0  0.22431103004E+02  0.33864951194E+02 -0.18400121625E+02  0.44593328438E+02  0.10566000000E+00 0. -1.
         23    2    1    0    0    0 -0.19412077385E+02  0.27095063583E+01 -0.20281165324E+02  0.96795464194E+02  0.92595172922E+02 0.  0.
         13    1    3    3    0    0 -0.41843180390E+02 -0.31155444836E+02 -0.18810436997E+01  0.52202135756E+02  0.10566000000E+00 0.  1.
         22    1    1    0    0    0  0.19412077385E+02 -0.27095063583E+01  0.20281165324E+02  0.28204535806E+02  0.00000000000E+00 0.  1.
</event>
<event>
 5    1  0.9034713E-005  0.9118800E+02  0.7818608E-02  0.1130116E+00
         25   -1    0    0    0    0  0.00000000000E+00  0.00000000000E+00  0.99999998245E-14  0.12500000000E+03  0.12500000000E+03 0.  0.
        -13    1    3    3    0    0  0.36622896310E+02 -0.23687606556E+02  0.31861946912E+02  0.54014202425E+02  0.10566000000E+00 0.  1.
         23    2    1    0    0    0  0.89485178111E+01  0.57258136611E+01  0.28551985026E+02  0.94535647684E+02  0.89492524386E+02 0.  0.
         13    1    3    3    0    0 -0.27674378499E+02  0.29413420217E+02 -0.33099618859E+01  0.40521445259E+02  0.10566000000E+00 0. -1.
         22    1    1    0    0    0 -0.89485178111E+01 -0.57258136611E+01 -0.28551985026E+02  0.30464352316E+02  0.00000000000E+00 0.  1.
</event>
<event>
 5    1  0.9034713E-005  0.9118800E+02  0.7818608E-02  0.1130116E+00
         25   -1    0    0    0    0  0.00000000000E+00  0.00000000000E+00  0.99999998245E-14  0.12500000000E+03  0.12500000000E+03 0.  0.
        -13    1    3    3    0    0  0.17857003932E+02 -0.52684595336E+01  0.28320392322E+02  0.33892256352E+02  0.10566000000E+00 0.  1.
         23    2    1    0    0    0 -0.79289295626E+01 -0.94527334500E+01 -0.27134535699E+02  0.95192196973E+02  0.90404918248E+02 0.  0.
         13    1    3    3    0    0 -0.25785933495E+02 -0.41842739164E+01 -0.55454928021E+02  0.61299940622E+02  0.10566000000E+00 0. -1.
         22    1    1    0    0    0  0.79289295626E+01  0.94527334500E+01  0.27134535699E+02  0.29807803027E+02  0.00000000000E+00 0. -1.
</event>
<event>
 5    1  0.9034713E-005  0.9118800E+02  0.7818608E-02  0.1130116E+00
         25   -1    0    0    0    0  0.00000000000E+00  0.00000000000E+00  0.99999998245E-14  0.12500000000E+03  0.12500000000E+03 0.  0.
        -13    1    3    3    0    0  0.30391194183E+02  0.46577991507E+00  0.27217516387E+02  0.40800073494E+02  0.10566000000E+00 0.  1.
         23    2    1    0    0    0 -0.47679435273E+00 -0.25239566680E+02 -0.12096951940E+02  0.97007156177E+02  0.92880509496E+02 0.  0.
         13    1    3    3    0    0 -0.30867988536E+02 -0.25705346596E+02 -0.39314468327E+02  0.56207082683E+02  0.10566000000E+00 0. -1.
         22    1    1    0    0    0  0.47679435273E+00  0.25239566680E+02  0.12096951940E+02  0.27992843823E+02  0.00000000000E+00 0. -1.
</event>
<event>
 5    1  0.9034713E-005  0.9118800E+02  0.7818608E-02  0.1130116E+00
         25   -1    0    0    0    0  0.00000000000E+00  0.00000000000E+00  0.99999998245E-14  0.12500000000E+03  0.12500000000E+03 0.  0.
        -13    1    3    3    0    0 -0.34477334077E+02 -0.15694635750E+01 -0.34622182753E+02  0.48886158405E+02  0.10566000000E+00 0.  1.
         23    2    1    0    0    0 -0.23748130184E+02  0.21576436913E+02  0.12317413030E+01  0.92890289573E+02  0.87164054479E+02 0.  0.
         13    1    3    3    0    0  0.10729203894E+02  0.23145900488E+02  0.35853924056E+02  0.44004131168E+02  0.10566000000E+00 0. -1.
         22    1    1    0    0    0  0.23748130184E+02 -0.21576436913E+02 -0.12317413030E+01  0.32109710427E+02  0.00000000000E+00 0.  1.
</event>
<event>
 5    1  0.9034713E-005  0.9118800E+02  0.7818608E-02  0.1130116E+00
         25   -1    0    0    0    0  0.00000000000E+00  0.00000000000E+00  0.99999998245E-14  0.12500000000E+03  0.12500000000E+03 0.  0.
        -13    1    3    3    0    0 -0.36259145528E+02 -0.12815742247E+01  0.26431545717E+02  0.44888816424E+02  0.10566000000E+00 0.  1.
         23    2    1    0    0    0  0.53592071253E+01  0.25212803165E+02  0.13552555604E+02  0.95878215923E+02  0.91348530260E+02 0.  0.
         13    1    3    3    0    0  0.41618352653E+02  0.26494377390E+02 -0.12878990113E+02  0.50989399499E+02  0.10566000000E+00 0. -1.
         22    1    1    0    0    0 -0.53592071253E+01 -0.25212803165E+02 -0.13552555604E+02  0.29121784077E+02  0.00000000000E+00 0.  1.
</event>
<event>
 5    1  0.9034713E-005  0.9118800E+02  0.7818608E-02  0.1130116E+00
         25   -1    0    0    0    0  0.00000000000E+00  0.00000000000E+00  0.99999998245E-14  0.12500000000E+03  0.12500000000E+03 0.  0.
        -13    1    3    3    0    0 -0.53498589641E+02 -0.81016777326E+01 -0.13850041910E+02  0.55853120777E+02  0.10566000000E+00 0.  1.
         23    2    1    0    0    0 -0.29262975229E+02 -0.48252145991E+01  0.13388603069E+02  0.92459884646E+02  0.86544619483E+02 0.  0.
         13    1    3    3    0    0  0.24235614412E+02  0.32764631335E+01  0.27238644979E+02  0.36606763868E+02  0.10566000000E+00 0. -1.
         22    1    1    0    0    0  0.29262975229E+02  0.48252145991E+01 -0.13388603069E+02  0.32540115354E+02  0.00000000000E+00 0.  1.
</event>
<event>
 5    1  0.9034713E-005  0.9118800E+02  0.7818608E-02  0.1130116E+00
         25   -1    0    0    0    0  0.00000000000E+00  0.00000000000E+00  0.99999998245E-14  0.12500000000E+03  0.12500000000E+03 0.  0.
        -13    1    3    3    0    0  0.78835785291E+01  0.59002569416E+02  0.12630552735E+02  0.60852247572E+02  0.10566000000E+00 0.  1.
         23    2    1    0    0    0  0.11908201012E+02  0.24989051741E+02  0.11216836468E+02  0.95132369049E+02  0.90322158202E+02 0.  0.
         13    1    3    3    0    0  0.40246224830E+01 -0.34013517675E+02 -0.14137162668E+01  0.34280121477E+02  0.10566000000E+00 0. -1.
         22    1    1    0    0    0 -0.11908201012E+02 -0.24989051741E+02 -0.11216836468E+02  0.29867630951E+02  0.00000000000E+00 0.  1.
</event>
<event>
 5    1  0.9034713E-005  0.9118800E+02  0.7818608E-02  0.1130116E+00
         25   -1    0    0    0    0  0.00000000000E+00  0.00000000000E+00  0.99999998245E-14  0.12500000000E+03  0.12500000000E+03 0.  0.
        -13    1    3    3    0    0  0.47497188356E+01  0.36877236036E+02 -0.34616621594E+02  0.50801693095E+02  0.10566000000E+00 0. -1.
         23    2    1    0    0    0 -0.66436733420E+01  0.22573833503E+02  0.10311382047E+02  0.99308737785E+02  0.95928017004E+02 0.  0.
         13    1    3    3    0    0 -0.11393392178E+02 -0.14303402533E+02  0.44928003641E+02  0.48507044690E+02  0.10566000000E+00 0.  1.
         22    1    1    0    0    0  0.66436733420E+01 -0.22573833503E+02 -0.10311382047E+02  0.25691262215E+02  0.00000000000E+00 0. -1.
</event>
<event>
 5    1  0.9034713E-005  0.9118800E+02  0.7818608E-02  0.1130116E+00
         25   -1    0    0    0    0  0.00000000000E+00  0.00000000000E+00  0.99999998245E-14  0.12500000000E+03  0.12500000000E+03 0.  0.
        -13    1    3    3    0    0  0.34177146154E+02 -0.13549051505E+02  0.50417890116E+02  0.62398949700E+02  0.10566000000E+00 0.  1.
         23    2    1    0    0    0  0.17117024761E+02 -0.92828768610E+01  0.24881678437E+02  0.93404711406E+02  0.87898679464E+02 0.  0.
         13    1    3    3    0    0 -0.17060121393E+02  0.42661746443E+01 -0.25536211678E+02  0.31005761706E+02  0.10566000000E+00 0. -1.
         22    1    1    0    0    0 -0.17117024761E+02  0.92828768610E+01 -0.24881678437E+02  0.31595288594E+02  0.00000000000E+00 0.  1.
</event>
<event>
 5    1  0.9034713E-005  0.9118800E+02  0.7818608E-02  0.1130116E+00
         25   -1    0    0    0    0  0.00000000000E+00  0.00000000000E+00  0.99999998245E-14  0.12500000000E+03  0.12500000000E+03 0.  0.
        -13    1    3    3    0    0 -0.59908156969E+01 -0.39923983731E+02 -0.14025948037E+02  0.42738188217E+02  0.10566000000E+00 0.  1.
         23    2    1    0    0    0 -0.12938598664E+02  0.12029815309E+02 -0.23083694275E+02  0.95931447694E+02  0.91421342823E+02 0.  0.
         13    1    3    3    0    0 -0.69477829672E+01  0.51953799040E+02 -0.90577462378E+01  0.53193259477E+02  0.10566000000E+00 0. -1.
         22    1    1    0    0    0  0.12938598664E+02 -0.12029815309E+02  0.23083694275E+02  0.29068552306E+02  0.00000000000E+00 0. -1.
</event>
<event>
 5    1  0.9034713E-005  0.9118800E+02  0.7818608E-02  0.1130116E+00
         25   -1    0    0    0    0  0.00000000000E+00  0.00000000000E+00  0.99999998245E-14  0.12500000000E+03  0.12500000000E+03 0.  0.
        -13    1    3    3    0    0 -0.24834173824E+02 -0.32193903963E+02 -0.41436419920E+02  0.58053179945E+02  0.10566000000E+00 0.  1.
         23    2    1    0    0    0 -0.16429516277E+02 -0.65245770652E+00 -0.26180325326E+02  0.94084564691E+02  0.88860233922E+02 0.  0.
         13    1    3    3    0    0  0.84046575469E+01  0.31541446257E+02  0.15256094593E+02  0.36031384746E+02  0.10566000000E+00 0. -1.
         22    1    1    0    0    0  0.16429516277E+02  0.65245770652E+00  0.26180325326E+02  0.30915435309E+02  0.00000000000E+00 0. -1.
</event>
<event>
 5    1  0.9034713E-005  0.9118800E+02  0.7818608E-02  0.1130116E+00
         25   -1    0    0    0    0  0.00000000000E+00  0.00000000000E+00  0.99999998245E-14  0.12500000000E+03  0.12500000000E+03 0.  0.
        -13    1    3    3    0    0  0.26464439423E+02 -0.22333712352E+02  0.14037473629E+02  0.37366068717E+02  0.10566000000E+00 0.  1.
         23    2    1    0    0    0 -0.24935803492E+02  0.54230126929E+01  0.14228997374E+02  0.95782407205E+02  0.91217332790E+02 0.  0.
         13    1    3    3    0    0 -0.51400242915E+02  0.27756725045E+02  0.19152374458E+00  0.58416338488E+02  0.10566000000E+00 0. -1.
         22    1    1    0    0    0  0.24935803492E+02 -0.54230126929E+01 -0.14228997374E+02  0.29217592795E+02  0.00000000000E+00 0. -1.
</event>
<event>
 5    1  0.9034713E-005  0.9118800E+02  0.7818608E-02  0.1130116E+00
         25   -1    0    0    0    0  0.00000000000E+00  0.00000000000E+00  0.99999998245E-14  0.12500000000E+03  0.12500000000E+03 0.  0.
        -13    1    3    3    0    0 -0.29310989241E+02 -0.24456687158E+01 -0.28346296374E+02  0.40848978787E+02  0.10566000000E+00 0.  1.
         23    2    1    0    0    0 -0.59452418206E+01  0.27007500358E+02  0.10971580961E+02  0.95248923302E+02  0.90483317940E+02 0.  0.
         13    1    3    3    0    0  0.23365747421E+02  0.29453169074E+02  0.39317877335E+02  0.54399944515E+02  0.10566000000E+00 0. -1.
         22    1    1    0    0    0  0.59452418206E+01 -0.27007500358E+02 -0.10971580961E+02  0.29751076698E+02  0.00000000000E+00 0. -1.
</event>
<event>
 5    1  0.9034713E-005  0.9118800E+02  0.7818608E-02  0.1130116E+00
         25   -1    0    0    0    0  0.00000000000E+00  0.00000000000E+00  0.99999998245E-14  0.12500000000E+03  0.12500000000E+03 0.  0.
        -13    1    3    3    0    0 -0.15742723496E+02  0.26190710419E+02 -0.19047426998E+02  0.36008364232E+02  0.10566000000E+00 0. -1.
         23    2    1    0    0    0 -0.73992166089E+01 -0.18347438885E+02  0.20759911821E+02  0.96323339475E+02  0.91955613579E+02 0.  0.
         13    1    3    3    0    0  0.83435068871E+01 -0.44538149304E+02  0.39807338820E+02  0.60314975243E+02  0.10566000000E+00 0.  1.
         22    1    1    0    0    0  0.73992166089E+01  0.18347438885E+02 -0.20759911821E+02  0.28676660525E+02  0.00000000000E+00 0.  1.
</event>
<event>
 5    1  0.9034713E-005  0.9118800E+02  0.7818608E-02  0.1130116E+00
         25   -1    0    0    0    0  0.00000000000E+00  0.00000000000E+00  0.99999998245E-14  0.12500000000E+03  0.12500000000E+03 0.  0.
        -13    1    3    3    0    0  0.88328787181E+01  0.29665634860E+02  0.65819594457E+01  0.31644952082E+02  0.10566000000E+00 0.  1.
         23    2    1    0    0    0 -0.15124375102E+02  0.16493539231E+02 -0.36214714854E+02  0.82429010693E+02  0.70585074012E+02 0.  0.
         13    1    3    3    0    0 -0.23957253821E+02 -0.13172095629E+02 -0.42796674300E+02  0.50784058611E+02  0.10566000000E+00 0. -1.
         22    1    1    0    0    0  0.15124375102E+02 -0.16493539231E+02  0.36214714854E+02  0.42570989307E+02  0.00000000000E+00 0. -1.
</event>
<event>
 5    1  0.9034713E-005  0.9118800E+02  0.7818608E-02  0.1130116E+00
         25   -1    0    0    0    0  0.00000000000E+00  0.00000000000E+00  0.99999998245E-14  0.12500000000E+03  0.12500000000E+03 0.  0.
        -13    1    3    3    0    0  0.13538050604E+02 -0.29560104950E+02  0.14889463274E+02  0.35760116044E+02  0.10566000000E+00 0. -1.
         23    2    1    0    0    0 -0.23958927196E+02  0.15762760903E+02  0.50679933906E+00  0.96316351884E+02  0.91946114497E+02 0.  0.
         13    1    3    3    0    0 -0.37496977801E+02  0.45322865853E+02 -0.14382663935E+02  0.60556235841E+02  0.10566000000E+00 0.  1.
         22    1    1    0    0    0  0.23958927196E+02 -0.15762760903E+02 -0.50679933906E+00  0.28683648116E+02  0.00000000000E+00 0.  1.
</event>
<event>
 5    1  0.9034713E-005  0.9118800E+02  0.7818608E-02  0.1130116E+00
         25   -1    0    0    0    0  0.00000000000E+00  0.00000000000E+00  0.99999998245E-14  0.12500000000E+03  0.12500000000E+03 0.  0.
        -13    1    3    3    0    0  0.22013483898E+02  0.24012246604E+02 -0.14509533330E+02  0.35661171907E+02  0.10566000000E+00 0. -1.
         23    2    1    0    0    0 -0.23700891381E+02  0.58156914275E+01  0.18036490877E+02  0.94654167960E+02  0.89657916494E+02 0.  0.
         13    1    3    3    0    0 -0.45714375280E+02 -0.18196555176E+02  0.32546024207E+02  0.58992996053E+02  0.10566000000E+00 0.  1.
         22    1    1    0    0    0  0.23700891381E+02 -0.58156914275E+01 -0.18036490877E+02  0.30345832040E+02  0.00000000000E+00 0.  1.
</event>
<event>
 5    1  0.9034713E-005  0.9118800E+02  0.7818608E-02  0.1130116E+00
         25   -1    0    0    0    0  0.00000000000E+00  0.00000000000E+00  0.99999998245E-14  0.12500000000E+03  0.12500000000E+03 0.  0.
        -13    1    3    3    0    0 -0.10235556496E+02 -0.78210030785E+01  0.20535959348E+02  0.24241936728E+02  0.10566000000E+00 0.  1.
         23    2    1    0    0    0  0.13624718460E+02  0.36327964602E+02 -0.12398719802E+02  0.84268167019E+02  0.73770195572E+02 0.  0.
         13    1    3    3    0    0  0.23860274956E+02  0.44148967680E+02 -0.32934679150E+02  0.60026230291E+02  0.10566000000E+00 0. -1.
         22    1    1    0    0    0 -0.13624718460E+02 -0.36327964602E+02  0.12398719802E+02  0.40731832981E+02  0.00000000000E+00 0. -1.
</event>
<event>
 5    1  0.9034713E-005  0.9118800E+02  0.7818608E-02  0.1130116E+00
         25   -1    0    0    0    0  0.00000000000E+00  0.00000000000E+00  0.99999998245E-14  0.12500000000E+03  0.12500000000E+03 0.  0.
        -13    1    3    3    0    0  0.24920602636E+02  0.14708722994E+02 -0.23777117951E+02  0.37453243784E+02  0.10566000000E+00 0.  1.
         23    2    1    0    0    0 -0.94909516812E+01 -0.21644925117E+02  0.11523646649E+02  0.98705982064E+02  0.95139347885E+02 0.  0.
         13    1    3    3    0    0 -0.34411554318E+02 -0.36353648110E+02  0.35300764600E+02  0.61252738280E+02  0.10566000000E+00 0. -1.
         22    1    1    0    0    0  0.94909516812E+01  0.21644925117E+02 -0.11523646649E+02  0.26294017936E+02  0.00000000000E+00 0. -1.
</event>
<event>
 5    1  0.9034713E-005  0.9118800E+02  0.7818608E-02  0.1130116E+00
         25   -1    0    0    0    0  0.00000000000E+00  0.00000000000E+00  0.99999998245E-14  0.12500000000E+03  0.12500000000E+03 0.  0.
        -13    1    3    3    0    0 -0.30153664710E+02  0.39730620134E+01 -0.22155986963E+02  0.37628813953E+02  0.10566000000E+00 0.  1.
         23    2    1    0    0    0  0.55841695391E+00 -0.23002271122E+02  0.18645886164E+02  0.95384372756E+02  0.90670244231E+02 0.  0.
         13    1    3    3    0    0  0.30712081664E+02 -0.26975333135E+02  0.40801873127E+02  0.57755558802E+02  0.10566000000E+00 0. -1.
         22    1    1    0    0    0 -0.55841695391E+00  0.23002271122E+02 -0.18645886164E+02  0.29615627244E+02  0.00000000000E+00 0. -1.
</event>
<event>
 5    1  0.9034713E-005  0.9118800E+02  0.7818608E-02  0.1130116E+00
         25   -1    0    0    0    0  0.00000000000E+00  0.00000000000E+00  0.99999998245E-14  0.12500000000E+03  0.12500000000E+03 0.  0.
        -13    1    3    3    0    0 -0.27219344330E+02  0.19334599626E+01 -0.21644952920E+02  0.34830247259E+02  0.10566000000E+00 0.  1.
         23    2    1    0    0    0  0.32382269735E+01 -0.23882942788E+02  0.20844105544E+02  0.93135320399E+02  0.87514742186E+02 0.  0.
         13    1    3    3    0    0  0.30457571304E+02 -0.25816402750E+02  0.42489058464E+02  0.58305073140E+02  0.10566000000E+00 0. -1.
         22    1    1    0    0    0 -0.32382269735E+01  0.23882942788E+02 -0.20844105544E+02  0.31864679601E+02  0.00000000000E+00 0. -1.
</event>
<event>
 5    1  0.9034713E-005  0.9118800E+02  0.7818608E-02  0.1130116E+00
         25   -1    0    0    0    0  0.00000000000E+00  0.00000000000E+00  0.99999998245E-14  0.12500000000E+03  0.12500000000E+03 0.  0.
        -13    1    3    3    0    0 -0.18531412816E+02  0.49315173892E+02  0.32883341558E+02  0.62102535802E+02  0.10566000000E+00 0. -1.
         23    2    1    0    0    0 -0.97249943830E+01  0.23434966649E+02  0.21604116553E+02  0.91675669105E+02  0.85404433587E+02 0.  0.
         13    1    3    3    0    0  0.88064184332E+01 -0.25880207244E+02 -0.11279225006E+02  0.29573133303E+02  0.10566000000E+00 0.  1.
         22    1    1    0    0    0  0.97249943830E+01 -0.23434966649E+02 -0.21604116553E+02  0.33324330895E+02  0.00000000000E+00 0. -1.
</event>
<event>
 5    1  0.9034713E-005  0.9118800E+02  0.7818608E-02  0.1130116E+00
         25   -1    0    0    0    0  0.00000000000E+00  0.00000000000E+00  0.99999998245E-14  0.12500000000E+03  0.12500000000E+03 0.  0.
        -13    1    3    3    0    0 -0.55994496179E+01  0.30626692189E+02  0.50982082094E+02  0.59737190837E+02  0.10566000000E+00 0.  1.
         23    2    1    0    0    0 -0.13284897338E+02  0.17687526803E+02  0.16366955191E+02  0.97482472424E+02  0.93518009528E+02 0.  0.
         13    1    3    3    0    0 -0.76854477204E+01 -0.12939165386E+02 -0.34615126903E+02  0.37745281587E+02  0.10566000000E+00 0. -1.
         22    1    1    0    0    0  0.13284897338E+02 -0.17687526803E+02 -0.16366955191E+02  0.27517527576E+02  0.00000000000E+00 0.  1.
</event>
<event>
 5    1  0.9034713E-005  0.9118800E+02  0.7818608E-02  0.1130116E+00
         25   -1    0    0    0    0  0.00000000000E+00  0.00000000000E+00  0.99999998245E-14  0.12500000000E+03  0.12500000000E+03 0.  0.
        -13    1    3    3    0    0 -0.25953518166E+02 -0.17290750148E+02 -0.11360900246E+02  0.33190907856E+02  0.10566000000E+00 0.  1.
         23    2    1    0    0    0  0.18978404382E+02  0.53529596955E+01  0.23440067415E+02  0.94368794167E+02  0.89259165029E+02 0.  0.
         13    1    3    3    0    0  0.44931922548E+02  0.22643709844E+02  0.34800967661E+02  0.61177886311E+02  0.10566000000E+00 0. -1.
         22    1    1    0    0    0 -0.18978404382E+02 -0.53529596955E+01 -0.23440067415E+02  0.30631205833E+02  0.00000000000E+00 0. -1.
</event>
<event>
 5    1  0.9034713E-005  0.9118800E+02  0.7818608E-02  0.1130116E+00
         25   -1    0    0    0    0  0.00000000000E+00  0.00000000000E+00  0.99999998245E-14  0.12500000000E+03  0.12500000000E+03 0.  0.
        -13    1    3    3    0    0  0.30145660231E+02  0.77449844044E+01 -0.50924198931E+02  0.59682751402E+02  0.10566000000E+00 0.  1.
         23    2    1    0    0    0  0.18654800815E+02 -0.77550356649E+01 -0.17521953659E+02  0.98257505135E+02  0.94548274885E+02 0.  0.
         13    1    3    3    0    0 -0.11490859416E+02 -0.15500020069E+02  0.33402245272E+02  0.38574753732E+02  0.10566000000E+00 0. -1.
         22    1    1    0    0    0 -0.18654800815E+02  0.77550356649E+01  0.17521953659E+02  0.26742494865E+02  0.00000000000E+00 0.  1.
</event>
<event>
 5    1  0.9034713E-005  0.9118800E+02  0.7818608E-02  0.1130116E+00
         25   -1    0    0    0    0  0.00000000000E+00  0.00000000000E+00  0.99999998245E-14  0.12500000000E+03  0.12500000000E+03 0.  0.
        -13    1    3    3    0    0  0.34043197813E+02 -0.52288897180E+01 -0.40118639913E+02  0.52875297044E+02  0.10566000000E+00 0. -1.
         23    2    1    0    0    0  0.32833799293E+02 -0.10220001943E+02 -0.28519301558E+01  0.90494343632E+02  0.83657551411E+02 0.  0.
         13    1    3    3    0    0 -0.12093985198E+01 -0.49911122246E+01  0.37266709757E+02  0.37619046588E+02  0.10566000000E+00 0.  1.
         22    1    1    0    0    0 -0.32833799293E+02  0.10220001943E+02  0.28519301558E+01  0.34505656368E+02  0.00000000000E+00 0. -1.
</event>
<event>
 5    1  0.9034713E-005  0.9118800E+02  0.7818608E-02  0.1130116E+00
         25   -1    0    0    0    0  0.00000000000E+00  0.00000000000E+00  0.99999998245E-14  0.12500000000E+03  0.12500000000E+03 0.  0.
        -13    1    3    3    0    0  0.34790209698E+02 -0.16089441173E+02 -0.45982493447E+02  0.59863425192E+02  0.10566000000E+00 0.  1.
         23    2    1    0    0    0  0.16626772731E+02 -0.18551010749E+02 -0.14830258935E+02  0.96008170956E+02  0.91526186083E+02 0.  0.
         13    1    3    3    0    0 -0.18163436966E+02 -0.24615695755E+01  0.31152234512E+02  0.36144745764E+02  0.10566000000E+00 0. -1.
         22    1    1    0    0    0 -0.16626772731E+02  0.18551010749E+02  0.14830258935E+02  0.28991829044E+02  0.00000000000E+00 0.  1.
</event>
<event>
 5    1  0.9034713E-005  0.9118800E+02  0.7818608E-02  0.1130116E+00
         25   -1    0    0    0    0  0.00000000000E+00  0.00000000000E+00  0.99999998245E-14  0.12500000000E+03  0.12500000000E+03 0.  0.
        -13    1    3    3    0    0 -0.27443989162E+02  0.10670562283E+02  0.21961906063E+02  0.36733770873E+02  0.10566000000E+00 0.  1.
         23    2    1    0    0    0 -0.14247225137E+01 -0.40499984377E+01 -0.28928145661E+02  0.95755001573E+02  0.91179769649E+02 0.  0.
         13    1    3    3    0    0  0.26019266648E+02 -0.14720560721E+02 -0.50890051725E+02  0.59021230701E+02  0.10566000000E+00 0. -1.
         22    1    1    0    0    0  0.14247225137E+01  0.40499984377E+01  0.28928145661E+02  0.29244998427E+02  0.00000000000E+00 0. -1.
</event>
<event>
 5    1  0.9034713E-005  0.9118800E+02  0.7818608E-02  0.1130116E+00
         25   -1    0    0    0    0  0.00000000000E+00  0.00000000000E+00  0.99999998245E-14  0.12500000000E+03  0.12500000000E+03 0.  0.
        -13    1    3    3    0    0 -0.18455389725E+02 -0.13457402828E+02  0.34625297268E+02  0.41480422801E+02  0.10566000000E+00 0. -1.
         23    2    1    0    0    0 -0.24009187657E+02  0.62998663764E+01 -0.15562849003E+02  0.95702701876E+02  0.91108042833E+02 0.  0.
         13    1    3    3    0    0 -0.55537979315E+01  0.19757269205E+02 -0.50188146271E+02  0.54222279075E+02  0.10566000000E+00 0.  1.
         22    1    1    0    0    0  0.24009187657E+02 -0.62998663764E+01  0.15562849003E+02  0.29297298124E+02  0.00000000000E+00 0.  1.
</event>
<event>
 5    1  0.9034713E-005  0.9118800E+02  0.7818608E-02  0.1130116E+00
         25   -1    0    0    0    0  0.00000000000E+00  0.00000000000E+00  0.99999998245E-14  0.12500000000E+03  0.12500000000E+03 0.  0.
        -13    1    3    3    0    0  0.44784792577E+02  0.13589034993E+01  0.79658099421E+01  0.45508126274E+02  0.10566000000E+00 0. -1.
         23    2    1    0    0    0  0.85620497748E+01 -0.16070508788E+02 -0.22578267309E+02  0.95993998833E+02  0.91506828751E+02 0.  0.
         13    1    3    3    0    0 -0.36222742803E+02 -0.17429412288E+02 -0.30544077251E+02  0.50485872558E+02  0.10566000000E+00 0.  1.
         22    1    1    0    0    0 -0.85620497748E+01  0.16070508788E+02  0.22578267309E+02  0.29006001167E+02  0.00000000000E+00 0. -1.
</event>
<event>
 5    1  0.9034713E-005  0.9118800E+02  0.7818608E-02  0.1130116E+00
         25   -1    0    0    0    0  0.00000000000E+00  0.00000000000E+00  0.99999998245E-14  0.12500000000E+03  0.12500000000E+03 0.  0.
        -13    1    3    3    0    0  0.83542830649E+01 -0.19236995656E+02  0.28540059417E+02  0.35417540894E+02  0.10566000000E+00 0. -1.
         23    2    1    0    0    0  0.48369563238E+01  0.31587703494E+02  0.17064451872E+01  0.92998576381E+02  0.87319208054E+02 0.  0.
         13    1    3    3    0    0 -0.35173267411E+01  0.50824699150E+02 -0.26833614230E+02  0.57581035487E+02  0.10566000000E+00 0.  1.
         22    1    1    0    0    0 -0.48369563238E+01 -0.31587703494E+02 -0.17064451872E+01  0.32001423619E+02  0.00000000000E+00 0.  1.
</event>
<event>
 5    1  0.9034713E-005  0.9118800E+02  0.7818608E-02  0.1130116E+00
         25   -1    0    0    0    0  0.00000000000E+00  0.00000000000E+00  0.99999998245E-14  0.12500000000E+03  0.12500000000E+03 0.  0.
        -13    1    3    3    0    0  0.26811406458E+02 -0.18974791836E+02  0.13448898635E+02  0.35493355434E+02  0.10566000000E+00 0. -1.
         23    2    1    0    0    0 -0.17577376031E+02 -0.46978033850E+01 -0.23707518510E+02  0.95115556912E+02  0.90298888299E+02 0.  0.
         13    1    3    3    0    0 -0.44388782489E+02  0.14276988451E+02 -0.37156417144E+02  0.59622201478E+02  0.10566000000E+00 0.  1.
         22    1    1    0    0    0  0.17577376031E+02  0.46978033850E+01  0.23707518510E+02  0.29884443088E+02  0.00000000000E+00 0.  1.
</event>
<event>
 5    1  0.9034713E-005  0.9118800E+02  0.7818608E-02  0.1130116E+00
         25   -1    0    0    0    0  0.00000000000E+00  0.00000000000E+00  0.99999998245E-14  0.12500000000E+03  0.12500000000E+03 0.  0.
        -13    1    3    3    0    0  0.41551269995E+02  0.28768347330E+01 -0.32423478070E+01  0.41776885950E+02  0.10566000000E+00 0.  1.
         23    2    1    0    0    0  0.22107215406E+01 -0.13270318676E+02  0.27590801646E+02  0.94304055920E+02  0.89168458437E+02 0.  0.
         13    1    3    3    0    0 -0.39340548455E+02 -0.16147153409E+02  0.30833149453E+02  0.52527169971E+02  0.10566000000E+00 0. -1.
         22    1    1    0    0    0 -0.22107215406E+01  0.13270318676E+02 -0.27590801646E+02  0.30695944080E+02  0.00000000000E+00 0. -1.
</event>
<event>
 5    1  0.9034713E-005  0.9118800E+02  0.7818608E-02  0.1130116E+00
         25   -1    0    0    0    0  0.00000000000E+00  0.00000000000E+00  0.99999998245E-14  0.12500000000E+03  0.12500000000E+03 0.  0.
        -13    1    3    3    0    0 -0.49171977182E+02  0.19668651207E+02  0.18867800123E+02  0.56220496492E+02  0.10566000000E+00 0. -1.
         23    2    1    0    0    0 -0.27729479359E+02 -0.71446949579E+01 -0.18243572047E+01  0.96306813165E+02  0.91933145770E+02 0.  0.
         13    1    3    3    0    0  0.21442497823E+02 -0.26813346165E+02 -0.20692157328E+02  0.40086316672E+02  0.10566000000E+00 0.  1.
         22    1    1    0    0    0  0.27729479359E+02  0.71446949579E+01  0.18243572047E+01  0.28693186835E+02  0.00000000000E+00 0. -1.
</event>
<event>
 5    1  0.9034713E-005  0.9118800E+02  0.7818608E-02  0.1130116E+00
         25   -1    0    0    0    0  0.00000000000E+00  0.00000000000E+00  0.99999998245E-14  0.12500000000E+03  0.12500000000E+03 0.  0.
        -13    1    3    3    0    0 -0.61205551598E+01 -0.17830952617E+02 -0.48559035372E+02  0.52090259617E+02  0.10566000000E+00 0. -1.
         23    2    1    0    0    0 -0.12948188611E+02  0.15277013507E+02 -0.23217506203E+02  0.94339026038E+02  0.89217467513E+02 0.  0.
         13    1    3    3    0    0 -0.68276334512E+01  0.33107966124E+02  0.25341529168E+02  0.42248766421E+02  0.10566000000E+00 0.  1.
         22    1    1    0    0    0  0.12948188611E+02 -0.15277013507E+02  0.23217506203E+02  0.30660973962E+02  0.00000000000E+00 0. -1.
</event>
<event>
 5    1  0.9034713E-005  0.9118800E+02  0.7818608E-02  0.1130116E+00
         25   -1    0    0    0    0  0.00000000000E+00  0.00000000000E+00  0.99999998245E-14  0.12500000000E+03  0.12500000000E+03 0.  0.
        -13    1    3    3    0    0 -0.23144633818E+02  0.28491380704E+02 -0.40847014765E+01  0.36934114301E+02  0.10566000000E+00 0.  1.
         23    2    1    0    0    0 -0.35014379443E+01 -0.25697740355E+02  0.11479019416E+02  0.96638021688E+02  0.92382386968E+02 0.  0.
         13    1    3    3    0    0  0.19643195874E+02 -0.54189121059E+02  0.15563720893E+02  0.59703907387E+02  0.10566000000E+00 0. -1.
         22    1    1    0    0    0  0.35014379443E+01  0.25697740355E+02 -0.11479019416E+02  0.28361978312E+02  0.00000000000E+00 0. -1.
</event>
<event>
 5    1  0.9034713E-005  0.9118800E+02  0.7818608E-02  0.1130116E+00
         25   -1    0    0    0    0  0.00000000000E+00  0.00000000000E+00  0.99999998245E-14  0.12500000000E+03  0.12500000000E+03 0.  0.
        -13    1    3    3    0    0  0.27076705652E+02  0.28051192577E+02 -0.10423724755E+02  0.40356939871E+02  0.10566000000E+00 0.  1.
         23    2    1    0    0    0 -0.18792261139E+02  0.92207645543E+01  0.17897694609E+02  0.97459138540E+02  0.93486815300E+02 0.  0.
         13    1    3    3    0    0 -0.45868966791E+02 -0.18830428022E+02  0.28321419364E+02  0.57102198669E+02  0.10566000000E+00 0. -1.
         22    1    1    0    0    0  0.18792261139E+02 -0.92207645543E+01 -0.17897694609E+02  0.27540861460E+02  0.00000000000E+00 0. -1.
</event>
<event>
 5    1  0.9034713E-005  0.9118800E+02  0.7818608E-02  0.1130116E+00
         25   -1    0    0    0    0  0.00000000000E+00  0.00000000000E+00  0.99999998245E-14  0.12500000000E+03  0.12500000000E+03 0.  0.
        -13    1    3    3    0    0 -0.32820737385E+02 -0.40504804015E+02  0.20771345344E+02  0.56118623488E+02  0.10566000000E+00 0. -1.
         23    2    1    0    0    0 -0.12156136001E+02  0.61436001583E+01 -0.43908491027E+00  0.11137251817E+03  0.11053564829E+03 0.  0.
         13    1    3    3    0    0  0.20664601384E+02  0.46648404173E+02 -0.21210430254E+02  0.55253894685E+02  0.10566000000E+00 0.  1.
         22    1    1    0    0    0  0.12156136001E+02 -0.61436001583E+01  0.43908491027E+00  0.13627481827E+02  0.00000000000E+00 0. -1.
</event>
<event>
 5    1  0.9034713E-005  0.9118800E+02  0.7818608E-02  0.1130116E+00
         25   -1    0    0    0    0  0.00000000000E+00  0.00000000000E+00  0.99999998245E-14  0.12500000000E+03  0.12500000000E+03 0.  0.
        -13    1    3    3    0    0 -0.18302575802E+02 -0.55084518467E+02 -0.21797954638E+02  0.62003632524E+02  0.10566000000E+00 0. -1.
         23    2    1    0    0    0 -0.78016830906E+01 -0.30383775859E+02 -0.17166494100E+02  0.89240684931E+02  0.81762896431E+02 0.  0.
         13    1    3    3    0    0  0.10500892711E+02  0.24700742608E+02  0.46314605377E+01  0.27237052408E+02  0.10566000000E+00 0.  1.
         22    1    1    0    0    0  0.78016830906E+01  0.30383775859E+02  0.17166494100E+02  0.35759315069E+02  0.00000000000E+00 0. -1.
</event>
<event>
 5    1  0.9034713E-005  0.9118800E+02  0.7818608E-02  0.1130116E+00
         25   -1    0    0    0    0  0.00000000000E+00  0.00000000000E+00  0.99999998245E-14  0.12500000000E+03  0.12500000000E+03 0.  0.
        -13    1    3    3    0    0  0.17290475266E+02  0.83251975517E+01 -0.39722894246E+02  0.44115631476E+02  0.10566000000E+00 0.  1.
         23    2    1    0    0    0  0.19089102723E+02 -0.22931753964E+02  0.58811361240E+00  0.95156993110E+02  0.90356229876E+02 0.  0.
         13    1    3    3    0    0  0.17986274573E+01 -0.31256951516E+02  0.40311007859E+02  0.51041361634E+02  0.10566000000E+00 0. -1.
         22    1    1    0    0    0 -0.19089102723E+02  0.22931753964E+02 -0.58811361240E+00  0.29843006890E+02  0.00000000000E+00 0. -1.
</event>
<event>
 5    1  0.9034713E-005  0.9118800E+02  0.7818608E-02  0.1130116E+00
         25   -1    0    0    0    0  0.00000000000E+00  0.00000000000E+00  0.99999998245E-14  0.12500000000E+03  0.12500000000E+03 0.  0.
        -13    1    3    3    0    0 -0.89418961996E+01 -0.27629271588E+01 -0.56148447245E+02  0.56923198840E+02  0.10566000000E+00 0.  1.
         23    2    1    0    0    0 -0.96978112193E+01 -0.18181291551E+02 -0.19760388194E+02  0.96450396737E+02  0.92128167160E+02 0.  0.
         13    1    3    3    0    0 -0.75591501972E+00 -0.15418364392E+02  0.36388059051E+02  0.39527197897E+02  0.10566000000E+00 0. -1.
         22    1    1    0    0    0  0.96978112193E+01  0.18181291551E+02  0.19760388194E+02  0.28549603263E+02  0.00000000000E+00 0.  1.
</event>
<event>
 5    1  0.9034713E-005  0.9118800E+02  0.7818608E-02  0.1130116E+00
         25   -1    0    0    0    0  0.00000000000E+00  0.00000000000E+00  0.99999998245E-14  0.12500000000E+03  0.12500000000E+03 0.  0.
        -13    1    3    3    0    0 -0.11796570016E+02 -0.30408923405E+02 -0.10266927850E+02  0.34194775307E+02  0.10566000000E+00 0.  1.
         23    2    1    0    0    0  0.76928075426E+01  0.26590799099E+02 -0.12832364051E+02  0.94489027355E+02  0.89427383048E+02 0.  0.
         13    1    3    3    0    0  0.19489377558E+02  0.56999722504E+02 -0.25654362012E+01  0.60294252048E+02  0.10566000000E+00 0. -1.
         22    1    1    0    0    0 -0.76928075426E+01 -0.26590799099E+02  0.12832364051E+02  0.30510972645E+02  0.00000000000E+00 0. -1.
</event>
<event>
 5    1  0.9034713E-005  0.9118800E+02  0.7818608E-02  0.1130116E+00
         25   -1    0    0    0    0  0.00000000000E+00  0.00000000000E+00  0.99999998245E-14  0.12500000000E+03  0.12500000000E+03 0.  0.
        -13    1    3    3    0    0 -0.41842306490E+02  0.16866846528E+02  0.40134531317E+02  0.60382620780E+02  0.10566000000E+00 0.  1.
         23    2    1    0    0    0 -0.17942869927E+02  0.18381263212E+02  0.14333651684E+02  0.95584511068E+02  0.90945740785E+02 0.  0.
         13    1    3    3    0    0  0.23899436563E+02  0.15144166846E+01 -0.25800879633E+02  0.35201890288E+02  0.10566000000E+00 0. -1.
         22    1    1    0    0    0  0.17942869927E+02 -0.18381263212E+02 -0.14333651684E+02  0.29415488932E+02  0.00000000000E+00 0.  1.
</event>
<event>
 5    1  0.9034713E-005  0.9118800E+02  0.7818608E-02  0.1130116E+00
         25   -1    0    0    0    0  0.00000000000E+00  0.00000000000E+00  0.99999998245E-14  0.12500000000E+03  0.12500000000E+03 0.  0.
        -13    1    3    3    0    0  0.24287795985E+00 -0.22403053690E+02  0.63741353120E+01  0.23293702354E+02  0.10566000000E+00 0. -1.
         23    2    1    0    0    0 -0.11340880096E+02  0.21183220583E+02 -0.33690490877E+02  0.83618922547E+02  0.72661754980E+02 0.  0.
         13    1    3    3    0    0 -0.11583758056E+02  0.43586274273E+02 -0.40064626189E+02  0.60325220193E+02  0.10566000000E+00 0.  1.
         22    1    1    0    0    0  0.11340880096E+02 -0.21183220583E+02  0.33690490877E+02  0.41381077453E+02  0.00000000000E+00 0.  1.
</event>
<event>
 5    1  0.9034713E-005  0.9118800E+02  0.7818608E-02  0.1130116E+00
         25   -1    0    0    0    0  0.00000000000E+00  0.00000000000E+00  0.99999998245E-14  0.12500000000E+03  0.12500000000E+03 0.  0.
        -13    1    3    3    0    0  0.30480343766E+02 -0.46158741772E+02 -0.21439063791E+02  0.59323902588E+02  0.10566000000E+00 0.  1.
         23    2    1    0    0    0  0.24088681456E+01 -0.23921783433E+02 -0.17312083694E+02  0.95372941249E+02  0.90654483134E+02 0.  0.
         13    1    3    3    0    0 -0.28071475621E+02  0.22236958338E+02  0.41269800963E+01  0.36049038661E+02  0.10566000000E+00 0. -1.
         22    1    1    0    0    0 -0.24088681456E+01  0.23921783433E+02  0.17312083694E+02  0.29627058751E+02  0.00000000000E+00 0.  1.
</event>
<event>
 5    1  0.9034713E-005  0.9118800E+02  0.7818608E-02  0.1130116E+00
         25   -1    0    0    0    0  0.00000000000E+00  0.00000000000E+00  0.99999998245E-14  0.12500000000E+03  0.12500000000E+03 0.  0.
        -13    1    3    3    0    0 -0.14352028985E+02  0.13230410153E+01 -0.49854365185E+02  0.51896050577E+02  0.10566000000E+00 0.  1.
         23    2    1    0    0    0  0.15912299897E+02 -0.12450513247E+02 -0.19577102004E+02  0.96866754702E+02  0.92691362464E+02 0.  0.
         13    1    3    3    0    0  0.30264328883E+02 -0.13773554262E+02  0.30277263180E+02  0.44970704124E+02  0.10566000000E+00 0. -1.
         22    1    1    0    0    0 -0.15912299897E+02  0.12450513247E+02  0.19577102004E+02  0.28133245298E+02  0.00000000000E+00 0.  1.
</event>
<event>
 5    1  0.9034713E-005  0.9118800E+02  0.7818608E-02  0.1130116E+00
         25   -1    0    0    0    0  0.00000000000E+00  0.00000000000E+00  0.99999998245E-14  0.12500000000E+03  0.12500000000E+03 0.  0.
        -13    1    3    3    0    0  0.25231292189E+02 -0.15060979692E+02 -0.25307187375E+02  0.38780357292E+02  0.10566000000E+00 0. -1.
         23    2    1    0    0    0  0.15186697334E+02  0.34050859766E+01  0.26263721822E+02  0.94471104338E+02  0.89402327064E+02 0.  0.
         13    1    3    3    0    0 -0.10044594855E+02  0.18466065668E+02  0.51570909197E+02  0.55690747046E+02  0.10566000000E+00 0.  1.
         22    1    1    0    0    0 -0.15186697334E+02 -0.34050859766E+01 -0.26263721822E+02  0.30528895662E+02  0.00000000000E+00 0.  1.
</event>
<event>
 5    1  0.9034713E-005  0.9118800E+02  0.7818608E-02  0.1130116E+00
         25   -1    0    0    0    0  0.00000000000E+00  0.00000000000E+00  0.99999998245E-14  0.12500000000E+03  0.12500000000E+03 0.  0.
        -13    1    3    3    0    0 -0.21803143451E+02  0.43418526304E+02 -0.17197856051E+02  0.51539527622E+02  0.10566000000E+00 0. -1.
         23    2    1    0    0    0 -0.17421700218E+02 -0.66918130215E+00 -0.22909259098E+02  0.96211155033E+02  0.91802988831E+02 0.  0.
         13    1    3    3    0    0  0.43814432323E+01 -0.44087707606E+02 -0.57114030468E+01  0.44671627411E+02  0.10566000000E+00 0.  1.
         22    1    1    0    0    0  0.17421700218E+02  0.66918130215E+00  0.22909259098E+02  0.28788844967E+02  0.00000000000E+00 0. -1.
</event>
<event>
 5    1  0.9034713E-005  0.9118800E+02  0.7818608E-02  0.1130116E+00
         25   -1    0    0    0    0  0.00000000000E+00  0.00000000000E+00  0.99999998245E-14  0.12500000000E+03  0.12500000000E+03 0.  0.
        -13    1    3    3    0    0  0.17725569871E+02  0.25240796334E+02  0.22099772253E+02  0.37943441126E+02  0.10566000000E+00 0.  1.
         23    2    1    0    0    0 -0.21727071890E+02 -0.15768926743E+02  0.11334751915E+02  0.95858941260E+02  0.91322151283E+02 0.  0.
         13    1    3    3    0    0 -0.39452641761E+02 -0.41009723077E+02 -0.10765020338E+02  0.57915500133E+02  0.10566000000E+00 0. -1.
         22    1    1    0    0    0  0.21727071890E+02  0.15768926743E+02 -0.11334751915E+02  0.29141058740E+02  0.00000000000E+00 0. -1.
</event>
<event>
 5    1  0.9034713E-005  0.9118800E+02  0.7818608E-02  0.1130116E+00
         25   -1    0    0    0    0  0.00000000000E+00  0.00000000000E+00  0.99999998245E-14  0.12500000000E+03  0.12500000000E+03 0.  0.
        -13    1    3    3    0    0  0.25574664630E+02  0.10725284095E+02  0.42215835557E+02  0.50510227931E+02  0.10566000000E+00 0. -1.
         23    2    1    0    0    0  0.69618920293E+01  0.30846187181E+02  0.12338207525E+02  0.91056126191E+02  0.84492789916E+02 0.  0.
         13    1    3    3    0    0 -0.18612772600E+02  0.20120903086E+02 -0.29877628032E+02  0.40545898260E+02  0.10566000000E+00 0.  1.
         22    1    1    0    0    0 -0.69618920293E+01 -0.30846187181E+02 -0.12338207525E+02  0.33943873809E+02  0.00000000000E+00 0. -1.
</event>
<event>
 5    1  0.9034713E-005  0.9118800E+02  0.7818608E-02  0.1130116E+00
         25   -1    0    0    0    0  0.00000000000E+00  0.00000000000E+00  0.99999998245E-14  0.12500000000E+03  0.12500000000E+03 0.  0.
        -13    1    3    3    0    0 -0.15841142664E+02  0.80586755271E+01  0.15715282012E+02  0.23724782505E+02  0.10566000000E+00 0.  1.
         23    2    1    0    0    0 -0.40177483689E+00 -0.40811721791E+02 -0.12610041432E+02  0.82282659218E+02  0.70325420756E+02 0.  0.
         13    1    3    3    0    0  0.15439367827E+02 -0.48870397318E+02 -0.28325323444E+02  0.58557876713E+02  0.10566000000E+00 0. -1.
         22    1    1    0    0    0  0.40177483689E+00  0.40811721791E+02  0.12610041432E+02  0.42717340782E+02  0.00000000000E+00 0. -1.
</event>
<event>
 5    1  0.9034713E-005  0.9118800E+02  0.7818608E-02  0.1130116E+00
         25   -1    0    0    0    0  0.00000000000E+00  0.00000000000E+00  0.99999998245E-14  0.12500000000E+03  0.12500000000E+03 0.  0.
        -13    1    3    3    0    0 -0.15705307314E+02 -0.19322708757E+02  0.31151008251E+02  0.39880073102E+02  0.10566000000E+00 0.  1.
         23    2    1    0    0    0  0.13902706619E+02  0.23396529655E+02  0.97384348894E+01  0.96094637776E+02  0.91644200274E+02 0.  0.
         13    1    3    3    0    0  0.29608013933E+02  0.42719238411E+02 -0.21412573362E+02  0.56214564674E+02  0.10566000000E+00 0. -1.
         22    1    1    0    0    0 -0.13902706619E+02 -0.23396529655E+02 -0.97384348894E+01  0.28905362224E+02  0.00000000000E+00 0. -1.
</event>
<event>
 5    1  0.9034713E-005  0.9118800E+02  0.7818608E-02  0.1130116E+00
         25   -1    0    0    0    0  0.00000000000E+00  0.00000000000E+00  0.99999998245E-14  0.12500000000E+03  0.12500000000E+03 0.  0.
        -13    1    3    3    0    0 -0.13838568032E+02  0.25615156470E+02 -0.27143599934E+02  0.39804878942E+02  0.10566000000E+00 0. -1.
         23    2    1    0    0    0 -0.91034772011E+01 -0.26141626537E+02 -0.16230355869E+02  0.92911335540E+02  0.87194230802E+02 0.  0.
         13    1    3    3    0    0  0.47350908313E+01 -0.51756783007E+02  0.10913244065E+02  0.53106456598E+02  0.10566000000E+00 0.  1.
         22    1    1    0    0    0  0.91034772011E+01  0.26141626537E+02  0.16230355869E+02  0.32088664460E+02  0.00000000000E+00 0.  1.
</event>
<event>
 5    1  0.9034713E-005  0.9118800E+02  0.7818608E-02  0.1130116E+00
         25   -1    0    0    0    0  0.00000000000E+00  0.00000000000E+00  0.99999998245E-14  0.12500000000E+03  0.12500000000E+03 0.  0.
        -13    1    3    3    0    0  0.31007740802E+02 -0.94261595115E+01  0.43961720318E+01  0.32705809351E+02  0.10566000000E+00 0. -1.
         23    2    1    0    0    0 -0.28030660326E+02  0.71306965793E+00 -0.11518419735E+02  0.94686630345E+02  0.89703163747E+02 0.  0.
         13    1    3    3    0    0 -0.59038401128E+02  0.10139229169E+02 -0.15914591767E+02  0.61980820993E+02  0.10566000000E+00 0.  1.
         22    1    1    0    0    0  0.28030660326E+02 -0.71306965793E+00  0.11518419735E+02  0.30313369655E+02  0.00000000000E+00 0.  1.
</event>
<event>
 5    1  0.9034713E-005  0.9118800E+02  0.7818608E-02  0.1130116E+00
         25   -1    0    0    0    0  0.00000000000E+00  0.00000000000E+00  0.99999998245E-14  0.12500000000E+03  0.12500000000E+03 0.  0.
        -13    1    3    3    0    0 -0.84763597494E+01  0.31782059615E+02  0.73010742967E+01  0.33693691367E+02  0.10566000000E+00 0.  1.
         23    2    1    0    0    0 -0.23193855104E+02 -0.19884659752E+02  0.19464265307E+02  0.88775529928E+02  0.81048642691E+02 0.  0.
         13    1    3    3    0    0 -0.14717495355E+02 -0.51666719368E+02  0.12163191010E+02  0.55081838561E+02  0.10566000000E+00 0. -1.
         22    1    1    0    0    0  0.23193855104E+02  0.19884659752E+02 -0.19464265307E+02  0.36224470072E+02  0.00000000000E+00 0. -1.
</event>
<event>
 5    1  0.9034713E-005  0.9118800E+02  0.7818608E-02  0.1130116E+00
         25   -1    0    0    0    0  0.00000000000E+00  0.00000000000E+00  0.99999998245E-14  0.12500000000E+03  0.12500000000E+03 0.  0.
        -13    1    3    3    0    0  0.75739062466E+01  0.37650807949E+02  0.66306975263E+00  0.38410912780E+02  0.10566000000E+00 0. -1.
         23    2    1    0    0    0  0.21150370193E+02 -0.16202320237E+02  0.13078686508E+02  0.95319949779E+02  0.90581385751E+02 0.  0.
         13    1    3    3    0    0  0.13576463947E+02 -0.53853128186E+02  0.12415616755E+02  0.56909036999E+02  0.10566000000E+00 0.  1.
         22    1    1    0    0    0 -0.21150370193E+02  0.16202320237E+02 -0.13078686508E+02  0.29680050221E+02  0.00000000000E+00 0.  1.
</event>
<event>
 5    1  0.9034713E-005  0.9118800E+02  0.7818608E-02  0.1130116E+00
         25   -1    0    0    0    0  0.00000000000E+00  0.00000000000E+00  0.99999998245E-14  0.12500000000E+03  0.12500000000E+03 0.  0.
        -13    1    3    3    0    0  0.24485656214E+02  0.16839968356E+02  0.17736399623E+02  0.34608133872E+02  0.10566000000E+00 0. -1.
         23    2    1    0    0    0 -0.50995462593E+01 -0.16611801341E+02 -0.23756225501E+02  0.95566760866E+02  0.90921340820E+02 0.  0.
         13    1    3    3    0    0 -0.29585202474E+02 -0.33451769697E+02 -0.41492625124E+02  0.60958626994E+02  0.10566000000E+00 0.  1.
         22    1    1    0    0    0  0.50995462593E+01  0.16611801341E+02  0.23756225501E+02  0.29433239134E+02  0.00000000000E+00 0.  1.
</event>
<event>
 5    1  0.9034713E-005  0.9118800E+02  0.7818608E-02  0.1130116E+00
         25   -1    0    0    0    0  0.00000000000E+00  0.00000000000E+00  0.99999998245E-14  0.12500000000E+03  0.12500000000E+03 0.  0.
        -13    1    3    3    0    0  0.21269621041E+02 -0.36670780301E+02 -0.34640693622E+01  0.42534149194E+02  0.10566000000E+00 0.  1.
         23    2    1    0    0    0 -0.26121048705E+02 -0.10264166024E+02 -0.28664972500E+01  0.96788670784E+02  0.92586001620E+02 0.  0.
         13    1    3    3    0    0 -0.47390669746E+02  0.26406614277E+02  0.59757211213E+00  0.54254521590E+02  0.10566000000E+00 0. -1.
         22    1    1    0    0    0  0.26121048705E+02  0.10264166024E+02  0.28664972500E+01  0.28211329216E+02  0.00000000000E+00 0. -1.
</event>
<event>
 5    1  0.9034713E-005  0.9118800E+02  0.7818608E-02  0.1130116E+00
         25   -1    0    0    0    0  0.00000000000E+00  0.00000000000E+00  0.99999998245E-14  0.12500000000E+03  0.12500000000E+03 0.  0.
        -13    1    3    3    0    0 -0.44385469865E+02  0.28558715118E+02  0.90096456750E+01  0.53543020306E+02  0.10566000000E+00 0.  1.
         23    2    1    0    0    0 -0.22856171921E+01  0.27711561271E+02  0.93850887057E+01  0.95653201809E+02  0.91040103538E+02 0.  0.
         13    1    3    3    0    0  0.42099852673E+02 -0.84715384636E+00  0.37544303065E+00  0.42110181503E+02  0.10566000000E+00 0. -1.
         22    1    1    0    0    0  0.22856171921E+01 -0.27711561271E+02 -0.93850887057E+01  0.29346798191E+02  0.00000000000E+00 0. -1.
</event>
<event>
 5    1  0.9034713E-005  0.9118800E+02  0.7818608E-02  0.1130116E+00
         25   -1    0    0    0    0  0.00000000000E+00  0.00000000000E+00  0.99999998245E-14  0.12500000000E+03  0.12500000000E+03 0.  0.
        -13    1    3    3    0    0 -0.31410257197E+02  0.14106032293E+02  0.11851070084E+02  0.36414879244E+02  0.10566000000E+00 0.  1.
         23    2    1    0    0    0  0.56765737397E+01 -0.28979120392E+02 -0.34033990697E+01  0.95274656716E+02  0.90518860902E+02 0.  0.
         13    1    3    3    0    0  0.37086830936E+02 -0.43085152685E+02 -0.15254469154E+02  0.58859777472E+02  0.10566000000E+00 0. -1.
         22    1    1    0    0    0 -0.56765737397E+01  0.28979120392E+02  0.34033990697E+01  0.29725343284E+02  0.00000000000E+00 0. -1.
</event>
<event>
 5    1  0.9034713E-005  0.9118800E+02  0.7818608E-02  0.1130116E+00
         25   -1    0    0    0    0  0.00000000000E+00  0.00000000000E+00  0.99999998245E-14  0.12500000000E+03  0.12500000000E+03 0.  0.
        -13    1    3    3    0    0 -0.37568281313E+02  0.25069180856E+02 -0.29683278757E+02  0.54045793466E+02  0.10566000000E+00 0.  1.
         23    2    1    0    0    0 -0.16782293736E+02  0.21151422466E+02  0.76340451340E+01  0.96941013909E+02  0.92791451530E+02 0.  0.
         13    1    3    3    0    0  0.20785987578E+02 -0.39177583899E+01  0.37317323891E+02  0.42895220442E+02  0.10566000000E+00 0. -1.
         22    1    1    0    0    0  0.16782293736E+02 -0.21151422466E+02 -0.76340451340E+01  0.28058986091E+02  0.00000000000E+00 0.  1.
</event>
<event>
 5    1  0.9034713E-005  0.9118800E+02  0.7818608E-02  0.1130116E+00
         25   -1    0    0    0    0  0.00000000000E+00  0.00000000000E+00  0.99999998245E-14  0.12500000000E+03  0.12500000000E+03 0.  0.
        -13    1    3    3    0    0 -0.41271929195E+02 -0.41994726990E+02 -0.20625567640E+01  0.58916844271E+02  0.10566000000E+00 0. -1.
         23    2    1    0    0    0 -0.28664545887E+02 -0.84495210809E+01 -0.42278119038E+01  0.94818466062E+02  0.89886687087E+02 0.  0.
         13    1    3    3    0    0  0.12607383308E+02  0.33545205909E+02 -0.21652551398E+01  0.35901621791E+02  0.10566000000E+00 0.  1.
         22    1    1    0    0    0  0.28664545887E+02  0.84495210809E+01  0.42278119038E+01  0.30181533938E+02  0.00000000000E+00 0. -1.
</event>
<event>
 5    1  0.9034713E-005  0.9118800E+02  0.7818608E-02  0.1130116E+00
         25   -1    0    0    0    0  0.00000000000E+00  0.00000000000E+00  0.99999998245E-14  0.12500000000E+03  0.12500000000E+03 0.  0.
        -13    1    3    3    0    0 -0.54377708910E+02  0.23548335586E+02  0.72045774754E+01  0.59694023451E+02  0.10566000000E+00 0. -1.
         23    2    1    0    0    0 -0.28775509947E+02 -0.85157253534E+00 -0.16892999063E+01  0.96162370370E+02  0.91736539027E+02 0.  0.
         13    1    3    3    0    0  0.25602198963E+02 -0.24399908122E+02 -0.88938773818E+01  0.36468346919E+02  0.10566000000E+00 0.  1.
         22    1    1    0    0    0  0.28775509947E+02  0.85157253534E+00  0.16892999063E+01  0.28837629630E+02  0.00000000000E+00 0. -1.
</event>
<event>
 5    1  0.9034713E-005  0.9118800E+02  0.7818608E-02  0.1130116E+00
         25   -1    0    0    0    0  0.00000000000E+00  0.00000000000E+00  0.99999998245E-14  0.12500000000E+03  0.12500000000E+03 0.  0.
        -13    1    3    3    0    0 -0.43628338697E+01 -0.38091691519E+02 -0.11683592105E+01  0.38358669287E+02  0.10566000000E+00 0. -1.
         23    2    1    0    0    0 -0.27831768807E+02  0.12538754365E+02  0.30435016237E+01  0.94322799703E+02  0.89194730369E+02 0.  0.
         13    1    3    3    0    0 -0.23468934937E+02  0.50630445884E+02  0.42118608341E+01  0.55964130416E+02  0.10566000000E+00 0.  1.
         22    1    1    0    0    0  0.27831768807E+02 -0.12538754365E+02 -0.30435016237E+01  0.30677200297E+02  0.00000000000E+00 0.  1.
</event>
<event>
 5    1  0.9034713E-005  0.9118800E+02  0.7818608E-02  0.1130116E+00
         25   -1    0    0    0    0  0.00000000000E+00  0.00000000000E+00  0.99999998245E-14  0.12500000000E+03  0.12500000000E+03 0.  0.
        -13    1    3    3    0    0  0.50175575191E+02  0.23136014933E+02  0.41530380044E+01  0.55408685433E+02  0.10566000000E+00 0. -1.
         23    2    1    0    0    0  0.10513105519E+02  0.27605115537E+02  0.24675432609E+01  0.95357858357E+02  0.90633683525E+02 0.  0.
         13    1    3    3    0    0 -0.39662469672E+02  0.44691006037E+01 -0.16854947435E+01  0.39949172924E+02  0.10566000000E+00 0.  1.
         22    1    1    0    0    0 -0.10513105519E+02 -0.27605115537E+02 -0.24675432609E+01  0.29642141643E+02  0.00000000000E+00 0. -1.
</event>
<event>
 5    1  0.9034713E-005  0.9118800E+02  0.7818608E-02  0.1130116E+00
         25   -1    0    0    0    0  0.00000000000E+00  0.00000000000E+00  0.99999998245E-14  0.12500000000E+03  0.12500000000E+03 0.  0.
        -13    1    3    3    0    0 -0.13159254083E+02  0.30751888187E+02  0.15803572599E+02  0.36994711325E+02  0.10566000000E+00 0. -1.
         23    2    1    0    0    0  0.45847044976E+01 -0.37500571312E+01 -0.28503558576E+02  0.95887540548E+02  0.91361289051E+02 0.  0.
         13    1    3    3    0    0  0.17743958580E+02 -0.34501945318E+02 -0.44307131176E+02  0.58892829223E+02  0.10566000000E+00 0.  1.
         22    1    1    0    0    0 -0.45847044976E+01  0.37500571312E+01  0.28503558576E+02  0.29112459452E+02  0.00000000000E+00 0.  1.
</event>
<event>
 5    1  0.9034713E-005  0.9118800E+02  0.7818608E-02  0.1130116E+00
         25   -1    0    0    0    0  0.00000000000E+00  0.00000000000E+00  0.99999998245E-14  0.12500000000E+03  0.12500000000E+03 0.  0.
        -13    1    3    3    0    0  0.36137510878E+02  0.26996873018E+02 -0.20856894844E+02  0.49696801424E+02  0.10566000000E+00 0. -1.
         23    2    1    0    0    0 -0.64895913814E+00  0.60044622291E+00 -0.29242609344E+02  0.95744028219E+02  0.91164724838E+02 0.  0.
         13    1    3    3    0    0 -0.36786470016E+02 -0.26396426795E+02 -0.83857145001E+01  0.46047226795E+02  0.10566000000E+00 0.  1.
         22    1    1    0    0    0  0.64895913814E+00 -0.60044622291E+00  0.29242609344E+02  0.29255971781E+02  0.00000000000E+00 0. -1.
</event>
<event>
 5    1  0.9034713E-005  0.9118800E+02  0.7818608E-02  0.1130116E+00
         25   -1    0    0    0    0  0.00000000000E+00  0.00000000000E+00  0.99999998245E-14  0.12500000000E+03  0.12500000000E+03 0.  0.
        -13    1    3    3    0    0  0.49626536918E+02  0.33091314082E+02 -0.18226430090E+01  0.59675467537E+02  0.10566000000E+00 0.  1.
         23    2    1    0    0    0  0.30056113354E+02  0.11610375806E+02  0.10316051675E+02  0.91168185115E+02  0.84658409379E+02 0.  0.
         13    1    3    3    0    0 -0.19570423565E+02 -0.21480938277E+02  0.12138694684E+02  0.31492717577E+02  0.10566000000E+00 0. -1.
         22    1    1    0    0    0 -0.30056113354E+02 -0.11610375806E+02 -0.10316051675E+02  0.33831814885E+02  0.00000000000E+00 0.  1.
</event>
<event>
 5    1  0.9034713E-005  0.9118800E+02  0.7818608E-02  0.1130116E+00
         25   -1    0    0    0    0  0.00000000000E+00  0.00000000000E+00  0.99999998245E-14  0.12500000000E+03  0.12500000000E+03 0.  0.
        -13    1    3    3    0    0  0.44215364617E+02 -0.23547819166E+01  0.37428173031E+01  0.44436058685E+02  0.10566000000E+00 0.  1.
         23    2    1    0    0    0  0.94328594347E+01 -0.10399988388E+02  0.32057672596E+02  0.90002386255E+02  0.82919217095E+02 0.  0.
         13    1    3    3    0    0 -0.34782505182E+02 -0.80452064718E+01  0.28314855293E+02  0.45566327570E+02  0.10566000000E+00 0. -1.
         22    1    1    0    0    0 -0.94328594347E+01  0.10399988388E+02 -0.32057672596E+02  0.34997613745E+02  0.00000000000E+00 0. -1.
</event>
<event>
 5    1  0.9034713E-005  0.9118800E+02  0.7818608E-02  0.1130116E+00
         25   -1    0    0    0    0  0.00000000000E+00  0.00000000000E+00  0.99999998245E-14  0.12500000000E+03  0.12500000000E+03 0.  0.
        -13    1    3    3    0    0 -0.26949204799E+02  0.28750306449E+01 -0.26832814412E+02  0.38138386618E+02  0.10566000000E+00 0.  1.
         23    2    1    0    0    0 -0.94625463162E+01 -0.20314506141E+02  0.21123185799E+02  0.94203767750E+02  0.89027759364E+02 0.  0.
         13    1    3    3    0    0  0.17486658483E+02 -0.23189536786E+02  0.47956000210E+02  0.56065381132E+02  0.10566000000E+00 0. -1.
         22    1    1    0    0    0  0.94625463162E+01  0.20314506141E+02 -0.21123185799E+02  0.30796232250E+02  0.00000000000E+00 0. -1.
</event>
<event>
 5    1  0.9034713E-005  0.9118800E+02  0.7818608E-02  0.1130116E+00
         25   -1    0    0    0    0  0.00000000000E+00  0.00000000000E+00  0.99999998245E-14  0.12500000000E+03  0.12500000000E+03 0.  0.
        -13    1    3    3    0    0  0.22552776723E+02  0.19579523753E+02  0.28065166451E+02  0.40983535966E+02  0.10566000000E+00 0. -1.
         23    2    1    0    0    0 -0.22964445025E+02  0.20388494634E+02  0.33459817223E+00  0.94288953051E+02  0.89147284102E+02 0.  0.
         13    1    3    3    0    0 -0.45517221748E+02  0.80897088046E+00 -0.27730568279E+02  0.53305417086E+02  0.10566000000E+00 0.  1.
         22    1    1    0    0    0  0.22964445025E+02 -0.20388494634E+02 -0.33459817223E+00  0.30711046949E+02  0.00000000000E+00 0.  1.
</event>
<event>
 5    1  0.9034713E-005  0.9118800E+02  0.7818608E-02  0.1130116E+00
         25   -1    0    0    0    0  0.00000000000E+00  0.00000000000E+00  0.99999998245E-14  0.12500000000E+03  0.12500000000E+03 0.  0.
        -13    1    3    3    0    0  0.34476866369E+02 -0.22067052759E+02 -0.39907345260E+02  0.57168317291E+02  0.10566000000E+00 0. -1.
         23    2    1    0    0    0  0.28776795950E+02 -0.54936969497E+01 -0.63554766197E+01  0.95022061872E+02  0.90169371009E+02 0.  0.
         13    1    3    3    0    0 -0.57000704192E+01  0.16573355809E+02  0.33551868640E+02  0.37853744582E+02  0.10566000000E+00 0.  1.
         22    1    1    0    0    0 -0.28776795950E+02  0.54936969497E+01  0.63554766197E+01  0.29977938128E+02  0.00000000000E+00 0. -1.
</event>
<event>
 5    1  0.9034713E-005  0.9118800E+02  0.7818608E-02  0.1130116E+00
         25   -1    0    0    0    0  0.00000000000E+00  0.00000000000E+00  0.99999998245E-14  0.12500000000E+03  0.12500000000E+03 0.  0.
        -13    1    3    3    0    0 -0.22196317924E+02 -0.31640868570E+02 -0.12297158515E+02  0.40559245121E+02  0.10566000000E+00 0. -1.
         23    2    1    0    0    0 -0.54607581869E+01  0.19431717248E+02 -0.21967886770E+02  0.95167139522E+02  0.90370265466E+02 0.  0.
         13    1    3    3    0    0  0.16735559737E+02  0.51072585818E+02 -0.96707282555E+01  0.54607894400E+02  0.10566000000E+00 0.  1.
         22    1    1    0    0    0  0.54607581869E+01 -0.19431717248E+02  0.21967886770E+02  0.29832860478E+02  0.00000000000E+00 0.  1.
</event>
<event>
 5    1  0.9034713E-005  0.9118800E+02  0.7818608E-02  0.1130116E+00
         25   -1    0    0    0    0  0.00000000000E+00  0.00000000000E+00  0.99999998245E-14  0.12500000000E+03  0.12500000000E+03 0.  0.
        -13    1    3    3    0    0  0.32227504338E+02  0.24122230829E+02  0.26633202475E+02  0.48268340495E+02  0.10566000000E+00 0.  1.
         23    2    1    0    0    0  0.71488902920E+01  0.16682015419E+02 -0.17638921352E+02  0.99691348963E+02  0.96425293574E+02 0.  0.
         13    1    3    3    0    0 -0.25078614046E+02 -0.74402154101E+01 -0.44272123826E+02  0.51423008468E+02  0.10566000000E+00 0. -1.
         22    1    1    0    0    0 -0.71488902920E+01 -0.16682015419E+02  0.17638921352E+02  0.25308651037E+02  0.00000000000E+00 0.  1.
</event>
<event>
 5    1  0.9034713E-005  0.9118800E+02  0.7818608E-02  0.1130116E+00
         25   -1    0    0    0    0  0.00000000000E+00  0.00000000000E+00  0.99999998245E-14  0.12500000000E+03  0.12500000000E+03 0.  0.
        -13    1    3    3    0    0 -0.20995813809E+02 -0.32824131965E+02  0.35341700624E+02  0.52605083440E+02  0.10566000000E+00 0.  1.
         23    2    1    0    0    0 -0.26138685712E+02  0.32295837815E+01  0.19012405556E+02  0.92517194284E+02  0.86627354634E+02 0.  0.
         13    1    3    3    0    0 -0.51428719030E+01  0.36053715746E+02 -0.16329295068E+02  0.39912110843E+02  0.10566000000E+00 0. -1.
         22    1    1    0    0    0  0.26138685712E+02 -0.32295837815E+01 -0.19012405556E+02  0.32482805716E+02  0.00000000000E+00 0.  1.
</event>
<event>
 5    1  0.9034713E-005  0.9118800E+02  0.7818608E-02  0.1130116E+00
         25   -1    0    0    0    0  0.00000000000E+00  0.00000000000E+00  0.99999998245E-14  0.12500000000E+03  0.12500000000E+03 0.  0.
        -13    1    3    3    0    0  0.18034753493E+02 -0.24588556651E+02  0.81260832938E+01  0.31557785814E+02  0.10566000000E+00 0.  1.
         23    2    1    0    0    0 -0.15561768845E+02  0.27197213034E+02  0.17270984419E+01  0.93617840810E+02  0.88201248305E+02 0.  0.
         13    1    3    3    0    0 -0.33596522337E+02  0.51785769685E+02 -0.63989848519E+01  0.62060054997E+02  0.10566000000E+00 0. -1.
         22    1    1    0    0    0  0.15561768845E+02 -0.27197213034E+02 -0.17270984419E+01  0.31382159190E+02  0.00000000000E+00 0. -1.
</event>
<event>
 5    1  0.9034713E-005  0.9118800E+02  0.7818608E-02  0.1130116E+00
         25   -1    0    0    0    0  0.00000000000E+00  0.00000000000E+00  0.99999998245E-14  0.12500000000E+03  0.12500000000E+03 0.  0.
        -13    1    3    3    0    0  0.21309652168E+02  0.23883397044E+02  0.18097117248E+02  0.36770025111E+02  0.10566000000E+00 0.  1.
         23    2    1    0    0    0 -0.36843113813E+00 -0.19943765161E+01 -0.29669337456E+02  0.95261424643E+02  0.90500586522E+02 0.  0.
         13    1    3    3    0    0 -0.21678083306E+02 -0.25877773561E+02 -0.47766454704E+02  0.58491399533E+02  0.10566000000E+00 0. -1.
         22    1    1    0    0    0  0.36843113813E+00  0.19943765161E+01  0.29669337456E+02  0.29738575357E+02  0.00000000000E+00 0. -1.
</event>
<event>
 5    1  0.9034713E-005  0.9118800E+02  0.7818608E-02  0.1130116E+00
         25   -1    0    0    0    0  0.00000000000E+00  0.00000000000E+00  0.99999998245E-14  0.12500000000E+03  0.12500000000E+03 0.  0.
        -13    1    3    3    0    0  0.41506031113E+02 -0.26695651177E+02 -0.38262266407E+02  0.62445340940E+02  0.10566000000E+00 0.  1.
         23    2    1    0    0    0  0.20168840228E+02 -0.13684358655E+02 -0.21101602589E+02  0.92761491663E+02  0.86979152191E+02 0.  0.
         13    1    3    3    0    0 -0.21337190885E+02  0.13011292522E+02  0.17160663818E+02  0.30316150723E+02  0.10566000000E+00 0. -1.
         22    1    1    0    0    0 -0.20168840228E+02  0.13684358655E+02  0.21101602589E+02  0.32238508337E+02  0.00000000000E+00 0.  1.
</event>
<event>
 5    1  0.9034713E-005  0.9118800E+02  0.7818608E-02  0.1130116E+00
         25   -1    0    0    0    0  0.00000000000E+00  0.00000000000E+00  0.99999998245E-14  0.12500000000E+03  0.12500000000E+03 0.  0.
        -13    1    3    3    0    0  0.26033963175E+02 -0.46680065023E+02  0.17217942251E+01  0.53476830951E+02  0.10566000000E+00 0.  1.
         23    2    1    0    0    0  0.27511483404E+02 -0.34746056035E+01  0.49643255627E+01  0.96829108436E+02  0.92640580250E+02 0.  0.
         13    1    3    3    0    0  0.14775202296E+01  0.43205459419E+02  0.32425313376E+01  0.43352277486E+02  0.10566000000E+00 0. -1.
         22    1    1    0    0    0 -0.27511483404E+02  0.34746056035E+01 -0.49643255627E+01  0.28170891564E+02  0.00000000000E+00 0.  1.
</event>
<event>
 5    1  0.9034713E-005  0.9118800E+02  0.7818608E-02  0.1130116E+00
         25   -1    0    0    0    0  0.00000000000E+00  0.00000000000E+00  0.99999998245E-14  0.12500000000E+03  0.12500000000E+03 0.  0.
        -13    1    3    3    0    0 -0.10777059275E+02  0.24295134759E+02 -0.28122707368E+02  0.38694914566E+02  0.10566000000E+00 0. -1.
         23    2    1    0    0    0  0.27722389016E+02 -0.55123199871E+01  0.31456444666E+01  0.96560386720E+02  0.92277281495E+02 0.  0.
         13    1    3    3    0    0  0.38499448291E+02 -0.29807454746E+02  0.31268351834E+02  0.57865472154E+02  0.10566000000E+00 0.  1.
         22    1    1    0    0    0 -0.27722389016E+02  0.55123199871E+01 -0.31456444666E+01  0.28439613280E+02  0.00000000000E+00 0.  1.
</event>
<event>
 5    1  0.9034713E-005  0.9118800E+02  0.7818608E-02  0.1130116E+00
         25   -1    0    0    0    0  0.00000000000E+00  0.00000000000E+00  0.99999998245E-14  0.12500000000E+03  0.12500000000E+03 0.  0.
        -13    1    3    3    0    0 -0.75438698357E+01 -0.13145064905E+02 -0.22717034406E+02  0.27308927473E+02  0.10566000000E+00 0. -1.
         23    2    1    0    0    0  0.11117428166E+02  0.29849414791E+02  0.17135045884E+02  0.88831027526E+02  0.81134190583E+02 0.  0.
         13    1    3    3    0    0  0.18661298001E+02  0.42994479696E+02  0.39852080290E+02  0.61522100053E+02  0.10566000000E+00 0.  1.
         22    1    1    0    0    0 -0.11117428166E+02 -0.29849414791E+02 -0.17135045884E+02  0.36168972474E+02  0.00000000000E+00 0.  1.
</event>
<event>
 5    1  0.9034713E-005  0.9118800E+02  0.7818608E-02  0.1130116E+00
         25   -1    0    0    0    0  0.00000000000E+00  0.00000000000E+00  0.99999998245E-14  0.12500000000E+03  0.12500000000E+03 0.  0.
        -13    1    3    3    0    0  0.34843287823E+02 -0.20079996008E+02 -0.45199614616E+02  0.60500225383E+02  0.10566000000E+00 0.  1.
         23    2    1    0    0    0  0.17344327546E+02  0.22614297359E+01 -0.19738449543E+02  0.98626791002E+02  0.95035244781E+02 0.  0.
         13    1    3    3    0    0 -0.17498960277E+02  0.22341425744E+02  0.25461165073E+02  0.38126565619E+02  0.10566000000E+00 0. -1.
         22    1    1    0    0    0 -0.17344327546E+02 -0.22614297359E+01  0.19738449543E+02  0.26373208998E+02  0.00000000000E+00 0.  1.
</event>
<event>
 5    1  0.9034713E-005  0.9118800E+02  0.7818608E-02  0.1130116E+00
         25   -1    0    0    0    0  0.00000000000E+00  0.00000000000E+00  0.99999998245E-14  0.12500000000E+03  0.12500000000E+03 0.  0.
        -13    1    3    3    0    0  0.42353540645E+01  0.59051013002E+02 -0.58604027503E+00  0.59205700468E+02  0.10566000000E+00 0.  1.
         23    2    1    0    0    0  0.15430713988E+02  0.21299922061E+02 -0.21273088162E+01  0.98612141868E+02  0.95015974799E+02 0.  0.
         13    1    3    3    0    0  0.11195359924E+02 -0.37751090941E+02 -0.15412685412E+01  0.39406441400E+02  0.10566000000E+00 0. -1.
         22    1    1    0    0    0 -0.15430713988E+02 -0.21299922061E+02  0.21273088162E+01  0.26387858132E+02  0.00000000000E+00 0.  1.
</event>
<event>
 5    1  0.9034713E-005  0.9118800E+02  0.7818608E-02  0.1130116E+00
         25   -1    0    0    0    0  0.00000000000E+00  0.00000000000E+00  0.99999998245E-14  0.12500000000E+03  0.12500000000E+03 0.  0.
        -13    1    3    3    0    0  0.29980364684E+02 -0.13742815004E+02 -0.39848360183E+02  0.51726107568E+02  0.10566000000E+00 0. -1.
         23    2    1    0    0    0  0.20643532374E+02 -0.18459888168E+02  0.41913330789E+01  0.96991248277E+02  0.92859097935E+02 0.  0.
         13    1    3    3    0    0 -0.93368323099E+01 -0.47170731643E+01  0.44039693262E+02  0.45265140709E+02  0.10566000000E+00 0.  1.
         22    1    1    0    0    0 -0.20643532374E+02  0.18459888168E+02 -0.41913330789E+01  0.28008751723E+02  0.00000000000E+00 0.  1.
</event>
<event>
 5    1  0.9034713E-005  0.9118800E+02  0.7818608E-02  0.1130116E+00
         25   -1    0    0    0    0  0.00000000000E+00  0.00000000000E+00  0.99999998245E-14  0.12500000000E+03  0.12500000000E+03 0.  0.
        -13    1    3    3    0    0 -0.15693035915E+02 -0.20533052534E+02  0.15654693804E+02  0.30215198572E+02  0.10566000000E+00 0.  1.
         23    2    1    0    0    0  0.14004771294E+02  0.19009190909E+02 -0.22275903723E+02  0.92539272271E+02  0.86659206480E+02 0.  0.
         13    1    3    3    0    0  0.29697807209E+02  0.39542243444E+02 -0.37930597527E+02  0.62324073699E+02  0.10566000000E+00 0. -1.
         22    1    1    0    0    0 -0.14004771294E+02 -0.19009190909E+02  0.22275903723E+02  0.32460727729E+02  0.00000000000E+00 0. -1.
</event>
<event>
 5    1  0.9034713E-005  0.9118800E+02  0.7818608E-02  0.1130116E+00
         25   -1    0    0    0    0  0.00000000000E+00  0.00000000000E+00  0.99999998245E-14  0.12500000000E+03  0.12500000000E+03 0.  0.
        -13    1    3    3    0    0 -0.42746350994E+02  0.15674647595E+02 -0.29922587999E+02  0.54482268098E+02  0.10566000000E+00 0. -1.
         23    2    1    0    0    0 -0.11840589245E+02 -0.11726571697E+02 -0.23361296576E+02  0.96303968652E+02  0.91929278051E+02 0.  0.
         13    1    3    3    0    0  0.30905761750E+02 -0.27401219292E+02  0.65612914227E+01  0.41821700553E+02  0.10566000000E+00 0.  1.
         22    1    1    0    0    0  0.11840589245E+02  0.11726571697E+02  0.23361296576E+02  0.28696031348E+02  0.00000000000E+00 0. -1.
</event>
<event>
 5    1  0.9034713E-005  0.9118800E+02  0.7818608E-02  0.1130116E+00
         25   -1    0    0    0    0  0.00000000000E+00  0.00000000000E+00  0.99999998245E-14  0.12500000000E+03  0.12500000000E+03 0.  0.
        -13    1    3    3    0    0  0.71134339091E+01  0.54088107358E+02 -0.52917340480E+01  0.54810016538E+02  0.10566000000E+00 0.  1.
         23    2    1    0    0    0 -0.15773201544E+02  0.20713950566E+02 -0.12831138216E+02  0.95974153881E+02  0.91479716169E+02 0.  0.
         13    1    3    3    0    0 -0.22886635453E+02 -0.33374156793E+02 -0.75394041678E+01  0.41164137344E+02  0.10566000000E+00 0. -1.
         22    1    1    0    0    0  0.15773201544E+02 -0.20713950566E+02  0.12831138216E+02  0.29025846119E+02  0.00000000000E+00 0.  1.
</event>
<event>
 5    1  0.9034713E-005  0.9118800E+02  0.7818608E-02  0.1130116E+00
         25   -1    0    0    0    0  0.00000000000E+00  0.00000000000E+00  0.99999998245E-14  0.12500000000E+03  0.12500000000E+03 0.  0.
        -13    1    3    3    0    0  0.26592067929E+02  0.10089400386E+01  0.24626831023E+02  0.36258075059E+02  0.10566000000E+00 0.  1.
         23    2    1    0    0    0  0.24931136235E+01  0.10929876008E+02 -0.27920376640E+02  0.94913038757E+02  0.90018107563E+02 0.  0.
         13    1    3    3    0    0 -0.24098954306E+02  0.99209359698E+01 -0.52547207663E+02  0.58654963698E+02  0.10566000000E+00 0. -1.
         22    1    1    0    0    0 -0.24931136235E+01 -0.10929876008E+02  0.27920376640E+02  0.30086961243E+02  0.00000000000E+00 0. -1.
</event>
<event>
 5    1  0.9034713E-005  0.9118800E+02  0.7818608E-02  0.1130116E+00
         25   -1    0    0    0    0  0.00000000000E+00  0.00000000000E+00  0.99999998245E-14  0.12500000000E+03  0.12500000000E+03 0.  0.
        -13    1    3    3    0    0  0.32225601444E+02 -0.11179642975E+01 -0.30389027129E+02  0.44308502192E+02  0.10566000000E+00 0. -1.
         23    2    1    0    0    0 -0.33640268064E+01 -0.28215050161E+02 -0.38356726113E+01  0.96327397811E+02  0.91961130119E+02 0.  0.
         13    1    3    3    0    0 -0.35589628250E+02 -0.27097085863E+02  0.26553354518E+02  0.52018895619E+02  0.10566000000E+00 0.  1.
         22    1    1    0    0    0  0.33640268064E+01  0.28215050161E+02  0.38356726113E+01  0.28672602189E+02  0.00000000000E+00 0.  1.
</event>
<event>
 5    1  0.9034713E-005  0.9118800E+02  0.7818608E-02  0.1130116E+00
         25   -1    0    0    0    0  0.00000000000E+00  0.00000000000E+00  0.99999998245E-14  0.12500000000E+03  0.12500000000E+03 0.  0.
        -13    1    3    3    0    0  0.81565351337E+00  0.20547639693E+01 -0.47355767936E+02  0.47407460029E+02  0.10566000000E+00 0. -1.
         23    2    1    0    0    0 -0.20091209988E+02 -0.16995504600E+02 -0.51956216268E+01  0.98176533045E+02  0.94441162960E+02 0.  0.
         13    1    3    3    0    0 -0.20906863502E+02 -0.19050268569E+02  0.42160146309E+02  0.50769073016E+02  0.10566000000E+00 0.  1.
         22    1    1    0    0    0  0.20091209988E+02  0.16995504600E+02  0.51956216268E+01  0.26823466955E+02  0.00000000000E+00 0. -1.
</event>
<event>
 5    1  0.9034713E-005  0.9118800E+02  0.7818608E-02  0.1130116E+00
         25   -1    0    0    0    0  0.00000000000E+00  0.00000000000E+00  0.99999998245E-14  0.12500000000E+03  0.12500000000E+03 0.  0.
        -13    1    3    3    0    0  0.30009513430E+02  0.30549782860E+01 -0.15289889198E+02  0.33818569815E+02  0.10566000000E+00 0.  1.
         23    2    1    0    0    0  0.20732544513E+02 -0.40258770156E+02 -0.11514482104E+02  0.78275378283E+02  0.62800036391E+02 0.  0.
         13    1    3    3    0    0 -0.92769689163E+01 -0.43313748442E+02  0.37754070938E+01  0.44456808468E+02  0.10566000000E+00 0. -1.
         22    1    1    0    0    0 -0.20732544513E+02  0.40258770156E+02  0.11514482104E+02  0.46724621717E+02  0.00000000000E+00 0. -1.
</event>
<event>
 5    1  0.9034713E-005  0.9118800E+02  0.7818608E-02  0.1130116E+00
         25   -1    0    0    0    0  0.00000000000E+00  0.00000000000E+00  0.99999998245E-14  0.12500000000E+03  0.12500000000E+03 0.  0.
        -13    1    3    3    0    0 -0.13534141040E+02  0.29511460665E+02 -0.40229956613E+02  0.51696807033E+02  0.10566000000E+00 0.  1.
         23    2    1    0    0    0  0.68562384703E+01 -0.67752976378E+01 -0.28459476863E+02  0.94952462874E+02  0.90072835630E+02 0.  0.
         13    1    3    3    0    0  0.20390379510E+02 -0.36286758303E+02  0.11770479750E+02  0.43255655841E+02  0.10566000000E+00 0. -1.
         22    1    1    0    0    0 -0.68562384703E+01  0.67752976378E+01  0.28459476863E+02  0.30047537126E+02  0.00000000000E+00 0. -1.
</event>
<event>
 5    1  0.9034713E-005  0.9118800E+02  0.7818608E-02  0.1130116E+00
         25   -1    0    0    0    0  0.00000000000E+00  0.00000000000E+00  0.99999998245E-14  0.12500000000E+03  0.12500000000E+03 0.  0.
        -13    1    3    3    0    0  0.59672898159E+02  0.10636736132E+02  0.14589149171E+02  0.62344601754E+02  0.10566000000E+00 0.  1.
         23    2    1    0    0    0  0.28528265960E+02  0.24374290382E+01  0.86128943100E+01  0.95100418608E+02  0.90277930038E+02 0.  0.
         13    1    3    3    0    0 -0.31144632199E+02 -0.81993070938E+01 -0.59762548607E+01  0.32755816854E+02  0.10566000000E+00 0. -1.
         22    1    1    0    0    0 -0.28528265960E+02 -0.24374290382E+01 -0.86128943100E+01  0.29899581392E+02  0.00000000000E+00 0.  1.
</event>
<event>
 5    1  0.9034713E-005  0.9118800E+02  0.7818608E-02  0.1130116E+00
         25   -1    0    0    0    0  0.00000000000E+00  0.00000000000E+00  0.99999998245E-14  0.12500000000E+03  0.12500000000E+03 0.  0.
        -13    1    3    3    0    0 -0.59585187985E+01 -0.36427582992E+02 -0.38045404176E+01  0.37107390648E+02  0.10566000000E+00 0. -1.
         23    2    1    0    0    0  0.24855594450E+02  0.10873610231E+02  0.11400411413E+02  0.95572031071E+02  0.90928586087E+02 0.  0.
         13    1    3    3    0    0  0.30814113248E+02  0.47301193223E+02  0.15204951831E+02  0.58464640423E+02  0.10566000000E+00 0.  1.
         22    1    1    0    0    0 -0.24855594450E+02 -0.10873610231E+02 -0.11400411413E+02  0.29427968929E+02  0.00000000000E+00 0.  1.
</event>
<event>
 5    1  0.9034713E-005  0.9118800E+02  0.7818608E-02  0.1130116E+00
         25   -1    0    0    0    0  0.00000000000E+00  0.00000000000E+00  0.99999998245E-14  0.12500000000E+03  0.12500000000E+03 0.  0.
        -13    1    3    3    0    0 -0.39835268373E+02 -0.31478357162E+02 -0.14250471376E+02  0.52733506184E+02  0.10566000000E+00 0. -1.
         23    2    1    0    0    0 -0.26975659451E+02  0.89443581351E+01 -0.62695727486E+01  0.95896816536E+02  0.91373979524E+02 0.  0.
         13    1    3    3    0    0  0.12859608922E+02  0.40422715297E+02  0.79808986271E+01  0.43163310352E+02  0.10566000000E+00 0.  1.
         22    1    1    0    0    0  0.26975659451E+02 -0.89443581351E+01  0.62695727486E+01  0.29103183464E+02  0.00000000000E+00 0. -1.
</event>
<event>
 5    1  0.9034713E-005  0.9118800E+02  0.7818608E-02  0.1130116E+00
         25   -1    0    0    0    0  0.00000000000E+00  0.00000000000E+00  0.99999998245E-14  0.12500000000E+03  0.12500000000E+03 0.  0.
        -13    1    3    3    0    0  0.19288933350E+02 -0.29940695346E+02 -0.43237653203E+01  0.35877768857E+02  0.10566000000E+00 0.  1.
         23    2    1    0    0    0 -0.25825545823E+02  0.47576303721E+01 -0.16372558093E+02  0.94054006360E+02  0.88817237010E+02 0.  0.
         13    1    3    3    0    0 -0.45114479173E+02  0.34698325718E+02 -0.12048792773E+02  0.58176237503E+02  0.10566000000E+00 0. -1.
         22    1    1    0    0    0  0.25825545823E+02 -0.47576303721E+01  0.16372558093E+02  0.30945993640E+02  0.00000000000E+00 0. -1.
</event>
<event>
 5    1  0.9034713E-005  0.9118800E+02  0.7818608E-02  0.1130116E+00
         25   -1    0    0    0    0  0.00000000000E+00  0.00000000000E+00  0.99999998245E-14  0.12500000000E+03  0.12500000000E+03 0.  0.
        -13    1    3    3    0    0 -0.12009700651E+02  0.23437632810E+02  0.45126432383E+02  0.52249034490E+02  0.10566000000E+00 0. -1.
         23    2    1    0    0    0  0.15678734586E+02  0.18558801649E+02  0.68200433339E+01  0.99765800430E+02  0.96521759761E+02 0.  0.
         13    1    3    3    0    0  0.27688435237E+02 -0.48788311611E+01 -0.38306389049E+02  0.47516765940E+02  0.10566000000E+00 0.  1.
         22    1    1    0    0    0 -0.15678734586E+02 -0.18558801649E+02 -0.68200433339E+01  0.25234199570E+02  0.00000000000E+00 0. -1.
</event>
<event>
 5    1  0.9034713E-005  0.9118800E+02  0.7818608E-02  0.1130116E+00
         25   -1    0    0    0    0  0.00000000000E+00  0.00000000000E+00  0.99999998245E-14  0.12500000000E+03  0.12500000000E+03 0.  0.
        -13    1    3    3    0    0  0.37274089117E+02  0.31538219665E+01 -0.10514250172E+02  0.38856980495E+02  0.10566000000E+00 0. -1.
         23    2    1    0    0    0 -0.14570244433E+02  0.25221893063E+02 -0.45764212030E+01  0.95514757190E+02  0.90849817268E+02 0.  0.
         13    1    3    3    0    0 -0.51844333550E+02  0.22068071097E+02  0.59378289688E+01  0.56657776695E+02  0.10566000000E+00 0.  1.
         22    1    1    0    0    0  0.14570244433E+02 -0.25221893063E+02  0.45764212030E+01  0.29485242810E+02  0.00000000000E+00 0.  1.
</event>
<event>
 5    1  0.9034713E-005  0.9118800E+02  0.7818608E-02  0.1130116E+00
         25   -1    0    0    0    0  0.00000000000E+00  0.00000000000E+00  0.99999998245E-14  0.12500000000E+03  0.12500000000E+03 0.  0.
        -13    1    3    3    0    0  0.53120516297E+02 -0.28798753309E+02 -0.14616971255E+02  0.62167712331E+02  0.10566000000E+00 0.  1.
         23    2    1    0    0    0  0.24197669880E+02 -0.17877854182E+02 -0.90645003276E+01  0.93578509520E+02  0.88145489846E+02 0.  0.
         13    1    3    3    0    0 -0.28922846417E+02  0.10920899127E+02  0.55524709272E+01  0.31410797189E+02  0.10566000000E+00 0. -1.
         22    1    1    0    0    0 -0.24197669880E+02  0.17877854182E+02  0.90645003276E+01  0.31421490480E+02  0.00000000000E+00 0.  1.
</event>
<event>
 5    1  0.9034713E-005  0.9118800E+02  0.7818608E-02  0.1130116E+00
         25   -1    0    0    0    0  0.00000000000E+00  0.00000000000E+00  0.99999998245E-14  0.12500000000E+03  0.12500000000E+03 0.  0.
        -13    1    3    3    0    0 -0.83513482082E+01  0.37629922697E+02  0.26902908009E+02  0.47005677555E+02  0.10566000000E+00 0. -1.
         23    2    1    0    0    0  0.22354468266E+02  0.18027414380E+02 -0.54993785168E+01  0.95760419210E+02  0.91187196484E+02 0.  0.
         13    1    3    3    0    0  0.30705816474E+02 -0.19602508317E+02 -0.32402286526E+02  0.48754741655E+02  0.10566000000E+00 0.  1.
         22    1    1    0    0    0 -0.22354468266E+02 -0.18027414380E+02  0.54993785168E+01  0.29239580790E+02  0.00000000000E+00 0. -1.
</event>
<event>
 5    1  0.9034713E-005  0.9118800E+02  0.7818608E-02  0.1130116E+00
         25   -1    0    0    0    0  0.00000000000E+00  0.00000000000E+00  0.99999998245E-14  0.12500000000E+03  0.12500000000E+03 0.  0.
        -13    1    3    3    0    0 -0.21450738340E+01 -0.34214186135E+02 -0.70723957253E+01  0.35003454401E+02  0.10566000000E+00 0. -1.
         23    2    1    0    0    0  0.10016961385E+02  0.14859167548E+02  0.24526712403E+02  0.94624121463E+02  0.89616016234E+02 0.  0.
         13    1    3    3    0    0  0.12162035219E+02  0.49073353684E+02  0.31599108128E+02  0.59620667062E+02  0.10566000000E+00 0.  1.
         22    1    1    0    0    0 -0.10016961385E+02 -0.14859167548E+02 -0.24526712403E+02  0.30375878537E+02  0.00000000000E+00 0.  1.
</event>
<event>
 5    1  0.9034713E-005  0.9118800E+02  0.7818608E-02  0.1130116E+00
         25   -1    0    0    0    0  0.00000000000E+00  0.00000000000E+00  0.99999998245E-14  0.12500000000E+03  0.12500000000E+03 0.  0.
        -13    1    3    3    0    0 -0.77339450070E+01  0.23692336713E+02 -0.27287489623E+02  0.36956176456E+02  0.10566000000E+00 0.  1.
         23    2    1    0    0    0  0.10614748452E+02 -0.21717525963E+02  0.10330213956E+02  0.98712414736E+02  0.95147799155E+02 0.  0.
         13    1    3    3    0    0  0.18348693459E+02 -0.45409862676E+02  0.37617703579E+02  0.61756238280E+02  0.10566000000E+00 0. -1.
         22    1    1    0    0    0 -0.10614748452E+02  0.21717525963E+02 -0.10330213956E+02  0.26287585264E+02  0.00000000000E+00 0. -1.
</event>
<event>
 5    1  0.9034713E-005  0.9118800E+02  0.7818608E-02  0.1130116E+00
         25   -1    0    0    0    0  0.00000000000E+00  0.00000000000E+00  0.99999998245E-14  0.12500000000E+03  0.12500000000E+03 0.  0.
        -13    1    3    3    0    0  0.38617377212E+02  0.25565434210E+02 -0.23518300286E+02  0.51942418710E+02  0.10566000000E+00 0.  1.
         23    2    1    0    0    0  0.27335624796E+02 -0.10139610177E+02 -0.61237300238E+00  0.95837985697E+02  0.91293463206E+02 0.  0.
         13    1    3    3    0    0 -0.11281752417E+02 -0.35705044388E+02  0.22905927283E+02  0.43895566986E+02  0.10566000000E+00 0. -1.
         22    1    1    0    0    0 -0.27335624796E+02  0.10139610177E+02  0.61237300238E+00  0.29162014303E+02  0.00000000000E+00 0. -1.
</event>
<event>
 5    1  0.9034713E-005  0.9118800E+02  0.7818608E-02  0.1130116E+00
         25   -1    0    0    0    0  0.00000000000E+00  0.00000000000E+00  0.99999998245E-14  0.12500000000E+03  0.12500000000E+03 0.  0.
        -13    1    3    3    0    0  0.34495638049E+02 -0.61727253074E-01 -0.37773091354E+02  0.51154378592E+02  0.10566000000E+00 0.  1.
         23    2    1    0    0    0  0.14548911410E+02  0.23753754578E+02 -0.43118492485E+01  0.96813057567E+02  0.92618920268E+02 0.  0.
         13    1    3    3    0    0 -0.19946726639E+02  0.23815481831E+02  0.33461242105E+02  0.45658678975E+02  0.10566000000E+00 0. -1.
         22    1    1    0    0    0 -0.14548911410E+02 -0.23753754578E+02  0.43118492485E+01  0.28186942433E+02  0.00000000000E+00 0. -1.
</event>
<event>
 5    1  0.9034713E-005  0.9118800E+02  0.7818608E-02  0.1130116E+00
         25   -1    0    0    0    0  0.00000000000E+00  0.00000000000E+00  0.99999998245E-14  0.12500000000E+03  0.12500000000E+03 0.  0.
        -13    1    3    3    0    0  0.13650302248E+02  0.55257089339E+02 -0.93725117986E+01  0.57684762418E+02  0.10566000000E+00 0. -1.
         23    2    1    0    0    0 -0.10963955229E+02  0.27189191754E+02 -0.35162402114E+01  0.95473327182E+02  0.90792795945E+02 0.  0.
         13    1    3    3    0    0 -0.24614257477E+02 -0.28067897585E+02  0.58562715872E+01  0.37788564764E+02  0.10566000000E+00 0.  1.
         22    1    1    0    0    0  0.10963955229E+02 -0.27189191754E+02  0.35162402114E+01  0.29526672818E+02  0.00000000000E+00 0. -1.
</event>
<event>
 5    1  0.9034713E-005  0.9118800E+02  0.7818608E-02  0.1130116E+00
         25   -1    0    0    0    0  0.00000000000E+00  0.00000000000E+00  0.99999998245E-14  0.12500000000E+03  0.12500000000E+03 0.  0.
        -13    1    3    3    0    0 -0.21568057293E+02 -0.34471316515E+02 -0.20919414217E+02  0.45728391759E+02  0.10566000000E+00 0.  1.
         23    2    1    0    0    0  0.22675990843E+02 -0.16676451358E+02 -0.12697994554E+02  0.94120497797E+02  0.88910766779E+02 0.  0.
         13    1    3    3    0    0  0.44244048136E+02  0.17794865157E+02  0.82214196625E+01  0.48392106037E+02  0.10566000000E+00 0. -1.
         22    1    1    0    0    0 -0.22675990843E+02  0.16676451358E+02  0.12697994554E+02  0.30879502203E+02  0.00000000000E+00 0. -1.
</event>
<event>
 5    1  0.9034713E-005  0.9118800E+02  0.7818608E-02  0.1130116E+00
         25   -1    0    0    0    0  0.00000000000E+00  0.00000000000E+00  0.99999998245E-14  0.12500000000E+03  0.12500000000E+03 0.  0.
        -13    1    3    3    0    0  0.24251940116E+02  0.13918328393E+02 -0.11634300608E+01  0.27986446688E+02  0.10566000000E+00 0. -1.
         23    2    1    0    0    0 -0.27552810903E+02 -0.37911615728E+01 -0.24910338737E+02  0.87662950428E+02  0.79314170279E+02 0.  0.
         13    1    3    3    0    0 -0.51804751019E+02 -0.17709489966E+02 -0.23746908676E+02  0.59676503741E+02  0.10566000000E+00 0.  1.
         22    1    1    0    0    0  0.27552810903E+02  0.37911615728E+01  0.24910338737E+02  0.37337049572E+02  0.00000000000E+00 0.  1.
</event>
<event>
 5    1  0.9034713E-005  0.9118800E+02  0.7818608E-02  0.1130116E+00
         25   -1    0    0    0    0  0.00000000000E+00  0.00000000000E+00  0.99999998245E-14  0.12500000000E+03  0.12500000000E+03 0.  0.
        -13    1    3    3    0    0 -0.51628223380E+02  0.33914673274E+02 -0.72566800322E+01  0.62196053587E+02  0.10566000000E+00 0. -1.
         23    2    1    0    0    0 -0.24562265580E+02  0.21247928139E+02 -0.46204826283E+01  0.92195606996E+02  0.86162066764E+02 0.  0.
         13    1    3    3    0    0  0.27065957800E+02 -0.12666745135E+02  0.26361974039E+01  0.29999553409E+02  0.10566000000E+00 0.  1.
         22    1    1    0    0    0  0.24562265580E+02 -0.21247928139E+02  0.46204826283E+01  0.32804393004E+02  0.00000000000E+00 0. -1.
</event>
<event>
 5    1  0.9034713E-005  0.9118800E+02  0.7818608E-02  0.1130116E+00
         25   -1    0    0    0    0  0.00000000000E+00  0.00000000000E+00  0.99999998245E-14  0.12500000000E+03  0.12500000000E+03 0.  0.
        -13    1    3    3    0    0 -0.46823654416E+02 -0.64315828893E+01 -0.24380890369E+02  0.53181376915E+02  0.10566000000E+00 0. -1.
         23    2    1    0    0    0 -0.25518390279E+02  0.12878432077E+02  0.68224885925E+01  0.95613121878E+02  0.90985056297E+02 0.  0.
         13    1    3    3    0    0  0.21305264137E+02  0.19310014966E+02  0.31203378962E+02  0.42431744963E+02  0.10566000000E+00 0.  1.
         22    1    1    0    0    0  0.25518390279E+02 -0.12878432077E+02 -0.68224885925E+01  0.29386878122E+02  0.00000000000E+00 0. -1.
</event>
<event>
 5    1  0.9034713E-005  0.9118800E+02  0.7818608E-02  0.1130116E+00
         25   -1    0    0    0    0  0.00000000000E+00  0.00000000000E+00  0.99999998245E-14  0.12500000000E+03  0.12500000000E+03 0.  0.
        -13    1    3    3    0    0 -0.56913719956E+02  0.81554005061E+01  0.18613211266E+02  0.60432978367E+02  0.10566000000E+00 0. -1.
         23    2    1    0    0    0 -0.24398159868E+02  0.14385856216E+02  0.49579332190E+01  0.96245797424E+02  0.91850146194E+02 0.  0.
         13    1    3    3    0    0  0.32515560088E+02  0.62304557094E+01 -0.13655278047E+02  0.35812819056E+02  0.10566000000E+00 0.  1.
         22    1    1    0    0    0  0.24398159868E+02 -0.14385856216E+02 -0.49579332190E+01  0.28754202576E+02  0.00000000000E+00 0. -1.
</event>
<event>
 5    1  0.9034713E-005  0.9118800E+02  0.7818608E-02  0.1130116E+00
         25   -1    0    0    0    0  0.00000000000E+00  0.00000000000E+00  0.99999998245E-14  0.12500000000E+03  0.12500000000E+03 0.  0.
        -13    1    3    3    0    0  0.13714455498E+02  0.18133057970E+02 -0.35073289920E+02  0.41797618482E+02  0.10566000000E+00 0. -1.
         23    2    1    0    0    0  0.12332195618E+02  0.20579583273E+02  0.18038319841E+02  0.94983616488E+02  0.90116059179E+02 0.  0.
         13    1    3    3    0    0 -0.13822598797E+01  0.24465253032E+01  0.53111609761E+02  0.53185998006E+02  0.10566000000E+00 0.  1.
         22    1    1    0    0    0 -0.12332195618E+02 -0.20579583273E+02 -0.18038319841E+02  0.30016383512E+02  0.00000000000E+00 0.  1.
</event>
<event>
 5    1  0.9034713E-005  0.9118800E+02  0.7818608E-02  0.1130116E+00
         25   -1    0    0    0    0  0.00000000000E+00  0.00000000000E+00  0.99999998245E-14  0.12500000000E+03  0.12500000000E+03 0.  0.
        -13    1    3    3    0    0 -0.16193626328E+02  0.34929802052E+02  0.18703091524E+02  0.42803520902E+02  0.10566000000E+00 0.  1.
         23    2    1    0    0    0 -0.23977089196E+02 -0.15650122814E+02  0.37231045069E+01  0.96126332800E+02  0.91687421165E+02 0.  0.
         13    1    3    3    0    0 -0.77834628685E+01 -0.50579924866E+02 -0.14979987017E+02  0.53322811898E+02  0.10566000000E+00 0. -1.
         22    1    1    0    0    0  0.23977089196E+02  0.15650122814E+02 -0.37231045069E+01  0.28873667200E+02  0.00000000000E+00 0. -1.
</event>
<event>
 5    1  0.9034713E-005  0.9118800E+02  0.7818608E-02  0.1130116E+00
         25   -1    0    0    0    0  0.00000000000E+00  0.00000000000E+00  0.99999998245E-14  0.12500000000E+03  0.12500000000E+03 0.  0.
        -13    1    3    3    0    0 -0.39562435249E+02  0.11086860012E+02  0.11086955094E+02  0.42556274332E+02  0.10566000000E+00 0.  1.
         23    2    1    0    0    0  0.72842881830E+01  0.98668030263E+01  0.29612807201E+02  0.92947964080E+02  0.87246724981E+02 0.  0.
         13    1    3    3    0    0  0.46846723431E+02 -0.12200569860E+01  0.18525852107E+02  0.50391689748E+02  0.10566000000E+00 0. -1.
         22    1    1    0    0    0 -0.72842881830E+01 -0.98668030263E+01 -0.29612807201E+02  0.32052035920E+02  0.00000000000E+00 0. -1.
</event>
<event>
 5    1  0.9034713E-005  0.9118800E+02  0.7818608E-02  0.1130116E+00
         25   -1    0    0    0    0  0.00000000000E+00  0.00000000000E+00  0.99999998245E-14  0.12500000000E+03  0.12500000000E+03 0.  0.
        -13    1    3    3    0    0 -0.63499088640E+01 -0.26133802629E+02  0.43006103223E+02  0.50723101846E+02  0.10566000000E+00 0.  1.
         23    2    1    0    0    0  0.13780383899E+02  0.87183776231E+01  0.25764312514E+02  0.94508871977E+02  0.89455117206E+02 0.  0.
         13    1    3    3    0    0  0.20130292763E+02  0.34852180252E+02 -0.17241790710E+02  0.43785770131E+02  0.10566000000E+00 0. -1.
         22    1    1    0    0    0 -0.13780383899E+02 -0.87183776231E+01 -0.25764312514E+02  0.30491128023E+02  0.00000000000E+00 0.  1.
</event>
<event>
 5    1  0.9034713E-005  0.9118800E+02  0.7818608E-02  0.1130116E+00
         25   -1    0    0    0    0  0.00000000000E+00  0.00000000000E+00  0.99999998245E-14  0.12500000000E+03  0.12500000000E+03 0.  0.
        -13    1    3    3    0    0 -0.26785656819E+02  0.18775125279E+02 -0.54981324534E+01  0.33169524641E+02  0.10566000000E+00 0.  1.
         23    2    1    0    0    0  0.17063952968E+02 -0.24457764417E+02  0.14752896644E+01  0.95141379624E+02  0.90334627391E+02 0.  0.
         13    1    3    3    0    0  0.43849609787E+02 -0.43232889696E+02  0.69734221179E+01  0.61971854982E+02  0.10566000000E+00 0. -1.
         22    1    1    0    0    0 -0.17063952968E+02  0.24457764417E+02 -0.14752896644E+01  0.29858620376E+02  0.00000000000E+00 0. -1.
</event>
<event>
 5    1  0.9034713E-005  0.9118800E+02  0.7818608E-02  0.1130116E+00
         25   -1    0    0    0    0  0.00000000000E+00  0.00000000000E+00  0.99999998245E-14  0.12500000000E+03  0.12500000000E+03 0.  0.
        -13    1    3    3    0    0 -0.31599678884E+02 -0.72015942724E+01  0.19380892486E+02  0.37762849776E+02  0.10566000000E+00 0. -1.
         23    2    1    0    0    0 -0.16115548658E+02  0.26226835080E+02 -0.17248735696E+02  0.89714356036E+02  0.82483871205E+02 0.  0.
         13    1    3    3    0    0  0.15484130225E+02  0.33428429352E+02 -0.36629628182E+02  0.51951506259E+02  0.10566000000E+00 0.  1.
         22    1    1    0    0    0  0.16115548658E+02 -0.26226835080E+02  0.17248735696E+02  0.35285643964E+02  0.00000000000E+00 0.  1.
</event>
<event>
 5    1  0.9034713E-005  0.9118800E+02  0.7818608E-02  0.1130116E+00
         25   -1    0    0    0    0  0.00000000000E+00  0.00000000000E+00  0.99999998245E-14  0.12500000000E+03  0.12500000000E+03 0.  0.
        -13    1    3    3    0    0  0.21554574288E+02 -0.91151835946E+01 -0.37456403691E+02  0.44166498460E+02  0.10566000000E+00 0. -1.
         23    2    1    0    0    0  0.19028597500E+02  0.18939190397E+02  0.74158670576E+01  0.97147252560E+02  0.93068862355E+02 0.  0.
         13    1    3    3    0    0 -0.25259767882E+01  0.28054373992E+02  0.44872270749E+02  0.52980754100E+02  0.10566000000E+00 0.  1.
         22    1    1    0    0    0 -0.19028597500E+02 -0.18939190397E+02 -0.74158670576E+01  0.27852747440E+02  0.00000000000E+00 0.  1.
</event>
<event>
 5    1  0.9034713E-005  0.9118800E+02  0.7818608E-02  0.1130116E+00
         25   -1    0    0    0    0  0.00000000000E+00  0.00000000000E+00  0.99999998245E-14  0.12500000000E+03  0.12500000000E+03 0.  0.
        -13    1    3    3    0    0 -0.29203295832E+02  0.17577642981E+02 -0.60202768807E+01  0.34613016597E+02  0.10566000000E+00 0.  1.
         23    2    1    0    0    0  0.22447208884E+02 -0.39106758173E+01  0.18458221695E+02  0.95676348792E+02  0.91071879294E+02 0.  0.
         13    1    3    3    0    0  0.51650504716E+02 -0.21488318798E+02  0.24478498575E+02  0.61063332195E+02  0.10566000000E+00 0. -1.
         22    1    1    0    0    0 -0.22447208884E+02  0.39106758173E+01 -0.18458221695E+02  0.29323651208E+02  0.00000000000E+00 0. -1.
</event>
<event>
 5    1  0.9034713E-005  0.9118800E+02  0.7818608E-02  0.1130116E+00
         25   -1    0    0    0    0  0.00000000000E+00  0.00000000000E+00  0.99999998245E-14  0.12500000000E+03  0.12500000000E+03 0.  0.
        -13    1    3    3    0    0  0.18061220586E+02 -0.47227780228E+02  0.29353176967E+02  0.58466153255E+02  0.10566000000E+00 0.  1.
         23    2    1    0    0    0  0.24036569417E+02 -0.18606120434E+02  0.13311662313E+02  0.91816498972E+02  0.85610307458E+02 0.  0.
         13    1    3    3    0    0  0.59753488306E+01  0.28621659794E+02 -0.16041514655E+02  0.33350345717E+02  0.10566000000E+00 0. -1.
         22    1    1    0    0    0 -0.24036569417E+02  0.18606120434E+02 -0.13311662313E+02  0.33183501028E+02  0.00000000000E+00 0.  1.
</event>
<event>
 5    1  0.9034713E-005  0.9118800E+02  0.7818608E-02  0.1130116E+00
         25   -1    0    0    0    0  0.00000000000E+00  0.00000000000E+00  0.99999998245E-14  0.12500000000E+03  0.12500000000E+03 0.  0.
        -13    1    3    3    0    0  0.24876988416E+02  0.27097008386E+02  0.41833264962E+02  0.55705885125E+02  0.10566000000E+00 0. -1.
         23    2    1    0    0    0  0.34283411657E+01 -0.35824722863E+01  0.29451146705E+02  0.95134339567E+02  0.90324885230E+02 0.  0.
         13    1    3    3    0    0 -0.21448647250E+02 -0.30679480673E+02 -0.12382118257E+02  0.39428454443E+02  0.10566000000E+00 0.  1.
         22    1    1    0    0    0 -0.34283411657E+01  0.35824722863E+01 -0.29451146705E+02  0.29865660433E+02  0.00000000000E+00 0. -1.
</event>
<event>
 5    1  0.9034713E-005  0.9118800E+02  0.7818608E-02  0.1130116E+00
         25   -1    0    0    0    0  0.00000000000E+00  0.00000000000E+00  0.99999998245E-14  0.12500000000E+03  0.12500000000E+03 0.  0.
        -13    1    3    3    0    0 -0.26900093275E+02 -0.46296279713E+02  0.28150201713E+02  0.60493020705E+02  0.10566000000E+00 0. -1.
         23    2    1    0    0    0 -0.14207440116E+02 -0.26597920138E+02  0.32745763003E+01  0.94668109847E+02  0.89677352000E+02 0.  0.
         13    1    3    3    0    0  0.12692653159E+02  0.19698359575E+02 -0.24875625413E+02  0.34175089142E+02  0.10566000000E+00 0.  1.
         22    1    1    0    0    0  0.14207440116E+02  0.26597920138E+02 -0.32745763003E+01  0.30331890153E+02  0.00000000000E+00 0. -1.
</event>
<event>
 5    1  0.9034713E-005  0.9118800E+02  0.7818608E-02  0.1130116E+00
         25   -1    0    0    0    0  0.00000000000E+00  0.00000000000E+00  0.99999998245E-14  0.12500000000E+03  0.12500000000E+03 0.  0.
        -13    1    3    3    0    0  0.39032721689E+02  0.79148350050E+01  0.38511643567E+01  0.40013005468E+02  0.10566000000E+00 0.  1.
         23    2    1    0    0    0 -0.29756781087E+01 -0.28892848204E+02  0.10918023505E+01  0.95933810536E+02  0.91424573470E+02 0.  0.
         13    1    3    3    0    0 -0.42008399798E+02 -0.36807683209E+02 -0.27593620062E+01  0.55920805069E+02  0.10566000000E+00 0. -1.
         22    1    1    0    0    0  0.29756781087E+01  0.28892848204E+02 -0.10918023505E+01  0.29066189464E+02  0.00000000000E+00 0. -1.
</event>
<event>
 5    1  0.9034713E-005  0.9118800E+02  0.7818608E-02  0.1130116E+00
         25   -1    0    0    0    0  0.00000000000E+00  0.00000000000E+00  0.99999998245E-14  0.12500000000E+03  0.12500000000E+03 0.  0.
        -13    1    3    3    0    0 -0.26002929739E+02 -0.53808704143E+02  0.84931058418E+01  0.60362844594E+02  0.10566000000E+00 0.  1.
         23    2    1    0    0    0 -0.21851418048E+02 -0.19993680179E+02  0.75031107842E+01  0.94446303182E+02  0.89367644008E+02 0.  0.
         13    1    3    3    0    0  0.41515116910E+01  0.33815023965E+02 -0.98999505767E+00  0.34083458588E+02  0.10566000000E+00 0. -1.
         22    1    1    0    0    0  0.21851418048E+02  0.19993680179E+02 -0.75031107842E+01  0.30553696818E+02  0.00000000000E+00 0. -1.
</event>
<event>
 5    1  0.9034713E-005  0.9118800E+02  0.7818608E-02  0.1130116E+00
         25   -1    0    0    0    0  0.00000000000E+00  0.00000000000E+00  0.99999998245E-14  0.12500000000E+03  0.12500000000E+03 0.  0.
        -13    1    3    3    0    0 -0.96123193970E-01 -0.38381455395E+01  0.53305880418E+02  0.53444070317E+02  0.10566000000E+00 0. -1.
         23    2    1    0    0    0 -0.70405310866E+01 -0.23278956931E+02  0.16608354988E+02  0.95549764531E+02  0.90897971005E+02 0.  0.
         13    1    3    3    0    0 -0.69444078926E+01 -0.19440811391E+02 -0.36697525430E+02  0.42105694215E+02  0.10566000000E+00 0.  1.
         22    1    1    0    0    0  0.70405310866E+01  0.23278956931E+02 -0.16608354988E+02  0.29450235469E+02  0.00000000000E+00 0. -1.
</event>
<event>
 5    1  0.9034713E-005  0.9118800E+02  0.7818608E-02  0.1130116E+00
         25   -1    0    0    0    0  0.00000000000E+00  0.00000000000E+00  0.99999998245E-14  0.12500000000E+03  0.12500000000E+03 0.  0.
        -13    1    3    3    0    0  0.41294123886E+02 -0.43257773627E+02 -0.53326890336E+01  0.60040722706E+02  0.10566000000E+00 0. -1.
         23    2    1    0    0    0  0.94301782220E+01 -0.27730462765E+02 -0.27705986163E+01  0.95579207299E+02  0.90938450750E+02 0.  0.
         13    1    3    3    0    0 -0.31863945664E+02  0.15527310863E+02  0.25620904173E+01  0.35538484594E+02  0.10566000000E+00 0.  1.
         22    1    1    0    0    0 -0.94301782220E+01  0.27730462765E+02  0.27705986163E+01  0.29420792701E+02  0.00000000000E+00 0. -1.
</event>
<event>
 5    1  0.9034713E-005  0.9118800E+02  0.7818608E-02  0.1130116E+00
         25   -1    0    0    0    0  0.00000000000E+00  0.00000000000E+00  0.99999998245E-14  0.12500000000E+03  0.12500000000E+03 0.  0.
        -13    1    3    3    0    0  0.19603401948E+02 -0.38176541706E+02  0.18803566014E+02  0.46854316380E+02  0.10566000000E+00 0. -1.
         23    2    1    0    0    0  0.23898396767E+02  0.10641307332E+02  0.16079156123E+01  0.98790151042E+02  0.95249870134E+02 0.  0.
         13    1    3    3    0    0  0.42949948186E+01  0.48817849039E+02 -0.17195650402E+02  0.51935834662E+02  0.10566000000E+00 0.  1.
         22    1    1    0    0    0 -0.23898396767E+02 -0.10641307332E+02 -0.16079156123E+01  0.26209848958E+02  0.00000000000E+00 0. -1.
</event>
<event>
 5    1  0.9034713E-005  0.9118800E+02  0.7818608E-02  0.1130116E+00
         25   -1    0    0    0    0  0.00000000000E+00  0.00000000000E+00  0.99999998245E-14  0.12500000000E+03  0.12500000000E+03 0.  0.
        -13    1    3    3    0    0 -0.34455838710E+02  0.10031707291E+01  0.11301451021E+02  0.36275958043E+02  0.10566000000E+00 0.  1.
         23    2    1    0    0    0  0.10464836549E+02  0.48273475102E+01 -0.27134380626E+02  0.95519655702E+02  0.90856556865E+02 0.  0.
         13    1    3    3    0    0  0.44920675259E+02  0.38241767811E+01 -0.38435831647E+02  0.59243697658E+02  0.10566000000E+00 0. -1.
         22    1    1    0    0    0 -0.10464836549E+02 -0.48273475102E+01  0.27134380626E+02  0.29480344298E+02  0.00000000000E+00 0. -1.
</event>
<event>
 5    1  0.9034713E-005  0.9118800E+02  0.7818608E-02  0.1130116E+00
         25   -1    0    0    0    0  0.00000000000E+00  0.00000000000E+00  0.99999998245E-14  0.12500000000E+03  0.12500000000E+03 0.  0.
        -13    1    3    3    0    0 -0.21087843712E+02  0.20014916725E+02 -0.32385873842E+02  0.43521833974E+02  0.10566000000E+00 0.  1.
         23    2    1    0    0    0  0.26995914045E+01  0.22122927628E+02  0.16056967455E+02  0.97531146284E+02  0.93583046387E+02 0.  0.
         13    1    3    3    0    0  0.23787435116E+02  0.21080109037E+01  0.48442841297E+02  0.54009312311E+02  0.10566000000E+00 0. -1.
         22    1    1    0    0    0 -0.26995914045E+01 -0.22122927628E+02 -0.16056967455E+02  0.27468853716E+02  0.00000000000E+00 0. -1.
</event>
<event>
 5    1  0.9034713E-005  0.9118800E+02  0.7818608E-02  0.1130116E+00
         25   -1    0    0    0    0  0.00000000000E+00  0.00000000000E+00  0.99999998245E-14  0.12500000000E+03  0.12500000000E+03 0.  0.
        -13    1    3    3    0    0 -0.10845894933E+01 -0.39441242003E+02 -0.20217506415E+02  0.44334485841E+02  0.10566000000E+00 0.  1.
         23    2    1    0    0    0  0.23065925561E+02 -0.16450559267E+02  0.15091941939E+02  0.92899773620E+02  0.87177654276E+02 0.  0.
         13    1    3    3    0    0  0.24150515054E+02  0.22990682735E+02  0.35309448354E+02  0.48565287779E+02  0.10566000000E+00 0. -1.
         22    1    1    0    0    0 -0.23065925561E+02  0.16450559267E+02 -0.15091941939E+02  0.32100226380E+02  0.00000000000E+00 0. -1.
</event>
<event>
 5    1  0.9034713E-005  0.9118800E+02  0.7818608E-02  0.1130116E+00
         25   -1    0    0    0    0  0.00000000000E+00  0.00000000000E+00  0.99999998245E-14  0.12500000000E+03  0.12500000000E+03 0.  0.
        -13    1    3    3    0    0 -0.98910458216E+01  0.24284367342E+02 -0.33550025233E+02  0.42581435413E+02  0.10566000000E+00 0. -1.
         23    2    1    0    0    0  0.16011993673E+02  0.26223049617E+02  0.94814726355E+01  0.92845208818E+02  0.87099381195E+02 0.  0.
         13    1    3    3    0    0  0.25903039495E+02  0.19386822751E+01  0.43031497869E+02  0.50263773405E+02  0.10566000000E+00 0.  1.
         22    1    1    0    0    0 -0.16011993673E+02 -0.26223049617E+02 -0.94814726355E+01  0.32154791182E+02  0.00000000000E+00 0.  1.
</event>
<event>
 5    1  0.9034713E-005  0.9118800E+02  0.7818608E-02  0.1130116E+00
         25   -1    0    0    0    0  0.00000000000E+00  0.00000000000E+00  0.99999998245E-14  0.12500000000E+03  0.12500000000E+03 0.  0.
        -13    1    3    3    0    0 -0.30051268865E+02  0.20866861952E+02 -0.29540594214E+02  0.47023000315E+02  0.10566000000E+00 0. -1.
         23    2    1    0    0    0  0.12420613172E+02 -0.46546322086E+01 -0.24896793011E+02  0.96790293607E+02  0.92588192561E+02 0.  0.
         13    1    3    3    0    0  0.42471882037E+02 -0.25521494160E+02  0.46438012027E+01  0.49767293292E+02  0.10566000000E+00 0.  1.
         22    1    1    0    0    0 -0.12420613172E+02  0.46546322086E+01  0.24896793011E+02  0.28209706393E+02  0.00000000000E+00 0.  1.
</event>
<event>
 5    1  0.9034713E-005  0.9118800E+02  0.7818608E-02  0.1130116E+00
         25   -1    0    0    0    0  0.00000000000E+00  0.00000000000E+00  0.99999998245E-14  0.12500000000E+03  0.12500000000E+03 0.  0.
        -13    1    3    3    0    0 -0.19046296947E+02  0.19216798398E+02 -0.14499307107E+02  0.30696707293E+02  0.10566000000E+00 0.  1.
         23    2    1    0    0    0  0.29431133217E+02 -0.15349493110E+02 -0.77248231941E+00  0.91797661677E+02  0.85582798618E+02 0.  0.
         13    1    3    3    0    0  0.48477430164E+02 -0.34566291508E+02  0.13726824787E+02  0.61100954384E+02  0.10566000000E+00 0. -1.
         22    1    1    0    0    0 -0.29431133217E+02  0.15349493110E+02  0.77248231941E+00  0.33202338323E+02  0.00000000000E+00 0. -1.
</event>
<event>
 5    1  0.9034713E-005  0.9118800E+02  0.7818608E-02  0.1130116E+00
         25   -1    0    0    0    0  0.00000000000E+00  0.00000000000E+00  0.99999998245E-14  0.12500000000E+03  0.12500000000E+03 0.  0.
        -13    1    3    3    0    0 -0.50348620154E+00 -0.42122036393E+02  0.53645676241E+01  0.42465388237E+02  0.10566000000E+00 0.  1.
         23    2    1    0    0    0 -0.12497760722E+02  0.41569960065E+01 -0.23319235300E+02  0.98218264174E+02  0.94496381114E+02 0.  0.
         13    1    3    3    0    0 -0.11994274521E+02  0.46279032400E+02 -0.28683802924E+02  0.55752875938E+02  0.10566000000E+00 0. -1.
         22    1    1    0    0    0  0.12497760722E+02 -0.41569960065E+01  0.23319235300E+02  0.26781735826E+02  0.00000000000E+00 0. -1.
</event>
<event>
 5    1  0.9034713E-005  0.9118800E+02  0.7818608E-02  0.1130116E+00
         25   -1    0    0    0    0  0.00000000000E+00  0.00000000000E+00  0.99999998245E-14  0.12500000000E+03  0.12500000000E+03 0.  0.
        -13    1    3    3    0    0 -0.40785731117E+02 -0.28312814675E+02 -0.32473475664E+02  0.59326462251E+02  0.10566000000E+00 0.  1.
         23    2    1    0    0    0 -0.26376008014E+02 -0.12000844529E+02 -0.31405737678E+01  0.95852491157E+02  0.91313322080E+02 0.  0.
         13    1    3    3    0    0  0.14409723103E+02  0.16311970146E+02  0.29332901896E+02  0.36526028906E+02  0.10566000000E+00 0. -1.
         22    1    1    0    0    0  0.26376008014E+02  0.12000844529E+02  0.31405737678E+01  0.29147508843E+02  0.00000000000E+00 0.  1.
</event>
<event>
 5    1  0.9034713E-005  0.9118800E+02  0.7818608E-02  0.1130116E+00
         25   -1    0    0    0    0  0.00000000000E+00  0.00000000000E+00  0.99999998245E-14  0.12500000000E+03  0.12500000000E+03 0.  0.
        -13    1    3    3    0    0  0.29107810966E+02 -0.10944050063E+01  0.49260940829E+02  0.57228610300E+02  0.10566000000E+00 0. -1.
         23    2    1    0    0    0  0.23117376615E+02  0.15359859797E+02  0.37594364775E+02  0.78270195192E+02  0.62789718888E+02 0.  0.
         13    1    3    3    0    0 -0.59904343514E+01  0.16454264803E+02 -0.11666576053E+02  0.21041584892E+02  0.10566000000E+00 0.  1.
         22    1    1    0    0    0 -0.23117376615E+02 -0.15359859797E+02 -0.37594364775E+02  0.46729804808E+02  0.00000000000E+00 0. -1.
</event>
<event>
 5    1  0.9034713E-005  0.9118800E+02  0.7818608E-02  0.1130116E+00
         25   -1    0    0    0    0  0.00000000000E+00  0.00000000000E+00  0.99999998245E-14  0.12500000000E+03  0.12500000000E+03 0.  0.
        -13    1    3    3    0    0 -0.34688822977E+02 -0.12612620346E+02  0.79977263201E+01  0.37767279778E+02  0.10566000000E+00 0. -1.
         23    2    1    0    0    0  0.72870414364E+01  0.21899979955E+02 -0.15735079143E+02  0.97066099260E+02  0.92959802146E+02 0.  0.
         13    1    3    3    0    0  0.41975864414E+02  0.34512600300E+02 -0.23732805463E+02  0.59298819482E+02  0.10566000000E+00 0.  1.
         22    1    1    0    0    0 -0.72870414364E+01 -0.21899979955E+02  0.15735079143E+02  0.27933900740E+02  0.00000000000E+00 0.  1.
</event>
<event>
 5    1  0.9034713E-005  0.9118800E+02  0.7818608E-02  0.1130116E+00
         25   -1    0    0    0    0  0.00000000000E+00  0.00000000000E+00  0.99999998245E-14  0.12500000000E+03  0.12500000000E+03 0.  0.
        -13    1    3    3    0    0  0.31569746975E+02  0.19295773188E+02  0.65690449811E+01  0.37578441998E+02  0.10566000000E+00 0.  1.
         23    2    1    0    0    0 -0.18968669874E+02  0.74639846829E+01 -0.20476429536E+02  0.96106996164E+02  0.91661055203E+02 0.  0.
         13    1    3    3    0    0 -0.50538416850E+02 -0.11831788505E+02 -0.27045474517E+02  0.58528554166E+02  0.10566000000E+00 0. -1.
         22    1    1    0    0    0  0.18968669874E+02 -0.74639846829E+01  0.20476429536E+02  0.28893003836E+02  0.00000000000E+00 0. -1.
</event>
<event>
 5    1  0.9034713E-005  0.9118800E+02  0.7818608E-02  0.1130116E+00
         25   -1    0    0    0    0  0.00000000000E+00  0.00000000000E+00  0.99999998245E-14  0.12500000000E+03  0.12500000000E+03 0.  0.
        -13    1    3    3    0    0 -0.10288331873E+02  0.28080385329E+02 -0.96906807997E+01  0.31436893475E+02  0.10566000000E+00 0. -1.
         23    2    1    0    0    0 -0.28518708059E+02 -0.11716250558E+02  0.23386332294E+02  0.86302354404E+02  0.77140058343E+02 0.  0.
         13    1    3    3    0    0 -0.18230376187E+02 -0.39796635887E+02  0.33077013093E+02  0.54865460930E+02  0.10566000000E+00 0.  1.
         22    1    1    0    0    0  0.28518708059E+02  0.11716250558E+02 -0.23386332294E+02  0.38697645596E+02  0.00000000000E+00 0.  1.
</event>
<event>
 5    1  0.9034713E-005  0.9118800E+02  0.7818608E-02  0.1130116E+00
         25   -1    0    0    0    0  0.00000000000E+00  0.00000000000E+00  0.99999998245E-14  0.12500000000E+03  0.12500000000E+03 0.  0.
        -13    1    3    3    0    0  0.17635932526E+02 -0.17081676047E+02  0.55339316398E+01  0.25168339955E+02  0.10566000000E+00 0.  1.
         23    2    1    0    0    0 -0.27542318934E+02 -0.13688735686E+02 -0.29456712727E+02  0.82412927529E+02  0.70556586385E+02 0.  0.
         13    1    3    3    0    0 -0.45178251460E+02  0.33929403614E+01 -0.34990644367E+02  0.57244587574E+02  0.10566000000E+00 0. -1.
         22    1    1    0    0    0  0.27542318934E+02  0.13688735686E+02  0.29456712727E+02  0.42587072471E+02  0.00000000000E+00 0. -1.
</event>
<event>
 5    1  0.9034713E-005  0.9118800E+02  0.7818608E-02  0.1130116E+00
         25   -1    0    0    0    0  0.00000000000E+00  0.00000000000E+00  0.99999998245E-14  0.12500000000E+03  0.12500000000E+03 0.  0.
        -13    1    3    3    0    0  0.17345132006E+02  0.29126388094E+02 -0.59913273083E+01  0.34425386776E+02  0.10566000000E+00 0.  1.
         23    2    1    0    0    0 -0.59708617988E+00 -0.28374206199E+02  0.63646440496E+01  0.95914595014E+02  0.91398297323E+02 0.  0.
         13    1    3    3    0    0 -0.17942218186E+02 -0.57500594293E+02  0.12355971358E+02  0.61489208238E+02  0.10566000000E+00 0. -1.
         22    1    1    0    0    0  0.59708617988E+00  0.28374206199E+02 -0.63646440496E+01  0.29085404986E+02  0.00000000000E+00 0. -1.
</event>
<event>
 5    1  0.9034713E-005  0.9118800E+02  0.7818608E-02  0.1130116E+00
         25   -1    0    0    0    0  0.00000000000E+00  0.00000000000E+00  0.99999998245E-14  0.12500000000E+03  0.12500000000E+03 0.  0.
        -13    1    3    3    0    0 -0.39444495672E+02  0.12722365222E+02 -0.42115234810E+02  0.59088332036E+02  0.10566000000E+00 0. -1.
         23    2    1    0    0    0 -0.25725850705E+02 -0.31005005137E+01 -0.10432932351E+02  0.97066533059E+02  0.92960385459E+02 0.  0.
         13    1    3    3    0    0  0.13718644967E+02 -0.15822865736E+02  0.31682302459E+02  0.37978201023E+02  0.10566000000E+00 0.  1.
         22    1    1    0    0    0  0.25725850705E+02  0.31005005137E+01  0.10432932351E+02  0.27933466941E+02  0.00000000000E+00 0. -1.
</event>
<event>
 5    1  0.9034713E-005  0.9118800E+02  0.7818608E-02  0.1130116E+00
         25   -1    0    0    0    0  0.00000000000E+00  0.00000000000E+00  0.99999998245E-14  0.12500000000E+03  0.12500000000E+03 0.  0.
        -13    1    3    3    0    0 -0.15397915597E+02  0.30036421715E+02 -0.13393302461E+02  0.36313553241E+02  0.10566000000E+00 0. -1.
         23    2    1    0    0    0 -0.21490990306E+02 -0.24238577741E+02  0.23858016164E+00  0.92605120223E+02  0.86754135670E+02 0.  0.
         13    1    3    3    0    0 -0.60930747099E+01 -0.54274999456E+02  0.13631882623E+02  0.56291566982E+02  0.10566000000E+00 0.  1.
         22    1    1    0    0    0  0.21490990306E+02  0.24238577741E+02 -0.23858016164E+00  0.32394879777E+02  0.00000000000E+00 0.  1.
</event>
<event>
 5    1  0.9034713E-005  0.9118800E+02  0.7818608E-02  0.1130116E+00
         25   -1    0    0    0    0  0.00000000000E+00  0.00000000000E+00  0.99999998245E-14  0.12500000000E+03  0.12500000000E+03 0.  0.
        -13    1    3    3    0    0 -0.30458455661E+02  0.37598773582E+02 -0.12053356965E+01  0.48402988485E+02  0.10566000000E+00 0. -1.
         23    2    1    0    0    0  0.15177270818E+02  0.24190165772E+02 -0.45378532345E+01  0.96084506202E+02  0.91630380063E+02 0.  0.
         13    1    3    3    0    0  0.45635726479E+02 -0.13408607809E+02 -0.33325175380E+01  0.47681517718E+02  0.10566000000E+00 0.  1.
         22    1    1    0    0    0 -0.15177270818E+02 -0.24190165772E+02  0.45378532345E+01  0.28915493798E+02  0.00000000000E+00 0.  1.
</event>
<event>
 5    1  0.9034713E-005  0.9118800E+02  0.7818608E-02  0.1130116E+00
         25   -1    0    0    0    0  0.00000000000E+00  0.00000000000E+00  0.99999998245E-14  0.12500000000E+03  0.12500000000E+03 0.  0.
        -13    1    3    3    0    0 -0.19445852488E+02  0.24057402191E+02  0.30340464411E+02  0.43329605628E+02  0.10566000000E+00 0.  1.
         23    2    1    0    0    0  0.37636317761E+01 -0.21051010555E+02  0.21222630109E+02  0.94871774060E+02  0.89960788764E+02 0.  0.
         13    1    3    3    0    0  0.23209484264E+02 -0.45108412747E+02 -0.91178343016E+01  0.51542168432E+02  0.10566000000E+00 0. -1.
         22    1    1    0    0    0 -0.37636317761E+01  0.21051010555E+02 -0.21222630109E+02  0.30128225940E+02  0.00000000000E+00 0. -1.
</event>
<event>
 5    1  0.9034713E-005  0.9118800E+02  0.7818608E-02  0.1130116E+00
         25   -1    0    0    0    0  0.00000000000E+00  0.00000000000E+00  0.99999998245E-14  0.12500000000E+03  0.12500000000E+03 0.  0.
        -13    1    3    3    0    0  0.46189363931E+02  0.70356377483E+01 -0.23802583471E+02  0.52435976989E+02  0.10566000000E+00 0. -1.
         23    2    1    0    0    0  0.26688970317E+01  0.13887620709E+02 -0.24740848499E+02  0.96502656181E+02  0.92199045793E+02 0.  0.
         13    1    3    3    0    0 -0.43520466900E+02  0.68519829604E+01 -0.93826502822E+00  0.44066679191E+02  0.10566000000E+00 0.  1.
         22    1    1    0    0    0 -0.26688970317E+01 -0.13887620709E+02  0.24740848499E+02  0.28497343819E+02  0.00000000000E+00 0.  1.
</event>
<event>
 5    1  0.9034713E-005  0.9118800E+02  0.7818608E-02  0.1130116E+00
         25   -1    0    0    0    0  0.00000000000E+00  0.00000000000E+00  0.99999998245E-14  0.12500000000E+03  0.12500000000E+03 0.  0.
        -13    1    3    3    0    0  0.11553961944E+02 -0.56045140577E+01 -0.40736680897E+02  0.42712913140E+02  0.10566000000E+00 0.  1.
         23    2    1    0    0    0 -0.57544513525E+01  0.30160012517E+02 -0.10834855475E+02  0.92440298549E+02  0.86516325842E+02 0.  0.
         13    1    3    3    0    0 -0.17308413297E+02  0.35764526575E+02  0.29901825422E+02  0.49727385409E+02  0.10566000000E+00 0. -1.
         22    1    1    0    0    0  0.57544513525E+01 -0.30160012517E+02  0.10834855475E+02  0.32559701451E+02  0.00000000000E+00 0.  1.
</event>
<event>
 5    1  0.9034713E-005  0.9118800E+02  0.7818608E-02  0.1130116E+00
         25   -1    0    0    0    0  0.00000000000E+00  0.00000000000E+00  0.99999998245E-14  0.12500000000E+03  0.12500000000E+03 0.  0.
        -13    1    3    3    0    0  0.27947298344E+02  0.10980521554E+02 -0.40704271252E+02  0.50581342416E+02  0.10566000000E+00 0.  1.
         23    2    1    0    0    0  0.22250440977E+02  0.12260631422E+02  0.70053195307E+01  0.98647017090E+02  0.95061844461E+02 0.  0.
         13    1    3    3    0    0 -0.56968573671E+01  0.12801098682E+01  0.47709590783E+02  0.48065674674E+02  0.10566000000E+00 0. -1.
         22    1    1    0    0    0 -0.22250440977E+02 -0.12260631422E+02 -0.70053195307E+01  0.26352982910E+02  0.00000000000E+00 0. -1.
</event>
<event>
 5    1  0.9034713E-005  0.9118800E+02  0.7818608E-02  0.1130116E+00
         25   -1    0    0    0    0  0.00000000000E+00  0.00000000000E+00  0.99999998245E-14  0.12500000000E+03  0.12500000000E+03 0.  0.
        -13    1    3    3    0    0  0.11687132337E+02 -0.81624047855E+01  0.32965632205E+02  0.35915985088E+02  0.10566000000E+00 0.  1.
         23    2    1    0    0    0 -0.29869115221E+02  0.37963656266E+01 -0.62000158950E+01  0.94258877165E+02  0.89105102499E+02 0.  0.
         13    1    3    3    0    0 -0.41556247557E+02  0.11958770412E+02 -0.39165648100E+02  0.58342892077E+02  0.10566000000E+00 0. -1.
         22    1    1    0    0    0  0.29869115221E+02 -0.37963656266E+01  0.62000158950E+01  0.30741122835E+02  0.00000000000E+00 0. -1.
</event>
<event>
 5    1  0.9034713E-005  0.9118800E+02  0.7818608E-02  0.1130116E+00
         25   -1    0    0    0    0  0.00000000000E+00  0.00000000000E+00  0.99999998245E-14  0.12500000000E+03  0.12500000000E+03 0.  0.
        -13    1    3    3    0    0 -0.46548723186E+02 -0.32592923075E+02  0.12371983516E+02  0.58156335897E+02  0.10566000000E+00 0.  1.
         23    2    1    0    0    0 -0.10719093042E+02 -0.26105884937E+02 -0.49397537291E+00  0.96774830459E+02  0.92567313965E+02 0.  0.
         13    1    3    3    0    0  0.35829630144E+02  0.64870381381E+01 -0.12865958889E+02  0.38618494562E+02  0.10566000000E+00 0. -1.
         22    1    1    0    0    0  0.10719093042E+02  0.26105884937E+02  0.49397537291E+00  0.28225169541E+02  0.00000000000E+00 0.  1.
</event>
<event>
 5    1  0.9034713E-005  0.9118800E+02  0.7818608E-02  0.1130116E+00
         25   -1    0    0    0    0  0.00000000000E+00  0.00000000000E+00  0.99999998245E-14  0.12500000000E+03  0.12500000000E+03 0.  0.
        -13    1    3    3    0    0 -0.40967601769E+02 -0.30373846148E+02 -0.19253502738E+02  0.54512599060E+02  0.10566000000E+00 0. -1.
         23    2    1    0    0    0 -0.42848359664E+00 -0.27034988455E+02 -0.94909348757E+01  0.96344249377E+02  0.91984033093E+02 0.  0.
         13    1    3    3    0    0  0.40539118173E+02  0.33388576927E+01  0.97625678627E+01  0.41831650317E+02  0.10566000000E+00 0.  1.
         22    1    1    0    0    0  0.42848359664E+00  0.27034988455E+02  0.94909348757E+01  0.28655750623E+02  0.00000000000E+00 0. -1.
</event>
<event>
 5    1  0.9034713E-005  0.9118800E+02  0.7818608E-02  0.1130116E+00
         25   -1    0    0    0    0  0.00000000000E+00  0.00000000000E+00  0.99999998245E-14  0.12500000000E+03  0.12500000000E+03 0.  0.
        -13    1    3    3    0    0 -0.44033694261E+01  0.15172749103E+02 -0.41994401753E+02  0.44868061250E+02  0.10566000000E+00 0. -1.
         23    2    1    0    0    0 -0.10879840423E+02 -0.24723488421E+02 -0.10863102488E+02  0.95885934619E+02  0.91359091801E+02 0.  0.
         13    1    3    3    0    0 -0.64764709970E+01 -0.39896237524E+02  0.31131299265E+02  0.51017873369E+02  0.10566000000E+00 0.  1.
         22    1    1    0    0    0  0.10879840423E+02  0.24723488421E+02  0.10863102488E+02  0.29114065381E+02  0.00000000000E+00 0.  1.
</event>
<event>
 5    1  0.9034713E-005  0.9118800E+02  0.7818608E-02  0.1130116E+00
         25   -1    0    0    0    0  0.00000000000E+00  0.00000000000E+00  0.99999998245E-14  0.12500000000E+03  0.12500000000E+03 0.  0.
        -13    1    3    3    0    0  0.10456863223E+02 -0.38509281753E+02 -0.24249804225E+02  0.46694485098E+02  0.10566000000E+00 0.  1.
         23    2    1    0    0    0  0.22375016188E+02  0.59854641990E+01  0.50598129959E+01  0.10129200897E+03  0.98478435420E+02 0.  0.
         13    1    3    3    0    0  0.11918152965E+02  0.44494745952E+02  0.29309617221E+02  0.54597523873E+02  0.10566000000E+00 0. -1.
         22    1    1    0    0    0 -0.22375016188E+02 -0.59854641990E+01 -0.50598129959E+01  0.23707991029E+02  0.00000000000E+00 0.  1.
</event>
<event>
 5    1  0.9034713E-005  0.9118800E+02  0.7818608E-02  0.1130116E+00
         25   -1    0    0    0    0  0.00000000000E+00  0.00000000000E+00  0.99999998245E-14  0.12500000000E+03  0.12500000000E+03 0.  0.
        -13    1    3    3    0    0  0.15322311158E+02  0.43843302312E+02  0.32874878053E+02  0.56901468768E+02  0.10566000000E+00 0. -1.
         23    2    1    0    0    0  0.11725966325E+02  0.61102923341E+01  0.26563613164E+02  0.95327462141E+02  0.90591752026E+02 0.  0.
         13    1    3    3    0    0 -0.35963448328E+01 -0.37733009978E+02 -0.63112648885E+01  0.38425993373E+02  0.10566000000E+00 0.  1.
         22    1    1    0    0    0 -0.11725966325E+02 -0.61102923341E+01 -0.26563613164E+02  0.29672537859E+02  0.00000000000E+00 0. -1.
</event>
<event>
 5    1  0.9034713E-005  0.9118800E+02  0.7818608E-02  0.1130116E+00
         25   -1    0    0    0    0  0.00000000000E+00  0.00000000000E+00  0.99999998245E-14  0.12500000000E+03  0.12500000000E+03 0.  0.
        -13    1    3    3    0    0 -0.28352917262E+02  0.16930218080E+02 -0.29169842067E+01  0.33151774649E+02  0.10566000000E+00 0.  1.
         23    2    1    0    0    0  0.26051230765E+02 -0.13621359099E+02 -0.15274559739E+01  0.95562928647E+02  0.90916072076E+02 0.  0.
         13    1    3    3    0    0  0.54404148027E+02 -0.30551577179E+02  0.13895282328E+01  0.62411153998E+02  0.10566000000E+00 0. -1.
         22    1    1    0    0    0 -0.26051230765E+02  0.13621359099E+02  0.15274559739E+01  0.29437071353E+02  0.00000000000E+00 0. -1.
</event>
<event>
 5    1  0.9034713E-005  0.9118800E+02  0.7818608E-02  0.1130116E+00
         25   -1    0    0    0    0  0.00000000000E+00  0.00000000000E+00  0.99999998245E-14  0.12500000000E+03  0.12500000000E+03 0.  0.
        -13    1    3    3    0    0 -0.48833341613E+02 -0.21543548765E+02  0.19253102916E+02  0.56740751515E+02  0.10566000000E+00 0. -1.
         23    2    1    0    0    0 -0.26126854517E+02  0.87418968266E+01  0.63997238492E+01  0.96715909906E+02  0.92487715274E+02 0.  0.
         13    1    3    3    0    0  0.22706487096E+02  0.30285445592E+02 -0.12853379067E+02  0.39975158392E+02  0.10566000000E+00 0.  1.
         22    1    1    0    0    0  0.26126854517E+02 -0.87418968266E+01 -0.63997238492E+01  0.28284090094E+02  0.00000000000E+00 0. -1.
</event>
<event>
 5    1  0.9034713E-005  0.9118800E+02  0.7818608E-02  0.1130116E+00
         25   -1    0    0    0    0  0.00000000000E+00  0.00000000000E+00  0.99999998245E-14  0.12500000000E+03  0.12500000000E+03 0.  0.
        -13    1    3    3    0    0 -0.42257725898E+02  0.26220486248E+02 -0.30425054487E+02  0.58300295040E+02  0.10566000000E+00 0.  1.
         23    2    1    0    0    0 -0.17031840015E+02  0.13728097251E+01 -0.25864009267E+02  0.94001368478E+02  0.88743124351E+02 0.  0.
         13    1    3    3    0    0  0.25225885882E+02 -0.24847676523E+02  0.45610452202E+01  0.35701073439E+02  0.10566000000E+00 0. -1.
         22    1    1    0    0    0  0.17031840015E+02 -0.13728097251E+01  0.25864009267E+02  0.30998631522E+02  0.00000000000E+00 0.  1.
</event>
<event>
 5    1  0.9034713E-005  0.9118800E+02  0.7818608E-02  0.1130116E+00
         25   -1    0    0    0    0  0.00000000000E+00  0.00000000000E+00  0.99999998245E-14  0.12500000000E+03  0.12500000000E+03 0.  0.
        -13    1    3    3    0    0 -0.20641550954E+02 -0.40454631307E+02 -0.44371297040E+01  0.45632774450E+02  0.10566000000E+00 0. -1.
         23    2    1    0    0    0 -0.17087925481E+02  0.80261972990E+00  0.23753393333E+02  0.95727741964E+02  0.91142391295E+02 0.  0.
         13    1    3    3    0    0  0.35536254731E+01  0.41257251037E+02  0.28190523037E+02  0.50094967514E+02  0.10566000000E+00 0.  1.
         22    1    1    0    0    0  0.17087925481E+02 -0.80261972990E+00 -0.23753393333E+02  0.29272258036E+02  0.00000000000E+00 0.  1.
</event>
<event>
 4    1  0.9034713E-005  0.9118800E+02  0.7818608E-02  0.1130116E+00
         25   -1    0    0    0    0  0.00000000000E+00  0.00000000000E+00  0.99999998245E-14  0.12500000000E+03  0.12500000000E+03 0.  0.
        -13    1    1    0    0    0 -0.67904277634E+00  0.32801906265E+01  0.15323280465E+02  0.15685497693E+02  0.10566000000E+00 0.  1.
         13    1    1    0    0    0 -0.46734874902E+02  0.19517702738E+02 -0.23912077886E+02  0.56007926985E+02  0.10566000000E+00 0. -1.
         22    1    1    0    0    0  0.47413917678E+02 -0.22797893364E+02  0.85887974206E+01  0.53306575322E+02  0.00000000000E+00 0. -1.
</event>
<event>
 5    1  0.9034713E-005  0.9118800E+02  0.7818608E-02  0.1130116E+00
         25   -1    0    0    0    0  0.00000000000E+00  0.00000000000E+00  0.99999998245E-14  0.12500000000E+03  0.12500000000E+03 0.  0.
        -13    1    3    3    0    0  0.24812386657E+02  0.20817604694E+02  0.13080171016E+02  0.34930348333E+02  0.10566000000E+00 0.  1.
         23    2    1    0    0    0 -0.23809504459E+02 -0.15207574866E+02  0.78949563924E+01  0.95665836089E+02  0.91057449021E+02 0.  0.
         13    1    3    3    0    0 -0.48621891117E+02 -0.36025179561E+02 -0.51852146239E+01  0.60735487755E+02  0.10566000000E+00 0. -1.
         22    1    1    0    0    0  0.23809504459E+02  0.15207574866E+02 -0.78949563924E+01  0.29334163911E+02  0.00000000000E+00 0. -1.
</event>
<event>
 5    1  0.9034713E-005  0.9118800E+02  0.7818608E-02  0.1130116E+00
         25   -1    0    0    0    0  0.00000000000E+00  0.00000000000E+00  0.99999998245E-14  0.12500000000E+03  0.12500000000E+03 0.  0.
        -13    1    3    3    0    0 -0.43265419178E+02 -0.12122039258E+02 -0.40778708858E+02  0.60677463630E+02  0.10566000000E+00 0.  1.
         23    2    1    0    0    0 -0.12264614160E+02 -0.85320381986E+01 -0.25548551006E+02  0.95403633756E+02  0.90696793985E+02 0.  0.
         13    1    3    3    0    0  0.31000805019E+02  0.35900010589E+01  0.15230157852E+02  0.34726170126E+02  0.10566000000E+00 0. -1.
         22    1    1    0    0    0  0.12264614160E+02  0.85320381986E+01  0.25548551006E+02  0.29596366244E+02  0.00000000000E+00 0.  1.
</event>
<event>
 5    1  0.9034713E-005  0.9118800E+02  0.7818608E-02  0.1130116E+00
         25   -1    0    0    0    0  0.00000000000E+00  0.00000000000E+00  0.99999998245E-14  0.12500000000E+03  0.12500000000E+03 0.  0.
        -13    1    3    3    0    0  0.32749509136E+02  0.11257297634E+02 -0.42311784931E+02  0.54676826963E+02  0.10566000000E+00 0.  1.
         23    2    1    0    0    0 -0.31947878134E+01 -0.20619881498E+01 -0.29739011079E+02  0.95018885207E+02  0.90164967153E+02 0.  0.
         13    1    3    3    0    0 -0.35944296949E+02 -0.13319285784E+02  0.12572773852E+02  0.40342058244E+02  0.10566000000E+00 0. -1.
         22    1    1    0    0    0  0.31947878134E+01  0.20619881498E+01  0.29739011079E+02  0.29981114793E+02  0.00000000000E+00 0.  1.
</event>
<event>
 5    1  0.9034713E-005  0.9118800E+02  0.7818608E-02  0.1130116E+00
         25   -1    0    0    0    0  0.00000000000E+00  0.00000000000E+00  0.99999998245E-14  0.12500000000E+03  0.12500000000E+03 0.  0.
        -13    1    3    3    0    0 -0.25980704771E+02 -0.24738686460E+02  0.22568302281E+02  0.42383240320E+02  0.10566000000E+00 0. -1.
         23    2    1    0    0    0 -0.52798623646E+01  0.24050838663E+02  0.15629104026E+02  0.95835146501E+02  0.91289575666E+02 0.  0.
         13    1    3    3    0    0  0.20700842406E+02  0.48789525122E+02 -0.69391982552E+01  0.53451906181E+02  0.10566000000E+00 0.  1.
         22    1    1    0    0    0  0.52798623646E+01 -0.24050838663E+02 -0.15629104026E+02  0.29164853499E+02  0.00000000000E+00 0.  1.
</event>
<event>
 5    1  0.9034713E-005  0.9118800E+02  0.7818608E-02  0.1130116E+00
         25   -1    0    0    0    0  0.00000000000E+00  0.00000000000E+00  0.99999998245E-14  0.12500000000E+03  0.12500000000E+03 0.  0.
        -13    1    3    3    0    0  0.44856016710E+02  0.31195628234E+02  0.25894936188E+02  0.60463115535E+02  0.10566000000E+00 0.  1.
         23    2    1    0    0    0  0.28243330022E+02  0.61201232301E+01  0.10504696386E+02  0.94251174896E+02  0.89094296810E+02 0.  0.
         13    1    3    3    0    0 -0.16612686688E+02 -0.25075505004E+02 -0.15390239802E+02  0.33788059361E+02  0.10566000000E+00 0. -1.
         22    1    1    0    0    0 -0.28243330022E+02 -0.61201232301E+01 -0.10504696386E+02  0.30748825104E+02  0.00000000000E+00 0.  1.
</event>
<event>
 5    1  0.9034713E-005  0.9118800E+02  0.7818608E-02  0.1130116E+00
         25   -1    0    0    0    0  0.00000000000E+00  0.00000000000E+00  0.99999998245E-14  0.12500000000E+03  0.12500000000E+03 0.  0.
        -13    1    3    3    0    0 -0.44198475701E+01  0.31408520949E+02  0.45327911839E+02  0.55323241016E+02  0.10566000000E+00 0.  1.
         23    2    1    0    0    0  0.12774630489E+02  0.22653466067E+02  0.72655694921E+01  0.97997051846E+02  0.94203306531E+02 0.  0.
         13    1    3    3    0    0  0.17194478060E+02 -0.87550548825E+01 -0.38062342347E+02  0.42673810830E+02  0.10566000000E+00 0. -1.
         22    1    1    0    0    0 -0.12774630489E+02 -0.22653466067E+02 -0.72655694921E+01  0.27002948154E+02  0.00000000000E+00 0.  1.
</event>
<event>
 5    1  0.9034713E-005  0.9118800E+02  0.7818608E-02  0.1130116E+00
         25   -1    0    0    0    0  0.00000000000E+00  0.00000000000E+00  0.99999998245E-14  0.12500000000E+03  0.12500000000E+03 0.  0.
        -13    1    3    3    0    0 -0.26746567703E+02  0.13920591370E+02  0.16588730956E+02  0.34414515931E+02  0.10566000000E+00 0.  1.
         23    2    1    0    0    0  0.18523453861E+02 -0.22479757181E+02 -0.29996269218E+01  0.95717657411E+02  0.91128559479E+02 0.  0.
         13    1    3    3    0    0  0.45270021563E+02 -0.36400348551E+02 -0.19588357878E+02  0.61303141480E+02  0.10566000000E+00 0. -1.
         22    1    1    0    0    0 -0.18523453861E+02  0.22479757181E+02  0.29996269218E+01  0.29282342589E+02  0.00000000000E+00 0. -1.
</event>
<event>
 5    1  0.9034713E-005  0.9118800E+02  0.7818608E-02  0.1130116E+00
         25   -1    0    0    0    0  0.00000000000E+00  0.00000000000E+00  0.99999998245E-14  0.12500000000E+03  0.12500000000E+03 0.  0.
        -13    1    3    3    0    0  0.13841719867E+02 -0.38849765283E+02  0.18802062763E+01  0.41284910211E+02  0.10566000000E+00 0.  1.
         23    2    1    0    0    0  0.23803960130E+02  0.13875951619E+02 -0.89581054058E+01  0.96027285187E+02  0.91552287228E+02 0.  0.
         13    1    3    3    0    0  0.99622402626E+01  0.52725716902E+02 -0.10838311682E+02  0.54742374976E+02  0.10566000000E+00 0. -1.
         22    1    1    0    0    0 -0.23803960130E+02 -0.13875951619E+02  0.89581054058E+01  0.28972714813E+02  0.00000000000E+00 0. -1.
</event>
<event>
 5    1  0.9034713E-005  0.9118800E+02  0.7818608E-02  0.1130116E+00
         25   -1    0    0    0    0  0.00000000000E+00  0.00000000000E+00  0.99999998245E-14  0.12500000000E+03  0.12500000000E+03 0.  0.
        -13    1    3    3    0    0  0.82455932671E+01 -0.60609386110E+02 -0.74904401595E+01  0.61624713798E+02  0.10566000000E+00 0.  1.
         23    2    1    0    0    0  0.49480121272E+01 -0.25576775839E+02 -0.10438222160E+02  0.96935596066E+02  0.92784152830E+02 0.  0.
         13    1    3    3    0    0 -0.32975811399E+01  0.35032610270E+02 -0.29477820003E+01  0.35310882267E+02  0.10566000000E+00 0. -1.
         22    1    1    0    0    0 -0.49480121272E+01  0.25576775839E+02  0.10438222160E+02  0.28064403934E+02  0.00000000000E+00 0.  1.
</event>
<event>
 5    1  0.9034713E-005  0.9118800E+02  0.7818608E-02  0.1130116E+00
         25   -1    0    0    0    0  0.00000000000E+00  0.00000000000E+00  0.99999998245E-14  0.12500000000E+03  0.12500000000E+03 0.  0.
        -13    1    3    3    0    0  0.26886133731E+02 -0.41237974092E+02 -0.37496234614E+02  0.61882254876E+02  0.10566000000E+00 0. -1.
         23    2    1    0    0    0  0.13045541044E+02 -0.28174497266E+02 -0.18077918828E+02  0.89072300568E+02  0.81505062063E+02 0.  0.
         13    1    3    3    0    0 -0.13840592687E+02  0.13063476826E+02  0.19418315786E+02  0.27190045692E+02  0.10566000000E+00 0.  1.
         22    1    1    0    0    0 -0.13045541044E+02  0.28174497266E+02  0.18077918828E+02  0.35927699432E+02  0.00000000000E+00 0. -1.
</event>
<event>
 5    1  0.9034713E-005  0.9118800E+02  0.7818608E-02  0.1130116E+00
         25   -1    0    0    0    0  0.00000000000E+00  0.00000000000E+00  0.99999998245E-14  0.12500000000E+03  0.12500000000E+03 0.  0.
        -13    1    3    3    0    0  0.48701286803E+02 -0.38837265178E-01 -0.17559580621E+02  0.51770328184E+02  0.10566000000E+00 0. -1.
         23    2    1    0    0    0  0.84084431816E+01  0.11385965496E+02 -0.26829911463E+02  0.94665427708E+02  0.89673613326E+02 0.  0.
         13    1    3    3    0    0 -0.40292843622E+02  0.11424802761E+02 -0.92703308423E+01  0.42895099524E+02  0.10566000000E+00 0.  1.
         22    1    1    0    0    0 -0.84084431816E+01 -0.11385965496E+02  0.26829911463E+02  0.30334572292E+02  0.00000000000E+00 0. -1.
</event>
<event>
 5    1  0.9034713E-005  0.9118800E+02  0.7818608E-02  0.1130116E+00
         25   -1    0    0    0    0  0.00000000000E+00  0.00000000000E+00  0.99999998245E-14  0.12500000000E+03  0.12500000000E+03 0.  0.
        -13    1    3    3    0    0 -0.35825986649E+02  0.10948499528E+02  0.12453858433E+02  0.39477597637E+02  0.10566000000E+00 0.  1.
         23    2    1    0    0    0  0.16599616418E+02 -0.48088538757E+01  0.24000569908E+02  0.95424677571E+02  0.90725792324E+02 0.  0.
         13    1    3    3    0    0  0.52425603067E+02 -0.15757353404E+02  0.11546711475E+02  0.55947079934E+02  0.10566000000E+00 0. -1.
         22    1    1    0    0    0 -0.16599616418E+02  0.48088538757E+01 -0.24000569908E+02  0.29575322429E+02  0.00000000000E+00 0. -1.
</event>
<event>
 5    1  0.9034713E-005  0.9118800E+02  0.7818608E-02  0.1130116E+00
         25   -1    0    0    0    0  0.00000000000E+00  0.00000000000E+00  0.99999998245E-14  0.12500000000E+03  0.12500000000E+03 0.  0.
        -13    1    3    3    0    0 -0.37532947623E+01  0.32452556297E+02 -0.24769633683E+02  0.40997579790E+02  0.10566000000E+00 0. -1.
         23    2    1    0    0    0 -0.16948266187E+02  0.24304830571E+02  0.20578710625E+02  0.88924359370E+02  0.81277855795E+02 0.  0.
         13    1    3    3    0    0 -0.13194971425E+02 -0.81477257261E+01  0.45348344308E+02  0.47926779580E+02  0.10566000000E+00 0.  1.
         22    1    1    0    0    0  0.16948266187E+02 -0.24304830571E+02 -0.20578710625E+02  0.36075640630E+02  0.00000000000E+00 0.  1.
</event>
<event>
 5    1  0.9034713E-005  0.9118800E+02  0.7818608E-02  0.1130116E+00
         25   -1    0    0    0    0  0.00000000000E+00  0.00000000000E+00  0.99999998245E-14  0.12500000000E+03  0.12500000000E+03 0.  0.
        -13    1    3    3    0    0 -0.55746858319E+01  0.53671789010E+02  0.83348776378E+01  0.54600544017E+02  0.10566000000E+00 0.  1.
         23    2    1    0    0    0 -0.15834502859E+02  0.19582370735E+02 -0.13563336157E+02  0.96396419593E+02  0.92054901544E+02 0.  0.
         13    1    3    3    0    0 -0.10259817027E+02 -0.34089418275E+02 -0.21898213795E+02  0.41795875576E+02  0.10566000000E+00 0. -1.
         22    1    1    0    0    0  0.15834502859E+02 -0.19582370735E+02  0.13563336157E+02  0.28603580407E+02  0.00000000000E+00 0.  1.
</event>
<event>
 5    1  0.9034713E-005  0.9118800E+02  0.7818608E-02  0.1130116E+00
         25   -1    0    0    0    0  0.00000000000E+00  0.00000000000E+00  0.99999998245E-14  0.12500000000E+03  0.12500000000E+03 0.  0.
        -13    1    3    3    0    0 -0.40391277470E+02 -0.54632284192E+01  0.63590249631E+01  0.41252279003E+02  0.10566000000E+00 0.  1.
         23    2    1    0    0    0  0.10701884580E+02 -0.17410793787E+02  0.20968326864E+02  0.95719685703E+02  0.91131341621E+02 0.  0.
         13    1    3    3    0    0  0.51093162050E+02 -0.11947565368E+02  0.14609301901E+02  0.54467406700E+02  0.10566000000E+00 0. -1.
         22    1    1    0    0    0 -0.10701884580E+02  0.17410793787E+02 -0.20968326864E+02  0.29280314297E+02  0.00000000000E+00 0. -1.
</event>
<event>
 5    1  0.9034713E-005  0.9118800E+02  0.7818608E-02  0.1130116E+00
         25   -1    0    0    0    0  0.00000000000E+00  0.00000000000E+00  0.99999998245E-14  0.12500000000E+03  0.12500000000E+03 0.  0.
        -13    1    3    3    0    0 -0.51563853499E+02  0.62237957447E+01 -0.65861030327E+01  0.52354126278E+02  0.10566000000E+00 0. -1.
         23    2    1    0    0    0 -0.13430268406E+02 -0.17717476584E+01 -0.25847273892E+02  0.95817937583E+02  0.91266008984E+02 0.  0.
         13    1    3    3    0    0  0.38133585092E+02 -0.79955434031E+01 -0.19261170859E+02  0.43463811306E+02  0.10566000000E+00 0.  1.
         22    1    1    0    0    0  0.13430268406E+02  0.17717476584E+01  0.25847273892E+02  0.29182062417E+02  0.00000000000E+00 0. -1.
</event>
<event>
 5    1  0.9034713E-005  0.9118800E+02  0.7818608E-02  0.1130116E+00
         25   -1    0    0    0    0  0.00000000000E+00  0.00000000000E+00  0.99999998245E-14  0.12500000000E+03  0.12500000000E+03 0.  0.
        -13    1    3    3    0    0 -0.11753375133E+02 -0.33367913371E+02  0.17756812264E+01  0.35422078956E+02  0.10566000000E+00 0.  1.
         23    2    1    0    0    0 -0.11000374250E+01  0.25848728944E+02  0.12048195260E+02  0.96460100221E+02  0.92141331960E+02 0.  0.
         13    1    3    3    0    0  0.10653337708E+02  0.59216642315E+02  0.10272514033E+02  0.61038021265E+02  0.10566000000E+00 0. -1.
         22    1    1    0    0    0  0.11000374250E+01 -0.25848728944E+02 -0.12048195260E+02  0.28539899779E+02  0.00000000000E+00 0. -1.
</event>
<event>
 5    1  0.9034713E-005  0.9118800E+02  0.7818608E-02  0.1130116E+00
         25   -1    0    0    0    0  0.00000000000E+00  0.00000000000E+00  0.99999998245E-14  0.12500000000E+03  0.12500000000E+03 0.  0.
        -13    1    3    3    0    0 -0.17476043531E+02  0.11024828896E+02 -0.29274451431E+02  0.35832438101E+02  0.10566000000E+00 0. -1.
         23    2    1    0    0    0  0.24859292147E+01  0.16776932790E+02  0.25477798443E+02  0.94393407060E+02  0.89293626676E+02 0.  0.
         13    1    3    3    0    0  0.19961972745E+02  0.57521038939E+01  0.54752249874E+02  0.58560968959E+02  0.10566000000E+00 0.  1.
         22    1    1    0    0    0 -0.24859292147E+01 -0.16776932790E+02 -0.25477798443E+02  0.30606592940E+02  0.00000000000E+00 0.  1.
</event>
<event>
 5    1  0.9034713E-005  0.9118800E+02  0.7818608E-02  0.1130116E+00
         25   -1    0    0    0    0  0.00000000000E+00  0.00000000000E+00  0.99999998245E-14  0.12500000000E+03  0.12500000000E+03 0.  0.
        -13    1    3    3    0    0  0.30129047919E+02  0.16473968452E+02  0.24953928032E+02  0.42448331573E+02  0.10566000000E+00 0.  1.
         23    2    1    0    0    0 -0.26821161661E+01 -0.90789661828E+01 -0.19500485126E+02  0.10332304693E+03  0.10102357019E+03 0.  0.
         13    1    3    3    0    0 -0.32811164085E+02 -0.25552934635E+02 -0.44454413158E+02  0.60874715361E+02  0.10566000000E+00 0. -1.
         22    1    1    0    0    0  0.26821161661E+01  0.90789661828E+01  0.19500485126E+02  0.21676953066E+02  0.00000000000E+00 0. -1.
</event>
<event>
 5    1  0.9034713E-005  0.9118800E+02  0.7818608E-02  0.1130116E+00
         25   -1    0    0    0    0  0.00000000000E+00  0.00000000000E+00  0.99999998245E-14  0.12500000000E+03  0.12500000000E+03 0.  0.
        -13    1    3    3    0    0  0.53580988662E+01 -0.99787170191E+01 -0.32794783361E+02  0.34695720147E+02  0.10566000000E+00 0. -1.
         23    2    1    0    0    0 -0.13525083674E+02  0.28849989715E+02  0.58066340159E+01  0.92612243153E+02  0.86764398161E+02 0.  0.
         13    1    3    3    0    0 -0.18883182540E+02  0.38828706735E+02  0.38601417377E+02  0.57916523006E+02  0.10566000000E+00 0.  1.
         22    1    1    0    0    0  0.13525083674E+02 -0.28849989715E+02 -0.58066340159E+01  0.32387756847E+02  0.00000000000E+00 0.  1.
</event>
<event>
 5    1  0.9034713E-005  0.9118800E+02  0.7818608E-02  0.1130116E+00
         25   -1    0    0    0    0  0.00000000000E+00  0.00000000000E+00  0.99999998245E-14  0.12500000000E+03  0.12500000000E+03 0.  0.
        -13    1    3    3    0    0  0.13007120113E+02 -0.55274325248E+02 -0.24781279138E+01  0.56838266047E+02  0.10566000000E+00 0.  1.
         23    2    1    0    0    0  0.37405019673E+00 -0.26261178606E+02 -0.19045665263E+02  0.92557330865E+02  0.86685250857E+02 0.  0.
         13    1    3    3    0    0 -0.12633069916E+02  0.29013146642E+02 -0.16567537349E+02  0.35719064817E+02  0.10566000000E+00 0. -1.
         22    1    1    0    0    0 -0.37405019673E+00  0.26261178606E+02  0.19045665263E+02  0.32442669135E+02  0.00000000000E+00 0.  1.
</event>
<event>
 5    1  0.9034713E-005  0.9118800E+02  0.7818608E-02  0.1130116E+00
         25   -1    0    0    0    0  0.00000000000E+00  0.00000000000E+00  0.99999998245E-14  0.12500000000E+03  0.12500000000E+03 0.  0.
        -13    1    3    3    0    0  0.46154674038E+02  0.23355741171E+02 -0.21459739075E+02  0.56002465538E+02  0.10566000000E+00 0. -1.
         23    2    1    0    0    0  0.17990776688E+02 -0.59849676159E+01 -0.21043035627E+02  0.96675148162E+02  0.92432608102E+02 0.  0.
         13    1    3    3    0    0 -0.28163897350E+02 -0.29340708787E+02  0.41670344754E+00  0.40672682624E+02  0.10566000000E+00 0.  1.
         22    1    1    0    0    0 -0.17990776688E+02  0.59849676159E+01  0.21043035627E+02  0.28324851838E+02  0.00000000000E+00 0. -1.
</event>
<event>
 5    1  0.9034713E-005  0.9118800E+02  0.7818608E-02  0.1130116E+00
         25   -1    0    0    0    0  0.00000000000E+00  0.00000000000E+00  0.99999998245E-14  0.12500000000E+03  0.12500000000E+03 0.  0.
        -13    1    3    3    0    0 -0.95477765537E+01 -0.35789892542E+02  0.20201790058E+02  0.42192415561E+02  0.10566000000E+00 0.  1.
         23    2    1    0    0    0 -0.21195761851E+02  0.15327207029E+02  0.14924372801E+02  0.94884879226E+02  0.89978996474E+02 0.  0.
         13    1    3    3    0    0 -0.11647985297E+02  0.51117099571E+02 -0.52774172569E+01  0.52692463664E+02  0.10566000000E+00 0. -1.
         22    1    1    0    0    0  0.21195761851E+02 -0.15327207029E+02 -0.14924372801E+02  0.30115120774E+02  0.00000000000E+00 0.  1.
</event>
<event>
 5    1  0.9034713E-005  0.9118800E+02  0.7818608E-02  0.1130116E+00
         25   -1    0    0    0    0  0.00000000000E+00  0.00000000000E+00  0.99999998245E-14  0.12500000000E+03  0.12500000000E+03 0.  0.
        -13    1    3    3    0    0 -0.49516752300E+02 -0.56983033589E+01 -0.18344814143E+02  0.53112360045E+02  0.10566000000E+00 0.  1.
         23    2    1    0    0    0 -0.12717554634E+02 -0.24129958366E+02 -0.13536702401E+02  0.94549492640E+02  0.89511860443E+02 0.  0.
         13    1    3    3    0    0  0.36799197667E+02 -0.18431655007E+02  0.48081117425E+01  0.41437132596E+02  0.10566000000E+00 0. -1.
         22    1    1    0    0    0  0.12717554634E+02  0.24129958366E+02  0.13536702401E+02  0.30450507360E+02  0.00000000000E+00 0.  1.
</event>
<event>
 5    1  0.9034713E-005  0.9118800E+02  0.7818608E-02  0.1130116E+00
         25   -1    0    0    0    0  0.00000000000E+00  0.00000000000E+00  0.99999998245E-14  0.12500000000E+03  0.12500000000E+03 0.  0.
        -13    1    3    3    0    0  0.34591560241E+02 -0.74044070125E+01  0.46438415007E+01  0.35678813195E+02  0.10566000000E+00 0.  1.
         23    2    1    0    0    0 -0.21541445932E+02  0.13381894527E+02  0.13633079067E+02  0.96208163677E+02  0.91798915676E+02 0.  0.
         13    1    3    3    0    0 -0.56133006173E+02  0.20786301539E+02  0.89892375664E+01  0.60529350482E+02  0.10566000000E+00 0. -1.
         22    1    1    0    0    0  0.21541445932E+02 -0.13381894527E+02 -0.13633079067E+02  0.28791836323E+02  0.00000000000E+00 0. -1.
</event>
<event>
 5    1  0.9034713E-005  0.9118800E+02  0.7818608E-02  0.1130116E+00
         25   -1    0    0    0    0  0.00000000000E+00  0.00000000000E+00  0.99999998245E-14  0.12500000000E+03  0.12500000000E+03 0.  0.
        -13    1    3    3    0    0  0.49561692088E+01 -0.13966119930E+02  0.29033153232E+01  0.15101540419E+02  0.10566000000E+00 0.  1.
         23    2    1    0    0    0  0.25344834765E+02  0.41867160426E+02 -0.76318443063E+01  0.75467537726E+02  0.56937548521E+02 0.  0.
         13    1    3    3    0    0  0.20388665556E+02  0.55833280356E+02 -0.10535159629E+02  0.60365997307E+02  0.10566000000E+00 0. -1.
         22    1    1    0    0    0 -0.25344834765E+02 -0.41867160426E+02  0.76318443063E+01  0.49532462274E+02  0.00000000000E+00 0. -1.
</event>
<event>
 5    1  0.9034713E-005  0.9118800E+02  0.7818608E-02  0.1130116E+00
         25   -1    0    0    0    0  0.00000000000E+00  0.00000000000E+00  0.99999998245E-14  0.12500000000E+03  0.12500000000E+03 0.  0.
        -13    1    3    3    0    0 -0.39842460410E+02 -0.12768967953E+02  0.92259017351E+01  0.42843863282E+02  0.10566000000E+00 0.  1.
         23    2    1    0    0    0  0.13765671863E+01 -0.19749852691E+02 -0.22281744426E+02  0.95193494784E+02  0.90406712671E+02 0.  0.
         13    1    3    3    0    0  0.41219027596E+02 -0.69808847379E+01 -0.31507646161E+02  0.52349631501E+02  0.10566000000E+00 0. -1.
         22    1    1    0    0    0 -0.13765671863E+01  0.19749852691E+02  0.22281744426E+02  0.29806505216E+02  0.00000000000E+00 0. -1.
</event>
<event>
 5    1  0.9034713E-005  0.9118800E+02  0.7818608E-02  0.1130116E+00
         25   -1    0    0    0    0  0.00000000000E+00  0.00000000000E+00  0.99999998245E-14  0.12500000000E+03  0.12500000000E+03 0.  0.
        -13    1    3    3    0    0  0.27011282572E+02 -0.33752867669E+02  0.72506635187E+01  0.43834332978E+02  0.10566000000E+00 0. -1.
         23    2    1    0    0    0  0.23460664277E+02  0.15274135447E+02 -0.89802461749E+01  0.95600224434E+02  0.90967335393E+02 0.  0.
         13    1    3    3    0    0 -0.35506182956E+01  0.49027003116E+02 -0.16230909694E+02  0.51765891457E+02  0.10566000000E+00 0.  1.
         22    1    1    0    0    0 -0.23460664277E+02 -0.15274135447E+02  0.89802461749E+01  0.29399775566E+02  0.00000000000E+00 0. -1.
</event>
<event>
 5    1  0.9034713E-005  0.9118800E+02  0.7818608E-02  0.1130116E+00
         25   -1    0    0    0    0  0.00000000000E+00  0.00000000000E+00  0.99999998245E-14  0.12500000000E+03  0.12500000000E+03 0.  0.
        -13    1    3    3    0    0 -0.20280765838E+02  0.23840891674E+02 -0.13391987693E+01  0.31328935446E+02  0.10566000000E+00 0.  1.
         23    2    1    0    0    0 -0.10215290739E+02 -0.33055865674E+02  0.69786716039E+01  0.89704897256E+02  0.82469535672E+02 0.  0.
         13    1    3    3    0    0  0.10065475098E+02 -0.56896757348E+02  0.83178703732E+01  0.58375961810E+02  0.10566000000E+00 0. -1.
         22    1    1    0    0    0  0.10215290739E+02  0.33055865674E+02 -0.69786716039E+01  0.35295102744E+02  0.00000000000E+00 0. -1.
</event>
<event>
 5    1  0.9034713E-005  0.9118800E+02  0.7818608E-02  0.1130116E+00
         25   -1    0    0    0    0  0.00000000000E+00  0.00000000000E+00  0.99999998245E-14  0.12500000000E+03  0.12500000000E+03 0.  0.
        -13    1    3    3    0    0  0.27421804601E+02 -0.29228380958E+02  0.56490561842E+01  0.40474394631E+02  0.10566000000E+00 0.  1.
         23    2    1    0    0    0 -0.22516638339E+01  0.44772201144E+01 -0.27978542153E+02  0.96576166498E+02  0.92298654510E+02 0.  0.
         13    1    3    3    0    0 -0.29673468435E+02  0.33705601072E+02 -0.33627598337E+02  0.56101771866E+02  0.10566000000E+00 0. -1.
         22    1    1    0    0    0  0.22516638339E+01 -0.44772201144E+01  0.27978542153E+02  0.28423833502E+02  0.00000000000E+00 0. -1.
</event>
<event>
 5    1  0.9034713E-005  0.9118800E+02  0.7818608E-02  0.1130116E+00
         25   -1    0    0    0    0  0.00000000000E+00  0.00000000000E+00  0.99999998245E-14  0.12500000000E+03  0.12500000000E+03 0.  0.
        -13    1    3    3    0    0 -0.55536452766E-01  0.42052902709E+02  0.44392553272E+02  0.61148668511E+02  0.10566000000E+00 0.  1.
         23    2    1    0    0    0 -0.71223784237E+01  0.14858445481E+02  0.24089583976E+02  0.95814220369E+02  0.91260917661E+02 0.  0.
         13    1    3    3    0    0 -0.70668419709E+01 -0.27194457228E+02 -0.20302969296E+02  0.34665551859E+02  0.10566000000E+00 0. -1.
         22    1    1    0    0    0  0.71223784237E+01 -0.14858445481E+02 -0.24089583976E+02  0.29185779631E+02  0.00000000000E+00 0.  1.
</event>
<event>
 5    1  0.9034713E-005  0.9118800E+02  0.7818608E-02  0.1130116E+00
         25   -1    0    0    0    0  0.00000000000E+00  0.00000000000E+00  0.99999998245E-14  0.12500000000E+03  0.12500000000E+03 0.  0.
        -13    1    3    3    0    0 -0.32025835125E+02 -0.39743883254E+02 -0.68130668435E+00  0.51046113607E+02  0.10566000000E+00 0.  1.
         23    2    1    0    0    0 -0.15430843573E+02 -0.29727095361E+01 -0.22994878142E+02  0.97148386831E+02  0.93070385772E+02 0.  0.
         13    1    3    3    0    0  0.16594991551E+02  0.36771173718E+02 -0.22313571457E+02  0.46102273224E+02  0.10566000000E+00 0. -1.
         22    1    1    0    0    0  0.15430843573E+02  0.29727095361E+01  0.22994878142E+02  0.27851613169E+02  0.00000000000E+00 0. -1.
</event>
<event>
 5    1  0.9034713E-005  0.9118800E+02  0.7818608E-02  0.1130116E+00
         25   -1    0    0    0    0  0.00000000000E+00  0.00000000000E+00  0.99999998245E-14  0.12500000000E+03  0.12500000000E+03 0.  0.
        -13    1    3    3    0    0 -0.24515591496E+02 -0.61223261229E+01 -0.25311506835E+02  0.35765634985E+02  0.10566000000E+00 0. -1.
         23    2    1    0    0    0  0.24026924641E+02 -0.11225485395E+02  0.10679708979E+02  0.96410477200E+02  0.92073988184E+02 0.  0.
         13    1    3    3    0    0  0.48542516137E+02 -0.51031592723E+01  0.35991215814E+02  0.60644842215E+02  0.10566000000E+00 0.  1.
         22    1    1    0    0    0 -0.24026924641E+02  0.11225485395E+02 -0.10679708979E+02  0.28589522800E+02  0.00000000000E+00 0.  1.
</event>
<event>
 5    1  0.9034713E-005  0.9118800E+02  0.7818608E-02  0.1130116E+00
         25   -1    0    0    0    0  0.00000000000E+00  0.00000000000E+00  0.99999998245E-14  0.12500000000E+03  0.12500000000E+03 0.  0.
        -13    1    3    3    0    0 -0.16197728968E+02  0.48019209358E+02 -0.32562355759E+02  0.60237273077E+02  0.10566000000E+00 0.  1.
         23    2    1    0    0    0  0.34183887362E+01  0.20013673857E+02 -0.19527419174E+02  0.96829933930E+02  0.92641694083E+02 0.  0.
         13    1    3    3    0    0  0.19616117704E+02 -0.28005535502E+02  0.13034936585E+02  0.36592660853E+02  0.10566000000E+00 0. -1.
         22    1    1    0    0    0 -0.34183887362E+01 -0.20013673857E+02  0.19527419174E+02  0.28170066070E+02  0.00000000000E+00 0.  1.
</event>
<event>
 5    1  0.9034713E-005  0.9118800E+02  0.7818608E-02  0.1130116E+00
         25   -1    0    0    0    0  0.00000000000E+00  0.00000000000E+00  0.99999998245E-14  0.12500000000E+03  0.12500000000E+03 0.  0.
        -13    1    3    3    0    0  0.23835662305E+02 -0.29109089676E+02  0.54519945421E+01  0.38015961225E+02  0.10566000000E+00 0.  1.
         23    2    1    0    0    0 -0.22400774020E+02  0.53061623943E+01 -0.13032722680E+02  0.98546230958E+02  0.94929224897E+02 0.  0.
         13    1    3    3    0    0 -0.46236436326E+02  0.34415252071E+02 -0.18484717222E+02  0.60530269733E+02  0.10566000000E+00 0. -1.
         22    1    1    0    0    0  0.22400774020E+02 -0.53061623943E+01  0.13032722680E+02  0.26453769042E+02  0.00000000000E+00 0. -1.
</event>
<event>
 5    1  0.9034713E-005  0.9118800E+02  0.7818608E-02  0.1130116E+00
         25   -1    0    0    0    0  0.00000000000E+00  0.00000000000E+00  0.99999998245E-14  0.12500000000E+03  0.12500000000E+03 0.  0.
        -13    1    3    3    0    0 -0.61096436789E+01 -0.16508704749E+02  0.38896578164E+02  0.42694496546E+02  0.10566000000E+00 0.  1.
         23    2    1    0    0    0 -0.26852580016E+02 -0.11414619740E+02 -0.84390683917E+01  0.94626121871E+02  0.89618806439E+02 0.  0.
         13    1    3    3    0    0 -0.20742936337E+02  0.50940850090E+01 -0.47335646556E+02  0.51931625325E+02  0.10566000000E+00 0. -1.
         22    1    1    0    0    0  0.26852580016E+02  0.11414619740E+02  0.84390683917E+01  0.30373878129E+02  0.00000000000E+00 0.  1.
</event>
<event>
 5    1  0.9034713E-005  0.9118800E+02  0.7818608E-02  0.1130116E+00
         25   -1    0    0    0    0  0.00000000000E+00  0.00000000000E+00  0.99999998245E-14  0.12500000000E+03  0.12500000000E+03 0.  0.
        -13    1    3    3    0    0 -0.28601789007E+01  0.28634328846E+02  0.78238594228E+01  0.29821625578E+02  0.10566000000E+00 0.  1.
         23    2    1    0    0    0  0.53829492864E+01 -0.10638283771E+02 -0.34711142764E+02  0.88298328967E+02  0.80309291130E+02 0.  0.
         13    1    3    3    0    0  0.82431281871E+01 -0.39272612618E+02 -0.42535002187E+02  0.58476703389E+02  0.10566000000E+00 0. -1.
         22    1    1    0    0    0 -0.53829492864E+01  0.10638283771E+02  0.34711142764E+02  0.36701671033E+02  0.00000000000E+00 0. -1.
</event>
<event>
 5    1  0.9034713E-005  0.9118800E+02  0.7818608E-02  0.1130116E+00
         25   -1    0    0    0    0  0.00000000000E+00  0.00000000000E+00  0.99999998245E-14  0.12500000000E+03  0.12500000000E+03 0.  0.
        -13    1    3    3    0    0  0.18960307550E+02  0.51462101237E+02 -0.23669724962E+02  0.59733643534E+02  0.10566000000E+00 0.  1.
         23    2    1    0    0    0  0.41177171883E+00  0.37368055337E+02 -0.12288544683E+02  0.85661095007E+02  0.76093848317E+02 0.  0.
         13    1    3    3    0    0 -0.18548535831E+02 -0.14094045900E+02  0.11381180279E+02  0.25927451472E+02  0.10566000000E+00 0. -1.
         22    1    1    0    0    0 -0.41177171883E+00 -0.37368055337E+02  0.12288544683E+02  0.39338904993E+02  0.00000000000E+00 0.  1.
</event>
<event>
 5    1  0.9034713E-005  0.9118800E+02  0.7818608E-02  0.1130116E+00
         25   -1    0    0    0    0  0.00000000000E+00  0.00000000000E+00  0.99999998245E-14  0.12500000000E+03  0.12500000000E+03 0.  0.
        -13    1    3    3    0    0  0.60099054470E+01 -0.95840465979E+01  0.45693202773E+02  0.47072846275E+02  0.10566000000E+00 0.  1.
         23    2    1    0    0    0  0.25607296759E+02  0.13039750977E+02  0.80657421685E+01  0.95153309236E+02  0.90351133413E+02 0.  0.
         13    1    3    3    0    0  0.19597391312E+02  0.22623797575E+02 -0.37627460605E+02  0.48080462961E+02  0.10566000000E+00 0. -1.
         22    1    1    0    0    0 -0.25607296759E+02 -0.13039750977E+02 -0.80657421685E+01  0.29846690764E+02  0.00000000000E+00 0. -1.
</event>
<event>
 5    1  0.9034713E-005  0.9118800E+02  0.7818608E-02  0.1130116E+00
         25   -1    0    0    0    0  0.00000000000E+00  0.00000000000E+00  0.99999998245E-14  0.12500000000E+03  0.12500000000E+03 0.  0.
        -13    1    3    3    0    0  0.33007749302E+02 -0.41213216468E+02 -0.33326952531E+02  0.62439872314E+02  0.10566000000E+00 0.  1.
         23    2    1    0    0    0  0.14387010613E+02 -0.18732066856E+02 -0.17119469748E+02  0.95828907330E+02  0.91281032162E+02 0.  0.
         13    1    3    3    0    0 -0.18620738688E+02  0.22481149611E+02  0.16207482783E+02  0.33389035017E+02  0.10566000000E+00 0. -1.
         22    1    1    0    0    0 -0.14387010613E+02  0.18732066856E+02  0.17119469748E+02  0.29171092670E+02  0.00000000000E+00 0.  1.
</event>
<event>
 5    1  0.9034713E-005  0.9118800E+02  0.7818608E-02  0.1130116E+00
         25   -1    0    0    0    0  0.00000000000E+00  0.00000000000E+00  0.99999998245E-14  0.12500000000E+03  0.12500000000E+03 0.  0.
        -13    1    3    3    0    0 -0.17451640463E-01  0.36377994016E+01  0.45895428173E+02  0.46039498045E+02  0.10566000000E+00 0.  1.
         23    2    1    0    0    0  0.13776117347E+02  0.25479722814E+02  0.33123164633E+01  0.95845770047E+02  0.91304121001E+02 0.  0.
         13    1    3    3    0    0  0.13793568987E+02  0.21841923412E+02 -0.42583111710E+02  0.49806272001E+02  0.10566000000E+00 0. -1.
         22    1    1    0    0    0 -0.13776117347E+02 -0.25479722814E+02 -0.33123164633E+01  0.29154229953E+02  0.00000000000E+00 0.  1.
</event>
<event>
 5    1  0.9034713E-005  0.9118800E+02  0.7818608E-02  0.1130116E+00
         25   -1    0    0    0    0  0.00000000000E+00  0.00000000000E+00  0.99999998245E-14  0.12500000000E+03  0.12500000000E+03 0.  0.
        -13    1    3    3    0    0 -0.37898864611E+02  0.33279873344E+02 -0.98339315538E+01  0.51386683902E+02  0.10566000000E+00 0.  1.
         23    2    1    0    0    0 -0.21577694639E+02  0.24392948644E+01  0.18607710042E+02  0.96402903322E+02  0.92063705284E+02 0.  0.
         13    1    3    3    0    0  0.16321169971E+02 -0.30840578480E+02  0.28441641596E+02  0.45016219420E+02  0.10566000000E+00 0. -1.
         22    1    1    0    0    0  0.21577694639E+02 -0.24392948644E+01 -0.18607710042E+02  0.28597096678E+02  0.00000000000E+00 0.  1.
</event>
<event>
 5    1  0.9034713E-005  0.9118800E+02  0.7818608E-02  0.1130116E+00
         25   -1    0    0    0    0  0.00000000000E+00  0.00000000000E+00  0.99999998245E-14  0.12500000000E+03  0.12500000000E+03 0.  0.
        -13    1    3    3    0    0  0.16064039867E+02  0.47814493128E+01  0.23839318926E+02  0.29141721385E+02  0.10566000000E+00 0.  1.
         23    2    1    0    0    0 -0.27567267921E+02  0.31352131622E+02  0.11525038546E+02  0.81690221297E+02  0.69264387128E+02 0.  0.
         13    1    3    3    0    0 -0.43631307788E+02  0.26570682309E+02 -0.12314280380E+02  0.52548499912E+02  0.10566000000E+00 0. -1.
         22    1    1    0    0    0  0.27567267921E+02 -0.31352131622E+02 -0.11525038546E+02  0.43309778703E+02  0.00000000000E+00 0. -1.
</event>
<event>
 5    1  0.9034713E-005  0.9118800E+02  0.7818608E-02  0.1130116E+00
         25   -1    0    0    0    0  0.00000000000E+00  0.00000000000E+00  0.99999998245E-14  0.12500000000E+03  0.12500000000E+03 0.  0.
        -13    1    3    3    0    0  0.54881440131E+02  0.14407707975E+02 -0.23295029226E+02  0.61336971482E+02  0.10566000000E+00 0.  1.
         23    2    1    0    0    0  0.22213506142E+02  0.13698473017E+02 -0.14360391832E+02  0.95212269780E+02  0.90432668018E+02 0.  0.
         13    1    3    3    0    0 -0.32667933989E+02 -0.70923495836E+00  0.89346373945E+01  0.33875298297E+02  0.10566000000E+00 0. -1.
         22    1    1    0    0    0 -0.22213506142E+02 -0.13698473017E+02  0.14360391832E+02  0.29787730220E+02  0.00000000000E+00 0.  1.
</event>
<event>
 5    1  0.9034713E-005  0.9118800E+02  0.7818608E-02  0.1130116E+00
         25   -1    0    0    0    0  0.00000000000E+00  0.00000000000E+00  0.99999998245E-14  0.12500000000E+03  0.12500000000E+03 0.  0.
        -13    1    3    3    0    0  0.30609744459E+02 -0.20978374498E+02  0.10516065349E+02  0.38570033017E+02  0.10566000000E+00 0. -1.
         23    2    1    0    0    0  0.20678603097E+00  0.27913688024E+02  0.68302600955E+01  0.96262060050E+02  0.91872275538E+02 0.  0.
         13    1    3    3    0    0 -0.30402958429E+02  0.48892062522E+02 -0.36858052531E+01  0.57692027034E+02  0.10566000000E+00 0.  1.
         22    1    1    0    0    0 -0.20678603097E+00 -0.27913688024E+02 -0.68302600955E+01  0.28737939950E+02  0.00000000000E+00 0.  1.
</event>
<event>
 5    1  0.9034713E-005  0.9118800E+02  0.7818608E-02  0.1130116E+00
         25   -1    0    0    0    0  0.00000000000E+00  0.00000000000E+00  0.99999998245E-14  0.12500000000E+03  0.12500000000E+03 0.  0.
        -13    1    3    3    0    0  0.40420762262E+02  0.51265107773E+01 -0.16906139257E+02  0.44112898831E+02  0.10566000000E+00 0.  1.
         23    2    1    0    0    0  0.25211280448E+02  0.84978892187E+01  0.24796942963E+02  0.88630903732E+02  0.80825280285E+02 0.  0.
         13    1    3    3    0    0 -0.15209481814E+02  0.33713784414E+01  0.41703082221E+02  0.44518004902E+02  0.10566000000E+00 0. -1.
         22    1    1    0    0    0 -0.25211280448E+02 -0.84978892187E+01 -0.24796942963E+02  0.36369096268E+02  0.00000000000E+00 0. -1.
</event>
<event>
 5    1  0.9034713E-005  0.9118800E+02  0.7818608E-02  0.1130116E+00
         25   -1    0    0    0    0  0.00000000000E+00  0.00000000000E+00  0.99999998245E-14  0.12500000000E+03  0.12500000000E+03 0.  0.
        -13    1    3    3    0    0  0.47916877333E+02 -0.29500623594E+02 -0.25851133811E+02  0.61924197283E+02  0.10566000000E+00 0.  1.
         23    2    1    0    0    0  0.23124456506E+02 -0.99782008559E+01 -0.16701016849E+02  0.94780321894E+02  0.89833626630E+02 0.  0.
         13    1    3    3    0    0 -0.24792420827E+02  0.19522422738E+02  0.91501169617E+01  0.32856124611E+02  0.10566000000E+00 0. -1.
         22    1    1    0    0    0 -0.23124456506E+02  0.99782008559E+01  0.16701016849E+02  0.30219678106E+02  0.00000000000E+00 0.  1.
</event>
<event>
 5    1  0.9034713E-005  0.9118800E+02  0.7818608E-02  0.1130116E+00
         25   -1    0    0    0    0  0.00000000000E+00  0.00000000000E+00  0.99999998245E-14  0.12500000000E+03  0.12500000000E+03 0.  0.
        -13    1    3    3    0    0  0.22452058098E+02  0.22762051561E+02  0.28673017125E+01  0.32100443723E+02  0.10566000000E+00 0. -1.
         23    2    1    0    0    0 -0.24807406476E+02 -0.15881573499E+02  0.10727259161E+02  0.93651859992E+02  0.88249447579E+02 0.  0.
         13    1    3    3    0    0 -0.47259464574E+02 -0.38643625059E+02  0.78599574490E+01  0.61551416269E+02  0.10566000000E+00 0.  1.
         22    1    1    0    0    0  0.24807406476E+02  0.15881573499E+02 -0.10727259161E+02  0.31348140008E+02  0.00000000000E+00 0.  1.
</event>
<event>
 5    1  0.9034713E-005  0.9118800E+02  0.7818608E-02  0.1130116E+00
         25   -1    0    0    0    0  0.00000000000E+00  0.00000000000E+00  0.99999998245E-14  0.12500000000E+03  0.12500000000E+03 0.  0.
        -13    1    3    3    0    0  0.41910544213E+01 -0.13025555421E+02 -0.39312938897E+02  0.41626294094E+02  0.10566000000E+00 0.  1.
         23    2    1    0    0    0  0.11609869920E+02  0.28782427622E+02 -0.15502447089E+02  0.90307881513E+02  0.83378476709E+02 0.  0.
         13    1    3    3    0    0  0.74188154983E+01  0.41807983043E+02  0.23810491808E+02  0.48681587420E+02  0.10566000000E+00 0. -1.
         22    1    1    0    0    0 -0.11609869920E+02 -0.28782427622E+02  0.15502447089E+02  0.34692118487E+02  0.00000000000E+00 0. -1.
</event>
<event>
 5    1  0.9034713E-005  0.9118800E+02  0.7818608E-02  0.1130116E+00
         25   -1    0    0    0    0  0.00000000000E+00  0.00000000000E+00  0.99999998245E-14  0.12500000000E+03  0.12500000000E+03 0.  0.
        -13    1    3    3    0    0 -0.87744499115E+01 -0.31107620540E+02 -0.21879192258E+02  0.39030568082E+02  0.10566000000E+00 0.  1.
         23    2    1    0    0    0  0.25426337663E+02 -0.37990077063E+01  0.14092394000E+02  0.95682314635E+02  0.91080067297E+02 0.  0.
         13    1    3    3    0    0  0.34200787575E+02  0.27308612834E+02  0.35971586257E+02  0.56651746553E+02  0.10566000000E+00 0. -1.
         22    1    1    0    0    0 -0.25426337663E+02  0.37990077063E+01 -0.14092394000E+02  0.29317685365E+02  0.00000000000E+00 0. -1.
</event>
<event>
 5    1  0.9034713E-005  0.9118800E+02  0.7818608E-02  0.1130116E+00
         25   -1    0    0    0    0  0.00000000000E+00  0.00000000000E+00  0.99999998245E-14  0.12500000000E+03  0.12500000000E+03 0.  0.
        -13    1    3    3    0    0  0.44544449451E+02 -0.19234022460E+02  0.18636031768E+02  0.51975652386E+02  0.10566000000E+00 0.  1.
         23    2    1    0    0    0  0.22052865336E+02  0.11825137304E+02 -0.80713835149E+01  0.98707225828E+02  0.95140982006E+02 0.  0.
         13    1    3    3    0    0 -0.22491584115E+02  0.31059159764E+02 -0.26707415283E+02  0.46731573442E+02  0.10566000000E+00 0. -1.
         22    1    1    0    0    0 -0.22052865336E+02 -0.11825137304E+02  0.80713835149E+01  0.26292774172E+02  0.00000000000E+00 0.  1.
</event>
<event>
 5    1  0.9034713E-005  0.9118800E+02  0.7818608E-02  0.1130116E+00
         25   -1    0    0    0    0  0.00000000000E+00  0.00000000000E+00  0.99999998245E-14  0.12500000000E+03  0.12500000000E+03 0.  0.
        -13    1    3    3    0    0 -0.17199108814E+02  0.35106778321E+02 -0.21401281631E+01  0.39152094971E+02  0.10566000000E+00 0.  1.
         23    2    1    0    0    0 -0.17076859128E+02 -0.19539965348E+02  0.13163886445E+02  0.95901593345E+02  0.91380513986E+02 0.  0.
         13    1    3    3    0    0  0.12224968523E+00 -0.54646743669E+02  0.15304014609E+02  0.56749498374E+02  0.10566000000E+00 0. -1.
         22    1    1    0    0    0  0.17076859128E+02  0.19539965348E+02 -0.13163886445E+02  0.29098406655E+02  0.00000000000E+00 0. -1.
</event>
<event>
 5    1  0.9034713E-005  0.9118800E+02  0.7818608E-02  0.1130116E+00
         25   -1    0    0    0    0  0.00000000000E+00  0.00000000000E+00  0.99999998245E-14  0.12500000000E+03  0.12500000000E+03 0.  0.
        -13    1    3    3    0    0  0.37389997974E+01 -0.43307194441E+02 -0.63723304783E+01  0.43933028231E+02  0.10566000000E+00 0.  1.
         23    2    1    0    0    0  0.49118392069E+01 -0.98095496387E+00 -0.31455980786E+02  0.93147729057E+02  0.87532464059E+02 0.  0.
         13    1    3    3    0    0  0.11728394095E+01  0.42326239477E+02 -0.25083650308E+02  0.49214700825E+02  0.10566000000E+00 0. -1.
         22    1    1    0    0    0 -0.49118392069E+01  0.98095496387E+00  0.31455980786E+02  0.31852270943E+02  0.00000000000E+00 0.  1.
</event>
<event>
 5    1  0.9034713E-005  0.9118800E+02  0.7818608E-02  0.1130116E+00
         25   -1    0    0    0    0  0.00000000000E+00  0.00000000000E+00  0.99999998245E-14  0.12500000000E+03  0.12500000000E+03 0.  0.
        -13    1    3    3    0    0  0.35624614254E+02 -0.21376118522E+02 -0.16611732883E+02  0.44743853402E+02  0.10566000000E+00 0. -1.
         23    2    1    0    0    0 -0.62410754375E+01  0.61747879019E+01 -0.27587256943E+02  0.96049425327E+02  0.91582511058E+02 0.  0.
         13    1    3    3    0    0 -0.41865689692E+02  0.27550906424E+02 -0.10975524061E+02  0.51305571925E+02  0.10566000000E+00 0.  1.
         22    1    1    0    0    0  0.62410754375E+01 -0.61747879019E+01  0.27587256943E+02  0.28950574673E+02  0.00000000000E+00 0. -1.
</event>
<event>
 5    1  0.9034713E-005  0.9118800E+02  0.7818608E-02  0.1130116E+00
         25   -1    0    0    0    0  0.00000000000E+00  0.00000000000E+00  0.99999998245E-14  0.12500000000E+03  0.12500000000E+03 0.  0.
        -13    1    3    3    0    0  0.41189056863E+02  0.18762131776E+02  0.15425852245E+01  0.45287379338E+02  0.10566000000E+00 0. -1.
         23    2    1    0    0    0 -0.18659273982E+01 -0.84399153022E+01  0.22907802250E+02  0.10051569361E+03  0.97488068003E+02 0.  0.
         13    1    3    3    0    0 -0.43054984261E+02 -0.27202047078E+02  0.21365217026E+02  0.55228314274E+02  0.10566000000E+00 0.  1.
         22    1    1    0    0    0  0.18659273982E+01  0.84399153022E+01 -0.22907802250E+02  0.24484306388E+02  0.00000000000E+00 0.  1.
</event>
<event>
 5    1  0.9034713E-005  0.9118800E+02  0.7818608E-02  0.1130116E+00
         25   -1    0    0    0    0  0.00000000000E+00  0.00000000000E+00  0.99999998245E-14  0.12500000000E+03  0.12500000000E+03 0.  0.
        -13    1    3    3    0    0  0.32592699554E+02 -0.35789923599E+02 -0.10078700679E+02  0.49444858852E+02  0.10566000000E+00 0.  1.
         23    2    1    0    0    0 -0.81586594380E+01 -0.17661300100E+02 -0.22019277945E+02  0.95617456777E+02  0.90991011612E+02 0.  0.
         13    1    3    3    0    0 -0.40751358992E+02  0.18128623499E+02 -0.11940577266E+02  0.46172597925E+02  0.10566000000E+00 0. -1.
         22    1    1    0    0    0  0.81586594380E+01  0.17661300100E+02  0.22019277945E+02  0.29382543223E+02  0.00000000000E+00 0.  1.
</event>
<event>
 5    1  0.9034713E-005  0.9118800E+02  0.7818608E-02  0.1130116E+00
         25   -1    0    0    0    0  0.00000000000E+00  0.00000000000E+00  0.99999998245E-14  0.12500000000E+03  0.12500000000E+03 0.  0.
        -13    1    3    3    0    0 -0.48690207561E+02  0.20814326006E+02 -0.70780806917E+00  0.52957385091E+02  0.10566000000E+00 0.  1.
         23    2    1    0    0    0 -0.10073563303E+02  0.25885788735E+02 -0.13716906535E+02  0.94020906067E+02  0.88770639947E+02 0.  0.
         13    1    3    3    0    0  0.38616644258E+02  0.50714627288E+01 -0.13009098465E+02  0.41063520975E+02  0.10566000000E+00 0. -1.
         22    1    1    0    0    0  0.10073563303E+02 -0.25885788735E+02  0.13716906535E+02  0.30979093933E+02  0.00000000000E+00 0.  1.
</event>
<event>
 5    1  0.9034713E-005  0.9118800E+02  0.7818608E-02  0.1130116E+00
         25   -1    0    0    0    0  0.00000000000E+00  0.00000000000E+00  0.99999998245E-14  0.12500000000E+03  0.12500000000E+03 0.  0.
        -13    1    3    3    0    0  0.28145864505E+01 -0.32583492476E+02 -0.29912877031E+02  0.44321521354E+02  0.10566000000E+00 0.  1.
         23    2    1    0    0    0  0.20549894228E+02 -0.16430896926E+02  0.14616635676E+02  0.94901518891E+02  0.90002109546E+02 0.  0.
         13    1    3    3    0    0  0.17735307778E+02  0.16152595550E+02  0.44529512706E+02  0.50579997537E+02  0.10566000000E+00 0. -1.
         22    1    1    0    0    0 -0.20549894228E+02  0.16430896926E+02 -0.14616635676E+02  0.30098481109E+02  0.00000000000E+00 0. -1.
</event>
<event>
 5    1  0.9034713E-005  0.9118800E+02  0.7818608E-02  0.1130116E+00
         25   -1    0    0    0    0  0.00000000000E+00  0.00000000000E+00  0.99999998245E-14  0.12500000000E+03  0.12500000000E+03 0.  0.
        -13    1    3    3    0    0 -0.26491409898E+02  0.13454763528E+02 -0.15571175113E+02  0.33545463455E+02  0.10566000000E+00 0. -1.
         23    2    1    0    0    0  0.26229362593E+02 -0.96683641255E+01  0.82580945525E+01  0.95851194663E+02  0.91311547276E+02 0.  0.
         13    1    3    3    0    0  0.52720772491E+02 -0.23123127654E+02  0.23829269666E+02  0.62305731208E+02  0.10566000000E+00 0.  1.
         22    1    1    0    0    0 -0.26229362593E+02  0.96683641255E+01 -0.82580945525E+01  0.29148805337E+02  0.00000000000E+00 0.  1.
</event>
<event>
 5    1  0.9034713E-005  0.9118800E+02  0.7818608E-02  0.1130116E+00
         25   -1    0    0    0    0  0.00000000000E+00  0.00000000000E+00  0.99999998245E-14  0.12500000000E+03  0.12500000000E+03 0.  0.
        -13    1    3    3    0    0 -0.37935445862E+02  0.15219521376E+02 -0.39167766013E+02  0.56611455927E+02  0.10566000000E+00 0.  1.
         23    2    1    0    0    0 -0.27384159880E+01  0.16959630786E+02 -0.25161764930E+02  0.94532929040E+02  0.89488726999E+02 0.  0.
         13    1    3    3    0    0  0.35197029874E+02  0.17401094096E+01  0.14006001083E+02  0.37921473113E+02  0.10566000000E+00 0. -1.
         22    1    1    0    0    0  0.27384159880E+01 -0.16959630786E+02  0.25161764930E+02  0.30467070960E+02  0.00000000000E+00 0.  1.
</event>
<event>
 5    1  0.9034713E-005  0.9118800E+02  0.7818608E-02  0.1130116E+00
         25   -1    0    0    0    0  0.00000000000E+00  0.00000000000E+00  0.99999998245E-14  0.12500000000E+03  0.12500000000E+03 0.  0.
        -13    1    3    3    0    0 -0.68552834328E+01  0.42514535044E+02  0.68992312752E+01  0.43612970057E+02  0.10566000000E+00 0. -1.
         23    2    1    0    0    0  0.15153190796E+02  0.40066426901E+01 -0.23046073008E+02  0.97128978167E+02  0.93044314935E+02 0.  0.
         13    1    3    3    0    0  0.22008474228E+02 -0.38507892354E+02 -0.29945304283E+02  0.53516008110E+02  0.10566000000E+00 0.  1.
         22    1    1    0    0    0 -0.15153190796E+02 -0.40066426901E+01  0.23046073008E+02  0.27871021833E+02  0.00000000000E+00 0.  1.
</event>
<event>
 5    1  0.9034713E-005  0.9118800E+02  0.7818608E-02  0.1130116E+00
         25   -1    0    0    0    0  0.00000000000E+00  0.00000000000E+00  0.99999998245E-14  0.12500000000E+03  0.12500000000E+03 0.  0.
        -13    1    3    3    0    0  0.18567706470E+02 -0.12221281546E+02  0.21014644275E+02  0.30589963783E+02  0.10566000000E+00 0. -1.
         23    2    1    0    0    0 -0.19736790253E+02  0.99516455514E+01 -0.23063938097E+02  0.93054399690E+02  0.87399084220E+02 0.  0.
         13    1    3    3    0    0 -0.38304496723E+02  0.22172927097E+02 -0.44078582372E+02  0.62464435907E+02  0.10566000000E+00 0.  1.
         22    1    1    0    0    0  0.19736790253E+02 -0.99516455514E+01  0.23063938097E+02  0.31945600310E+02  0.00000000000E+00 0.  1.
</event>
<event>
 5    1  0.9034713E-005  0.9118800E+02  0.7818608E-02  0.1130116E+00
         25   -1    0    0    0    0  0.00000000000E+00  0.00000000000E+00  0.99999998245E-14  0.12500000000E+03  0.12500000000E+03 0.  0.
        -13    1    3    3    0    0  0.11430058543E+02 -0.53473646358E+02  0.15779824853E+02  0.56913013710E+02  0.10566000000E+00 0. -1.
         23    2    1    0    0    0  0.28236944463E+01 -0.26532466259E+02 -0.11257540231E+02  0.96040075480E+02  0.91569748662E+02 0.  0.
         13    1    3    3    0    0 -0.86063640963E+01  0.26941180099E+02 -0.27037365084E+02  0.39127061770E+02  0.10566000000E+00 0.  1.
         22    1    1    0    0    0 -0.28236944463E+01  0.26532466259E+02  0.11257540231E+02  0.28959924520E+02  0.00000000000E+00 0. -1.
</event>
<event>
 5    1  0.9034713E-005  0.9118800E+02  0.7818608E-02  0.1130116E+00
         25   -1    0    0    0    0  0.00000000000E+00  0.00000000000E+00  0.99999998245E-14  0.12500000000E+03  0.12500000000E+03 0.  0.
        -13    1    3    3    0    0 -0.53423691714E+02  0.95611851189E+01 -0.23797420497E+02  0.59260741504E+02  0.10566000000E+00 0.  1.
         23    2    1    0    0    0 -0.16603689341E+02  0.69712744886E+01 -0.22481747757E+02  0.96195310279E+02  0.91781411897E+02 0.  0.
         13    1    3    3    0    0  0.36820002373E+02 -0.25899106303E+01  0.13156727400E+01  0.36934568775E+02  0.10566000000E+00 0. -1.
         22    1    1    0    0    0  0.16603689341E+02 -0.69712744886E+01  0.22481747757E+02  0.28804689721E+02  0.00000000000E+00 0.  1.
</event>
<event>
 5    1  0.9034713E-005  0.9118800E+02  0.7818608E-02  0.1130116E+00
         25   -1    0    0    0    0  0.00000000000E+00  0.00000000000E+00  0.99999998245E-14  0.12500000000E+03  0.12500000000E+03 0.  0.
        -13    1    3    3    0    0  0.34888951899E+02  0.49389305557E+02 -0.14810586749E+02  0.62256783661E+02  0.10566000000E+00 0.  1.
         23    2    1    0    0    0  0.12833711327E+02  0.24666984830E+02 -0.77976359459E+01  0.96121506041E+02  0.91680840475E+02 0.  0.
         13    1    3    3    0    0 -0.22055240572E+02 -0.24722320727E+02  0.70129508026E+01  0.33864722379E+02  0.10566000000E+00 0. -1.
         22    1    1    0    0    0 -0.12833711327E+02 -0.24666984830E+02  0.77976359459E+01  0.28878493959E+02  0.00000000000E+00 0.  1.
</event>
<event>
 5    1  0.9034713E-005  0.9118800E+02  0.7818608E-02  0.1130116E+00
         25   -1    0    0    0    0  0.00000000000E+00  0.00000000000E+00  0.99999998245E-14  0.12500000000E+03  0.12500000000E+03 0.  0.
        -13    1    3    3    0    0 -0.23335244491E+02  0.24158087892E+02  0.41306450310E+02  0.53238903513E+02  0.10566000000E+00 0.  1.
         23    2    1    0    0    0 -0.54268564804E+01 -0.13667026759E+02  0.19928711749E+02  0.10023324923E+03  0.97125240322E+02 0.  0.
         13    1    3    3    0    0  0.17908388010E+02 -0.37825114651E+02 -0.21377738560E+02  0.46994345718E+02  0.10566000000E+00 0. -1.
         22    1    1    0    0    0  0.54268564804E+01  0.13667026759E+02 -0.19928711749E+02  0.24766750769E+02  0.00000000000E+00 0.  1.
</event>
<event>
 5    1  0.9034713E-005  0.9118800E+02  0.7818608E-02  0.1130116E+00
         25   -1    0    0    0    0  0.00000000000E+00  0.00000000000E+00  0.99999998245E-14  0.12500000000E+03  0.12500000000E+03 0.  0.
        -13    1    3    3    0    0  0.42477139539E+02 -0.15034246792E+02 -0.24947330499E+02  0.51504528180E+02  0.10566000000E+00 0.  1.
         23    2    1    0    0    0  0.23854888803E+02  0.16561693784E+02  0.17443465439E+00  0.95959065989E+02  0.91459097400E+02 0.  0.
         13    1    3    3    0    0 -0.18622250736E+02  0.31595940575E+02  0.25121765153E+02  0.44454537808E+02  0.10566000000E+00 0. -1.
         22    1    1    0    0    0 -0.23854888803E+02 -0.16561693784E+02 -0.17443465439E+00  0.29040934011E+02  0.00000000000E+00 0.  1.
</event>
<event>
 5    1  0.9034713E-005  0.9118800E+02  0.7818608E-02  0.1130116E+00
         25   -1    0    0    0    0  0.00000000000E+00  0.00000000000E+00  0.99999998245E-14  0.12500000000E+03  0.12500000000E+03 0.  0.
        -13    1    3    3    0    0  0.14715024334E+02  0.25322078921E+02  0.39234926372E+00  0.29290010652E+02  0.10566000000E+00 0.  1.
         23    2    1    0    0    0 -0.10862960513E+02 -0.31340343146E+02  0.41512499489E+01  0.91571660291E+02  0.85252067850E+02 0.  0.
         13    1    3    3    0    0 -0.25577984846E+02 -0.56662422067E+02  0.37589006851E+01  0.62281649638E+02  0.10566000000E+00 0. -1.
         22    1    1    0    0    0  0.10862960513E+02  0.31340343146E+02 -0.41512499489E+01  0.33428339709E+02  0.00000000000E+00 0. -1.
</event>
<event>
 5    1  0.9034713E-005  0.9118800E+02  0.7818608E-02  0.1130116E+00
         25   -1    0    0    0    0  0.00000000000E+00  0.00000000000E+00  0.99999998245E-14  0.12500000000E+03  0.12500000000E+03 0.  0.
        -13    1    3    3    0    0  0.10195696170E+02  0.49176427000E+02 -0.36436201678E+02  0.62047410499E+02  0.10566000000E+00 0.  1.
         23    2    1    0    0    0  0.98489921434E+01  0.21479344146E+02 -0.17301610333E+02  0.95713303510E+02  0.91122587087E+02 0.  0.
         13    1    3    3    0    0 -0.34670402640E+00 -0.27697082854E+02  0.19134591345E+02  0.33665893011E+02  0.10566000000E+00 0. -1.
         22    1    1    0    0    0 -0.98489921434E+01 -0.21479344146E+02  0.17301610333E+02  0.29286696490E+02  0.00000000000E+00 0.  1.
</event>
<event>
 5    1  0.9034713E-005  0.9118800E+02  0.7818608E-02  0.1130116E+00
         25   -1    0    0    0    0  0.00000000000E+00  0.00000000000E+00  0.99999998245E-14  0.12500000000E+03  0.12500000000E+03 0.  0.
        -13    1    3    3    0    0 -0.27894167005E+02 -0.40438605397E+02 -0.13289112886E+02  0.50891817070E+02  0.10566000000E+00 0.  1.
         23    2    1    0    0    0 -0.16393964859E+02 -0.11260728098E+02  0.20115691920E+02  0.96712067193E+02  0.92482521582E+02 0.  0.
         13    1    3    3    0    0  0.11500202147E+02  0.29177877299E+02  0.33404804806E+02  0.45820250122E+02  0.10566000000E+00 0. -1.
         22    1    1    0    0    0  0.16393964859E+02  0.11260728098E+02 -0.20115691920E+02  0.28287932807E+02  0.00000000000E+00 0.  1.
</event>
<event>
 5    1  0.9034713E-005  0.9118800E+02  0.7818608E-02  0.1130116E+00
         25   -1    0    0    0    0  0.00000000000E+00  0.00000000000E+00  0.99999998245E-14  0.12500000000E+03  0.12500000000E+03 0.  0.
        -13    1    3    3    0    0 -0.12996729927E+02 -0.17520140282E+02 -0.30544080374E+02  0.37534281853E+02  0.10566000000E+00 0.  1.
         23    2    1    0    0    0  0.96580149045E+01 -0.11767512909E+02  0.23831706720E+02  0.96720999715E+02  0.92494594051E+02 0.  0.
         13    1    3    3    0    0  0.22654744832E+02  0.57526273734E+01  0.54375787094E+02  0.59186717862E+02  0.10566000000E+00 0. -1.
         22    1    1    0    0    0 -0.96580149045E+01  0.11767512909E+02 -0.23831706720E+02  0.28279000285E+02  0.00000000000E+00 0.  1.
</event>
<event>
 5    1  0.9034713E-005  0.9118800E+02  0.7818608E-02  0.1130116E+00
         25   -1    0    0    0    0  0.00000000000E+00  0.00000000000E+00  0.99999998245E-14  0.12500000000E+03  0.12500000000E+03 0.  0.
        -13    1    3    3    0    0  0.27836218823E+01  0.35501077131E+02 -0.49721347744E+01  0.35955643736E+02  0.10566000000E+00 0.  1.
         23    2    1    0    0    0 -0.13120510089E+02 -0.23420214840E+02  0.46977598512E+01  0.97747051613E+02  0.93870990744E+02 0.  0.
         13    1    3    3    0    0 -0.15904131971E+02 -0.58921291971E+02  0.96698946256E+01  0.61791407877E+02  0.10566000000E+00 0. -1.
         22    1    1    0    0    0  0.13120510089E+02  0.23420214840E+02 -0.46977598512E+01  0.27252948387E+02  0.00000000000E+00 0. -1.
</event>
<event>
 5    1  0.9034713E-005  0.9118800E+02  0.7818608E-02  0.1130116E+00
         25   -1    0    0    0    0  0.00000000000E+00  0.00000000000E+00  0.99999998245E-14  0.12500000000E+03  0.12500000000E+03 0.  0.
        -13    1    3    3    0    0  0.15082775088E+02 -0.23752054351E+01  0.31980718979E+02  0.35438810021E+02  0.10566000000E+00 0. -1.
         23    2    1    0    0    0 -0.16921552011E+02  0.24838836022E+02 -0.84866127353E+01  0.93769737543E+02  0.88416256343E+02 0.  0.
         13    1    3    3    0    0 -0.32004327099E+02  0.27214041457E+02 -0.40467331715E+02  0.58330927523E+02  0.10566000000E+00 0.  1.
         22    1    1    0    0    0  0.16921552011E+02 -0.24838836022E+02  0.84866127353E+01  0.31230262457E+02  0.00000000000E+00 0.  1.
</event>
<event>
 5    1  0.9034713E-005  0.9118800E+02  0.7818608E-02  0.1130116E+00
         25   -1    0    0    0    0  0.00000000000E+00  0.00000000000E+00  0.99999998245E-14  0.12500000000E+03  0.12500000000E+03 0.  0.
        -13    1    3    3    0    0 -0.23131840318E+02 -0.40406547693E+02  0.10532264916E+02  0.47735845035E+02  0.10566000000E+00 0. -1.
         23    2    1    0    0    0  0.19144483544E+02 -0.12788942265E+02  0.13482097681E+02  0.98319759141E+02  0.94630543616E+02 0.  0.
         13    1    3    3    0    0  0.42276323862E+02  0.27617605428E+02  0.29498327647E+01  0.50583914105E+02  0.10566000000E+00 0.  1.
         22    1    1    0    0    0 -0.19144483544E+02  0.12788942265E+02 -0.13482097681E+02  0.26680240859E+02  0.00000000000E+00 0.  1.
</event>
<event>
 5    1  0.9034713E-005  0.9118800E+02  0.7818608E-02  0.1130116E+00
         25   -1    0    0    0    0  0.00000000000E+00  0.00000000000E+00  0.99999998245E-14  0.12500000000E+03  0.12500000000E+03 0.  0.
        -13    1    3    3    0    0  0.15549904759E+02 -0.15158890145E+02 -0.38159655756E+02  0.43906286337E+02  0.10566000000E+00 0.  1.
         23    2    1    0    0    0  0.28994013716E+02  0.98450665511E+01  0.33520294663E+01  0.94197171099E+02  0.89018496812E+02 0.  0.
         13    1    3    3    0    0  0.13444108957E+02  0.25003956696E+02  0.41511685222E+02  0.50290884762E+02  0.10566000000E+00 0. -1.
         22    1    1    0    0    0 -0.28994013716E+02 -0.98450665511E+01 -0.33520294663E+01  0.30802828901E+02  0.00000000000E+00 0. -1.
</event>
<event>
 5    1  0.9034713E-005  0.9118800E+02  0.7818608E-02  0.1130116E+00
         25   -1    0    0    0    0  0.00000000000E+00  0.00000000000E+00  0.99999998245E-14  0.12500000000E+03  0.12500000000E+03 0.  0.
        -13    1    3    3    0    0  0.28406646744E+02 -0.22733302266E+02  0.11228680274E+02  0.38076699382E+02  0.10566000000E+00 0. -1.
         23    2    1    0    0    0 -0.26424631163E+02 -0.11534721565E+02  0.11278772961E+02  0.94039999141E+02  0.88797521279E+02 0.  0.
         13    1    3    3    0    0 -0.54831277907E+02  0.11198580701E+02  0.50092687263E-01  0.55963299759E+02  0.10566000000E+00 0.  1.
         22    1    1    0    0    0  0.26424631163E+02  0.11534721565E+02 -0.11278772961E+02  0.30960000859E+02  0.00000000000E+00 0.  1.
</event>
<event>
 5    1  0.9034713E-005  0.9118800E+02  0.7818608E-02  0.1130116E+00
         25   -1    0    0    0    0  0.00000000000E+00  0.00000000000E+00  0.99999998245E-14  0.12500000000E+03  0.12500000000E+03 0.  0.
        -13    1    3    3    0    0 -0.28811570381E+02  0.17909086515E+02 -0.12628231580E+02  0.36198416602E+02  0.10566000000E+00 0.  1.
         23    2    1    0    0    0  0.82697527008E+01 -0.21156747282E+02  0.16017978793E+02  0.97204813188E+02  0.93146139464E+02 0.  0.
         13    1    3    3    0    0  0.37081323082E+02 -0.39065833797E+02  0.28646210372E+02  0.61006396587E+02  0.10566000000E+00 0. -1.
         22    1    1    0    0    0 -0.82697527008E+01  0.21156747282E+02 -0.16017978793E+02  0.27795186812E+02  0.00000000000E+00 0. -1.
</event>
<event>
 5    1  0.9034713E-005  0.9118800E+02  0.7818608E-02  0.1130116E+00
         25   -1    0    0    0    0  0.00000000000E+00  0.00000000000E+00  0.99999998245E-14  0.12500000000E+03  0.12500000000E+03 0.  0.
        -13    1    3    3    0    0  0.20616203785E+02  0.32198475922E+02 -0.87399891175E+01  0.39219488574E+02  0.10566000000E+00 0.  1.
         23    2    1    0    0    0  0.21507914855E+02 -0.10109306039E+02 -0.30121799462E+02  0.86631897717E+02  0.77672224309E+02 0.  0.
         13    1    3    3    0    0  0.89171107017E+00 -0.42307781961E+02 -0.21381810345E+02  0.47412409143E+02  0.10566000000E+00 0. -1.
         22    1    1    0    0    0 -0.21507914855E+02  0.10109306039E+02  0.30121799462E+02  0.38368102283E+02  0.00000000000E+00 0.  1.
</event>
<event>
 5    1  0.9034713E-005  0.9118800E+02  0.7818608E-02  0.1130116E+00
         25   -1    0    0    0    0  0.00000000000E+00  0.00000000000E+00  0.99999998245E-14  0.12500000000E+03  0.12500000000E+03 0.  0.
        -13    1    3    3    0    0  0.29698141906E+02 -0.22125328213E+02  0.34825295779E+02  0.50836228925E+02  0.10566000000E+00 0. -1.
         23    2    1    0    0    0  0.22077185463E+02 -0.15566127000E+02 -0.95591168871E+01  0.96345451611E+02  0.91985666833E+02 0.  0.
         13    1    3    3    0    0 -0.76209564432E+01  0.65592012128E+01 -0.44384412666E+02  0.45509222686E+02  0.10566000000E+00 0.  1.
         22    1    1    0    0    0 -0.22077185463E+02  0.15566127000E+02  0.95591168871E+01  0.28654548389E+02  0.00000000000E+00 0. -1.
</event>
<event>
 5    1  0.9034713E-005  0.9118800E+02  0.7818608E-02  0.1130116E+00
         25   -1    0    0    0    0  0.00000000000E+00  0.00000000000E+00  0.99999998245E-14  0.12500000000E+03  0.12500000000E+03 0.  0.
        -13    1    3    3    0    0  0.18533788977E+02  0.13649136836E+02  0.50717030380E+02  0.55695858058E+02  0.10566000000E+00 0. -1.
         23    2    1    0    0    0 -0.10769041517E+02  0.13616823204E+02  0.24208541168E+02  0.95210008478E+02  0.90429542294E+02 0.  0.
         13    1    3    3    0    0 -0.29302830494E+02 -0.32313631635E-01 -0.26508489211E+02  0.39514150421E+02  0.10566000000E+00 0.  1.
         22    1    1    0    0    0  0.10769041517E+02 -0.13616823204E+02 -0.24208541168E+02  0.29789991522E+02  0.00000000000E+00 0. -1.
</event>
<event>
 5    1  0.9034713E-005  0.9118800E+02  0.7818608E-02  0.1130116E+00
         25   -1    0    0    0    0  0.00000000000E+00  0.00000000000E+00  0.99999998245E-14  0.12500000000E+03  0.12500000000E+03 0.  0.
        -13    1    3    3    0    0  0.13433423843E+02  0.25590725796E+02  0.17942480191E+02  0.34018904779E+02  0.10566000000E+00 0.  1.
         23    2    1    0    0    0 -0.10881744560E+02 -0.96720849626E+01 -0.25885085420E+02  0.95301527996E+02  0.90555960593E+02 0.  0.
         13    1    3    3    0    0 -0.24315168403E+02 -0.35262810758E+02 -0.43827565610E+02  0.61282623217E+02  0.10566000000E+00 0. -1.
         22    1    1    0    0    0  0.10881744560E+02  0.96720849626E+01  0.25885085420E+02  0.29698472004E+02  0.00000000000E+00 0. -1.
</event>
<event>
 5    1  0.9034713E-005  0.9118800E+02  0.7818608E-02  0.1130116E+00
         25   -1    0    0    0    0  0.00000000000E+00  0.00000000000E+00  0.99999998245E-14  0.12500000000E+03  0.12500000000E+03 0.  0.
        -13    1    3    3    0    0 -0.21802880596E+02 -0.36715987031E+01  0.40308170991E+02  0.45973971462E+02  0.10566000000E+00 0.  1.
         23    2    1    0    0    0 -0.10237353496E+01 -0.29098067273E+02  0.29156606983E+01  0.95738307800E+02  0.91156880980E+02 0.  0.
         13    1    3    3    0    0  0.20779145246E+02 -0.25426468570E+02 -0.37392510293E+02  0.49764336338E+02  0.10566000000E+00 0. -1.
         22    1    1    0    0    0  0.10237353496E+01  0.29098067273E+02 -0.29156606983E+01  0.29261692200E+02  0.00000000000E+00 0. -1.
</event>
<event>
 5    1  0.9034713E-005  0.9118800E+02  0.7818608E-02  0.1130116E+00
         25   -1    0    0    0    0  0.00000000000E+00  0.00000000000E+00  0.99999998245E-14  0.12500000000E+03  0.12500000000E+03 0.  0.
        -13    1    3    3    0    0 -0.65433944816E+01 -0.28197359454E+02 -0.19726950537E+02  0.35029570837E+02  0.10566000000E+00 0. -1.
         23    2    1    0    0    0  0.10968289359E+02  0.12506712013E+02  0.23019715929E+02  0.96598793366E+02  0.92329292976E+02 0.  0.
         13    1    3    3    0    0  0.17511683840E+02  0.40704071467E+02  0.42746666465E+02  0.61569222529E+02  0.10566000000E+00 0.  1.
         22    1    1    0    0    0 -0.10968289359E+02 -0.12506712013E+02 -0.23019715929E+02  0.28401206634E+02  0.00000000000E+00 0.  1.
</event>
<event>
 5    1  0.9034713E-005  0.9118800E+02  0.7818608E-02  0.1130116E+00
         25   -1    0    0    0    0  0.00000000000E+00  0.00000000000E+00  0.99999998245E-14  0.12500000000E+03  0.12500000000E+03 0.  0.
        -13    1    3    3    0    0  0.12016222841E+02  0.25758530540E+02 -0.14430667404E+02  0.31877058094E+02  0.10566000000E+00 0.  1.
         23    2    1    0    0    0 -0.26181887822E+00 -0.30364867068E+02  0.80748422532E+01  0.93578720927E+02  0.88145789643E+02 0.  0.
         13    1    3    3    0    0 -0.12278041719E+02 -0.56123397607E+02  0.22505509658E+02  0.61701662834E+02  0.10566000000E+00 0. -1.
         22    1    1    0    0    0  0.26181887822E+00  0.30364867068E+02 -0.80748422532E+01  0.31421279073E+02  0.00000000000E+00 0. -1.
</event>
<event>
 5    1  0.9034713E-005  0.9118800E+02  0.7818608E-02  0.1130116E+00
         25   -1    0    0    0    0  0.00000000000E+00  0.00000000000E+00  0.99999998245E-14  0.12500000000E+03  0.12500000000E+03 0.  0.
        -13    1    3    3    0    0  0.95698047209E+01  0.15399481075E+02  0.41504416321E+02  0.45291863706E+02  0.10566000000E+00 0.  1.
         23    2    1    0    0    0 -0.47121826345E+01  0.20903098453E+02 -0.11652766787E+02  0.10060878921E+03  0.97607362950E+02 0.  0.
         13    1    3    3    0    0 -0.14281987355E+02  0.55036173771E+01 -0.53157183108E+02  0.55316925502E+02  0.10566000000E+00 0. -1.
         22    1    1    0    0    0  0.47121826345E+01 -0.20903098453E+02  0.11652766787E+02  0.24391210792E+02  0.00000000000E+00 0. -1.
</event>
<event>
 5    1  0.9034713E-005  0.9118800E+02  0.7818608E-02  0.1130116E+00
         25   -1    0    0    0    0  0.00000000000E+00  0.00000000000E+00  0.99999998245E-14  0.12500000000E+03  0.12500000000E+03 0.  0.
        -13    1    3    3    0    0  0.58568024618E+01 -0.42844095586E+02 -0.68079484516E+01  0.43775312539E+02  0.10566000000E+00 0. -1.
         23    2    1    0    0    0  0.23795791509E+02  0.11991835302E+01 -0.20826215823E+02  0.93354952992E+02  0.87827889921E+02 0.  0.
         13    1    3    3    0    0  0.17938989047E+02  0.44043279117E+02 -0.14018267371E+02  0.49579640453E+02  0.10566000000E+00 0.  1.
         22    1    1    0    0    0 -0.23795791509E+02 -0.11991835302E+01  0.20826215823E+02  0.31645047008E+02  0.00000000000E+00 0. -1.
</event>
<event>
 5    1  0.9034713E-005  0.9118800E+02  0.7818608E-02  0.1130116E+00
         25   -1    0    0    0    0  0.00000000000E+00  0.00000000000E+00  0.99999998245E-14  0.12500000000E+03  0.12500000000E+03 0.  0.
        -13    1    3    3    0    0 -0.50401007807E+02  0.23930710798E+02 -0.17425912089E+02  0.58451809924E+02  0.10566000000E+00 0.  1.
         23    2    1    0    0    0 -0.20126905428E+02  0.40065595473E+01 -0.21921339586E+02  0.94971847031E+02  0.90099732284E+02 0.  0.
         13    1    3    3    0    0  0.30274102378E+02 -0.19924151251E+02 -0.44954274970E+01  0.36520037107E+02  0.10566000000E+00 0. -1.
         22    1    1    0    0    0  0.20126905428E+02 -0.40065595473E+01  0.21921339586E+02  0.30028152969E+02  0.00000000000E+00 0.  1.
</event>
<event>
 5    1  0.9034713E-005  0.9118800E+02  0.7818608E-02  0.1130116E+00
         25   -1    0    0    0    0  0.00000000000E+00  0.00000000000E+00  0.99999998245E-14  0.12500000000E+03  0.12500000000E+03 0.  0.
        -13    1    3    3    0    0 -0.17165830819E+02  0.39215575894E+02 -0.29241560790E+02  0.51842137127E+02  0.10566000000E+00 0.  1.
         23    2    1    0    0    0 -0.11986535153E+02 -0.50015677479E+01 -0.25331232309E+02  0.96533106330E+02  0.92240319723E+02 0.  0.
         13    1    3    3    0    0  0.51792956656E+01 -0.44217143642E+02  0.39103284807E+01  0.44690969203E+02  0.10566000000E+00 0. -1.
         22    1    1    0    0    0  0.11986535153E+02  0.50015677479E+01  0.25331232309E+02  0.28466893670E+02  0.00000000000E+00 0. -1.
</event>
<event>
 5    1  0.9034713E-005  0.9118800E+02  0.7818608E-02  0.1130116E+00
         25   -1    0    0    0    0  0.00000000000E+00  0.00000000000E+00  0.99999998245E-14  0.12500000000E+03  0.12500000000E+03 0.  0.
        -13    1    3    3    0    0  0.29688455383E+02 -0.39157138973E+02  0.15519173163E+01  0.49164067437E+02  0.10566000000E+00 0.  1.
         23    2    1    0    0    0  0.54952578375E+01 -0.80436321017E+01  0.27146676540E+02  0.96158364761E+02  0.91731080830E+02 0.  0.
         13    1    3    3    0    0 -0.24193197545E+02  0.31113506871E+02  0.25594759224E+02  0.46994297324E+02  0.10566000000E+00 0. -1.
         22    1    1    0    0    0 -0.54952578375E+01  0.80436321017E+01 -0.27146676540E+02  0.28841635239E+02  0.00000000000E+00 0. -1.
</event>
<event>
 5    1  0.9034713E-005  0.9118800E+02  0.7818608E-02  0.1130116E+00
         25   -1    0    0    0    0  0.00000000000E+00  0.00000000000E+00  0.99999998245E-14  0.12500000000E+03  0.12500000000E+03 0.  0.
        -13    1    3    3    0    0  0.36941019961E+02 -0.40647573167E+01 -0.38446296359E+01  0.37362461761E+02  0.10566000000E+00 0. -1.
         23    2    1    0    0    0 -0.14065319704E+02 -0.90034486647E-01 -0.27792436823E+02  0.93850989275E+02  0.88531052850E+02 0.  0.
         13    1    3    3    0    0 -0.51006339665E+02  0.39747228301E+01 -0.23947807187E+02  0.56488527514E+02  0.10566000000E+00 0.  1.
         22    1    1    0    0    0  0.14065319704E+02  0.90034486647E-01  0.27792436823E+02  0.31149010725E+02  0.00000000000E+00 0.  1.
</event>
<event>
 5    1  0.9034713E-005  0.9118800E+02  0.7818608E-02  0.1130116E+00
         25   -1    0    0    0    0  0.00000000000E+00  0.00000000000E+00  0.99999998245E-14  0.12500000000E+03  0.12500000000E+03 0.  0.
        -13    1    3    3    0    0 -0.26820307076E+01  0.23141833492E+02 -0.26732247466E+02  0.35459300117E+02  0.10566000000E+00 0.  1.
         23    2    1    0    0    0  0.16096456620E+01 -0.28567101815E+02  0.45224333914E+01  0.96032385858E+02  0.91559251114E+02 0.  0.
         13    1    3    3    0    0  0.42916763696E+01 -0.51708935308E+02  0.31254680858E+02  0.60573085742E+02  0.10566000000E+00 0. -1.
         22    1    1    0    0    0 -0.16096456620E+01  0.28567101815E+02 -0.45224333914E+01  0.28967614142E+02  0.00000000000E+00 0. -1.
</event>
<event>
 5    1  0.9034713E-005  0.9118800E+02  0.7818608E-02  0.1130116E+00
         25   -1    0    0    0    0  0.00000000000E+00  0.00000000000E+00  0.99999998245E-14  0.12500000000E+03  0.12500000000E+03 0.  0.
        -13    1    3    3    0    0 -0.28391940568E+02 -0.33457062396E+02 -0.72896779599E+00  0.43886442912E+02  0.10566000000E+00 0.  1.
         23    2    1    0    0    0  0.14371622864E+02 -0.16117849906E+02 -0.21532643035E+02  0.94504371700E+02  0.89448828527E+02 0.  0.
         13    1    3    3    0    0  0.42763563432E+02  0.17339212491E+02 -0.20803675239E+02  0.50617928787E+02  0.10566000000E+00 0. -1.
         22    1    1    0    0    0 -0.14371622864E+02  0.16117849906E+02  0.21532643035E+02  0.30495628300E+02  0.00000000000E+00 0.  1.
</event>
<event>
 5    1  0.9034713E-005  0.9118800E+02  0.7818608E-02  0.1130116E+00
         25   -1    0    0    0    0  0.00000000000E+00  0.00000000000E+00  0.99999998245E-14  0.12500000000E+03  0.12500000000E+03 0.  0.
        -13    1    3    3    0    0  0.25357710464E+02  0.52044428355E+01  0.12845703347E+02  0.28898494143E+02  0.10566000000E+00 0. -1.
         23    2    1    0    0    0  0.39381979223E+01  0.32968986400E+02 -0.27164177901E+02  0.82100629047E+02  0.70001123290E+02 0.  0.
         13    1    3    3    0    0 -0.21419512542E+02  0.27764543565E+02 -0.40009881248E+02  0.53202134904E+02  0.10566000000E+00 0.  1.
         22    1    1    0    0    0 -0.39381979223E+01 -0.32968986400E+02  0.27164177901E+02  0.42899370953E+02  0.00000000000E+00 0.  1.
</event>
<event>
 5    1  0.9034713E-005  0.9118800E+02  0.7818608E-02  0.1130116E+00
         25   -1    0    0    0    0  0.00000000000E+00  0.00000000000E+00  0.99999998245E-14  0.12500000000E+03  0.12500000000E+03 0.  0.
        -13    1    3    3    0    0 -0.27455909755E+02 -0.20174931236E+02  0.44724142403E+02  0.56223793082E+02  0.10566000000E+00 0. -1.
         23    2    1    0    0    0 -0.94525639860E+01 -0.28246569769E+02  0.15671625706E+02  0.91342615641E+02  0.84915569304E+02 0.  0.
         13    1    3    3    0    0  0.18003345769E+02 -0.80716385326E+01 -0.29052516697E+02  0.35118822559E+02  0.10566000000E+00 0.  1.
         22    1    1    0    0    0  0.94525639860E+01  0.28246569769E+02 -0.15671625706E+02  0.33657384359E+02  0.00000000000E+00 0. -1.
</event>
<event>
 5    1  0.9034713E-005  0.9118800E+02  0.7818608E-02  0.1130116E+00
         25   -1    0    0    0    0  0.00000000000E+00  0.00000000000E+00  0.99999998245E-14  0.12500000000E+03  0.12500000000E+03 0.  0.
        -13    1    3    3    0    0 -0.20678218598E+02  0.35797033910E+02 -0.87793667647E+00  0.41349707351E+02  0.10566000000E+00 0. -1.
         23    2    1    0    0    0 -0.88287045565E+01 -0.11438984602E+02  0.24719551129E+02  0.96366931689E+02  0.92014851639E+02 0.  0.
         13    1    3    3    0    0  0.11849514042E+02 -0.47236018512E+02  0.25597487806E+02  0.55017224338E+02  0.10566000000E+00 0.  1.
         22    1    1    0    0    0  0.88287045565E+01  0.11438984602E+02 -0.24719551129E+02  0.28633068311E+02  0.00000000000E+00 0.  1.
</event>
<event>
 5    1  0.9034713E-005  0.9118800E+02  0.7818608E-02  0.1130116E+00
         25   -1    0    0    0    0  0.00000000000E+00  0.00000000000E+00  0.99999998245E-14  0.12500000000E+03  0.12500000000E+03 0.  0.
        -13    1    3    3    0    0  0.57314995380E+01  0.48559922182E+02 -0.23731024096E+02  0.54351529858E+02  0.10566000000E+00 0.  1.
         23    2    1    0    0    0 -0.19506833225E+02  0.21276810883E+02 -0.60596056117E+01  0.95505287864E+02  0.90836787515E+02 0.  0.
         13    1    3    3    0    0 -0.25238332763E+02 -0.27283111299E+02  0.17671418484E+02  0.41153758006E+02  0.10566000000E+00 0. -1.
         22    1    1    0    0    0  0.19506833225E+02 -0.21276810883E+02  0.60596056117E+01  0.29494712136E+02  0.00000000000E+00 0.  1.
</event>
<event>
 5    1  0.9034713E-005  0.9118800E+02  0.7818608E-02  0.1130116E+00
         25   -1    0    0    0    0  0.00000000000E+00  0.00000000000E+00  0.99999998245E-14  0.12500000000E+03  0.12500000000E+03 0.  0.
        -13    1    3    3    0    0  0.74099250763E+01 -0.46717278658E+02  0.35598360897E+02  0.59200216025E+02  0.10566000000E+00 0.  1.
         23    2    1    0    0    0  0.35436695760E+00 -0.36026684850E+02  0.10346199636E+02  0.87515450595E+02  0.79081367266E+02 0.  0.
         13    1    3    3    0    0 -0.70555581187E+01  0.10690593809E+02 -0.25252161261E+02  0.28315234569E+02  0.10566000000E+00 0. -1.
         22    1    1    0    0    0 -0.35436695760E+00  0.36026684850E+02 -0.10346199636E+02  0.37484549405E+02  0.00000000000E+00 0.  1.
</event>
<event>
 5    1  0.9034713E-005  0.9118800E+02  0.7818608E-02  0.1130116E+00
         25   -1    0    0    0    0  0.00000000000E+00  0.00000000000E+00  0.99999998245E-14  0.12500000000E+03  0.12500000000E+03 0.  0.
        -13    1    3    3    0    0  0.29632602667E+02 -0.32883147015E+01  0.38735534688E+02  0.48881049150E+02  0.10566000000E+00 0. -1.
         23    2    1    0    0    0  0.27333979040E+02 -0.62955928255E+01 -0.80488427532E+01  0.95818417300E+02  0.91266666013E+02 0.  0.
         13    1    3    3    0    0 -0.22986236269E+01 -0.30072781240E+01 -0.46784377441E+02  0.46937368150E+02  0.10566000000E+00 0.  1.
         22    1    1    0    0    0 -0.27333979040E+02  0.62955928255E+01  0.80488427532E+01  0.29181582700E+02  0.00000000000E+00 0.  1.
</event>
<event>
 5    1  0.9034713E-005  0.9118800E+02  0.7818608E-02  0.1130116E+00
         25   -1    0    0    0    0  0.00000000000E+00  0.00000000000E+00  0.99999998245E-14  0.12500000000E+03  0.12500000000E+03 0.  0.
        -13    1    3    3    0    0  0.70282340991E+01  0.51338956289E+02  0.26642674641E+01  0.51886356516E+02  0.10566000000E+00 0. -1.
         23    2    1    0    0    0  0.18477441621E+02  0.17276125700E+02  0.20902632556E+02  0.92185362781E+02  0.86147203641E+02 0.  0.
         13    1    3    3    0    0  0.11449207522E+02 -0.34062830589E+02  0.18238365092E+02  0.40299006264E+02  0.10566000000E+00 0.  1.
         22    1    1    0    0    0 -0.18477441621E+02 -0.17276125700E+02 -0.20902632556E+02  0.32814637219E+02  0.00000000000E+00 0. -1.
</event>
<event>
 5    1  0.9034713E-005  0.9118800E+02  0.7818608E-02  0.1130116E+00
         25   -1    0    0    0    0  0.00000000000E+00  0.00000000000E+00  0.99999998245E-14  0.12500000000E+03  0.12500000000E+03 0.  0.
        -13    1    3    3    0    0 -0.70004344681E+01 -0.17354007570E+02  0.32837560220E+02  0.37795293183E+02  0.10566000000E+00 0. -1.
         23    2    1    0    0    0 -0.19613279718E+02  0.24496517490E+02 -0.18029132834E+01  0.93567363987E+02  0.88129682835E+02 0.  0.
         13    1    3    3    0    0 -0.12612845250E+02  0.41850525061E+02 -0.34640473504E+02  0.55772070804E+02  0.10566000000E+00 0.  1.
         22    1    1    0    0    0  0.19613279718E+02 -0.24496517490E+02  0.18029132834E+01  0.31432636013E+02  0.00000000000E+00 0.  1.
</event>
<event>
 5    1  0.9034713E-005  0.9118800E+02  0.7818608E-02  0.1130116E+00
         25   -1    0    0    0    0  0.00000000000E+00  0.00000000000E+00  0.99999998245E-14  0.12500000000E+03  0.12500000000E+03 0.  0.
        -13    1    3    3    0    0 -0.13443097187E+02 -0.39582152836E+02  0.37060600365E+02  0.55865579282E+02  0.10566000000E+00 0. -1.
         23    2    1    0    0    0 -0.23854602200E+02 -0.16655338755E+02  0.70054477653E+01  0.95074782314E+02  0.90242426710E+02 0.  0.
         13    1    3    3    0    0 -0.10411505013E+02  0.22926814081E+02 -0.30055152600E+02  0.39209203032E+02  0.10566000000E+00 0.  1.
         22    1    1    0    0    0  0.23854602200E+02  0.16655338755E+02 -0.70054477653E+01  0.29925217686E+02  0.00000000000E+00 0. -1.
</event>
<event>
 5    1  0.9034713E-005  0.9118800E+02  0.7818608E-02  0.1130116E+00
         25   -1    0    0    0    0  0.00000000000E+00  0.00000000000E+00  0.99999998245E-14  0.12500000000E+03  0.12500000000E+03 0.  0.
        -13    1    3    3    0    0  0.48841581631E+01 -0.26176324254E+02  0.20089434167E+02  0.33356430889E+02  0.10566000000E+00 0. -1.
         23    2    1    0    0    0 -0.55731206970E+01  0.17430132223E+02 -0.23041996522E+02  0.95575473031E+02  0.90933317644E+02 0.  0.
         13    1    3    3    0    0 -0.10457278860E+02  0.43606456478E+02 -0.43131430690E+02  0.62219042142E+02  0.10566000000E+00 0.  1.
         22    1    1    0    0    0  0.55731206970E+01 -0.17430132223E+02  0.23041996522E+02  0.29424526969E+02  0.00000000000E+00 0.  1.
</event>
<event>
 5    1  0.9034713E-005  0.9118800E+02  0.7818608E-02  0.1130116E+00
         25   -1    0    0    0    0  0.00000000000E+00  0.00000000000E+00  0.99999998245E-14  0.12500000000E+03  0.12500000000E+03 0.  0.
        -13    1    3    3    0    0  0.64874586105E+01 -0.12975180955E+02 -0.55152363879E+02  0.57028386313E+02  0.10566000000E+00 0.  1.
         23    2    1    0    0    0  0.69983309067E+01 -0.22905669181E+02 -0.19281008957E+02  0.94252583482E+02  0.89096273045E+02 0.  0.
         13    1    3    3    0    0  0.51087229616E+00 -0.99304882263E+01  0.35871354921E+02  0.37224197169E+02  0.10566000000E+00 0. -1.
         22    1    1    0    0    0 -0.69983309067E+01  0.22905669181E+02  0.19281008957E+02  0.30747416518E+02  0.00000000000E+00 0.  1.
</event>
<event>
 4    1  0.9034713E-005  0.9118800E+02  0.7818608E-02  0.1130116E+00
         25   -1    0    0    0    0  0.00000000000E+00  0.00000000000E+00  0.99999998245E-14  0.12500000000E+03  0.12500000000E+03 0.  0.
        -13    1    1    0    0    0 -0.22079018729E+01 -0.39856470922E+02  0.14772625673E+01  0.39945044421E+02  0.10566000000E+00 0. -1.
         13    1    1    0    0    0 -0.15244470380E+02 -0.27268072255E+01  0.26863283817E+02  0.31007685117E+02  0.10566000000E+00 0.  1.
         22    1    1    0    0    0  0.17452372253E+02  0.42583278148E+02 -0.28340546385E+02  0.54047270462E+02  0.00000000000E+00 0.  1.
</event>
<event>
 5    1  0.9034713E-005  0.9118800E+02  0.7818608E-02  0.1130116E+00
         25   -1    0    0    0    0  0.00000000000E+00  0.00000000000E+00  0.99999998245E-14  0.12500000000E+03  0.12500000000E+03 0.  0.
        -13    1    3    3    0    0 -0.29090934909E+02 -0.39016934337E+02 -0.23472682073E+01  0.48724988364E+02  0.10566000000E+00 0.  1.
         23    2    1    0    0    0 -0.29037061158E+02  0.71208534018E+01  0.17964233486E+01  0.95048629235E+02  0.90206193295E+02 0.  0.
         13    1    3    3    0    0  0.53873751244E-01  0.46137787739E+02  0.41436915558E+01  0.46323640872E+02  0.10566000000E+00 0. -1.
         22    1    1    0    0    0  0.29037061158E+02 -0.71208534018E+01 -0.17964233486E+01  0.29951370765E+02  0.00000000000E+00 0.  1.
</event>
<event>
 5    1  0.9034713E-005  0.9118800E+02  0.7818608E-02  0.1130116E+00
         25   -1    0    0    0    0  0.00000000000E+00  0.00000000000E+00  0.99999998245E-14  0.12500000000E+03  0.12500000000E+03 0.  0.
        -13    1    3    3    0    0  0.40439411092E+02 -0.18823701426E+02  0.37488209735E+02  0.58267098246E+02  0.10566000000E+00 0.  1.
         23    2    1    0    0    0  0.58386225261E+01 -0.74378690198E+01  0.27326041566E+02  0.96084191932E+02  0.91629951342E+02 0.  0.
         13    1    3    3    0    0 -0.34600788566E+02  0.11385832406E+02 -0.10162168169E+02  0.37817093686E+02  0.10566000000E+00 0. -1.
         22    1    1    0    0    0 -0.58386225261E+01  0.74378690198E+01 -0.27326041566E+02  0.28915808068E+02  0.00000000000E+00 0.  1.
</event>
<event>
 5    1  0.9034713E-005  0.9118800E+02  0.7818608E-02  0.1130116E+00
         25   -1    0    0    0    0  0.00000000000E+00  0.00000000000E+00  0.99999998245E-14  0.12500000000E+03  0.12500000000E+03 0.  0.
        -13    1    3    3    0    0  0.41256527248E+02  0.32167104484E+02  0.29444986647E+02  0.60032008580E+02  0.10566000000E+00 0. -1.
         23    2    1    0    0    0  0.72717129933E+01  0.12064526561E+02  0.19838277538E+02  0.10066919922E+03  0.97684695856E+02 0.  0.
         13    1    3    3    0    0 -0.33984814254E+02 -0.20102577923E+02 -0.96067091089E+01  0.40637190639E+02  0.10566000000E+00 0.  1.
         22    1    1    0    0    0 -0.72717129933E+01 -0.12064526561E+02 -0.19838277538E+02  0.24330800782E+02  0.00000000000E+00 0. -1.
</event>
<event>
 5    1  0.9034713E-005  0.9118800E+02  0.7818608E-02  0.1130116E+00
         25   -1    0    0    0    0  0.00000000000E+00  0.00000000000E+00  0.99999998245E-14  0.12500000000E+03  0.12500000000E+03 0.  0.
        -13    1    3    3    0    0  0.15440729152E+02 -0.70523849893E+01 -0.73321864663E+01  0.18491197181E+02  0.10566000000E+00 0.  1.
         23    2    1    0    0    0 -0.39259386214E+02 -0.10353243034E+02 -0.26464746745E+02  0.76534838621E+02  0.59234362116E+02 0.  0.
         13    1    3    3    0    0 -0.54700115366E+02 -0.33008580444E+01 -0.19132560278E+02  0.58043641440E+02  0.10566000000E+00 0. -1.
         22    1    1    0    0    0  0.39259386214E+02  0.10353243034E+02  0.26464746745E+02  0.48465161379E+02  0.00000000000E+00 0. -1.
</event>
<event>
 5    1  0.9034713E-005  0.9118800E+02  0.7818608E-02  0.1130116E+00
         25   -1    0    0    0    0  0.00000000000E+00  0.00000000000E+00  0.99999998245E-14  0.12500000000E+03  0.12500000000E+03 0.  0.
        -13    1    3    3    0    0  0.52416469883E+02  0.27832233490E+02 -0.17668138178E+02  0.61921674774E+02  0.10566000000E+00 0. -1.
         23    2    1    0    0    0  0.22602560669E+02  0.11287929320E+02 -0.13731603261E+02  0.96244999996E+02  0.91849060959E+02 0.  0.
         13    1    3    3    0    0 -0.29813909214E+02 -0.16544304171E+02  0.39365349172E+01  0.34323325222E+02  0.10566000000E+00 0.  1.
         22    1    1    0    0    0 -0.22602560669E+02 -0.11287929320E+02  0.13731603261E+02  0.28755000004E+02  0.00000000000E+00 0. -1.
</event>
<event>
 5    1  0.9034713E-005  0.9118800E+02  0.7818608E-02  0.1130116E+00
         25   -1    0    0    0    0  0.00000000000E+00  0.00000000000E+00  0.99999998245E-14  0.12500000000E+03  0.12500000000E+03 0.  0.
        -13    1    3    3    0    0 -0.48238797993E+02 -0.26884616058E+01 -0.96604961330E+01  0.49270130984E+02  0.10566000000E+00 0. -1.
         23    2    1    0    0    0 -0.15957112665E+02 -0.19061439101E+01  0.24129495892E+02  0.96008701284E+02  0.91526910366E+02 0.  0.
         13    1    3    3    0    0  0.32281685328E+02  0.78231769562E+00  0.33789992025E+02  0.46738570300E+02  0.10566000000E+00 0.  1.
         22    1    1    0    0    0  0.15957112665E+02  0.19061439101E+01 -0.24129495892E+02  0.28991298716E+02  0.00000000000E+00 0.  1.
</event>
<event>
 5    1  0.9034713E-005  0.9118800E+02  0.7818608E-02  0.1130116E+00
         25   -1    0    0    0    0  0.00000000000E+00  0.00000000000E+00  0.99999998245E-14  0.12500000000E+03  0.12500000000E+03 0.  0.
        -13    1    3    3    0    0 -0.22700963561E+02  0.63596055640E+01 -0.25679563353E+02  0.34860141531E+02  0.10566000000E+00 0. -1.
         23    2    1    0    0    0  0.19352874334E+02  0.13306489314E+02  0.17635273841E+02  0.95629959375E+02  0.91008185586E+02 0.  0.
         13    1    3    3    0    0  0.42053837896E+02  0.69468837501E+01  0.43314837194E+02  0.60769817844E+02  0.10566000000E+00 0.  1.
         22    1    1    0    0    0 -0.19352874334E+02 -0.13306489314E+02 -0.17635273841E+02  0.29370040625E+02  0.00000000000E+00 0.  1.
</event>
<event>
 5    1  0.9034713E-005  0.9118800E+02  0.7818608E-02  0.1130116E+00
         25   -1    0    0    0    0  0.00000000000E+00  0.00000000000E+00  0.99999998245E-14  0.12500000000E+03  0.12500000000E+03 0.  0.
        -13    1    3    3    0    0 -0.30802805382E+02  0.36676503531E+02 -0.19244486247E+02  0.51617246591E+02  0.10566000000E+00 0.  1.
         23    2    1    0    0    0  0.87745985030E+01  0.15358082175E+02 -0.22137191655E+02  0.96664165420E+02  0.92417754544E+02 0.  0.
         13    1    3    3    0    0  0.39577403885E+02 -0.21318421355E+02 -0.28927054077E+01  0.45046918829E+02  0.10566000000E+00 0. -1.
         22    1    1    0    0    0 -0.87745985030E+01 -0.15358082175E+02  0.22137191655E+02  0.28335834580E+02  0.00000000000E+00 0.  1.
</event>
<event>
 5    1  0.9034713E-005  0.9118800E+02  0.7818608E-02  0.1130116E+00
         25   -1    0    0    0    0  0.00000000000E+00  0.00000000000E+00  0.99999998245E-14  0.12500000000E+03  0.12500000000E+03 0.  0.
        -13    1    3    3    0    0  0.73286054730E+01 -0.58557030752E+02  0.11249927033E+02  0.60076670439E+02  0.10566000000E+00 0. -1.
         23    2    1    0    0    0 -0.49421665408E+01 -0.25509117539E+02  0.14087500280E+02  0.95443312907E+02  0.90751464048E+02 0.  0.
         13    1    3    3    0    0 -0.12270772014E+02  0.33047913213E+02  0.28375732468E+01  0.35366642469E+02  0.10566000000E+00 0.  1.
         22    1    1    0    0    0  0.49421665408E+01  0.25509117539E+02 -0.14087500280E+02  0.29556687093E+02  0.00000000000E+00 0. -1.
</event>
<event>
 5    1  0.9034713E-005  0.9118800E+02  0.7818608E-02  0.1130116E+00
         25   -1    0    0    0    0  0.00000000000E+00  0.00000000000E+00  0.99999998245E-14  0.12500000000E+03  0.12500000000E+03 0.  0.
        -13    1    3    3    0    0  0.43193802529E+01  0.41281486957E+02 -0.12325663179E+02  0.43298398908E+02  0.10566000000E+00 0. -1.
         23    2    1    0    0    0  0.18127724964E+02  0.35624330831E+01  0.22096925932E+02  0.96197578618E+02  0.91784501167E+02 0.  0.
         13    1    3    3    0    0  0.13808344711E+02 -0.37719053874E+02  0.34422589110E+02  0.52899179710E+02  0.10566000000E+00 0.  1.
         22    1    1    0    0    0 -0.18127724964E+02 -0.35624330831E+01 -0.22096925932E+02  0.28802421382E+02  0.00000000000E+00 0.  1.
</event>
<event>
 5    1  0.9034713E-005  0.9118800E+02  0.7818608E-02  0.1130116E+00
         25   -1    0    0    0    0  0.00000000000E+00  0.00000000000E+00  0.99999998245E-14  0.12500000000E+03  0.12500000000E+03 0.  0.
        -13    1    3    3    0    0 -0.30459641623E+02 -0.22886842772E+02  0.22073570647E+02  0.44032386093E+02  0.10566000000E+00 0. -1.
         23    2    1    0    0    0  0.44763902209E+01 -0.23701198099E+02 -0.16265366652E+02  0.95907956190E+02  0.91389217348E+02 0.  0.
         13    1    3    3    0    0  0.34936031844E+02 -0.81435532718E+00 -0.38338937299E+02  0.51875570097E+02  0.10566000000E+00 0.  1.
         22    1    1    0    0    0 -0.44763902209E+01  0.23701198099E+02  0.16265366652E+02  0.29092043810E+02  0.00000000000E+00 0.  1.
</event>
<event>
 5    1  0.9034713E-005  0.9118800E+02  0.7818608E-02  0.1130116E+00
         25   -1    0    0    0    0  0.00000000000E+00  0.00000000000E+00  0.99999998245E-14  0.12500000000E+03  0.12500000000E+03 0.  0.
        -13    1    3    3    0    0  0.19304319101E+02 -0.27502280421E+02  0.29885889816E+02  0.44968986407E+02  0.10566000000E+00 0.  1.
         23    2    1    0    0    0  0.16237157776E+02  0.19940971974E+02  0.16812984918E+02  0.94276000948E+02  0.89129121150E+02 0.  0.
         13    1    3    3    0    0 -0.30671613255E+01  0.47443252395E+02 -0.13072904898E+02  0.49307014541E+02  0.10566000000E+00 0. -1.
         22    1    1    0    0    0 -0.16237157776E+02 -0.19940971974E+02 -0.16812984918E+02  0.30723999052E+02  0.00000000000E+00 0. -1.
</event>
<event>
 5    1  0.9034713E-005  0.9118800E+02  0.7818608E-02  0.1130116E+00
         25   -1    0    0    0    0  0.00000000000E+00  0.00000000000E+00  0.99999998245E-14  0.12500000000E+03  0.12500000000E+03 0.  0.
        -13    1    3    3    0    0 -0.26579451524E+02  0.10411985107E+02 -0.18626563987E+02  0.34085726151E+02  0.10566000000E+00 0.  1.
         23    2    1    0    0    0  0.36094678356E+01 -0.24513405965E+01  0.31062386274E+02  0.93632673531E+02  0.88222266933E+02 0.  0.
         13    1    3    3    0    0  0.30188919360E+02 -0.12863325703E+02  0.49688950261E+02  0.59546947381E+02  0.10566000000E+00 0. -1.
         22    1    1    0    0    0 -0.36094678356E+01  0.24513405965E+01 -0.31062386274E+02  0.31367326469E+02  0.00000000000E+00 0. -1.
</event>
<event>
 5    1  0.9034713E-005  0.9118800E+02  0.7818608E-02  0.1130116E+00
         25   -1    0    0    0    0  0.00000000000E+00  0.00000000000E+00  0.99999998245E-14  0.12500000000E+03  0.12500000000E+03 0.  0.
        -13    1    3    3    0    0  0.24477663696E+02  0.47502059021E+02 -0.14380377683E+02  0.55339028340E+02  0.10566000000E+00 0.  1.
         23    2    1    0    0    0  0.16350890281E+01  0.13852714179E+02 -0.24099736469E+02  0.97154560443E+02  0.93078676992E+02 0.  0.
         13    1    3    3    0    0 -0.22842574668E+02 -0.33649344842E+02 -0.97193587859E+01  0.41815532102E+02  0.10566000000E+00 0. -1.
         22    1    1    0    0    0 -0.16350890281E+01 -0.13852714179E+02  0.24099736469E+02  0.27845439557E+02  0.00000000000E+00 0. -1.
</event>
<event>
 5    1  0.9034713E-005  0.9118800E+02  0.7818608E-02  0.1130116E+00
         25   -1    0    0    0    0  0.00000000000E+00  0.00000000000E+00  0.99999998245E-14  0.12500000000E+03  0.12500000000E+03 0.  0.
        -13    1    3    3    0    0  0.66626434482E+01 -0.30597261875E+02  0.45095408232E+02  0.54901641684E+02  0.10566000000E+00 0.  1.
         23    2    1    0    0    0 -0.16655395204E+01 -0.28610245669E+02  0.49909876315E+01  0.95909964994E+02  0.91391964901E+02 0.  0.
         13    1    3    3    0    0 -0.83281829686E+01  0.19870162060E+01 -0.40104420600E+02  0.41008323310E+02  0.10566000000E+00 0. -1.
         22    1    1    0    0    0  0.16655395204E+01  0.28610245669E+02 -0.49909876315E+01  0.29090035006E+02  0.00000000000E+00 0.  1.
</event>
<event>
 5    1  0.9034713E-005  0.9118800E+02  0.7818608E-02  0.1130116E+00
         25   -1    0    0    0    0  0.00000000000E+00  0.00000000000E+00  0.99999998245E-14  0.12500000000E+03  0.12500000000E+03 0.  0.
        -13    1    3    3    0    0 -0.71584069581E+01  0.14747690655E+02  0.43451216598E+02  0.46440893163E+02  0.10566000000E+00 0. -1.
         23    2    1    0    0    0  0.28115068886E+02  0.34500456124E+01  0.16865677110E+02  0.92033183691E+02  0.85926107340E+02 0.  0.
         13    1    3    3    0    0  0.35273475844E+02 -0.11297645043E+02 -0.26585539488E+02  0.45592290528E+02  0.10566000000E+00 0.  1.
         22    1    1    0    0    0 -0.28115068886E+02 -0.34500456124E+01 -0.16865677110E+02  0.32966816309E+02  0.00000000000E+00 0. -1.
</event>
<event>
 5    1  0.9034713E-005  0.9118800E+02  0.7818608E-02  0.1130116E+00
         25   -1    0    0    0    0  0.00000000000E+00  0.00000000000E+00  0.99999998245E-14  0.12500000000E+03  0.12500000000E+03 0.  0.
        -13    1    3    3    0    0  0.32305986599E+02  0.23121248235E+02 -0.18837833913E+02  0.43967533939E+02  0.10566000000E+00 0.  1.
         23    2    1    0    0    0  0.90140107883E+01 -0.22951879687E+02 -0.15863904060E+02  0.95679279960E+02  0.91075902356E+02 0.  0.
         13    1    3    3    0    0 -0.23291975811E+02 -0.46073127922E+02  0.29739298531E+01  0.51711746021E+02  0.10566000000E+00 0. -1.
         22    1    1    0    0    0 -0.90140107883E+01  0.22951879687E+02  0.15863904060E+02  0.29320720040E+02  0.00000000000E+00 0. -1.
</event>
<event>
 5    1  0.9034713E-005  0.9118800E+02  0.7818608E-02  0.1130116E+00
         25   -1    0    0    0    0  0.00000000000E+00  0.00000000000E+00  0.99999998245E-14  0.12500000000E+03  0.12500000000E+03 0.  0.
        -13    1    3    3    0    0 -0.34397764065E+02  0.11267849331E+02  0.22576860981E+02  0.42660243987E+02  0.10566000000E+00 0. -1.
         23    2    1    0    0    0 -0.12265721193E+02 -0.10606074475E+02 -0.22396638247E+02  0.97349572573E+02  0.93340201110E+02 0.  0.
         13    1    3    3    0    0  0.22132042872E+02 -0.21873923805E+02 -0.44973499228E+02  0.54689328586E+02  0.10566000000E+00 0.  1.
         22    1    1    0    0    0  0.12265721193E+02  0.10606074475E+02  0.22396638247E+02  0.27650427427E+02  0.00000000000E+00 0.  1.
</event>
<event>
 5    1  0.9034713E-005  0.9118800E+02  0.7818608E-02  0.1130116E+00
         25   -1    0    0    0    0  0.00000000000E+00  0.00000000000E+00  0.99999998245E-14  0.12500000000E+03  0.12500000000E+03 0.  0.
        -13    1    3    3    0    0  0.17439242936E+01 -0.32983011732E+02  0.37814049393E+02  0.50207906054E+02  0.10566000000E+00 0. -1.
         23    2    1    0    0    0 -0.10788371341E+02  0.94270824956E+01  0.24890542795E+02  0.96280704027E+02  0.91897638744E+02 0.  0.
         13    1    3    3    0    0 -0.12532295634E+02  0.42410094227E+02 -0.12923506598E+02  0.46072797973E+02  0.10566000000E+00 0.  1.
         22    1    1    0    0    0  0.10788371341E+02 -0.94270824956E+01 -0.24890542795E+02  0.28719295973E+02  0.00000000000E+00 0.  1.
</event>
<event>
 5    1  0.9034713E-005  0.9118800E+02  0.7818608E-02  0.1130116E+00
         25   -1    0    0    0    0  0.00000000000E+00  0.00000000000E+00  0.99999998245E-14  0.12500000000E+03  0.12500000000E+03 0.  0.
        -13    1    3    3    0    0 -0.96128930424E+01  0.25156868107E+02  0.19231765598E+02  0.33093015844E+02  0.10566000000E+00 0. -1.
         23    2    1    0    0    0 -0.37593755431E+01 -0.21764451553E+02 -0.20508377316E+02  0.94860029927E+02  0.89944468878E+02 0.  0.
         13    1    3    3    0    0  0.58535174993E+01 -0.46921319660E+02 -0.39740142914E+02  0.61767014082E+02  0.10566000000E+00 0.  1.
         22    1    1    0    0    0  0.37593755431E+01  0.21764451553E+02  0.20508377316E+02  0.30139970073E+02  0.00000000000E+00 0.  1.
</event>
<event>
 5    1  0.9034713E-005  0.9118800E+02  0.7818608E-02  0.1130116E+00
         25   -1    0    0    0    0  0.00000000000E+00  0.00000000000E+00  0.99999998245E-14  0.12500000000E+03  0.12500000000E+03 0.  0.
        -13    1    3    3    0    0 -0.14072836253E+01  0.18649048812E+02  0.35686074185E+02  0.40289881156E+02  0.10566000000E+00 0.  1.
         23    2    1    0    0    0  0.19594432017E+02  0.17575519404E+02 -0.14673887187E+02  0.94864246922E+02  0.89950329240E+02 0.  0.
         13    1    3    3    0    0  0.21001715642E+02 -0.10735294078E+01 -0.50359961372E+02  0.54574365766E+02  0.10566000000E+00 0. -1.
         22    1    1    0    0    0 -0.19594432017E+02 -0.17575519404E+02  0.14673887187E+02  0.30135753078E+02  0.00000000000E+00 0. -1.
</event>
<event>
 5    1  0.9034713E-005  0.9118800E+02  0.7818608E-02  0.1130116E+00
         25   -1    0    0    0    0  0.00000000000E+00  0.00000000000E+00  0.99999998245E-14  0.12500000000E+03  0.12500000000E+03 0.  0.
        -13    1    3    3    0    0  0.15559528838E+02 -0.26673936975E+02 -0.19645878663E+02  0.36600130654E+02  0.10566000000E+00 0.  1.
         23    2    1    0    0    0  0.87036198296E+01  0.18935649691E+02  0.19019679037E+02  0.96785464419E+02  0.92581672619E+02 0.  0.
         13    1    3    3    0    0 -0.68559090084E+01  0.45609586667E+02  0.38665557699E+02  0.60185333766E+02  0.10566000000E+00 0. -1.
         22    1    1    0    0    0 -0.87036198296E+01 -0.18935649691E+02 -0.19019679037E+02  0.28214535581E+02  0.00000000000E+00 0. -1.
</event>
<event>
 5    1  0.9034713E-005  0.9118800E+02  0.7818608E-02  0.1130116E+00
         25   -1    0    0    0    0  0.00000000000E+00  0.00000000000E+00  0.99999998245E-14  0.12500000000E+03  0.12500000000E+03 0.  0.
        -13    1    3    3    0    0 -0.13182823574E+02 -0.30612006331E+02  0.10353381687E+02  0.34901080862E+02  0.10566000000E+00 0.  1.
         23    2    1    0    0    0  0.24891664349E+02  0.93722312961E+01 -0.13648461565E+02  0.95104947288E+02  0.90284200290E+02 0.  0.
         13    1    3    3    0    0  0.38074487923E+02  0.39984237627E+02 -0.24001843251E+02  0.60203866426E+02  0.10566000000E+00 0. -1.
         22    1    1    0    0    0 -0.24891664349E+02 -0.93722312961E+01  0.13648461565E+02  0.29895052712E+02  0.00000000000E+00 0. -1.
</event>
<event>
 5    1  0.9034713E-005  0.9118800E+02  0.7818608E-02  0.1130116E+00
         25   -1    0    0    0    0  0.00000000000E+00  0.00000000000E+00  0.99999998245E-14  0.12500000000E+03  0.12500000000E+03 0.  0.
        -13    1    3    3    0    0 -0.26348485599E+02  0.13191557246E+02  0.19245860625E+02  0.35194803468E+02  0.10566000000E+00 0. -1.
         23    2    1    0    0    0  0.19348517619E+02  0.71841558946E+01 -0.20392583812E+02  0.95985612112E+02  0.91495371621E+02 0.  0.
         13    1    3    3    0    0  0.45697003219E+02 -0.60074013516E+01 -0.39638444437E+02  0.60790808644E+02  0.10566000000E+00 0.  1.
         22    1    1    0    0    0 -0.19348517619E+02 -0.71841558946E+01  0.20392583812E+02  0.29014387888E+02  0.00000000000E+00 0.  1.
</event>
<event>
 5    1  0.9034713E-005  0.9118800E+02  0.7818608E-02  0.1130116E+00
         25   -1    0    0    0    0  0.00000000000E+00  0.00000000000E+00  0.99999998245E-14  0.12500000000E+03  0.12500000000E+03 0.  0.
        -13    1    3    3    0    0 -0.29564147728E+02  0.85191974244E+01  0.12436225392E+02  0.33185635773E+02  0.10566000000E+00 0.  1.
         23    2    1    0    0    0  0.21267887089E+02 -0.77854709220E+01 -0.19260312076E+02  0.95269608142E+02  0.90511888919E+02 0.  0.
         13    1    3    3    0    0  0.50832034818E+02 -0.16304668346E+02 -0.31696537469E+02  0.62083972369E+02  0.10566000000E+00 0. -1.
         22    1    1    0    0    0 -0.21267887089E+02  0.77854709220E+01  0.19260312076E+02  0.29730391858E+02  0.00000000000E+00 0. -1.
</event>
<event>
 5    1  0.9034713E-005  0.9118800E+02  0.7818608E-02  0.1130116E+00
         25   -1    0    0    0    0  0.00000000000E+00  0.00000000000E+00  0.99999998245E-14  0.12500000000E+03  0.12500000000E+03 0.  0.
        -13    1    3    3    0    0 -0.37413930505E+02  0.10544624868E+02  0.42234324527E+02  0.57399831373E+02  0.10566000000E+00 0. -1.
         23    2    1    0    0    0 -0.17690085955E+02 -0.13047112369E+02  0.19079113752E+02  0.95893662824E+02  0.91369665130E+02 0.  0.
         13    1    3    3    0    0  0.19723844550E+02 -0.23591737236E+02 -0.23155210775E+02  0.38493831450E+02  0.10566000000E+00 0.  1.
         22    1    1    0    0    0  0.17690085955E+02  0.13047112369E+02 -0.19079113752E+02  0.29106337176E+02  0.00000000000E+00 0. -1.
</event>
<event>
 5    1  0.9034713E-005  0.9118800E+02  0.7818608E-02  0.1130116E+00
         25   -1    0    0    0    0  0.00000000000E+00  0.00000000000E+00  0.99999998245E-14  0.12500000000E+03  0.12500000000E+03 0.  0.
        -13    1    3    3    0    0 -0.71775800128E+01  0.38112181579E+02 -0.26951982167E+02  0.47227921258E+02  0.10566000000E+00 0.  1.
         23    2    1    0    0    0 -0.22246813784E+02 -0.27693551045E+01 -0.25809497778E+02  0.90813449621E+02  0.84133004257E+02 0.  0.
         13    1    3    3    0    0 -0.15069233772E+02 -0.40881536684E+02  0.11424843892E+01  0.43585528363E+02  0.10566000000E+00 0. -1.
         22    1    1    0    0    0  0.22246813784E+02  0.27693551045E+01  0.25809497778E+02  0.34186550379E+02  0.00000000000E+00 0.  1.
</event>
<event>
 5    1  0.9034713E-005  0.9118800E+02  0.7818608E-02  0.1130116E+00
         25   -1    0    0    0    0  0.00000000000E+00  0.00000000000E+00  0.99999998245E-14  0.12500000000E+03  0.12500000000E+03 0.  0.
        -13    1    3    3    0    0  0.23046877437E+02  0.44376639167E+02 -0.22222627466E+02  0.54720206495E+02  0.10566000000E+00 0.  1.
         23    2    1    0    0    0 -0.90282103096E+01  0.18324051791E+02 -0.20471735579E+02  0.96079913329E+02  0.91624114360E+02 0.  0.
         13    1    3    3    0    0 -0.32075087746E+02 -0.26052587376E+02  0.17508918869E+01  0.41359706833E+02  0.10566000000E+00 0. -1.
         22    1    1    0    0    0  0.90282103096E+01 -0.18324051791E+02  0.20471735579E+02  0.28920086671E+02  0.00000000000E+00 0.  1.
</event>
<event>
 5    1  0.9034713E-005  0.9118800E+02  0.7818608E-02  0.1130116E+00
         25   -1    0    0    0    0  0.00000000000E+00  0.00000000000E+00  0.99999998245E-14  0.12500000000E+03  0.12500000000E+03 0.  0.
        -13    1    3    3    0    0  0.44488962343E+01  0.23727206913E+02  0.26679986700E+02  0.35980632011E+02  0.10566000000E+00 0. -1.
         23    2    1    0    0    0 -0.45229514187E+01 -0.24260571958E+02 -0.11322886417E+02  0.97847832534E+02  0.94005096317E+02 0.  0.
         13    1    3    3    0    0 -0.89718476529E+01 -0.47987778871E+02 -0.38002873117E+02  0.61867200523E+02  0.10566000000E+00 0.  1.
         22    1    1    0    0    0  0.45229514187E+01  0.24260571958E+02  0.11322886417E+02  0.27152167466E+02  0.00000000000E+00 0.  1.
</event>
<event>
 5    1  0.9034713E-005  0.9118800E+02  0.7818608E-02  0.1130116E+00
         25   -1    0    0    0    0  0.00000000000E+00  0.00000000000E+00  0.99999998245E-14  0.12500000000E+03  0.12500000000E+03 0.  0.
        -13    1    3    3    0    0  0.11761456010E+02  0.28497167365E+02  0.52314456404E+02  0.60722598003E+02  0.10566000000E+00 0.  1.
         23    2    1    0    0    0 -0.13761345357E+01  0.20810558661E+02  0.21756774661E+02  0.94861480765E+02  0.89946485153E+02 0.  0.
         13    1    3    3    0    0 -0.13137590545E+02 -0.76866087047E+01 -0.30557681743E+02  0.34138882762E+02  0.10566000000E+00 0. -1.
         22    1    1    0    0    0  0.13761345357E+01 -0.20810558661E+02 -0.21756774661E+02  0.30138519235E+02  0.00000000000E+00 0.  1.
</event>
<event>
 5    1  0.9034713E-005  0.9118800E+02  0.7818608E-02  0.1130116E+00
         25   -1    0    0    0    0  0.00000000000E+00  0.00000000000E+00  0.99999998245E-14  0.12500000000E+03  0.12500000000E+03 0.  0.
        -13    1    3    3    0    0  0.55351747093E+01  0.27448221592E+02  0.27148527737E+02  0.39001240364E+02  0.10566000000E+00 0. -1.
         23    2    1    0    0    0  0.25971213229E+02 -0.12984242366E+02 -0.62669517756E+01  0.95295300860E+02  0.90547364485E+02 0.  0.
         13    1    3    3    0    0  0.20436038520E+02 -0.40432463958E+02 -0.33415479512E+02  0.56294060496E+02  0.10566000000E+00 0.  1.
         22    1    1    0    0    0 -0.25971213229E+02  0.12984242366E+02  0.62669517756E+01  0.29704699140E+02  0.00000000000E+00 0.  1.
</event>
<event>
 5    1  0.9034713E-005  0.9118800E+02  0.7818608E-02  0.1130116E+00
         25   -1    0    0    0    0  0.00000000000E+00  0.00000000000E+00  0.99999998245E-14  0.12500000000E+03  0.12500000000E+03 0.  0.
        -13    1    3    3    0    0 -0.31886009519E+02  0.12272742717E+00 -0.10941837788E+02  0.33711535759E+02  0.10566000000E+00 0.  1.
         23    2    1    0    0    0  0.22266771186E+02  0.27064927950E+01  0.18963762319E+02  0.95627249301E+02  0.91004463216E+02 0.  0.
         13    1    3    3    0    0  0.54152780705E+02  0.25837653678E+01  0.29905600107E+02  0.61915713542E+02  0.10566000000E+00 0. -1.
         22    1    1    0    0    0 -0.22266771186E+02 -0.27064927950E+01 -0.18963762319E+02  0.29372750699E+02  0.00000000000E+00 0. -1.
</event>
<event>
 5    1  0.9034713E-005  0.9118800E+02  0.7818608E-02  0.1130116E+00
         25   -1    0    0    0    0  0.00000000000E+00  0.00000000000E+00  0.99999998245E-14  0.12500000000E+03  0.12500000000E+03 0.  0.
        -13    1    3    3    0    0 -0.47029089811E+01 -0.34381082590E+02 -0.26372540172E+01  0.34801472178E+02  0.10566000000E+00 0.  1.
         23    2    1    0    0    0 -0.13212687532E+02  0.25918313125E+02  0.17445821496E+01  0.95855915970E+02  0.91318010231E+02 0.  0.
         13    1    3    3    0    0 -0.85097785511E+01  0.60299395715E+02  0.43818361668E+01  0.61054443792E+02  0.10566000000E+00 0. -1.
         22    1    1    0    0    0  0.13212687532E+02 -0.25918313125E+02 -0.17445821496E+01  0.29144084030E+02  0.00000000000E+00 0. -1.
</event>
<event>
 5    1  0.9034713E-005  0.9118800E+02  0.7818608E-02  0.1130116E+00
         25   -1    0    0    0    0  0.00000000000E+00  0.00000000000E+00  0.99999998245E-14  0.12500000000E+03  0.12500000000E+03 0.  0.
        -13    1    3    3    0    0 -0.53250612455E+02  0.19323337060E+02 -0.42473853134E+01  0.56807310516E+02  0.10566000000E+00 0.  1.
         23    2    1    0    0    0 -0.20513210304E+02  0.19446435585E+02 -0.17084723777E+02  0.91972080894E+02  0.85837172737E+02 0.  0.
         13    1    3    3    0    0  0.32737402152E+02  0.12309852441E+00 -0.12837338464E+02  0.35164770378E+02  0.10566000000E+00 0. -1.
         22    1    1    0    0    0  0.20513210304E+02 -0.19446435585E+02  0.17084723777E+02  0.33027919106E+02  0.00000000000E+00 0.  1.
</event>
<event>
 5    1  0.9034713E-005  0.9118800E+02  0.7818608E-02  0.1130116E+00
         25   -1    0    0    0    0  0.00000000000E+00  0.00000000000E+00  0.99999998245E-14  0.12500000000E+03  0.12500000000E+03 0.  0.
        -13    1    3    3    0    0 -0.34451651811E+01  0.37259179871E+02 -0.10374758704E+01  0.37432648423E+02  0.10566000000E+00 0.  1.
         23    2    1    0    0    0 -0.18427171558E+02 -0.17653202571E+02  0.13431533257E+02  0.96162484534E+02  0.91736694586E+02 0.  0.
         13    1    3    3    0    0 -0.14982006376E+02 -0.54912382441E+02  0.14469009127E+02  0.58729836111E+02  0.10566000000E+00 0. -1.
         22    1    1    0    0    0  0.18427171558E+02  0.17653202571E+02 -0.13431533257E+02  0.28837515466E+02  0.00000000000E+00 0. -1.
</event>
<event>
 5    1  0.9034713E-005  0.9118800E+02  0.7818608E-02  0.1130116E+00
         25   -1    0    0    0    0  0.00000000000E+00  0.00000000000E+00  0.99999998245E-14  0.12500000000E+03  0.12500000000E+03 0.  0.
        -13    1    3    3    0    0  0.18892840207E+02 -0.31074868052E+02 -0.18254515427E+02  0.40691833739E+02  0.10566000000E+00 0. -1.
         23    2    1    0    0    0  0.21381741173E+02  0.87532902053E+01  0.18849510598E+02  0.95182169851E+02  0.90391053002E+02 0.  0.
         13    1    3    3    0    0  0.24889009661E+01  0.39828158258E+02  0.37104026026E+02  0.54490336112E+02  0.10566000000E+00 0.  1.
         22    1    1    0    0    0 -0.21381741173E+02 -0.87532902053E+01 -0.18849510598E+02  0.29817830149E+02  0.00000000000E+00 0.  1.
</event>
<event>
 5    1  0.9034713E-005  0.9118800E+02  0.7818608E-02  0.1130116E+00
         25   -1    0    0    0    0  0.00000000000E+00  0.00000000000E+00  0.99999998245E-14  0.12500000000E+03  0.12500000000E+03 0.  0.
        -13    1    3    3    0    0 -0.17994449175E+02  0.25287164928E+02 -0.13495992825E+02  0.33843668500E+02  0.10566000000E+00 0.  1.
         23    2    1    0    0    0  0.27345226719E+02 -0.84923796998E+01  0.94282472715E+01  0.94854124927E+02  0.89936262051E+02 0.  0.
         13    1    3    3    0    0  0.45339675894E+02 -0.33779544627E+02  0.22924240096E+02  0.61010456427E+02  0.10566000000E+00 0. -1.
         22    1    1    0    0    0 -0.27345226719E+02  0.84923796998E+01 -0.94282472715E+01  0.30145875073E+02  0.00000000000E+00 0. -1.
</event>
<event>
 5    1  0.9034713E-005  0.9118800E+02  0.7818608E-02  0.1130116E+00
         25   -1    0    0    0    0  0.00000000000E+00  0.00000000000E+00  0.99999998245E-14  0.12500000000E+03  0.12500000000E+03 0.  0.
        -13    1    3    3    0    0 -0.22308306653E+02  0.13642537946E+02 -0.26810793398E+02  0.37451424459E+02  0.10566000000E+00 0.  1.
         23    2    1    0    0    0  0.38518396087E+01 -0.27339419814E+02  0.68094608520E+01  0.96563240318E+02  0.92281146934E+02 0.  0.
         13    1    3    3    0    0  0.26160146262E+02 -0.40981957760E+02  0.33620254250E+02  0.59111815859E+02  0.10566000000E+00 0. -1.
         22    1    1    0    0    0 -0.38518396087E+01  0.27339419814E+02 -0.68094608520E+01  0.28436759682E+02  0.00000000000E+00 0. -1.
</event>
<event>
 5    1  0.9034713E-005  0.9118800E+02  0.7818608E-02  0.1130116E+00
         25   -1    0    0    0    0  0.00000000000E+00  0.00000000000E+00  0.99999998245E-14  0.12500000000E+03  0.12500000000E+03 0.  0.
        -13    1    3    3    0    0 -0.23038180993E+02 -0.18319010308E+02  0.96104622786E+01  0.30963140528E+02  0.10566000000E+00 0. -1.
         23    2    1    0    0    0  0.28634434257E+02  0.11246206125E+02 -0.83079092869E+01  0.93134198047E+02  0.87513139080E+02 0.  0.
         13    1    3    3    0    0  0.51672615249E+02  0.29565216433E+02 -0.17918371566E+02  0.62171057519E+02  0.10566000000E+00 0.  1.
         22    1    1    0    0    0 -0.28634434257E+02 -0.11246206125E+02  0.83079092869E+01  0.31865801953E+02  0.00000000000E+00 0.  1.
</event>
<event>
 5    1  0.9034713E-005  0.9118800E+02  0.7818608E-02  0.1130116E+00
         25   -1    0    0    0    0  0.00000000000E+00  0.00000000000E+00  0.99999998245E-14  0.12500000000E+03  0.12500000000E+03 0.  0.
        -13    1    3    3    0    0 -0.36368870224E+02 -0.11310802523E+02  0.15679585326E+02  0.41188463617E+02  0.10566000000E+00 0.  1.
         23    2    1    0    0    0 -0.36784724384E+01  0.27470285527E+02 -0.64767690073E+01  0.96537809586E+02  0.92246693146E+02 0.  0.
         13    1    3    3    0    0  0.32690397786E+02  0.38781088050E+02 -0.22156354333E+02  0.55349345968E+02  0.10566000000E+00 0. -1.
         22    1    1    0    0    0  0.36784724384E+01 -0.27470285527E+02  0.64767690073E+01  0.28462190414E+02  0.00000000000E+00 0. -1.
</event>
<event>
 5    1  0.9034713E-005  0.9118800E+02  0.7818608E-02  0.1130116E+00
         25   -1    0    0    0    0  0.00000000000E+00  0.00000000000E+00  0.99999998245E-14  0.12500000000E+03  0.12500000000E+03 0.  0.
        -13    1    3    3    0    0  0.28294433490E+02 -0.84216846545E+01 -0.20881762664E+02  0.36160184111E+02  0.10566000000E+00 0.  1.
         23    2    1    0    0    0 -0.65778488750E+01  0.16295507369E+02  0.22091545216E+02  0.96771503294E+02  0.92562820957E+02 0.  0.
         13    1    3    3    0    0 -0.34872282365E+02  0.24717192024E+02  0.42973307880E+02  0.60611319183E+02  0.10566000000E+00 0. -1.
         22    1    1    0    0    0  0.65778488750E+01 -0.16295507369E+02 -0.22091545216E+02  0.28228496706E+02  0.00000000000E+00 0. -1.
</event>
<event>
 5    1  0.9034713E-005  0.9118800E+02  0.7818608E-02  0.1130116E+00
         25   -1    0    0    0    0  0.00000000000E+00  0.00000000000E+00  0.99999998245E-14  0.12500000000E+03  0.12500000000E+03 0.  0.
        -13    1    3    3    0    0  0.39187605968E+02  0.22096606074E+02  0.57515681034E+01  0.45354384145E+02  0.10566000000E+00 0.  1.
         23    2    1    0    0    0 -0.96520617948E+01  0.23284284721E+02  0.15827861470E+02  0.95236911945E+02  0.90466723088E+02 0.  0.
         13    1    3    3    0    0 -0.48839667763E+02  0.11876786469E+01  0.10076293367E+02  0.49882527801E+02  0.10566000000E+00 0. -1.
         22    1    1    0    0    0  0.96520617948E+01 -0.23284284721E+02 -0.15827861470E+02  0.29763088055E+02  0.00000000000E+00 0. -1.
</event>
<event>
 5    1  0.9034713E-005  0.9118800E+02  0.7818608E-02  0.1130116E+00
         25   -1    0    0    0    0  0.00000000000E+00  0.00000000000E+00  0.99999998245E-14  0.12500000000E+03  0.12500000000E+03 0.  0.
        -13    1    3    3    0    0  0.23427810140E+02 -0.33710956582E+02 -0.14117694381E+02  0.43412110526E+02  0.10566000000E+00 0. -1.
         23    2    1    0    0    0 -0.19372452613E+02 -0.51170549990E+01 -0.21726602922E+02  0.95444603764E+02  0.90753242042E+02 0.  0.
         13    1    3    3    0    0 -0.42800262753E+02  0.28593901583E+02 -0.76089085412E+01  0.52032493239E+02  0.10566000000E+00 0.  1.
         22    1    1    0    0    0  0.19372452613E+02  0.51170549990E+01  0.21726602922E+02  0.29555396236E+02  0.00000000000E+00 0. -1.
</event>
<event>
 5    1  0.9034713E-005  0.9118800E+02  0.7818608E-02  0.1130116E+00
         25   -1    0    0    0    0  0.00000000000E+00  0.00000000000E+00  0.99999998245E-14  0.12500000000E+03  0.12500000000E+03 0.  0.
        -13    1    3    3    0    0 -0.45009034262E+02 -0.45046570054E+01  0.39509652760E+02  0.60059378328E+02  0.10566000000E+00 0. -1.
         23    2    1    0    0    0 -0.27780753854E+02  0.15959973685E+01  0.87662576659E+01  0.95825271796E+02  0.91276053535E+02 0.  0.
         13    1    3    3    0    0  0.17228280407E+02  0.61006543739E+01 -0.30743395094E+02  0.35765893468E+02  0.10566000000E+00 0.  1.
         22    1    1    0    0    0  0.27780753854E+02 -0.15959973685E+01 -0.87662576659E+01  0.29174728204E+02  0.00000000000E+00 0. -1.
</event>
<event>
 5    1  0.9034713E-005  0.9118800E+02  0.7818608E-02  0.1130116E+00
         25   -1    0    0    0    0  0.00000000000E+00  0.00000000000E+00  0.99999998245E-14  0.12500000000E+03  0.12500000000E+03 0.  0.
        -13    1    3    3    0    0 -0.63988575377E+01 -0.38336224364E+02  0.41212112126E+02  0.56648573029E+02  0.10566000000E+00 0.  1.
         23    2    1    0    0    0 -0.14959962330E+02 -0.20006897321E+02  0.30609639957E+01  0.99831648566E+02  0.96606998408E+02 0.  0.
         13    1    3    3    0    0 -0.85611047924E+01  0.18329327043E+02 -0.38151148130E+02  0.43183075537E+02  0.10566000000E+00 0. -1.
         22    1    1    0    0    0  0.14959962330E+02  0.20006897321E+02 -0.30609639957E+01  0.25168351434E+02  0.00000000000E+00 0.  1.
</event>
<event>
 5    1  0.9034713E-005  0.9118800E+02  0.7818608E-02  0.1130116E+00
         25   -1    0    0    0    0  0.00000000000E+00  0.00000000000E+00  0.99999998245E-14  0.12500000000E+03  0.12500000000E+03 0.  0.
        -13    1    3    3    0    0 -0.33348997890E+02  0.39583466759E+02 -0.35018754583E+02  0.62492646267E+02  0.10566000000E+00 0.  1.
         23    2    1    0    0    0 -0.14833950608E+02  0.17437920244E+02 -0.14690185469E+02  0.97798369494E+02  0.93939301539E+02 0.  0.
         13    1    3    3    0    0  0.18515047282E+02 -0.22145546515E+02  0.20328569114E+02  0.35305723227E+02  0.10566000000E+00 0. -1.
         22    1    1    0    0    0  0.14833950608E+02 -0.17437920244E+02  0.14690185469E+02  0.27201630506E+02  0.00000000000E+00 0.  1.
</event>
<event>
 5    1  0.9034713E-005  0.9118800E+02  0.7818608E-02  0.1130116E+00
         25   -1    0    0    0    0  0.00000000000E+00  0.00000000000E+00  0.99999998245E-14  0.12500000000E+03  0.12500000000E+03 0.  0.
        -13    1    3    3    0    0 -0.20171440264E+01 -0.28013707562E+02 -0.40065590039E+02  0.48929534543E+02  0.10566000000E+00 0. -1.
         23    2    1    0    0    0 -0.26737195974E+02 -0.34318358447E+00 -0.10901531469E+02  0.96123732723E+02  0.91683876339E+02 0.  0.
         13    1    3    3    0    0 -0.24720051947E+02  0.27670523977E+02  0.29164058570E+02  0.47194198179E+02  0.10566000000E+00 0.  1.
         22    1    1    0    0    0  0.26737195974E+02  0.34318358447E+00  0.10901531469E+02  0.28876267277E+02  0.00000000000E+00 0. -1.
</event>
<event>
 5    1  0.9034713E-005  0.9118800E+02  0.7818608E-02  0.1130116E+00
         25   -1    0    0    0    0  0.00000000000E+00  0.00000000000E+00  0.99999998245E-14  0.12500000000E+03  0.12500000000E+03 0.  0.
        -13    1    3    3    0    0 -0.16646980842E+01 -0.19688307661E+02  0.18038499570E+02  0.26754425971E+02  0.10566000000E+00 0.  1.
         23    2    1    0    0    0 -0.41950977764E+02  0.78764709789E+01 -0.72094765279E+01  0.81711434741E+02  0.69302660015E+02 0.  0.
         13    1    3    3    0    0 -0.40286279679E+02  0.27564778640E+02 -0.25247976097E+02  0.54957008770E+02  0.10566000000E+00 0. -1.
         22    1    1    0    0    0  0.41950977764E+02 -0.78764709789E+01  0.72094765279E+01  0.43288565259E+02  0.00000000000E+00 0. -1.
</event>
<event>
 5    1  0.9034713E-005  0.9118800E+02  0.7818608E-02  0.1130116E+00
         25   -1    0    0    0    0  0.00000000000E+00  0.00000000000E+00  0.99999998245E-14  0.12500000000E+03  0.12500000000E+03 0.  0.
        -13    1    3    3    0    0 -0.12666779879E+02  0.28070698408E+02 -0.13941104595E+02  0.33804984588E+02  0.10566000000E+00 0.  1.
         23    2    1    0    0    0  0.18869085882E+02 -0.21197429205E+02  0.67072668021E+01  0.95839052915E+02  0.91294924442E+02 0.  0.
         13    1    3    3    0    0  0.31535865761E+02 -0.49268127614E+02  0.20648371397E+02  0.62034068327E+02  0.10566000000E+00 0. -1.
         22    1    1    0    0    0 -0.18869085882E+02  0.21197429205E+02 -0.67072668021E+01  0.29160947085E+02  0.00000000000E+00 0. -1.
</event>
<event>
 5    1  0.9034713E-005  0.9118800E+02  0.7818608E-02  0.1130116E+00
         25   -1    0    0    0    0  0.00000000000E+00  0.00000000000E+00  0.99999998245E-14  0.12500000000E+03  0.12500000000E+03 0.  0.
        -13    1    3    3    0    0 -0.23090614510E+02 -0.31851168777E+02  0.30255440747E+02  0.49629389375E+02  0.10566000000E+00 0. -1.
         23    2    1    0    0    0 -0.77986513031E+01 -0.26758553076E+02 -0.11849451163E+02  0.94713887378E+02  0.89741137972E+02 0.  0.
         13    1    3    3    0    0  0.15291963207E+02  0.50926157012E+01 -0.42104891910E+02  0.45084498003E+02  0.10566000000E+00 0.  1.
         22    1    1    0    0    0  0.77986513031E+01  0.26758553076E+02  0.11849451163E+02  0.30286112622E+02  0.00000000000E+00 0. -1.
</event>
<event>
 5    1  0.9034713E-005  0.9118800E+02  0.7818608E-02  0.1130116E+00
         25   -1    0    0    0    0  0.00000000000E+00  0.00000000000E+00  0.99999998245E-14  0.12500000000E+03  0.12500000000E+03 0.  0.
        -13    1    3    3    0    0 -0.31271345906E+02 -0.21263640592E+02 -0.12915143164E+02  0.39960625282E+02  0.10566000000E+00 0.  1.
         23    2    1    0    0    0  0.10313317313E+02  0.99796639848E+00  0.23347031365E+02  0.99457010268E+02  0.96121030825E+02 0.  0.
         13    1    3    3    0    0  0.41584663218E+02  0.22261606990E+02  0.36262174528E+02  0.59496384986E+02  0.10566000000E+00 0. -1.
         22    1    1    0    0    0 -0.10313317313E+02 -0.99796639848E+00 -0.23347031365E+02  0.25542989732E+02  0.00000000000E+00 0. -1.
</event>
<event>
 5    1  0.9034713E-005  0.9118800E+02  0.7818608E-02  0.1130116E+00
         25   -1    0    0    0    0  0.00000000000E+00  0.00000000000E+00  0.99999998245E-14  0.12500000000E+03  0.12500000000E+03 0.  0.
        -13    1    3    3    0    0 -0.34386820246E+02  0.30770860641E+02 -0.28906671939E+02  0.54450951487E+02  0.10566000000E+00 0. -1.
         23    2    1    0    0    0 -0.30628966946E+02  0.15115491533E+01 -0.21817487769E+01  0.94256245760E+02  0.89101410988E+02 0.  0.
         13    1    3    3    0    0  0.37578532997E+01 -0.29259311487E+02  0.26724923162E+02  0.39805294273E+02  0.10566000000E+00 0.  1.
         22    1    1    0    0    0  0.30628966946E+02 -0.15115491533E+01  0.21817487769E+01  0.30743754240E+02  0.00000000000E+00 0. -1.
</event>
<event>
 5    1  0.9034713E-005  0.9118800E+02  0.7818608E-02  0.1130116E+00
         25   -1    0    0    0    0  0.00000000000E+00  0.00000000000E+00  0.99999998245E-14  0.12500000000E+03  0.12500000000E+03 0.  0.
        -13    1    3    3    0    0 -0.55451414306E+01 -0.42751413908E+02 -0.10452983789E+02  0.44358855021E+02  0.10566000000E+00 0. -1.
         23    2    1    0    0    0  0.27441970022E+02 -0.34065407891E+01 -0.96598529874E+01  0.95708721459E+02  0.91116301312E+02 0.  0.
         13    1    3    3    0    0  0.32987111452E+02  0.39344873119E+02  0.79313080148E+00  0.51349866438E+02  0.10566000000E+00 0.  1.
         22    1    1    0    0    0 -0.27441970022E+02  0.34065407891E+01  0.96598529874E+01  0.29291278541E+02  0.00000000000E+00 0. -1.
</event>
<event>
 5    1  0.9034713E-005  0.9118800E+02  0.7818608E-02  0.1130116E+00
         25   -1    0    0    0    0  0.00000000000E+00  0.00000000000E+00  0.99999998245E-14  0.12500000000E+03  0.12500000000E+03 0.  0.
        -13    1    3    3    0    0 -0.15149166252E+02 -0.80377289796E+01  0.37696656475E+02  0.41414386373E+02  0.10566000000E+00 0.  1.
         23    2    1    0    0    0  0.26418640710E+02 -0.12757706552E+02  0.34870673827E+01  0.95455740111E+02  0.90768579519E+02 0.  0.
         13    1    3    3    0    0  0.41567806962E+02 -0.47199775723E+01 -0.34209589092E+02  0.54041353738E+02  0.10566000000E+00 0. -1.
         22    1    1    0    0    0 -0.26418640710E+02  0.12757706552E+02 -0.34870673827E+01  0.29544259889E+02  0.00000000000E+00 0. -1.
</event>
<event>
 5    1  0.9034713E-005  0.9118800E+02  0.7818608E-02  0.1130116E+00
         25   -1    0    0    0    0  0.00000000000E+00  0.00000000000E+00  0.99999998245E-14  0.12500000000E+03  0.12500000000E+03 0.  0.
        -13    1    3    3    0    0 -0.20802667944E+02  0.12787228029E+02  0.51865123498E+02  0.57325966139E+02  0.10566000000E+00 0.  1.
         23    2    1    0    0    0 -0.59259949813E+01  0.22572657986E+02  0.18221129540E+02  0.95391692605E+02  0.90680334975E+02 0.  0.
         13    1    3    3    0    0  0.14876672962E+02  0.97854299572E+01 -0.33643993958E+02  0.38065726466E+02  0.10566000000E+00 0. -1.
         22    1    1    0    0    0  0.59259949813E+01 -0.22572657986E+02 -0.18221129540E+02  0.29608307395E+02  0.00000000000E+00 0.  1.
</event>
<event>
 5    1  0.9034713E-005  0.9118800E+02  0.7818608E-02  0.1130116E+00
         25   -1    0    0    0    0  0.00000000000E+00  0.00000000000E+00  0.99999998245E-14  0.12500000000E+03  0.12500000000E+03 0.  0.
        -13    1    3    3    0    0  0.15768448863E+01  0.29517432553E+02 -0.21472399691E+02  0.36535467382E+02  0.10566000000E+00 0.  1.
         23    2    1    0    0    0  0.33851168234E+02  0.13387010390E+01  0.99769581384E+01  0.89683808176E+02  0.82437564520E+02 0.  0.
         13    1    3    3    0    0  0.32274323348E+02 -0.28178731514E+02  0.31449357829E+02  0.53148340794E+02  0.10566000000E+00 0. -1.
         22    1    1    0    0    0 -0.33851168234E+02 -0.13387010390E+01 -0.99769581384E+01  0.35316191824E+02  0.00000000000E+00 0. -1.
</event>
<event>
 5    1  0.9034713E-005  0.9118800E+02  0.7818608E-02  0.1130116E+00
         25   -1    0    0    0    0  0.00000000000E+00  0.00000000000E+00  0.99999998245E-14  0.12500000000E+03  0.12500000000E+03 0.  0.
        -13    1    3    3    0    0 -0.45751593000E+01  0.34338732712E+02  0.22254242885E+02  0.41174544774E+02  0.10566000000E+00 0. -1.
         23    2    1    0    0    0  0.15395269973E+02  0.77777006395E+01 -0.22331989665E+02  0.96782545700E+02  0.92577731799E+02 0.  0.
         13    1    3    3    0    0  0.19970429273E+02 -0.26561032073E+02 -0.44586232549E+02  0.55608000927E+02  0.10566000000E+00 0.  1.
         22    1    1    0    0    0 -0.15395269973E+02 -0.77777006395E+01  0.22331989665E+02  0.28217454300E+02  0.00000000000E+00 0.  1.
</event>
<event>
 5    1  0.9034713E-005  0.9118800E+02  0.7818608E-02  0.1130116E+00
         25   -1    0    0    0    0  0.00000000000E+00  0.00000000000E+00  0.99999998245E-14  0.12500000000E+03  0.12500000000E+03 0.  0.
        -13    1    3    3    0    0  0.17147905426E+02  0.47259398204E+02  0.28927335451E+02  0.58002614419E+02  0.10566000000E+00 0. -1.
         23    2    1    0    0    0 -0.53655084311E+01  0.28469425661E+02  0.55555913983E+01  0.95501500479E+02  0.90831575566E+02 0.  0.
         13    1    3    3    0    0 -0.22513413857E+02 -0.18789972543E+02 -0.23371744053E+02  0.37498886060E+02  0.10566000000E+00 0.  1.
         22    1    1    0    0    0  0.53655084311E+01 -0.28469425661E+02 -0.55555913983E+01  0.29498499521E+02  0.00000000000E+00 0.  1.
</event>
<event>
 5    1  0.9034713E-005  0.9118800E+02  0.7818608E-02  0.1130116E+00
         25   -1    0    0    0    0  0.00000000000E+00  0.00000000000E+00  0.99999998245E-14  0.12500000000E+03  0.12500000000E+03 0.  0.
        -13    1    3    3    0    0 -0.34219372700E+02 -0.31492626417E+01  0.83449585938E+01  0.35362873485E+02  0.10566000000E+00 0. -1.
         23    2    1    0    0    0  0.25900288964E+02 -0.53783494974E+00  0.13550826683E+02  0.95764077941E+02  0.91192211758E+02 0.  0.
         13    1    3    3    0    0  0.60119661664E+02  0.26114276920E+01  0.52058680892E+01  0.60401204456E+02  0.10566000000E+00 0.  1.
         22    1    1    0    0    0 -0.25900288964E+02  0.53783494974E+00 -0.13550826683E+02  0.29235922059E+02  0.00000000000E+00 0.  1.
</event>
<event>
 5    1  0.9034713E-005  0.9118800E+02  0.7818608E-02  0.1130116E+00
         25   -1    0    0    0    0  0.00000000000E+00  0.00000000000E+00  0.99999998245E-14  0.12500000000E+03  0.12500000000E+03 0.  0.
        -13    1    3    3    0    0 -0.30001578548E+02  0.31188443748E+02  0.12835273523E+02  0.45139441171E+02  0.10566000000E+00 0. -1.
         23    2    1    0    0    0  0.12489002603E+02  0.27435255361E+02 -0.96368055648E+01  0.93352939407E+02  0.87825024063E+02 0.  0.
         13    1    3    3    0    0  0.42490581151E+02 -0.37531883871E+01 -0.22472079088E+02  0.48213498236E+02  0.10566000000E+00 0.  1.
         22    1    1    0    0    0 -0.12489002603E+02 -0.27435255361E+02  0.96368055648E+01  0.31647060593E+02  0.00000000000E+00 0.  1.
</event>
<event>
 5    1  0.9034713E-005  0.9118800E+02  0.7818608E-02  0.1130116E+00
         25   -1    0    0    0    0  0.00000000000E+00  0.00000000000E+00  0.99999998245E-14  0.12500000000E+03  0.12500000000E+03 0.  0.
        -13    1    3    3    0    0 -0.31874579927E+02 -0.15257639011E+02 -0.48445291321E+02  0.59964504575E+02  0.10566000000E+00 0.  1.
         23    2    1    0    0    0 -0.19719970233E+02 -0.10724457320E+02 -0.10211965446E+02  0.10033878655E+03  0.97260971804E+02 0.  0.
         13    1    3    3    0    0  0.12154609695E+02  0.45331816911E+01  0.38233325875E+02  0.40374281970E+02  0.10566000000E+00 0. -1.
         22    1    1    0    0    0  0.19719970233E+02  0.10724457320E+02  0.10211965446E+02  0.24661213455E+02  0.00000000000E+00 0.  1.
</event>
<event>
 5    1  0.9034713E-005  0.9118800E+02  0.7818608E-02  0.1130116E+00
         25   -1    0    0    0    0  0.00000000000E+00  0.00000000000E+00  0.99999998245E-14  0.12500000000E+03  0.12500000000E+03 0.  0.
        -13    1    3    3    0    0  0.25749901973E+02  0.25934383514E+02  0.13748696712E+02  0.39047247345E+02  0.10566000000E+00 0.  1.
         23    2    1    0    0    0  0.55502665694E+01 -0.24954279132E+02  0.17646230655E+02  0.93936984011E+02  0.88652388590E+02 0.  0.
         13    1    3    3    0    0 -0.20199635404E+02 -0.50888662647E+02  0.38975339437E+01  0.54889736666E+02  0.10566000000E+00 0. -1.
         22    1    1    0    0    0 -0.55502665694E+01  0.24954279132E+02 -0.17646230655E+02  0.31063015989E+02  0.00000000000E+00 0.  1.
</event>
<event>
 5    1  0.9034713E-005  0.9118800E+02  0.7818608E-02  0.1130116E+00
         25   -1    0    0    0    0  0.00000000000E+00  0.00000000000E+00  0.99999998245E-14  0.12500000000E+03  0.12500000000E+03 0.  0.
        -13    1    3    3    0    0  0.42440186435E+02 -0.41728377624E+02 -0.48523697790E+01  0.59715857025E+02  0.10566000000E+00 0. -1.
         23    2    1    0    0    0  0.24204830462E+02 -0.14974062493E+02 -0.13886995131E+02  0.93330693108E+02  0.87793355541E+02 0.  0.
         13    1    3    3    0    0 -0.18235355973E+02  0.26754315131E+02 -0.90346253520E+01  0.33614836083E+02  0.10566000000E+00 0.  1.
         22    1    1    0    0    0 -0.24204830462E+02  0.14974062493E+02  0.13886995131E+02  0.31669306892E+02  0.00000000000E+00 0. -1.
</event>
<event>
 5    1  0.9034713E-005  0.9118800E+02  0.7818608E-02  0.1130116E+00
         25   -1    0    0    0    0  0.00000000000E+00  0.00000000000E+00  0.99999998245E-14  0.12500000000E+03  0.12500000000E+03 0.  0.
        -13    1    3    3    0    0  0.11246954813E+02 -0.16886627179E+02 -0.41526264825E+02  0.46217897014E+02  0.10566000000E+00 0. -1.
         23    2    1    0    0    0 -0.60971964331E+01  0.21064613581E+02 -0.26581586171E+02  0.90540248506E+02  0.83726113767E+02 0.  0.
         13    1    3    3    0    0 -0.17344151246E+02  0.37951240760E+02  0.14944678654E+02  0.44322351492E+02  0.10566000000E+00 0.  1.
         22    1    1    0    0    0  0.60971964331E+01 -0.21064613581E+02  0.26581586171E+02  0.34459751494E+02  0.00000000000E+00 0.  1.
</event>
<event>
 5    1  0.9034713E-005  0.9118800E+02  0.7818608E-02  0.1130116E+00
         25   -1    0    0    0    0  0.00000000000E+00  0.00000000000E+00  0.99999998245E-14  0.12500000000E+03  0.12500000000E+03 0.  0.
        -13    1    3    3    0    0  0.25610618511E+02 -0.17178294172E+01  0.51975557426E+02  0.57968305583E+02  0.10566000000E+00 0. -1.
         23    2    1    0    0    0 -0.36940168348E+01 -0.55855444297E+01  0.28524316665E+02  0.95700158565E+02  0.91104553350E+02 0.  0.
         13    1    3    3    0    0 -0.29304635346E+02 -0.38677150125E+01 -0.23451240761E+02  0.37731852982E+02  0.10566000000E+00 0.  1.
         22    1    1    0    0    0  0.36940168348E+01  0.55855444297E+01 -0.28524316665E+02  0.29299841435E+02  0.00000000000E+00 0. -1.
</event>
<event>
 5    1  0.9034713E-005  0.9118800E+02  0.7818608E-02  0.1130116E+00
         25   -1    0    0    0    0  0.00000000000E+00  0.00000000000E+00  0.99999998245E-14  0.12500000000E+03  0.12500000000E+03 0.  0.
        -13    1    3    3    0    0 -0.17733505883E+02 -0.30362278365E+02 -0.33467982192E+01  0.35320778598E+02  0.10566000000E+00 0.  1.
         23    2    1    0    0    0  0.23219871619E+01  0.16950502881E+02  0.25530659478E+02  0.94266862417E+02  0.89116303807E+02 0.  0.
         13    1    3    3    0    0  0.20055493045E+02  0.47312781246E+02  0.28877457697E+02  0.58946083819E+02  0.10566000000E+00 0. -1.
         22    1    1    0    0    0 -0.23219871619E+01 -0.16950502881E+02 -0.25530659478E+02  0.30733137583E+02  0.00000000000E+00 0. -1.
</event>
<event>
 5    1  0.9034713E-005  0.9118800E+02  0.7818608E-02  0.1130116E+00
         25   -1    0    0    0    0  0.00000000000E+00  0.00000000000E+00  0.99999998245E-14  0.12500000000E+03  0.12500000000E+03 0.  0.
        -13    1    3    3    0    0 -0.19660470797E+02 -0.21169141842E+02 -0.25549249278E+02  0.38567369381E+02  0.10566000000E+00 0. -1.
         23    2    1    0    0    0  0.29456709144E+02 -0.64848761875E+01 -0.16481954264E+02  0.90628410728E+02  0.83857633415E+02 0.  0.
         13    1    3    3    0    0  0.49117179941E+02  0.14684265655E+02  0.90672950147E+01  0.52061041346E+02  0.10566000000E+00 0.  1.
         22    1    1    0    0    0 -0.29456709144E+02  0.64848761875E+01  0.16481954264E+02  0.34371589272E+02  0.00000000000E+00 0.  1.
</event>
<event>
 5    1  0.9034713E-005  0.9118800E+02  0.7818608E-02  0.1130116E+00
         25   -1    0    0    0    0  0.00000000000E+00  0.00000000000E+00  0.99999998245E-14  0.12500000000E+03  0.12500000000E+03 0.  0.
        -13    1    3    3    0    0  0.10107837068E+02 -0.43952960248E+02 -0.23936813951E+00  0.45100992738E+02  0.10566000000E+00 0.  1.
         23    2    1    0    0    0 -0.26322827400E+02 -0.93235730920E+01  0.78063232196E+01  0.96004156509E+02  0.91520703271E+02 0.  0.
         13    1    3    3    0    0 -0.36430664468E+02  0.34629387156E+02  0.80456913591E+01  0.50903163771E+02  0.10566000000E+00 0. -1.
         22    1    1    0    0    0  0.26322827400E+02  0.93235730920E+01 -0.78063232196E+01  0.28995843491E+02  0.00000000000E+00 0. -1.
</event>
<event>
 5    1  0.9034713E-005  0.9118800E+02  0.7818608E-02  0.1130116E+00
         25   -1    0    0    0    0  0.00000000000E+00  0.00000000000E+00  0.99999998245E-14  0.12500000000E+03  0.12500000000E+03 0.  0.
        -13    1    3    3    0    0  0.56753927166E+02  0.90069952801E+01 -0.23698889380E+02  0.62159333447E+02  0.10566000000E+00 0. -1.
         23    2    1    0    0    0  0.25334566966E+02  0.32796112278E+01 -0.15452520213E+02  0.95144070705E+02  0.90338351082E+02 0.  0.
         13    1    3    3    0    0 -0.31419360200E+02 -0.57273840523E+01  0.82463691667E+01  0.32984737257E+02  0.10566000000E+00 0.  1.
         22    1    1    0    0    0 -0.25334566966E+02 -0.32796112278E+01  0.15452520213E+02  0.29855929295E+02  0.00000000000E+00 0. -1.
</event>
<event>
 5    1  0.9034713E-005  0.9118800E+02  0.7818608E-02  0.1130116E+00
         25   -1    0    0    0    0  0.00000000000E+00  0.00000000000E+00  0.99999998245E-14  0.12500000000E+03  0.12500000000E+03 0.  0.
        -13    1    3    3    0    0 -0.10367000381E+02  0.34023769302E+02 -0.50754892135E+02  0.61977107178E+02  0.10566000000E+00 0.  1.
         23    2    1    0    0    0 -0.19239350871E+01  0.19992688988E+02 -0.20995800131E+02  0.95944316178E+02  0.91438936152E+02 0.  0.
         13    1    3    3    0    0  0.84430652938E+01 -0.14031080315E+02  0.29759092004E+02  0.33967209000E+02  0.10566000000E+00 0. -1.
         22    1    1    0    0    0  0.19239350871E+01 -0.19992688988E+02  0.20995800131E+02  0.29055683822E+02  0.00000000000E+00 0.  1.
</event>
<event>
 5    1  0.9034713E-005  0.9118800E+02  0.7818608E-02  0.1130116E+00
         25   -1    0    0    0    0  0.00000000000E+00  0.00000000000E+00  0.99999998245E-14  0.12500000000E+03  0.12500000000E+03 0.  0.
        -13    1    3    3    0    0  0.43412180758E+02  0.11505060095E+02  0.32613014256E+02  0.55503186475E+02  0.10566000000E+00 0. -1.
         23    2    1    0    0    0  0.85089092671E+01 -0.12088066639E+02  0.21206982319E+02  0.99149294187E+02  0.95720026884E+02 0.  0.
         13    1    3    3    0    0 -0.34903271491E+02 -0.23593126734E+02 -0.11406031937E+02  0.43646107712E+02  0.10566000000E+00 0.  1.
         22    1    1    0    0    0 -0.85089092671E+01  0.12088066639E+02 -0.21206982319E+02  0.25850705813E+02  0.00000000000E+00 0. -1.
</event>
<event>
 5    1  0.9034713E-005  0.9118800E+02  0.7818608E-02  0.1130116E+00
         25   -1    0    0    0    0  0.00000000000E+00  0.00000000000E+00  0.99999998245E-14  0.12500000000E+03  0.12500000000E+03 0.  0.
        -13    1    3    3    0    0  0.11663317506E+02 -0.55362559893E+02 -0.22481632818E+01  0.56622534519E+02  0.10566000000E+00 0.  1.
         23    2    1    0    0    0  0.18103039317E+02 -0.18891654326E+02  0.11884007120E+02  0.96262493829E+02  0.91872865729E+02 0.  0.
         13    1    3    3    0    0  0.64397218105E+01  0.36470905567E+02  0.14132170402E+02  0.39639959311E+02  0.10566000000E+00 0. -1.
         22    1    1    0    0    0 -0.18103039317E+02  0.18891654326E+02 -0.11884007120E+02  0.28737506171E+02  0.00000000000E+00 0.  1.
</event>
<event>
 5    1  0.9034713E-005  0.9118800E+02  0.7818608E-02  0.1130116E+00
         25   -1    0    0    0    0  0.00000000000E+00  0.00000000000E+00  0.99999998245E-14  0.12500000000E+03  0.12500000000E+03 0.  0.
        -13    1    3    3    0    0 -0.17872495272E+02  0.18483277344E+02 -0.26413923018E+02  0.36861417796E+02  0.10566000000E+00 0. -1.
         23    2    1    0    0    0  0.69361498533E+01 -0.29129699479E+02 -0.51070442425E+01  0.94623504688E+02  0.89615155928E+02 0.  0.
         13    1    3    3    0    0  0.24808645126E+02 -0.47612976823E+02  0.21306878776E+02  0.57762086892E+02  0.10566000000E+00 0.  1.
         22    1    1    0    0    0 -0.69361498533E+01  0.29129699479E+02  0.51070442425E+01  0.30376495312E+02  0.00000000000E+00 0.  1.
</event>
<event>
 5    1  0.9034713E-005  0.9118800E+02  0.7818608E-02  0.1130116E+00
         25   -1    0    0    0    0  0.00000000000E+00  0.00000000000E+00  0.99999998245E-14  0.12500000000E+03  0.12500000000E+03 0.  0.
        -13    1    3    3    0    0 -0.21773070330E+02  0.22736617385E+02  0.33528385132E+02  0.45991131051E+02  0.10566000000E+00 0.  1.
         23    2    1    0    0    0 -0.30524705924E+02 -0.99038552705E+01  0.10046799547E+01  0.92893094157E+02  0.87168076377E+02 0.  0.
         13    1    3    3    0    0 -0.87516355941E+01 -0.32640472656E+02 -0.32523705177E+02  0.46901963107E+02  0.10566000000E+00 0. -1.
         22    1    1    0    0    0  0.30524705924E+02  0.99038552705E+01 -0.10046799547E+01  0.32106905843E+02  0.00000000000E+00 0. -1.
</event>
<event>
 5    1  0.9034713E-005  0.9118800E+02  0.7818608E-02  0.1130116E+00
         25   -1    0    0    0    0  0.00000000000E+00  0.00000000000E+00  0.99999998245E-14  0.12500000000E+03  0.12500000000E+03 0.  0.
        -13    1    3    3    0    0 -0.50889436010E+02 -0.16515988346E+02  0.22482063715E+02  0.58034187522E+02  0.10566000000E+00 0. -1.
         23    2    1    0    0    0 -0.30217493174E+02  0.55097952278E+01  0.20007830276E+02  0.88342558606E+02  0.80378104305E+02 0.  0.
         13    1    3    3    0    0  0.20671942836E+02  0.22025783574E+02 -0.24742334384E+01  0.30308371084E+02  0.10566000000E+00 0.  1.
         22    1    1    0    0    0  0.30217493174E+02 -0.55097952278E+01 -0.20007830276E+02  0.36657441394E+02  0.00000000000E+00 0. -1.
</event>
<event>
 5    1  0.9034713E-005  0.9118800E+02  0.7818608E-02  0.1130116E+00
         25   -1    0    0    0    0  0.00000000000E+00  0.00000000000E+00  0.99999998245E-14  0.12500000000E+03  0.12500000000E+03 0.  0.
        -13    1    3    3    0    0  0.23884652137E+01  0.20059664825E+02 -0.28797308417E+02  0.35176569689E+02  0.10566000000E+00 0. -1.
         23    2    1    0    0    0 -0.27585110068E+01 -0.30081822513E+02  0.27934157506E+01  0.94663081893E+02  0.89670343332E+02 0.  0.
         13    1    3    3    0    0 -0.51469762205E+01 -0.50141487338E+02  0.31590724168E+02  0.59486512204E+02  0.10566000000E+00 0.  1.
         22    1    1    0    0    0  0.27585110068E+01  0.30081822513E+02 -0.27934157506E+01  0.30336918107E+02  0.00000000000E+00 0.  1.
</event>
<event>
 5    1  0.9034713E-005  0.9118800E+02  0.7818608E-02  0.1130116E+00
         25   -1    0    0    0    0  0.00000000000E+00  0.00000000000E+00  0.99999998245E-14  0.12500000000E+03  0.12500000000E+03 0.  0.
        -13    1    3    3    0    0  0.13587299841E+02 -0.26371786024E+02 -0.24500357143E+02  0.38475504924E+02  0.10566000000E+00 0. -1.
         23    2    1    0    0    0  0.10764965330E+02  0.13073986222E+02 -0.40473387484E+02  0.81126218664E+02  0.68238952703E+02 0.  0.
         13    1    3    3    0    0 -0.28223345110E+01  0.39445772246E+02 -0.15973030342E+02  0.42650713740E+02  0.10566000000E+00 0.  1.
         22    1    1    0    0    0 -0.10764965330E+02 -0.13073986222E+02  0.40473387484E+02  0.43873781336E+02  0.00000000000E+00 0.  1.
</event>
<event>
 5    1  0.9034713E-005  0.9118800E+02  0.7818608E-02  0.1130116E+00
         25   -1    0    0    0    0  0.00000000000E+00  0.00000000000E+00  0.99999998245E-14  0.12500000000E+03  0.12500000000E+03 0.  0.
        -13    1    3    3    0    0 -0.10524345475E+02 -0.40205844531E+02  0.99894882542E+01  0.42744272385E+02  0.10566000000E+00 0.  1.
         23    2    1    0    0    0 -0.16241089004E+02  0.13691151312E+02  0.17520960267E+02  0.97464483936E+02  0.93493962286E+02 0.  0.
         13    1    3    3    0    0 -0.57167435284E+01  0.53896995843E+02  0.75314720123E+01  0.54720211551E+02  0.10566000000E+00 0. -1.
         22    1    1    0    0    0  0.16241089004E+02 -0.13691151312E+02 -0.17520960267E+02  0.27535516064E+02  0.00000000000E+00 0. -1.
</event>
<event>
 5    1  0.9034713E-005  0.9118800E+02  0.7818608E-02  0.1130116E+00
         25   -1    0    0    0    0  0.00000000000E+00  0.00000000000E+00  0.99999998245E-14  0.12500000000E+03  0.12500000000E+03 0.  0.
        -13    1    3    3    0    0  0.34818031475E+02  0.86805216760E+01  0.17186358124E+02  0.39787294982E+02  0.10566000000E+00 0. -1.
         23    2    1    0    0    0 -0.19696702955E+02  0.15975461483E+02  0.16408968312E+02  0.94793548405E+02  0.89852028921E+02 0.  0.
         13    1    3    3    0    0 -0.54514734430E+02  0.72949398070E+01 -0.77738981205E+00  0.55006253424E+02  0.10566000000E+00 0.  1.
         22    1    1    0    0    0  0.19696702955E+02 -0.15975461483E+02 -0.16408968312E+02  0.30206451595E+02  0.00000000000E+00 0. -1.
</event>
<event>
 5    1  0.9034713E-005  0.9118800E+02  0.7818608E-02  0.1130116E+00
         25   -1    0    0    0    0  0.00000000000E+00  0.00000000000E+00  0.99999998245E-14  0.12500000000E+03  0.12500000000E+03 0.  0.
        -13    1    3    3    0    0  0.29523404995E+02  0.27013983164E+02  0.75195575393E+01  0.40717829492E+02  0.10566000000E+00 0. -1.
         23    2    1    0    0    0 -0.22115142943E+02  0.15290434684E+02 -0.97267288557E+01  0.96408284514E+02  0.92071011336E+02 0.  0.
         13    1    3    3    0    0 -0.51638547938E+02 -0.11723548480E+02 -0.17246286395E+02  0.55690455022E+02  0.10566000000E+00 0.  1.
         22    1    1    0    0    0  0.22115142943E+02 -0.15290434684E+02  0.97267288557E+01  0.28591715486E+02  0.00000000000E+00 0.  1.
</event>
<event>
 5    1  0.9034713E-005  0.9118800E+02  0.7818608E-02  0.1130116E+00
         25   -1    0    0    0    0  0.00000000000E+00  0.00000000000E+00  0.99999998245E-14  0.12500000000E+03  0.12500000000E+03 0.  0.
        -13    1    3    3    0    0  0.31315924238E+02  0.27139930032E+02  0.16029814045E+02  0.44432296985E+02  0.10566000000E+00 0. -1.
         23    2    1    0    0    0 -0.18348866535E+02  0.19873713175E+02  0.13698735010E+02  0.94680027715E+02  0.89693962610E+02 0.  0.
         13    1    3    3    0    0 -0.49664790773E+02 -0.72662168569E+01 -0.23310790340E+01  0.50247730730E+02  0.10566000000E+00 0.  1.
         22    1    1    0    0    0  0.18348866535E+02 -0.19873713175E+02 -0.13698735010E+02  0.30319972285E+02  0.00000000000E+00 0.  1.
</event>
<event>
 5    1  0.9034713E-005  0.9118800E+02  0.7818608E-02  0.1130116E+00
         25   -1    0    0    0    0  0.00000000000E+00  0.00000000000E+00  0.99999998245E-14  0.12500000000E+03  0.12500000000E+03 0.  0.
        -13    1    3    3    0    0  0.44514262485E+02  0.14886171037E+02 -0.26425010652E+02  0.53864738046E+02  0.10566000000E+00 0. -1.
         23    2    1    0    0    0  0.27966753937E+02  0.14025306050E+01  0.93111552113E+01  0.95490611168E+02  0.90816588749E+02 0.  0.
         13    1    3    3    0    0 -0.16547508548E+02 -0.13483640432E+02  0.35736165864E+02  0.41625873122E+02  0.10566000000E+00 0.  1.
         22    1    1    0    0    0 -0.27966753937E+02 -0.14025306050E+01 -0.93111552113E+01  0.29509388832E+02  0.00000000000E+00 0. -1.
</event>
<event>
 5    1  0.9034713E-005  0.9118800E+02  0.7818608E-02  0.1130116E+00
         25   -1    0    0    0    0  0.00000000000E+00  0.00000000000E+00  0.99999998245E-14  0.12500000000E+03  0.12500000000E+03 0.  0.
        -13    1    3    3    0    0  0.30308064241E+02  0.17535912633E+02  0.47409091670E+01  0.35335171906E+02  0.10566000000E+00 0. -1.
         23    2    1    0    0    0 -0.20511379581E+02  0.30766067647E+02  0.34251865648E+01  0.87865117291E+02  0.79632150057E+02 0.  0.
         13    1    3    3    0    0 -0.50819443822E+02  0.13230155015E+02 -0.13157226022E+01  0.52529945385E+02  0.10566000000E+00 0.  1.
         22    1    1    0    0    0  0.20511379581E+02 -0.30766067647E+02 -0.34251865648E+01  0.37134882709E+02  0.00000000000E+00 0.  1.
</event>
<event>
 5    1  0.9034713E-005  0.9118800E+02  0.7818608E-02  0.1130116E+00
         25   -1    0    0    0    0  0.00000000000E+00  0.00000000000E+00  0.99999998245E-14  0.12500000000E+03  0.12500000000E+03 0.  0.
        -13    1    3    3    0    0  0.34268914804E+02  0.40736860574E+02 -0.78938616144E+01  0.53816117906E+02  0.10566000000E+00 0.  1.
         23    2    1    0    0    0  0.92074936650E+01  0.19516278866E+02  0.18989140346E+02  0.96255426052E+02  0.91863248979E+02 0.  0.
         13    1    3    3    0    0 -0.25061421139E+02 -0.21220581708E+02  0.26883001960E+02  0.42439308146E+02  0.10566000000E+00 0. -1.
         22    1    1    0    0    0 -0.92074936650E+01 -0.19516278866E+02 -0.18989140346E+02  0.28744573948E+02  0.00000000000E+00 0.  1.
</event>
<event>
 5    1  0.9034713E-005  0.9118800E+02  0.7818608E-02  0.1130116E+00
         25   -1    0    0    0    0  0.00000000000E+00  0.00000000000E+00  0.99999998245E-14  0.12500000000E+03  0.12500000000E+03 0.  0.
        -13    1    3    3    0    0 -0.35801845079E+02 -0.20554062095E+02 -0.79486011499E+01  0.42040849229E+02  0.10566000000E+00 0. -1.
         23    2    1    0    0    0  0.89662628365E+01  0.20066259330E+01 -0.27618490009E+02  0.95893275566E+02  0.91369135333E+02 0.  0.
         13    1    3    3    0    0  0.44768107915E+02  0.22560688028E+02 -0.19669888860E+02  0.53852426337E+02  0.10566000000E+00 0.  1.
         22    1    1    0    0    0 -0.89662628365E+01 -0.20066259330E+01  0.27618490009E+02  0.29106724434E+02  0.00000000000E+00 0.  1.
</event>
<event>
 5    1  0.9034713E-005  0.9118800E+02  0.7818608E-02  0.1130116E+00
         25   -1    0    0    0    0  0.00000000000E+00  0.00000000000E+00  0.99999998245E-14  0.12500000000E+03  0.12500000000E+03 0.  0.
        -13    1    3    3    0    0 -0.29160723142E+02 -0.48861617332E+02 -0.23604162027E+02  0.61603352600E+02  0.10566000000E+00 0.  1.
         23    2    1    0    0    0 -0.12089333172E+02 -0.22546046540E+02 -0.27524073870E+01  0.99269630054E+02  0.95877043725E+02 0.  0.
         13    1    3    3    0    0  0.17071389970E+02  0.26315570792E+02  0.20851754641E+02  0.37666277454E+02  0.10566000000E+00 0. -1.
         22    1    1    0    0    0  0.12089333172E+02  0.22546046540E+02  0.27524073870E+01  0.25730369946E+02  0.00000000000E+00 0.  1.
</event>
<event>
 5    1  0.9034713E-005  0.9118800E+02  0.7818608E-02  0.1130116E+00
         25   -1    0    0    0    0  0.00000000000E+00  0.00000000000E+00  0.99999998245E-14  0.12500000000E+03  0.12500000000E+03 0.  0.
        -13    1    3    3    0    0 -0.21667365501E+02 -0.41234285655E+02  0.34443347207E+02  0.57931825209E+02  0.10566000000E+00 0. -1.
         23    2    1    0    0    0 -0.28228614288E+01 -0.10327126819E+02  0.28422179239E+02  0.94628329521E+02  0.89621885610E+02 0.  0.
         13    1    3    3    0    0  0.18844504072E+02  0.30907158836E+02 -0.60211679679E+01  0.36696504312E+02  0.10566000000E+00 0.  1.
         22    1    1    0    0    0  0.28228614288E+01  0.10327126819E+02 -0.28422179239E+02  0.30371670479E+02  0.00000000000E+00 0. -1.
</event>
<event>
 5    1  0.9034713E-005  0.9118800E+02  0.7818608E-02  0.1130116E+00
         25   -1    0    0    0    0  0.00000000000E+00  0.00000000000E+00  0.99999998245E-14  0.12500000000E+03  0.12500000000E+03 0.  0.
        -13    1    3    3    0    0 -0.23896397164E+02 -0.53061485914E+01  0.44703645897E+02  0.50966853255E+02  0.10566000000E+00 0. -1.
         23    2    1    0    0    0  0.10111126043E+02 -0.19463852599E+02  0.19971711837E+02  0.95336121266E+02  0.90603699242E+02 0.  0.
         13    1    3    3    0    0  0.34007523207E+02 -0.14157704008E+02 -0.24731934059E+02  0.44369268010E+02  0.10566000000E+00 0.  1.
         22    1    1    0    0    0 -0.10111126043E+02  0.19463852599E+02 -0.19971711837E+02  0.29663878734E+02  0.00000000000E+00 0.  1.
</event>
<event>
 5    1  0.9034713E-005  0.9118800E+02  0.7818608E-02  0.1130116E+00
         25   -1    0    0    0    0  0.00000000000E+00  0.00000000000E+00  0.99999998245E-14  0.12500000000E+03  0.12500000000E+03 0.  0.
        -13    1    3    3    0    0  0.40886607262E+02 -0.10379826083E+02  0.17089904867E+02  0.45514079748E+02  0.10566000000E+00 0.  1.
         23    2    1    0    0    0  0.15932094819E+02  0.55491759643E+01 -0.23695784226E+02  0.95911940778E+02  0.91394667211E+02 0.  0.
         13    1    3    3    0    0 -0.24954512444E+02  0.15929002047E+02 -0.40785689094E+02  0.50397861030E+02  0.10566000000E+00 0. -1.
         22    1    1    0    0    0 -0.15932094819E+02 -0.55491759643E+01  0.23695784226E+02  0.29088059222E+02  0.00000000000E+00 0. -1.
</event>
<event>
 5    1  0.9034713E-005  0.9118800E+02  0.7818608E-02  0.1130116E+00
         25   -1    0    0    0    0  0.00000000000E+00  0.00000000000E+00  0.99999998245E-14  0.12500000000E+03  0.12500000000E+03 0.  0.
        -13    1    3    3    0    0  0.23562713940E+02  0.17350342286E+02  0.13641633793E+02  0.32285309387E+02  0.10566000000E+00 0. -1.
         23    2    1    0    0    0 -0.21640322472E+02 -0.33943139819E+01 -0.22371110982E+02  0.93690392359E+02  0.88304009477E+02 0.  0.
         13    1    3    3    0    0 -0.45203036412E+02 -0.20744656268E+02 -0.36012744775E+02  0.61405082972E+02  0.10566000000E+00 0.  1.
         22    1    1    0    0    0  0.21640322472E+02  0.33943139819E+01  0.22371110982E+02  0.31309607641E+02  0.00000000000E+00 0.  1.
</event>
<event>
 5    1  0.9034713E-005  0.9118800E+02  0.7818608E-02  0.1130116E+00
         25   -1    0    0    0    0  0.00000000000E+00  0.00000000000E+00  0.99999998245E-14  0.12500000000E+03  0.12500000000E+03 0.  0.
        -13    1    3    3    0    0  0.27314862155E+02 -0.21282349370E+02 -0.30902675948E+02  0.46411492478E+02  0.10566000000E+00 0.  1.
         23    2    1    0    0    0  0.10969392579E+01 -0.28650885566E+02  0.92007920487E+01  0.94888024080E+02  0.89983365241E+02 0.  0.
         13    1    3    3    0    0 -0.26217922897E+02 -0.73685361969E+01  0.40103467997E+02  0.48476531602E+02  0.10566000000E+00 0. -1.
         22    1    1    0    0    0 -0.10969392579E+01  0.28650885566E+02 -0.92007920487E+01  0.30111975920E+02  0.00000000000E+00 0. -1.
</event>
<event>
 5    1  0.9034713E-005  0.9118800E+02  0.7818608E-02  0.1130116E+00
         25   -1    0    0    0    0  0.00000000000E+00  0.00000000000E+00  0.99999998245E-14  0.12500000000E+03  0.12500000000E+03 0.  0.
        -13    1    3    3    0    0 -0.56554903557E+01  0.28350714301E+02 -0.49791721941E+02  0.57575813589E+02  0.10566000000E+00 0. -1.
         23    2    1    0    0    0  0.13579418786E+02  0.66838289448E+01 -0.25321627751E+02  0.95499847189E+02  0.90829300324E+02 0.  0.
         13    1    3    3    0    0  0.19234909142E+02 -0.21666885357E+02  0.24470094191E+02  0.37924033600E+02  0.10566000000E+00 0.  1.
         22    1    1    0    0    0 -0.13579418786E+02 -0.66838289448E+01  0.25321627751E+02  0.29500152811E+02  0.00000000000E+00 0. -1.
</event>
<event>
 5    1  0.9034713E-005  0.9118800E+02  0.7818608E-02  0.1130116E+00
         25   -1    0    0    0    0  0.00000000000E+00  0.00000000000E+00  0.99999998245E-14  0.12500000000E+03  0.12500000000E+03 0.  0.
        -13    1    3    3    0    0 -0.29684149121E+02  0.15999954066E+02  0.29181014888E+02  0.44594731001E+02  0.10566000000E+00 0.  1.
         23    2    1    0    0    0  0.69031812847E+01 -0.19701183606E+02  0.19112946742E+02  0.96696373369E+02  0.92461307271E+02 0.  0.
         13    1    3    3    0    0  0.36587330405E+02 -0.35701137671E+02 -0.10068068146E+02  0.52101642368E+02  0.10566000000E+00 0. -1.
         22    1    1    0    0    0 -0.69031812847E+01  0.19701183606E+02 -0.19112946742E+02  0.28303626631E+02  0.00000000000E+00 0.  1.
</event>
<event>
 5    1  0.9034713E-005  0.9118800E+02  0.7818608E-02  0.1130116E+00
         25   -1    0    0    0    0  0.00000000000E+00  0.00000000000E+00  0.99999998245E-14  0.12500000000E+03  0.12500000000E+03 0.  0.
        -13    1    3    3    0    0  0.20435509550E+02 -0.16389796204E+02  0.20476822575E+02  0.33249765367E+02  0.10566000000E+00 0.  1.
         23    2    1    0    0    0 -0.27930986192E+02  0.13552283701E+02 -0.69619242883E+00  0.93946995845E+02  0.88666504167E+02 0.  0.
         13    1    3    3    0    0 -0.48366495742E+02  0.29942079904E+02 -0.21173015003E+02  0.60697230478E+02  0.10566000000E+00 0. -1.
         22    1    1    0    0    0  0.27930986192E+02 -0.13552283701E+02  0.69619242883E+00  0.31053004155E+02  0.00000000000E+00 0. -1.
</event>
<event>
 5    1  0.9034713E-005  0.9118800E+02  0.7818608E-02  0.1130116E+00
         25   -1    0    0    0    0  0.00000000000E+00  0.00000000000E+00  0.99999998245E-14  0.12500000000E+03  0.12500000000E+03 0.  0.
        -13    1    3    3    0    0 -0.26672458682E+02 -0.21594705416E+02 -0.19816441044E+02  0.39628952217E+02  0.10566000000E+00 0. -1.
         23    2    1    0    0    0  0.10935480028E+02 -0.15867051262E+02  0.21726896273E+02  0.95958545821E+02  0.91458386467E+02 0.  0.
         13    1    3    3    0    0  0.37607938710E+02  0.57276541536E+01  0.41543337316E+02  0.56329593604E+02  0.10566000000E+00 0.  1.
         22    1    1    0    0    0 -0.10935480028E+02  0.15867051262E+02 -0.21726896273E+02  0.29041454179E+02  0.00000000000E+00 0.  1.
</event>
<event>
 5    1  0.9034713E-005  0.9118800E+02  0.7818608E-02  0.1130116E+00
         25   -1    0    0    0    0  0.00000000000E+00  0.00000000000E+00  0.99999998245E-14  0.12500000000E+03  0.12500000000E+03 0.  0.
        -13    1    3    3    0    0 -0.13769329205E+02  0.26346228467E+02  0.15468860679E+02  0.33511415904E+02  0.10566000000E+00 0.  1.
         23    2    1    0    0    0  0.26711049056E+02 -0.16347902955E+02  0.44455878027E+01  0.93369360999E+02  0.87848393552E+02 0.  0.
         13    1    3    3    0    0  0.40480378261E+02 -0.42694131422E+02 -0.11023272876E+02  0.59857945095E+02  0.10566000000E+00 0. -1.
         22    1    1    0    0    0 -0.26711049056E+02  0.16347902955E+02 -0.44455878027E+01  0.31630639001E+02  0.00000000000E+00 0. -1.
</event>
<event>
 5    1  0.9034713E-005  0.9118800E+02  0.7818608E-02  0.1130116E+00
         25   -1    0    0    0    0  0.00000000000E+00  0.00000000000E+00  0.99999998245E-14  0.12500000000E+03  0.12500000000E+03 0.  0.
        -13    1    3    3    0    0  0.37190271529E+02 -0.12515289204E+02 -0.47807774312E+02  0.61849359002E+02  0.10566000000E+00 0.  1.
         23    2    1    0    0    0  0.23368991674E+02 -0.48061082343E+01 -0.19901099537E+02  0.93931330718E+02  0.88644417080E+02 0.  0.
         13    1    3    3    0    0 -0.13821279856E+02  0.77091809697E+01  0.27906674775E+02  0.32081971715E+02  0.10566000000E+00 0. -1.
         22    1    1    0    0    0 -0.23368991674E+02  0.48061082343E+01  0.19901099537E+02  0.31068669282E+02  0.00000000000E+00 0.  1.
</event>
<event>
 5    1  0.9034713E-005  0.9118800E+02  0.7818608E-02  0.1130116E+00
         25   -1    0    0    0    0  0.00000000000E+00  0.00000000000E+00  0.99999998245E-14  0.12500000000E+03  0.12500000000E+03 0.  0.
        -13    1    3    3    0    0  0.50309098833E+01  0.45088207560E+02  0.20813937572E+02  0.49914804181E+02  0.10566000000E+00 0.  1.
         23    2    1    0    0    0 -0.24767941267E+02  0.15682537062E+02  0.26024749897E+01  0.95569305829E+02  0.90924839605E+02 0.  0.
         13    1    3    3    0    0 -0.29798851150E+02 -0.29405670498E+02 -0.18211462582E+02  0.45654501648E+02  0.10566000000E+00 0. -1.
         22    1    1    0    0    0  0.24767941267E+02 -0.15682537062E+02 -0.26024749897E+01  0.29430694171E+02  0.00000000000E+00 0.  1.
</event>
<event>
 5    1  0.9034713E-005  0.9118800E+02  0.7818608E-02  0.1130116E+00
         25   -1    0    0    0    0  0.00000000000E+00  0.00000000000E+00  0.99999998245E-14  0.12500000000E+03  0.12500000000E+03 0.  0.
        -13    1    3    3    0    0 -0.39049777346E+02 -0.24645126649E+02 -0.29908035374E+02  0.55016080580E+02  0.10566000000E+00 0.  1.
         23    2    1    0    0    0 -0.29050491659E+02 -0.91891180010E+01  0.46563730108E+01  0.94177074037E+02  0.88990271993E+02 0.  0.
         13    1    3    3    0    0  0.99992856873E+01  0.15456008648E+02  0.34564408385E+02  0.39160993458E+02  0.10566000000E+00 0. -1.
         22    1    1    0    0    0  0.29050491659E+02  0.91891180010E+01 -0.46563730108E+01  0.30822925963E+02  0.00000000000E+00 0.  1.
</event>
<event>
 5    1  0.9034713E-005  0.9118800E+02  0.7818608E-02  0.1130116E+00
         25   -1    0    0    0    0  0.00000000000E+00  0.00000000000E+00  0.99999998245E-14  0.12500000000E+03  0.12500000000E+03 0.  0.
        -13    1    3    3    0    0  0.10376739742E+02  0.82357175730E+01 -0.43371431241E+02  0.45349707646E+02  0.10566000000E+00 0. -1.
         23    2    1    0    0    0  0.40191180451E+01  0.23300475050E+02  0.86055604724E+01  0.99838101851E+02  0.96615347967E+02 0.  0.
         13    1    3    3    0    0 -0.63576216966E+01  0.15064757477E+02  0.51976991713E+02  0.54488394205E+02  0.10566000000E+00 0.  1.
         22    1    1    0    0    0 -0.40191180451E+01 -0.23300475050E+02 -0.86055604724E+01  0.25161898149E+02  0.00000000000E+00 0. -1.
</event>
<event>
 5    1  0.9034713E-005  0.9118800E+02  0.7818608E-02  0.1130116E+00
         25   -1    0    0    0    0  0.00000000000E+00  0.00000000000E+00  0.99999998245E-14  0.12500000000E+03  0.12500000000E+03 0.  0.
        -13    1    3    3    0    0  0.13138057369E+02  0.37765193056E+02 -0.16363194187E+02  0.43203977202E+02  0.10566000000E+00 0. -1.
         23    2    1    0    0    0 -0.12158523520E+02  0.23673073665E+02  0.21441346921E+02  0.90824343917E+02  0.84149188820E+02 0.  0.
         13    1    3    3    0    0 -0.25296580889E+02 -0.14092119391E+02  0.37804541108E+02  0.47620366715E+02  0.10566000000E+00 0.  1.
         22    1    1    0    0    0  0.12158523520E+02 -0.23673073665E+02 -0.21441346921E+02  0.34175656083E+02  0.00000000000E+00 0. -1.
</event>
<event>
 5    1  0.9034713E-005  0.9118800E+02  0.7818608E-02  0.1130116E+00
         25   -1    0    0    0    0  0.00000000000E+00  0.00000000000E+00  0.99999998245E-14  0.12500000000E+03  0.12500000000E+03 0.  0.
        -13    1    3    3    0    0  0.60984348426E+02 -0.67412349054E+01  0.13044232671E+01  0.61369761977E+02  0.10566000000E+00 0.  1.
         23    2    1    0    0    0  0.29234913705E+02 -0.75229589808E+01  0.78768354742E+01  0.93801929094E+02  0.88461755994E+02 0.  0.
         13    1    3    3    0    0 -0.31749434721E+02 -0.78172407545E+00  0.65724122071E+01  0.32432167117E+02  0.10566000000E+00 0. -1.
         22    1    1    0    0    0 -0.29234913705E+02  0.75229589808E+01 -0.78768354742E+01  0.31198070906E+02  0.00000000000E+00 0.  1.
</event>
<event>
 5    1  0.9034713E-005  0.9118800E+02  0.7818608E-02  0.1130116E+00
         25   -1    0    0    0    0  0.00000000000E+00  0.00000000000E+00  0.99999998245E-14  0.12500000000E+03  0.12500000000E+03 0.  0.
        -13    1    3    3    0    0 -0.71805421752E+01 -0.16213125854E+02  0.50334768601E+02  0.53366897325E+02  0.10566000000E+00 0.  1.
         23    2    1    0    0    0 -0.25223913322E+02 -0.53720111232E+01  0.13258893412E+02  0.96001680027E+02  0.91517320802E+02 0.  0.
         13    1    3    3    0    0 -0.18043371146E+02  0.10841114731E+02 -0.37075875189E+02  0.42634782702E+02  0.10566000000E+00 0. -1.
         22    1    1    0    0    0  0.25223913322E+02  0.53720111232E+01 -0.13258893412E+02  0.28998319973E+02  0.00000000000E+00 0.  1.
</event>
<event>
 5    1  0.9034713E-005  0.9118800E+02  0.7818608E-02  0.1130116E+00
         25   -1    0    0    0    0  0.00000000000E+00  0.00000000000E+00  0.99999998245E-14  0.12500000000E+03  0.12500000000E+03 0.  0.
        -13    1    3    3    0    0 -0.26493273104E+02 -0.18585108907E+02 -0.29237454749E+02  0.43613526767E+02  0.10566000000E+00 0. -1.
         23    2    1    0    0    0 -0.47808798817E+01  0.25442958426E+02 -0.16396946475E+02  0.94355901064E+02  0.89241107490E+02 0.  0.
         13    1    3    3    0    0  0.21712393223E+02  0.44028067333E+02  0.12840508274E+02  0.50742374297E+02  0.10566000000E+00 0.  1.
         22    1    1    0    0    0  0.47808798817E+01 -0.25442958426E+02  0.16396946475E+02  0.30644098936E+02  0.00000000000E+00 0. -1.
</event>
<event>
 5    1  0.9034713E-005  0.9118800E+02  0.7818608E-02  0.1130116E+00
         25   -1    0    0    0    0  0.00000000000E+00  0.00000000000E+00  0.99999998245E-14  0.12500000000E+03  0.12500000000E+03 0.  0.
        -13    1    3    3    0    0  0.72414686715E+01  0.36866288541E+02  0.12401972099E+02  0.39564910909E+02  0.10566000000E+00 0. -1.
         23    2    1    0    0    0  0.19462261953E+02 -0.63611423650E+01 -0.21095934287E+02  0.95601322888E+02  0.90968844787E+02 0.  0.
         13    1    3    3    0    0  0.12220793282E+02 -0.43227430906E+02 -0.33497906386E+02  0.56036411978E+02  0.10566000000E+00 0.  1.
         22    1    1    0    0    0 -0.19462261953E+02  0.63611423650E+01  0.21095934287E+02  0.29398677112E+02  0.00000000000E+00 0.  1.
</event>
<event>
 5    1  0.9034713E-005  0.9118800E+02  0.7818608E-02  0.1130116E+00
         25   -1    0    0    0    0  0.00000000000E+00  0.00000000000E+00  0.99999998245E-14  0.12500000000E+03  0.12500000000E+03 0.  0.
        -13    1    3    3    0    0  0.33051123302E+02 -0.52447456421E+01 -0.14234177063E+02  0.36366290284E+02  0.10566000000E+00 0.  1.
         23    2    1    0    0    0 -0.25288907694E+02 -0.11002637773E+02  0.24357899961E+01  0.97313903069E+02  0.93292420739E+02 0.  0.
         13    1    3    3    0    0 -0.58340030996E+02 -0.57578921313E+01  0.16669967059E+02  0.60947612785E+02  0.10566000000E+00 0. -1.
         22    1    1    0    0    0  0.25288907694E+02  0.11002637773E+02 -0.24357899961E+01  0.27686096931E+02  0.00000000000E+00 0. -1.
</event>
<event>
 5    1  0.9034713E-005  0.9118800E+02  0.7818608E-02  0.1130116E+00
         25   -1    0    0    0    0  0.00000000000E+00  0.00000000000E+00  0.99999998245E-14  0.12500000000E+03  0.12500000000E+03 0.  0.
        -13    1    3    3    0    0 -0.38146988931E+02  0.36815626310E+02 -0.31399059516E+02  0.61615705852E+02  0.10566000000E+00 0. -1.
         23    2    1    0    0    0 -0.15101775075E+02  0.15216860659E+02 -0.21308131855E+02  0.94773307461E+02  0.89823865789E+02 0.  0.
         13    1    3    3    0    0  0.23045213856E+02 -0.21598765652E+02  0.10090927661E+02  0.33157601609E+02  0.10566000000E+00 0.  1.
         22    1    1    0    0    0  0.15101775075E+02 -0.15216860659E+02  0.21308131855E+02  0.30226692539E+02  0.00000000000E+00 0. -1.
</event>
<event>
 5    1  0.9034713E-005  0.9118800E+02  0.7818608E-02  0.1130116E+00
         25   -1    0    0    0    0  0.00000000000E+00  0.00000000000E+00  0.99999998245E-14  0.12500000000E+03  0.12500000000E+03 0.  0.
        -13    1    3    3    0    0  0.18802223361E+02 -0.41012753878E+02  0.38123452898E+02  0.59067574937E+02  0.10566000000E+00 0.  1.
         23    2    1    0    0    0  0.16059578183E+02 -0.29912091375E+02  0.97215894179E+01  0.89684952745E+02  0.82439300010E+02 0.  0.
         13    1    3    3    0    0 -0.27426451780E+01  0.11100662504E+02 -0.28401863481E+02  0.30617377807E+02  0.10566000000E+00 0. -1.
         22    1    1    0    0    0 -0.16059578183E+02  0.29912091375E+02 -0.97215894179E+01  0.35315047255E+02  0.00000000000E+00 0.  1.
</event>
<event>
 5    1  0.9034713E-005  0.9118800E+02  0.7818608E-02  0.1130116E+00
         25   -1    0    0    0    0  0.00000000000E+00  0.00000000000E+00  0.99999998245E-14  0.12500000000E+03  0.12500000000E+03 0.  0.
        -13    1    3    3    0    0 -0.24914747174E+02 -0.16022501293E+02 -0.42556557248E+02  0.51851103202E+02  0.10566000000E+00 0. -1.
         23    2    1    0    0    0 -0.13769082214E+02 -0.20826896815E+02  0.37778485463E+01  0.99748873380E+02  0.96499835984E+02 0.  0.
         13    1    3    3    0    0  0.11145664960E+02 -0.48043955214E+01  0.46334405794E+02  0.47897770178E+02  0.10566000000E+00 0.  1.
         22    1    1    0    0    0  0.13769082214E+02  0.20826896815E+02 -0.37778485463E+01  0.25251126620E+02  0.00000000000E+00 0. -1.
</event>
<event>
 5    1  0.9034713E-005  0.9118800E+02  0.7818608E-02  0.1130116E+00
         25   -1    0    0    0    0  0.00000000000E+00  0.00000000000E+00  0.99999998245E-14  0.12500000000E+03  0.12500000000E+03 0.  0.
        -13    1    3    3    0    0  0.32345058477E+02 -0.18479454644E+02 -0.25343367183E+02  0.45055415612E+02  0.10566000000E+00 0.  1.
         23    2    1    0    0    0  0.35597451691E+01 -0.15948308796E+02  0.20215760862E+02  0.99005821299E+02  0.95532483087E+02 0.  0.
         13    1    3    3    0    0 -0.28785313308E+02  0.25311458480E+01  0.45559128045E+02  0.53950405687E+02  0.10566000000E+00 0. -1.
         22    1    1    0    0    0 -0.35597451691E+01  0.15948308796E+02 -0.20215760862E+02  0.25994178701E+02  0.00000000000E+00 0.  1.
</event>
<event>
 5    1  0.9034713E-005  0.9118800E+02  0.7818608E-02  0.1130116E+00
         25   -1    0    0    0    0  0.00000000000E+00  0.00000000000E+00  0.99999998245E-14  0.12500000000E+03  0.12500000000E+03 0.  0.
        -13    1    3    3    0    0  0.12544125085E+02  0.32806230800E+02 -0.10119146529E+02  0.36551499886E+02  0.10566000000E+00 0.  1.
         23    2    1    0    0    0 -0.83211612432E+01 -0.24214514709E+02 -0.10641596434E+02  0.97272251774E+02  0.93236596589E+02 0.  0.
         13    1    3    3    0    0 -0.20865286328E+02 -0.57020745509E+02 -0.52244990477E+00  0.60720751888E+02  0.10566000000E+00 0. -1.
         22    1    1    0    0    0  0.83211612432E+01  0.24214514709E+02  0.10641596434E+02  0.27727748226E+02  0.00000000000E+00 0. -1.
</event>
<event>
 5    1  0.9034713E-005  0.9118800E+02  0.7818608E-02  0.1130116E+00
         25   -1    0    0    0    0  0.00000000000E+00  0.00000000000E+00  0.99999998245E-14  0.12500000000E+03  0.12500000000E+03 0.  0.
        -13    1    3    3    0    0 -0.19756204807E+02  0.27252246263E+02 -0.61644053209E+01  0.34219930037E+02  0.10566000000E+00 0.  1.
         23    2    1    0    0    0  0.14342281381E+02 -0.22706565745E+02 -0.13128846668E+02  0.95105924032E+02  0.90285552599E+02 0.  0.
         13    1    3    3    0    0  0.34098486187E+02 -0.49958812008E+02 -0.69644413467E+01  0.60885993995E+02  0.10566000000E+00 0. -1.
         22    1    1    0    0    0 -0.14342281381E+02  0.22706565745E+02  0.13128846668E+02  0.29894075968E+02  0.00000000000E+00 0. -1.
</event>
<event>
 5    1  0.9034713E-005  0.9118800E+02  0.7818608E-02  0.1130116E+00
         25   -1    0    0    0    0  0.00000000000E+00  0.00000000000E+00  0.99999998245E-14  0.12500000000E+03  0.12500000000E+03 0.  0.
        -13    1    3    3    0    0 -0.28744879966E+01 -0.38962593066E+02 -0.39801332336E+02  0.55771888613E+02  0.10566000000E+00 0.  1.
         23    2    1    0    0    0  0.66618834991E+01 -0.26131219463E+02 -0.69055074586E+00  0.98024118500E+02  0.94239214900E+02 0.  0.
         13    1    3    3    0    0  0.95363714957E+01  0.12831373603E+02  0.39110781590E+02  0.42252229887E+02  0.10566000000E+00 0. -1.
         22    1    1    0    0    0 -0.66618834991E+01  0.26131219463E+02  0.69055074586E+00  0.26975881500E+02  0.00000000000E+00 0.  1.
</event>
<event>
 5    1  0.9034713E-005  0.9118800E+02  0.7818608E-02  0.1130116E+00
         25   -1    0    0    0    0  0.00000000000E+00  0.00000000000E+00  0.99999998245E-14  0.12500000000E+03  0.12500000000E+03 0.  0.
        -13    1    3    3    0    0 -0.59222995486E+01  0.21995630275E+02  0.35580818373E+02  0.42247925195E+02  0.10566000000E+00 0. -1.
         23    2    1    0    0    0  0.27906594077E+02  0.57625240410E+01 -0.33390415088E+01  0.96309690234E+02  0.91937057591E+02 0.  0.
         13    1    3    3    0    0  0.33828893625E+02 -0.16233106234E+02 -0.38919859882E+02  0.54061765039E+02  0.10566000000E+00 0.  1.
         22    1    1    0    0    0 -0.27906594077E+02 -0.57625240410E+01  0.33390415088E+01  0.28690309766E+02  0.00000000000E+00 0.  1.
</event>
<event>
 5    1  0.9034713E-005  0.9118800E+02  0.7818608E-02  0.1130116E+00
         25   -1    0    0    0    0  0.00000000000E+00  0.00000000000E+00  0.99999998245E-14  0.12500000000E+03  0.12500000000E+03 0.  0.
        -13    1    3    3    0    0 -0.47706691788E+02 -0.38608993523E+02 -0.17986672258E+01  0.61398934763E+02  0.10566000000E+00 0.  1.
         23    2    1    0    0    0 -0.20417788473E+02 -0.20138460746E+02 -0.86288847038E+01  0.95051688886E+02  0.90210432998E+02 0.  0.
         13    1    3    3    0    0  0.27288903315E+02  0.18470532777E+02 -0.68302174780E+01  0.33652754123E+02  0.10566000000E+00 0. -1.
         22    1    1    0    0    0  0.20417788473E+02  0.20138460746E+02  0.86288847038E+01  0.29948311114E+02  0.00000000000E+00 0.  1.
</event>
<event>
 5    1  0.9034713E-005  0.9118800E+02  0.7818608E-02  0.1130116E+00
         25   -1    0    0    0    0  0.00000000000E+00  0.00000000000E+00  0.99999998245E-14  0.12500000000E+03  0.12500000000E+03 0.  0.
        -13    1    3    3    0    0 -0.47814108200E+02  0.26224132797E+01  0.26183235679E+02  0.54576908936E+02  0.10566000000E+00 0. -1.
         23    2    1    0    0    0 -0.13344834564E+02 -0.20012506313E+02  0.11376692763E+02  0.98391464590E+02  0.94725213895E+02 0.  0.
         13    1    3    3    0    0  0.34469273636E+02 -0.22634919592E+02 -0.14806542915E+02  0.43814555654E+02  0.10566000000E+00 0.  1.
         22    1    1    0    0    0  0.13344834564E+02  0.20012506313E+02 -0.11376692763E+02  0.26608535410E+02  0.00000000000E+00 0.  1.
</event>
<event>
 5    1  0.9034713E-005  0.9118800E+02  0.7818608E-02  0.1130116E+00
         25   -1    0    0    0    0  0.00000000000E+00  0.00000000000E+00  0.99999998245E-14  0.12500000000E+03  0.12500000000E+03 0.  0.
        -13    1    3    3    0    0 -0.10163685229E+02  0.41930724430E+02 -0.20427746011E+02  0.47736674788E+02  0.10566000000E+00 0. -1.
         23    2    1    0    0    0  0.80158037555E+00 -0.47806275317E+01 -0.28237609396E+02  0.96349354019E+02  0.91990969692E+02 0.  0.
         13    1    3    3    0    0  0.10965265605E+02 -0.46711351962E+02 -0.78098633855E+01  0.48612679231E+02  0.10566000000E+00 0.  1.
         22    1    1    0    0    0 -0.80158037555E+00  0.47806275317E+01  0.28237609396E+02  0.28650645981E+02  0.00000000000E+00 0.  1.
</event>
<event>
 5    1  0.9034713E-005  0.9118800E+02  0.7818608E-02  0.1130116E+00
         25   -1    0    0    0    0  0.00000000000E+00  0.00000000000E+00  0.99999998245E-14  0.12500000000E+03  0.12500000000E+03 0.  0.
        -13    1    3    3    0    0  0.32185268455E+02 -0.52985689523E+02 -0.56640842592E+01  0.62253255451E+02  0.10566000000E+00 0. -1.
         23    2    1    0    0    0  0.18660460303E+02 -0.24736653362E+02 -0.40530954032E+00  0.94011630019E+02  0.88757577168E+02 0.  0.
         13    1    3    3    0    0 -0.13524808152E+02  0.28249036161E+02  0.52587747189E+01  0.31758374567E+02  0.10566000000E+00 0.  1.
         22    1    1    0    0    0 -0.18660460303E+02  0.24736653362E+02  0.40530954032E+00  0.30988369981E+02  0.00000000000E+00 0. -1.
</event>
<event>
 5    1  0.9034713E-005  0.9118800E+02  0.7818608E-02  0.1130116E+00
         25   -1    0    0    0    0  0.00000000000E+00  0.00000000000E+00  0.99999998245E-14  0.12500000000E+03  0.12500000000E+03 0.  0.
        -13    1    3    3    0    0 -0.21409870830E+02 -0.42223360927E+01  0.25353108820E+02  0.33451486991E+02  0.10566000000E+00 0. -1.
         23    2    1    0    0    0  0.26966664781E+02 -0.16093205229E+01 -0.12788634283E+02  0.95111204628E+02  0.90292863267E+02 0.  0.
         13    1    3    3    0    0  0.48376535611E+02  0.26130155698E+01 -0.38141743103E+02  0.61659717637E+02  0.10566000000E+00 0.  1.
         22    1    1    0    0    0 -0.26966664781E+02  0.16093205229E+01  0.12788634283E+02  0.29888795372E+02  0.00000000000E+00 0.  1.
</event>
<event>
 5    1  0.9034713E-005  0.9118800E+02  0.7818608E-02  0.1130116E+00
         25   -1    0    0    0    0  0.00000000000E+00  0.00000000000E+00  0.99999998245E-14  0.12500000000E+03  0.12500000000E+03 0.  0.
        -13    1    3    3    0    0  0.34185988438E+02  0.16950825520E+01 -0.28806855784E+01  0.34349157541E+02  0.10566000000E+00 0. -1.
         23    2    1    0    0    0 -0.24854190618E+02  0.15621899636E+02  0.38938379614E+01  0.95386886122E+02  0.90673709147E+02 0.  0.
         13    1    3    3    0    0 -0.59040179056E+02  0.13926817084E+02  0.67745235398E+01  0.61037728581E+02  0.10566000000E+00 0.  1.
         22    1    1    0    0    0  0.24854190618E+02 -0.15621899636E+02 -0.38938379614E+01  0.29613113878E+02  0.00000000000E+00 0.  1.
</event>
<event>
 5    1  0.9034713E-005  0.9118800E+02  0.7818608E-02  0.1130116E+00
         25   -1    0    0    0    0  0.00000000000E+00  0.00000000000E+00  0.99999998245E-14  0.12500000000E+03  0.12500000000E+03 0.  0.
        -13    1    3    3    0    0 -0.19844760946E+02  0.20933448738E+02 -0.18291685540E+02  0.34155830205E+02  0.10566000000E+00 0.  1.
         23    2    1    0    0    0  0.93063925479E+01 -0.99134600921E+01  0.26099023256E+02  0.95571363467E+02  0.90927668324E+02 0.  0.
         13    1    3    3    0    0  0.29151153494E+02 -0.30846908830E+02  0.44390708796E+02  0.61415533262E+02  0.10566000000E+00 0. -1.
         22    1    1    0    0    0 -0.93063925479E+01  0.99134600921E+01 -0.26099023256E+02  0.29428636533E+02  0.00000000000E+00 0. -1.
</event>
<event>
 5    1  0.9034713E-005  0.9118800E+02  0.7818608E-02  0.1130116E+00
         25   -1    0    0    0    0  0.00000000000E+00  0.00000000000E+00  0.99999998245E-14  0.12500000000E+03  0.12500000000E+03 0.  0.
        -13    1    3    3    0    0  0.11400218604E+01 -0.29770068959E+02 -0.24820119114E+02  0.38776360486E+02  0.10566000000E+00 0.  1.
         23    2    1    0    0    0  0.37496986864E+01  0.26221519845E+02 -0.91123221858E+01  0.96988167521E+02  0.92854950758E+02 0.  0.
         13    1    3    3    0    0  0.26096768260E+01  0.55991588804E+02  0.15707796928E+02  0.58211807035E+02  0.10566000000E+00 0. -1.
         22    1    1    0    0    0 -0.37496986864E+01 -0.26221519845E+02  0.91123221858E+01  0.28011832479E+02  0.00000000000E+00 0. -1.
</event>
<event>
 5    1  0.9034713E-005  0.9118800E+02  0.7818608E-02  0.1130116E+00
         25   -1    0    0    0    0  0.00000000000E+00  0.00000000000E+00  0.99999998245E-14  0.12500000000E+03  0.12500000000E+03 0.  0.
        -13    1    3    3    0    0  0.45970768723E+02  0.23190165252E+01 -0.54761371524E+01  0.46353949743E+02  0.10566000000E+00 0. -1.
         23    2    1    0    0    0  0.56758107300E+01 -0.26700467560E+02 -0.93103704330E+01  0.96158835097E+02  0.91731721744E+02 0.  0.
         13    1    3    3    0    0 -0.40294957993E+02 -0.29019484085E+02 -0.38342332806E+01  0.49804885354E+02  0.10566000000E+00 0.  1.
         22    1    1    0    0    0 -0.56758107300E+01  0.26700467560E+02  0.93103704330E+01  0.28841164903E+02  0.00000000000E+00 0.  1.
</event>
<event>
 5    1  0.9034713E-005  0.9118800E+02  0.7818608E-02  0.1130116E+00
         25   -1    0    0    0    0  0.00000000000E+00  0.00000000000E+00  0.99999998245E-14  0.12500000000E+03  0.12500000000E+03 0.  0.
        -13    1    3    3    0    0  0.34689803742E+02 -0.13085617707E+02  0.96308874808E+01  0.38306409804E+02  0.10566000000E+00 0.  1.
         23    2    1    0    0    0 -0.13940420979E+02 -0.22799412502E+02 -0.15714039131E+02  0.93998716586E+02  0.88739388924E+02 0.  0.
         13    1    3    3    0    0 -0.48630224720E+02 -0.97137947946E+01 -0.25344926612E+02  0.55692306782E+02  0.10566000000E+00 0. -1.
         22    1    1    0    0    0  0.13940420979E+02  0.22799412502E+02  0.15714039131E+02  0.31001283414E+02  0.00000000000E+00 0. -1.
</event>
<event>
 5    1  0.9034713E-005  0.9118800E+02  0.7818608E-02  0.1130116E+00
         25   -1    0    0    0    0  0.00000000000E+00  0.00000000000E+00  0.99999998245E-14  0.12500000000E+03  0.12500000000E+03 0.  0.
        -13    1    3    3    0    0  0.35855981303E+02 -0.41075391531E+02  0.53135895113E+01  0.54782155691E+02  0.10566000000E+00 0. -1.
         23    2    1    0    0    0  0.28768888986E+02 -0.88243064488E+00 -0.15838981553E+01  0.96174032702E+02  0.91752428717E+02 0.  0.
         13    1    3    3    0    0 -0.70870923170E+01  0.40192960886E+02 -0.68974876666E+01  0.41391877011E+02  0.10566000000E+00 0.  1.
         22    1    1    0    0    0 -0.28768888986E+02  0.88243064488E+00  0.15838981553E+01  0.28825967298E+02  0.00000000000E+00 0.  1.
</event>
<event>
 5    1  0.9034713E-005  0.9118800E+02  0.7818608E-02  0.1130116E+00
         25   -1    0    0    0    0  0.00000000000E+00  0.00000000000E+00  0.99999998245E-14  0.12500000000E+03  0.12500000000E+03 0.  0.
        -13    1    3    3    0    0 -0.18643238650E+01 -0.51069946246E+02 -0.19214678387E+02  0.54596979245E+02  0.10566000000E+00 0.  1.
         23    2    1    0    0    0  0.46012930644E+01 -0.12152716563E+02 -0.27206818183E+02  0.94849189507E+02  0.89929402182E+02 0.  0.
         13    1    3    3    0    0  0.64656169294E+01  0.38917229683E+02 -0.79921397958E+01  0.40252210263E+02  0.10566000000E+00 0. -1.
         22    1    1    0    0    0 -0.46012930644E+01  0.12152716563E+02  0.27206818183E+02  0.30150810493E+02  0.00000000000E+00 0.  1.
</event>
<event>
 5    1  0.9034713E-005  0.9118800E+02  0.7818608E-02  0.1130116E+00
         25   -1    0    0    0    0  0.00000000000E+00  0.00000000000E+00  0.99999998245E-14  0.12500000000E+03  0.12500000000E+03 0.  0.
        -13    1    3    3    0    0  0.19974994919E+02  0.11974917471E+01  0.30456810482E+02  0.36442597016E+02  0.10566000000E+00 0.  1.
         23    2    1    0    0    0  0.15292991006E+02  0.37243318667E+01 -0.26785748955E+02  0.93931968700E+02  0.88645316712E+02 0.  0.
         13    1    3    3    0    0 -0.46820039131E+01  0.25268401196E+01 -0.57242559438E+02  0.57489371684E+02  0.10566000000E+00 0. -1.
         22    1    1    0    0    0 -0.15292991006E+02 -0.37243318667E+01  0.26785748955E+02  0.31068031300E+02  0.00000000000E+00 0. -1.
</event>
<event>
 5    1  0.9034713E-005  0.9118800E+02  0.7818608E-02  0.1130116E+00
         25   -1    0    0    0    0  0.00000000000E+00  0.00000000000E+00  0.99999998245E-14  0.12500000000E+03  0.12500000000E+03 0.  0.
        -13    1    3    3    0    0  0.21761344445E+02  0.31432394163E+02  0.12403320148E+02  0.40192101582E+02  0.10566000000E+00 0.  1.
         23    2    1    0    0    0  0.16803709951E+02 -0.19329668694E+02 -0.11979533794E+02  0.96724392317E+02  0.92499178803E+02 0.  0.
         13    1    3    3    0    0 -0.49576344946E+01 -0.50762062857E+02 -0.24382853942E+02  0.56532290734E+02  0.10566000000E+00 0. -1.
         22    1    1    0    0    0 -0.16803709951E+02  0.19329668694E+02  0.11979533794E+02  0.28275607683E+02  0.00000000000E+00 0. -1.
</event>
<event>
 5    1  0.9034713E-005  0.9118800E+02  0.7818608E-02  0.1130116E+00
         25   -1    0    0    0    0  0.00000000000E+00  0.00000000000E+00  0.99999998245E-14  0.12500000000E+03  0.12500000000E+03 0.  0.
        -13    1    3    3    0    0 -0.69196869430E+01 -0.25672995935E+02 -0.20495019789E+02  0.33571443042E+02  0.10566000000E+00 0.  1.
         23    2    1    0    0    0 -0.51613722022E+01  0.27324014575E+02  0.10828986098E+02  0.95158611369E+02  0.90358468570E+02 0.  0.
         13    1    3    3    0    0  0.17583147408E+01  0.52997010510E+02  0.31324005888E+02  0.61587168328E+02  0.10566000000E+00 0. -1.
         22    1    1    0    0    0  0.51613722022E+01 -0.27324014575E+02 -0.10828986098E+02  0.29841388631E+02  0.00000000000E+00 0. -1.
</event>
<event>
 5    1  0.9034713E-005  0.9118800E+02  0.7818608E-02  0.1130116E+00
         25   -1    0    0    0    0  0.00000000000E+00  0.00000000000E+00  0.99999998245E-14  0.12500000000E+03  0.12500000000E+03 0.  0.
        -13    1    3    3    0    0  0.11382030177E+02  0.24050878392E+02 -0.19462916386E+02  0.32966826366E+02  0.10566000000E+00 0.  1.
         23    2    1    0    0    0 -0.68918920662E+01 -0.28961780476E+02  0.61296057250E+01  0.94605017339E+02  0.89589365077E+02 0.  0.
         13    1    3    3    0    0 -0.18273922244E+02 -0.53012658868E+02  0.25592522111E+02  0.61638190973E+02  0.10566000000E+00 0. -1.
         22    1    1    0    0    0  0.68918920662E+01  0.28961780476E+02 -0.61296057250E+01  0.30394982661E+02  0.00000000000E+00 0. -1.
</event>
<event>
 5    1  0.9034713E-005  0.9118800E+02  0.7818608E-02  0.1130116E+00
         25   -1    0    0    0    0  0.00000000000E+00  0.00000000000E+00  0.99999998245E-14  0.12500000000E+03  0.12500000000E+03 0.  0.
        -13    1    3    3    0    0  0.24380396469E+02  0.31731431222E+01  0.37100580642E+02  0.44507716379E+02  0.10566000000E+00 0. -1.
         23    2    1    0    0    0  0.10472195102E+02 -0.26577236752E+02 -0.29279598636E+01  0.96284336459E+02  0.91902579479E+02 0.  0.
         13    1    3    3    0    0 -0.13908201367E+02 -0.29750379874E+02 -0.40028540506E+02  0.51776620081E+02  0.10566000000E+00 0.  1.
         22    1    1    0    0    0 -0.10472195102E+02  0.26577236752E+02  0.29279598636E+01  0.28715663541E+02  0.00000000000E+00 0. -1.
</event>
<event>
 5    1  0.9034713E-005  0.9118800E+02  0.7818608E-02  0.1130116E+00
         25   -1    0    0    0    0  0.00000000000E+00  0.00000000000E+00  0.99999998245E-14  0.12500000000E+03  0.12500000000E+03 0.  0.
        -13    1    3    3    0    0  0.32821345128E+02 -0.13635417116E+02 -0.56361841218E+01  0.35985316886E+02  0.10566000000E+00 0.  1.
         23    2    1    0    0    0 -0.20224180787E+02 -0.17455800743E+01  0.20365510682E+02  0.96245547064E+02  0.91849805476E+02 0.  0.
         13    1    3    3    0    0 -0.53045525914E+02  0.11889837042E+02  0.26001694804E+02  0.60260230178E+02  0.10566000000E+00 0. -1.
         22    1    1    0    0    0  0.20224180787E+02  0.17455800743E+01 -0.20365510682E+02  0.28754452936E+02  0.00000000000E+00 0. -1.
</event>
<event>
 5    1  0.9034713E-005  0.9118800E+02  0.7818608E-02  0.1130116E+00
         25   -1    0    0    0    0  0.00000000000E+00  0.00000000000E+00  0.99999998245E-14  0.12500000000E+03  0.12500000000E+03 0.  0.
        -13    1    3    3    0    0 -0.43648606466E+02 -0.14283762665E+02  0.30824894322E+02  0.55311951659E+02  0.10566000000E+00 0.  1.
         23    2    1    0    0    0 -0.26401657245E+02  0.97764369498E+01  0.17710186124E+01  0.96790733231E+02  0.92588786081E+02 0.  0.
         13    1    3    3    0    0  0.17246949222E+02  0.24060199615E+02 -0.29053875709E+02  0.41478781573E+02  0.10566000000E+00 0. -1.
         22    1    1    0    0    0  0.26401657245E+02 -0.97764369498E+01 -0.17710186124E+01  0.28209266769E+02  0.00000000000E+00 0.  1.
</event>
<event>
 5    1  0.9034713E-005  0.9118800E+02  0.7818608E-02  0.1130116E+00
         25   -1    0    0    0    0  0.00000000000E+00  0.00000000000E+00  0.99999998245E-14  0.12500000000E+03  0.12500000000E+03 0.  0.
        -13    1    3    3    0    0 -0.32357196684E+02 -0.14421993624E+02 -0.37772715938E+02  0.51785821522E+02  0.10566000000E+00 0.  1.
         23    2    1    0    0    0  0.95833120920E+01 -0.10224794150E+02 -0.25859897543E+02  0.95587067691E+02  0.90949254658E+02 0.  0.
         13    1    3    3    0    0  0.41940508776E+02  0.41971994741E+01  0.11912818395E+02  0.43801246169E+02  0.10566000000E+00 0. -1.
         22    1    1    0    0    0 -0.95833120920E+01  0.10224794150E+02  0.25859897543E+02  0.29412932309E+02  0.00000000000E+00 0.  1.
</event>
<event>
 5    1  0.9034713E-005  0.9118800E+02  0.7818608E-02  0.1130116E+00
         25   -1    0    0    0    0  0.00000000000E+00  0.00000000000E+00  0.99999998245E-14  0.12500000000E+03  0.12500000000E+03 0.  0.
        -13    1    3    3    0    0  0.30565108327E+00 -0.34615203496E+02  0.50513986462E+02  0.61237078049E+02  0.10566000000E+00 0. -1.
         23    2    1    0    0    0 -0.79662827415E+01 -0.16892277902E+02  0.18780221455E+02  0.98514014435E+02  0.94886793648E+02 0.  0.
         13    1    3    3    0    0 -0.82719338248E+01  0.17722925594E+02 -0.31733765006E+02  0.37276936386E+02  0.10566000000E+00 0.  1.
         22    1    1    0    0    0  0.79662827415E+01  0.16892277902E+02 -0.18780221455E+02  0.26485985565E+02  0.00000000000E+00 0. -1.
</event>
<event>
 5    1  0.9034713E-005  0.9118800E+02  0.7818608E-02  0.1130116E+00
         25   -1    0    0    0    0  0.00000000000E+00  0.00000000000E+00  0.99999998245E-14  0.12500000000E+03  0.12500000000E+03 0.  0.
        -13    1    3    3    0    0  0.17254912686E+00 -0.37047208781E+01  0.36186422033E+02  0.36376132746E+02  0.10566000000E+00 0.  1.
         23    2    1    0    0    0  0.21411860601E+02 -0.15477462277E+02 -0.16123942358E+02  0.94048406663E+02  0.88809355733E+02 0.  0.
         13    1    3    3    0    0  0.21239311474E+02 -0.11772741399E+02 -0.52310364391E+02  0.57672273917E+02  0.10566000000E+00 0. -1.
         22    1    1    0    0    0 -0.21411860601E+02  0.15477462277E+02  0.16123942358E+02  0.30951593337E+02  0.00000000000E+00 0. -1.
</event>
<event>
 5    1  0.9034713E-005  0.9118800E+02  0.7818608E-02  0.1130116E+00
         25   -1    0    0    0    0  0.00000000000E+00  0.00000000000E+00  0.99999998245E-14  0.12500000000E+03  0.12500000000E+03 0.  0.
        -13    1    3    3    0    0  0.24012017045E+02 -0.26655301994E+02 -0.29391270026E+02  0.46378227701E+02  0.10566000000E+00 0. -1.
         23    2    1    0    0    0  0.19048332350E+02 -0.77497867569E+01  0.18017879911E+02  0.97658782826E+02  0.93753377040E+02 0.  0.
         13    1    3    3    0    0 -0.49636846950E+01  0.18905515237E+02  0.47409149937E+02  0.51280555124E+02  0.10566000000E+00 0.  1.
         22    1    1    0    0    0 -0.19048332350E+02  0.77497867569E+01 -0.18017879911E+02  0.27341217174E+02  0.00000000000E+00 0. -1.
</event>
<event>
 5    1  0.9034713E-005  0.9118800E+02  0.7818608E-02  0.1130116E+00
         25   -1    0    0    0    0  0.00000000000E+00  0.00000000000E+00  0.99999998245E-14  0.12500000000E+03  0.12500000000E+03 0.  0.
        -13    1    3    3    0    0  0.19206541628E+02  0.24434531519E+01 -0.30592124454E+02  0.36204294597E+02  0.10566000000E+00 0.  1.
         23    2    1    0    0    0 -0.78370529234E+01 -0.17820530274E+02  0.20028970522E+02  0.97068828203E+02  0.92963471594E+02 0.  0.
         13    1    3    3    0    0 -0.27043594552E+02 -0.20263983426E+02  0.50621094976E+02  0.60864533607E+02  0.10566000000E+00 0. -1.
         22    1    1    0    0    0  0.78370529234E+01  0.17820530274E+02 -0.20028970522E+02  0.27931171797E+02  0.00000000000E+00 0. -1.
</event>
<event>
 5    1  0.9034713E-005  0.9118800E+02  0.7818608E-02  0.1130116E+00
         25   -1    0    0    0    0  0.00000000000E+00  0.00000000000E+00  0.99999998245E-14  0.12500000000E+03  0.12500000000E+03 0.  0.
        -13    1    3    3    0    0 -0.33495422419E+02 -0.43322610156E+02  0.10093426791E+02  0.55683752587E+02  0.10566000000E+00 0. -1.
         23    2    1    0    0    0 -0.24207009325E+02 -0.14945418876E+02 -0.13281066175E+02  0.93603637717E+02  0.88181117192E+02 0.  0.
         13    1    3    3    0    0  0.92884130943E+01  0.28377191280E+02 -0.23374492967E+02  0.37919885130E+02  0.10566000000E+00 0.  1.
         22    1    1    0    0    0  0.24207009325E+02  0.14945418876E+02  0.13281066175E+02  0.31396362283E+02  0.00000000000E+00 0. -1.
</event>
<event>
 5    1  0.9034713E-005  0.9118800E+02  0.7818608E-02  0.1130116E+00
         25   -1    0    0    0    0  0.00000000000E+00  0.00000000000E+00  0.99999998245E-14  0.12500000000E+03  0.12500000000E+03 0.  0.
        -13    1    3    3    0    0  0.20785826978E+02  0.35974143181E+02  0.13505428382E+02  0.43687496388E+02  0.10566000000E+00 0.  1.
         23    2    1    0    0    0  0.25155083069E+02 -0.92579879245E+01 -0.11813404200E+02  0.95707593759E+02  0.91114754237E+02 0.  0.
         13    1    3    3    0    0  0.43692560913E+01 -0.45232131106E+02 -0.25318832582E+02  0.52020097371E+02  0.10566000000E+00 0. -1.
         22    1    1    0    0    0 -0.25155083069E+02  0.92579879245E+01  0.11813404200E+02  0.29292406241E+02  0.00000000000E+00 0. -1.
</event>
<event>
 5    1  0.9034713E-005  0.9118800E+02  0.7818608E-02  0.1130116E+00
         25   -1    0    0    0    0  0.00000000000E+00  0.00000000000E+00  0.99999998245E-14  0.12500000000E+03  0.12500000000E+03 0.  0.
        -13    1    3    3    0    0  0.81813237736E+01  0.41461844666E+02  0.16029172886E+02  0.45199161156E+02  0.10566000000E+00 0.  1.
         23    2    1    0    0    0  0.25057644066E+02  0.16806145728E+02 -0.17508855437E+02  0.90116019735E+02  0.83090342001E+02 0.  0.
         13    1    3    3    0    0  0.16876320293E+02 -0.24655698938E+02 -0.33538028323E+02  0.44916858579E+02  0.10566000000E+00 0. -1.
         22    1    1    0    0    0 -0.25057644066E+02 -0.16806145728E+02  0.17508855437E+02  0.34883980265E+02  0.00000000000E+00 0. -1.
</event>
<event>
 5    1  0.9034713E-005  0.9118800E+02  0.7818608E-02  0.1130116E+00
         25   -1    0    0    0    0  0.00000000000E+00  0.00000000000E+00  0.99999998245E-14  0.12500000000E+03  0.12500000000E+03 0.  0.
        -13    1    3    3    0    0 -0.12299586675E+02  0.16160367137E+02 -0.53630387150E+02  0.57346899553E+02  0.10566000000E+00 0. -1.
         23    2    1    0    0    0 -0.80609537658E+01  0.24817777885E+02 -0.20602099606E+02  0.91753231992E+02  0.85517881160E+02 0.  0.
         13    1    3    3    0    0  0.42386329087E+01  0.86574107485E+01  0.33028287545E+02  0.34406332440E+02  0.10566000000E+00 0.  1.
         22    1    1    0    0    0  0.80609537658E+01 -0.24817777885E+02  0.20602099606E+02  0.33246768008E+02  0.00000000000E+00 0. -1.
</event>
<event>
 5    1  0.9034713E-005  0.9118800E+02  0.7818608E-02  0.1130116E+00
         25   -1    0    0    0    0  0.00000000000E+00  0.00000000000E+00  0.99999998245E-14  0.12500000000E+03  0.12500000000E+03 0.  0.
        -13    1    3    3    0    0 -0.14457794511E+01 -0.15531606249E+02 -0.14131280731E+02  0.21048166904E+02  0.10566000000E+00 0. -1.
         23    2    1    0    0    0 -0.44730769199E+02 -0.17176475904E+02  0.16745451044E+02  0.74242900317E+02  0.54182331799E+02 0.  0.
         13    1    3    3    0    0 -0.43284989748E+02 -0.16448696550E+01  0.30876731775E+02  0.53194733412E+02  0.10566000000E+00 0.  1.
         22    1    1    0    0    0  0.44730769199E+02  0.17176475904E+02 -0.16745451044E+02  0.50757099683E+02  0.00000000000E+00 0.  1.
</event>
<event>
 5    1  0.9034713E-005  0.9118800E+02  0.7818608E-02  0.1130116E+00
         25   -1    0    0    0    0  0.00000000000E+00  0.00000000000E+00  0.99999998245E-14  0.12500000000E+03  0.12500000000E+03 0.  0.
        -13    1    3    3    0    0 -0.27982443490E+02 -0.34944096800E+02  0.25738907106E+02  0.51639224896E+02  0.10566000000E+00 0. -1.
         23    2    1    0    0    0 -0.18857357621E+02 -0.19286518648E+02 -0.13482059428E+02  0.94844807007E+02  0.89923310392E+02 0.  0.
         13    1    3    3    0    0  0.91250858695E+01  0.15657578152E+02 -0.39220966533E+02  0.43205582111E+02  0.10566000000E+00 0.  1.
         22    1    1    0    0    0  0.18857357621E+02  0.19286518648E+02  0.13482059428E+02  0.30155192993E+02  0.00000000000E+00 0. -1.
</event>
<event>
 5    1  0.9034713E-005  0.9118800E+02  0.7818608E-02  0.1130116E+00
         25   -1    0    0    0    0  0.00000000000E+00  0.00000000000E+00  0.99999998245E-14  0.12500000000E+03  0.12500000000E+03 0.  0.
        -13    1    3    3    0    0 -0.18554280924E+01  0.31844618658E+02 -0.17395687984E+02  0.36333778710E+02  0.10566000000E+00 0. -1.
         23    2    1    0    0    0  0.22602204506E+02 -0.13106520174E+02  0.12961106720E+02  0.95834424281E+02  0.91288586747E+02 0.  0.
         13    1    3    3    0    0  0.24457632599E+02 -0.44951138832E+02  0.30356794704E+02  0.59500645571E+02  0.10566000000E+00 0.  1.
         22    1    1    0    0    0 -0.22602204506E+02  0.13106520174E+02 -0.12961106720E+02  0.29165575719E+02  0.00000000000E+00 0.  1.
</event>
<event>
 5    1  0.9034713E-005  0.9118800E+02  0.7818608E-02  0.1130116E+00
         25   -1    0    0    0    0  0.00000000000E+00  0.00000000000E+00  0.99999998245E-14  0.12500000000E+03  0.12500000000E+03 0.  0.
        -13    1    3    3    0    0 -0.10950413689E+02 -0.29450708180E+02  0.26769289420E+02  0.41277860802E+02  0.10566000000E+00 0.  1.
         23    2    1    0    0    0 -0.29583342974E+02  0.12931242137E+02  0.16672402425E+02  0.88663238899E+02  0.80875272640E+02 0.  0.
         13    1    3    3    0    0 -0.18632929285E+02  0.42381950317E+02 -0.10096886995E+02  0.47385378097E+02  0.10566000000E+00 0. -1.
         22    1    1    0    0    0  0.29583342974E+02 -0.12931242137E+02 -0.16672402425E+02  0.36336761101E+02  0.00000000000E+00 0.  1.
</event>
<event>
 5    1  0.9034713E-005  0.9118800E+02  0.7818608E-02  0.1130116E+00
         25   -1    0    0    0    0  0.00000000000E+00  0.00000000000E+00  0.99999998245E-14  0.12500000000E+03  0.12500000000E+03 0.  0.
        -13    1    3    3    0    0 -0.98227340100E+01  0.57125639699E+02  0.80384595734E+01  0.58518824414E+02  0.10566000000E+00 0. -1.
         23    2    1    0    0    0  0.11306416204E+02  0.26163072814E+02  0.39415483386E+01  0.96227144220E+02  0.91824757309E+02 0.  0.
         13    1    3    3    0    0  0.21129150214E+02 -0.30962566885E+02 -0.40969112348E+01  0.37708319806E+02  0.10566000000E+00 0.  1.
         22    1    1    0    0    0 -0.11306416204E+02 -0.26163072814E+02 -0.39415483386E+01  0.28772855780E+02  0.00000000000E+00 0. -1.
</event>
<event>
 5    1  0.9034713E-005  0.9118800E+02  0.7818608E-02  0.1130116E+00
         25   -1    0    0    0    0  0.00000000000E+00  0.00000000000E+00  0.99999998245E-14  0.12500000000E+03  0.12500000000E+03 0.  0.
        -13    1    3    3    0    0  0.29664718136E+02 -0.26931730937E+02 -0.17335149430E+02  0.43655838134E+02  0.10566000000E+00 0.  1.
         23    2    1    0    0    0  0.39142658058E+01 -0.98500590888E+01  0.26024406358E+02  0.96899913396E+02  0.92736068221E+02 0.  0.
         13    1    3    3    0    0 -0.25750452330E+02  0.17081671849E+02  0.43359555788E+02  0.53244075262E+02  0.10566000000E+00 0. -1.
         22    1    1    0    0    0 -0.39142658058E+01  0.98500590888E+01 -0.26024406358E+02  0.28100086604E+02  0.00000000000E+00 0.  1.
</event>
<event>
 5    1  0.9034713E-005  0.9118800E+02  0.7818608E-02  0.1130116E+00
         25   -1    0    0    0    0  0.00000000000E+00  0.00000000000E+00  0.99999998245E-14  0.12500000000E+03  0.12500000000E+03 0.  0.
        -13    1    3    3    0    0  0.20317843686E+02  0.13729469942E+02  0.23363835559E+02  0.33870239046E+02  0.10566000000E+00 0. -1.
         23    2    1    0    0    0 -0.39413567778E+01 -0.17765585332E+02 -0.23469754820E+02  0.95301856847E+02  0.90556414526E+02 0.  0.
         13    1    3    3    0    0 -0.24259200464E+02 -0.31495055274E+02 -0.46833590379E+02  0.61431617801E+02  0.10566000000E+00 0.  1.
         22    1    1    0    0    0  0.39413567778E+01  0.17765585332E+02  0.23469754820E+02  0.29698143153E+02  0.00000000000E+00 0.  1.
</event>
<event>
 5    1  0.9034713E-005  0.9118800E+02  0.7818608E-02  0.1130116E+00
         25   -1    0    0    0    0  0.00000000000E+00  0.00000000000E+00  0.99999998245E-14  0.12500000000E+03  0.12500000000E+03 0.  0.
        -13    1    3    3    0    0 -0.86955567154E+01  0.31682365480E+02 -0.11018687002E+02  0.34652671128E+02  0.10566000000E+00 0.  1.
         23    2    1    0    0    0  0.22711106563E+02 -0.17482575165E+02  0.65882037069E+01  0.95591851065E+02  0.90955828655E+02 0.  0.
         13    1    3    3    0    0  0.31406663278E+02 -0.49164940646E+02  0.17606890709E+02  0.60939179937E+02  0.10566000000E+00 0. -1.
         22    1    1    0    0    0 -0.22711106563E+02  0.17482575165E+02 -0.65882037069E+01  0.29408148935E+02  0.00000000000E+00 0. -1.
</event>
<event>
 5    1  0.9034713E-005  0.9118800E+02  0.7818608E-02  0.1130116E+00
         25   -1    0    0    0    0  0.00000000000E+00  0.00000000000E+00  0.99999998245E-14  0.12500000000E+03  0.12500000000E+03 0.  0.
        -13    1    3    3    0    0  0.29025056645E+02 -0.17354870252E+02 -0.52261855730E+02  0.62249161947E+02  0.10566000000E+00 0. -1.
         23    2    1    0    0    0  0.16276950968E+02 -0.58628337821E+01 -0.22339771955E+02  0.96744427739E+02  0.92526249977E+02 0.  0.
         13    1    3    3    0    0 -0.12748105677E+02  0.11492036470E+02  0.29922083775E+02  0.34495265792E+02  0.10566000000E+00 0.  1.
         22    1    1    0    0    0 -0.16276950968E+02  0.58628337821E+01  0.22339771955E+02  0.28255572261E+02  0.00000000000E+00 0. -1.
</event>
<event>
 5    1  0.9034713E-005  0.9118800E+02  0.7818608E-02  0.1130116E+00
         25   -1    0    0    0    0  0.00000000000E+00  0.00000000000E+00  0.99999998245E-14  0.12500000000E+03  0.12500000000E+03 0.  0.
        -13    1    3    3    0    0  0.47934626886E+02 -0.74021032793E+01 -0.23459642419E+02  0.53878433293E+02  0.10566000000E+00 0.  1.
         23    2    1    0    0    0  0.11881693227E+02  0.12151838195E+02 -0.24824049699E+02  0.94915531434E+02  0.90021568851E+02 0.  0.
         13    1    3    3    0    0 -0.36052933658E+02  0.19553941474E+02 -0.13644072792E+01  0.41037098141E+02  0.10566000000E+00 0. -1.
         22    1    1    0    0    0 -0.11881693227E+02 -0.12151838195E+02  0.24824049699E+02  0.30084468566E+02  0.00000000000E+00 0.  1.
</event>
<event>
 5    1  0.9034713E-005  0.9118800E+02  0.7818608E-02  0.1130116E+00
         25   -1    0    0    0    0  0.00000000000E+00  0.00000000000E+00  0.99999998245E-14  0.12500000000E+03  0.12500000000E+03 0.  0.
        -13    1    3    3    0    0  0.10406418931E+02 -0.42273829808E+02 -0.10992928131E+02  0.44902403884E+02  0.10566000000E+00 0.  1.
         23    2    1    0    0    0  0.21851442671E+02  0.20632529901E-01  0.17360376531E+02  0.97091781751E+02  0.92994330138E+02 0.  0.
         13    1    3    3    0    0  0.11445023740E+02  0.42294462338E+02  0.28353304662E+02  0.52189377867E+02  0.10566000000E+00 0. -1.
         22    1    1    0    0    0 -0.21851442671E+02 -0.20632529901E-01 -0.17360376531E+02  0.27908218249E+02  0.00000000000E+00 0.  1.
</event>
<event>
 5    1  0.9034713E-005  0.9118800E+02  0.7818608E-02  0.1130116E+00
         25   -1    0    0    0    0  0.00000000000E+00  0.00000000000E+00  0.99999998245E-14  0.12500000000E+03  0.12500000000E+03 0.  0.
        -13    1    3    3    0    0 -0.48351461060E+02  0.10114536403E+02 -0.70400773198E+01  0.49897309406E+02  0.10566000000E+00 0. -1.
         23    2    1    0    0    0 -0.17243889421E+02 -0.18690697747E+02  0.12597460579E+02  0.96620607518E+02  0.92358821341E+02 0.  0.
         13    1    3    3    0    0  0.31107571639E+02 -0.28805234149E+02  0.19637537899E+02  0.46723298112E+02  0.10566000000E+00 0.  1.
         22    1    1    0    0    0  0.17243889421E+02  0.18690697747E+02 -0.12597460579E+02  0.28379392482E+02  0.00000000000E+00 0. -1.
</event>
<event>
 5    1  0.9034713E-005  0.9118800E+02  0.7818608E-02  0.1130116E+00
         25   -1    0    0    0    0  0.00000000000E+00  0.00000000000E+00  0.99999998245E-14  0.12500000000E+03  0.12500000000E+03 0.  0.
        -13    1    3    3    0    0  0.49094838052E+02  0.27739686322E+02  0.12169769592E+01  0.56402885720E+02  0.10566000000E+00 0. -1.
         23    2    1    0    0    0  0.12359687842E+02  0.29306836258E+02  0.11803911973E+01  0.93171618665E+02  0.87566572767E+02 0.  0.
         13    1    3    3    0    0 -0.36735150209E+02  0.15671499363E+01 -0.36585761928E-01  0.36768732945E+02  0.10566000000E+00 0.  1.
         22    1    1    0    0    0 -0.12359687842E+02 -0.29306836258E+02 -0.11803911973E+01  0.31828381335E+02  0.00000000000E+00 0. -1.
</event>
<event>
 5    1  0.9034713E-005  0.9118800E+02  0.7818608E-02  0.1130116E+00
         25   -1    0    0    0    0  0.00000000000E+00  0.00000000000E+00  0.99999998245E-14  0.12500000000E+03  0.12500000000E+03 0.  0.
        -13    1    3    3    0    0 -0.37352814786E+02  0.36872116769E+02 -0.29794069140E+02  0.60352990708E+02  0.10566000000E+00 0.  1.
         23    2    1    0    0    0 -0.17115447468E+02  0.22596656408E+02 -0.35599218280E+01  0.96430427614E+02  0.92101068960E+02 0.  0.
         13    1    3    3    0    0  0.20237367318E+02 -0.14275460361E+02  0.26234147312E+02  0.36077436906E+02  0.10566000000E+00 0. -1.
         22    1    1    0    0    0  0.17115447468E+02 -0.22596656408E+02  0.35599218280E+01  0.28569572386E+02  0.00000000000E+00 0.  1.
</event>
<event>
 5    1  0.9034713E-005  0.9118800E+02  0.7818608E-02  0.1130116E+00
         25   -1    0    0    0    0  0.00000000000E+00  0.00000000000E+00  0.99999998245E-14  0.12500000000E+03  0.12500000000E+03 0.  0.
        -13    1    3    3    0    0 -0.11829099347E+02 -0.14411774226E+01  0.50509654063E+02  0.51896444015E+02  0.10566000000E+00 0. -1.
         23    2    1    0    0    0 -0.74936111281E+01  0.24076007673E+02  0.15619698859E+02  0.95338857984E+02  0.90607474836E+02 0.  0.
         13    1    3    3    0    0  0.43354882193E+01  0.25517185096E+02 -0.34889955204E+02  0.43442413970E+02  0.10566000000E+00 0.  1.
         22    1    1    0    0    0  0.74936111281E+01 -0.24076007673E+02 -0.15619698859E+02  0.29661142016E+02  0.00000000000E+00 0. -1.
</event>
<event>
 5    1  0.9034713E-005  0.9118800E+02  0.7818608E-02  0.1130116E+00
         25   -1    0    0    0    0  0.00000000000E+00  0.00000000000E+00  0.99999998245E-14  0.12500000000E+03  0.12500000000E+03 0.  0.
        -13    1    3    3    0    0  0.27620559706E+02 -0.18790820911E+02  0.43120870083E+02  0.54547326880E+02  0.10566000000E+00 0.  1.
         23    2    1    0    0    0  0.66003594527E+01  0.47583683904E+01  0.37521614175E+02  0.86606272062E+02  0.77630973301E+02 0.  0.
         13    1    3    3    0    0 -0.21020200253E+02  0.23549189301E+02 -0.55992559083E+01  0.32058945182E+02  0.10566000000E+00 0. -1.
         22    1    1    0    0    0 -0.66003594527E+01 -0.47583683904E+01 -0.37521614175E+02  0.38393727938E+02  0.00000000000E+00 0.  1.
</event>
<event>
 5    1  0.9034713E-005  0.9118800E+02  0.7818608E-02  0.1130116E+00
         25   -1    0    0    0    0  0.00000000000E+00  0.00000000000E+00  0.99999998245E-14  0.12500000000E+03  0.12500000000E+03 0.  0.
        -13    1    3    3    0    0 -0.37896114368E+02 -0.23496501107E+02  0.31908607856E+02  0.54830388179E+02  0.10566000000E+00 0.  1.
         23    2    1    0    0    0  0.43958860630E+00 -0.23846972444E+02  0.88985083442E+01  0.99543079848E+02  0.96232894387E+02 0.  0.
         13    1    3    3    0    0  0.38335702975E+02 -0.35047133675E+00 -0.23010099512E+02  0.44712691669E+02  0.10566000000E+00 0. -1.
         22    1    1    0    0    0 -0.43958860630E+00  0.23846972444E+02 -0.88985083442E+01  0.25456920152E+02  0.00000000000E+00 0.  1.
</event>
<event>
 5    1  0.9034713E-005  0.9118800E+02  0.7818608E-02  0.1130116E+00
         25   -1    0    0    0    0  0.00000000000E+00  0.00000000000E+00  0.99999998245E-14  0.12500000000E+03  0.12500000000E+03 0.  0.
        -13    1    3    3    0    0 -0.32904883799E+02  0.62928510285E+01 -0.11966464275E+02  0.35574411916E+02  0.10566000000E+00 0.  1.
         23    2    1    0    0    0  0.25317646757E+02 -0.51223407299E+01 -0.15262917480E+02  0.94997029116E+02  0.90134661918E+02 0.  0.
         13    1    3    3    0    0  0.58222530555E+02 -0.11415191758E+02 -0.32964532049E+01  0.59422617200E+02  0.10566000000E+00 0. -1.
         22    1    1    0    0    0 -0.25317646757E+02  0.51223407299E+01  0.15262917480E+02  0.30002970884E+02  0.00000000000E+00 0. -1.
</event>
<event>
 5    1  0.9034713E-005  0.9118800E+02  0.7818608E-02  0.1130116E+00
         25   -1    0    0    0    0  0.00000000000E+00  0.00000000000E+00  0.99999998245E-14  0.12500000000E+03  0.12500000000E+03 0.  0.
        -13    1    3    3    0    0 -0.38526113463E+02 -0.42990490511E+02  0.68531966371E+01  0.58132789036E+02  0.10566000000E+00 0.  1.
         23    2    1    0    0    0 -0.11959506399E+02 -0.24063316377E+02 -0.11736243440E+02  0.95677442157E+02  0.91073379970E+02 0.  0.
         13    1    3    3    0    0  0.26566607064E+02  0.18927174134E+02 -0.18589440077E+02  0.37544653121E+02  0.10566000000E+00 0. -1.
         22    1    1    0    0    0  0.11959506399E+02  0.24063316377E+02  0.11736243440E+02  0.29322557843E+02  0.00000000000E+00 0.  1.
</event>
<event>
 5    1  0.9034713E-005  0.9118800E+02  0.7818608E-02  0.1130116E+00
         25   -1    0    0    0    0  0.00000000000E+00  0.00000000000E+00  0.99999998245E-14  0.12500000000E+03  0.12500000000E+03 0.  0.
        -13    1    3    3    0    0 -0.36895381370E+01 -0.11163263792E+02 -0.30241732559E+02  0.32446952127E+02  0.10566000000E+00 0.  1.
         23    2    1    0    0    0  0.44457267129E+00  0.19729884584E+02  0.23340111799E+02  0.94434875931E+02  0.89351659094E+02 0.  0.
         13    1    3    3    0    0  0.41341108083E+01  0.30893148376E+02  0.53581844358E+02  0.61987923804E+02  0.10566000000E+00 0. -1.
         22    1    1    0    0    0 -0.44457267129E+00 -0.19729884584E+02 -0.23340111799E+02  0.30565124069E+02  0.00000000000E+00 0. -1.
</event>
<event>
 5    1  0.9034713E-005  0.9118800E+02  0.7818608E-02  0.1130116E+00
         25   -1    0    0    0    0  0.00000000000E+00  0.00000000000E+00  0.99999998245E-14  0.12500000000E+03  0.12500000000E+03 0.  0.
        -13    1    3    3    0    0 -0.23872553143E+02 -0.70209411116E+01  0.23838173091E+02  0.34459571501E+02  0.10566000000E+00 0. -1.
         23    2    1    0    0    0  0.19699939840E+02  0.22037390882E+02 -0.61462461095E+01  0.94808766706E+02  0.89873197765E+02 0.  0.
         13    1    3    3    0    0  0.43572492984E+02  0.29058331993E+02 -0.29984419201E+02  0.60349195205E+02  0.10566000000E+00 0.  1.
         22    1    1    0    0    0 -0.19699939840E+02 -0.22037390882E+02  0.61462461095E+01  0.30191233294E+02  0.00000000000E+00 0.  1.
</event>
<event>
 5    1  0.9034713E-005  0.9118800E+02  0.7818608E-02  0.1130116E+00
         25   -1    0    0    0    0  0.00000000000E+00  0.00000000000E+00  0.99999998245E-14  0.12500000000E+03  0.12500000000E+03 0.  0.
        -13    1    3    3    0    0  0.50302140274E+02 -0.50648007185E+01 -0.19918261262E+02  0.54338805822E+02  0.10566000000E+00 0.  1.
         23    2    1    0    0    0  0.24925893312E+02 -0.70739715812E+01  0.13048283706E+02  0.95989675304E+02  0.91500922542E+02 0.  0.
         13    1    3    3    0    0 -0.25376246962E+02 -0.20091708627E+01  0.32966544968E+02  0.41650869482E+02  0.10566000000E+00 0. -1.
         22    1    1    0    0    0 -0.24925893312E+02  0.70739715812E+01 -0.13048283706E+02  0.29010324696E+02  0.00000000000E+00 0.  1.
</event>
<event>
 5    1  0.9034713E-005  0.9118800E+02  0.7818608E-02  0.1130116E+00
         25   -1    0    0    0    0  0.00000000000E+00  0.00000000000E+00  0.99999998245E-14  0.12500000000E+03  0.12500000000E+03 0.  0.
        -13    1    3    3    0    0  0.25676489589E+02 -0.21413415530E+02  0.83082454133E+01  0.34450755988E+02  0.10566000000E+00 0. -1.
         23    2    1    0    0    0 -0.27186281709E+02 -0.38749264926E+01  0.19576328277E+02  0.91275504492E+02  0.84816720775E+02 0.  0.
         13    1    3    3    0    0 -0.52862771298E+02  0.17538489037E+02  0.11268082863E+02  0.56824748504E+02  0.10566000000E+00 0.  1.
         22    1    1    0    0    0  0.27186281709E+02  0.38749264926E+01 -0.19576328277E+02  0.33724495508E+02  0.00000000000E+00 0.  1.
</event>
<event>
 5    1  0.9034713E-005  0.9118800E+02  0.7818608E-02  0.1130116E+00
         25   -1    0    0    0    0  0.00000000000E+00  0.00000000000E+00  0.99999998245E-14  0.12500000000E+03  0.12500000000E+03 0.  0.
        -13    1    3    3    0    0  0.10502391634E+02  0.46011561680E+02  0.31017297976E+02  0.56475197884E+02  0.10566000000E+00 0.  1.
         23    2    1    0    0    0 -0.48787291736E+01  0.10880297566E+02  0.27547193938E+02  0.94982825461E+02  0.90114961939E+02 0.  0.
         13    1    3    3    0    0 -0.15381120808E+02 -0.35131264114E+02 -0.34701040385E+01  0.38507627577E+02  0.10566000000E+00 0. -1.
         22    1    1    0    0    0  0.48787291736E+01 -0.10880297566E+02 -0.27547193938E+02  0.30017174539E+02  0.00000000000E+00 0.  1.
</event>
<event>
 5    1  0.9034713E-005  0.9118800E+02  0.7818608E-02  0.1130116E+00
         25   -1    0    0    0    0  0.00000000000E+00  0.00000000000E+00  0.99999998245E-14  0.12500000000E+03  0.12500000000E+03 0.  0.
        -13    1    3    3    0    0 -0.65989615372E+01  0.36515111552E+02  0.26491469872E+02  0.45592859145E+02  0.10566000000E+00 0.  1.
         23    2    1    0    0    0 -0.32647344772E+02  0.11244727827E+02  0.93345910761E-01  0.90470277469E+02  0.83621584339E+02 0.  0.
         13    1    3    3    0    0 -0.26048383235E+02 -0.25270383725E+02 -0.26398123961E+02  0.44877418324E+02  0.10566000000E+00 0. -1.
         22    1    1    0    0    0  0.32647344772E+02 -0.11244727827E+02 -0.93345910761E-01  0.34529722531E+02  0.00000000000E+00 0.  1.
</event>
<event>
 5    1  0.9034713E-005  0.9118800E+02  0.7818608E-02  0.1130116E+00
         25   -1    0    0    0    0  0.00000000000E+00  0.00000000000E+00  0.99999998245E-14  0.12500000000E+03  0.12500000000E+03 0.  0.
        -13    1    3    3    0    0 -0.16414004261E+02 -0.56466432791E+02 -0.19910974673E+02  0.62083296018E+02  0.10566000000E+00 0.  1.
         23    2    1    0    0    0 -0.27433276535E+01 -0.27478711560E+02 -0.84461823568E+01  0.96121921255E+02  0.91681406586E+02 0.  0.
         13    1    3    3    0    0  0.13670676608E+02  0.28987721231E+02  0.11464792317E+02  0.34038625236E+02  0.10566000000E+00 0. -1.
         22    1    1    0    0    0  0.27433276535E+01  0.27478711560E+02  0.84461823568E+01  0.28878078745E+02  0.00000000000E+00 0.  1.
</event>
<event>
 5    1  0.9034713E-005  0.9118800E+02  0.7818608E-02  0.1130116E+00
         25   -1    0    0    0    0  0.00000000000E+00  0.00000000000E+00  0.99999998245E-14  0.12500000000E+03  0.12500000000E+03 0.  0.
        -13    1    3    3    0    0  0.15874174891E+02  0.23466899279E+02  0.48168914033E+02  0.55883273288E+02  0.10566000000E+00 0.  1.
         23    2    1    0    0    0  0.14136860679E+02 -0.91855371080E+01  0.15760624856E+02  0.10192139047E+03  0.99274103464E+02 0.  0.
         13    1    3    3    0    0 -0.17373142124E+01 -0.32652436387E+02 -0.32408289177E+02  0.46038117186E+02  0.10566000000E+00 0. -1.
         22    1    1    0    0    0 -0.14136860679E+02  0.91855371080E+01 -0.15760624856E+02  0.23078609526E+02  0.00000000000E+00 0. -1.
</event>
<event>
 5    1  0.9034713E-005  0.9118800E+02  0.7818608E-02  0.1130116E+00
         25   -1    0    0    0    0  0.00000000000E+00  0.00000000000E+00  0.99999998245E-14  0.12500000000E+03  0.12500000000E+03 0.  0.
        -13    1    3    3    0    0 -0.24955038020E+02 -0.11107327907E+02  0.28026090650E+02  0.39135656082E+02  0.10566000000E+00 0.  1.
         23    2    1    0    0    0 -0.77479436802E+01 -0.61207964713E+01 -0.26601050745E+02  0.96625527645E+02  0.92365480084E+02 0.  0.
         13    1    3    3    0    0  0.17207094340E+02  0.49865314356E+01 -0.54627141394E+02  0.57489871563E+02  0.10566000000E+00 0. -1.
         22    1    1    0    0    0  0.77479436802E+01  0.61207964713E+01  0.26601050745E+02  0.28374472355E+02  0.00000000000E+00 0.  1.
</event>
<event>
 5    1  0.9034713E-005  0.9118800E+02  0.7818608E-02  0.1130116E+00
         25   -1    0    0    0    0  0.00000000000E+00  0.00000000000E+00  0.99999998245E-14  0.12500000000E+03  0.12500000000E+03 0.  0.
        -13    1    3    3    0    0  0.22013270848E+01  0.93148547249E+01  0.55301542966E+02  0.56123828967E+02  0.10566000000E+00 0.  1.
         23    2    1    0    0    0  0.92980307412E+01 -0.13918464036E+02  0.23750307762E+02  0.95943948383E+02  0.91438433362E+02 0.  0.
         13    1    3    3    0    0  0.70967036564E+01 -0.23233318761E+02 -0.31551235203E+02  0.39820119416E+02  0.10566000000E+00 0. -1.
         22    1    1    0    0    0 -0.92980307412E+01  0.13918464036E+02 -0.23750307762E+02  0.29056051617E+02  0.00000000000E+00 0.  1.
</event>
<event>
 5    1  0.9034713E-005  0.9118800E+02  0.7818608E-02  0.1130116E+00
         25   -1    0    0    0    0  0.00000000000E+00  0.00000000000E+00  0.99999998245E-14  0.12500000000E+03  0.12500000000E+03 0.  0.
        -13    1    3    3    0    0 -0.40944614706E+02 -0.26529181697E+02  0.36590522495E+01  0.48925032267E+02  0.10566000000E+00 0.  1.
         23    2    1    0    0    0  0.48692099856E+01 -0.21852608130E+02  0.17020579278E+02  0.96876241238E+02  0.92704154758E+02 0.  0.
         13    1    3    3    0    0  0.45813824692E+02  0.46765735666E+01  0.13361527029E+02  0.47951208971E+02  0.10566000000E+00 0. -1.
         22    1    1    0    0    0 -0.48692099856E+01  0.21852608130E+02 -0.17020579278E+02  0.28123758762E+02  0.00000000000E+00 0.  1.
</event>
<event>
 5    1  0.9034713E-005  0.9118800E+02  0.7818608E-02  0.1130116E+00
         25   -1    0    0    0    0  0.00000000000E+00  0.00000000000E+00  0.99999998245E-14  0.12500000000E+03  0.12500000000E+03 0.  0.
        -13    1    3    3    0    0 -0.22840370661E+02  0.51137006129E+02  0.22997485660E+02  0.60543962857E+02  0.10566000000E+00 0. -1.
         23    2    1    0    0    0 -0.17757355785E+02  0.18390178338E+02  0.17204851825E+02  0.94185567179E+02  0.89002201066E+02 0.  0.
         13    1    3    3    0    0  0.50830148761E+01 -0.32746827790E+02 -0.57926338351E+01  0.33641604322E+02  0.10566000000E+00 0.  1.
         22    1    1    0    0    0  0.17757355785E+02 -0.18390178338E+02 -0.17204851825E+02  0.30814432821E+02  0.00000000000E+00 0. -1.
</event>
<event>
 5    1  0.9034713E-005  0.9118800E+02  0.7818608E-02  0.1130116E+00
         25   -1    0    0    0    0  0.00000000000E+00  0.00000000000E+00  0.99999998245E-14  0.12500000000E+03  0.12500000000E+03 0.  0.
        -13    1    3    3    0    0  0.16710069720E+02  0.28932232369E+02 -0.13991417412E+02  0.36222526487E+02  0.10566000000E+00 0.  1.
         23    2    1    0    0    0 -0.30901773571E+02  0.25251250447E+02 -0.58005012354E+01  0.84673940516E+02  0.74454584338E+02 0.  0.
         13    1    3    3    0    0 -0.47611843291E+02 -0.36809819221E+01  0.81909161768E+01  0.48451414028E+02  0.10566000000E+00 0. -1.
         22    1    1    0    0    0  0.30901773571E+02 -0.25251250447E+02  0.58005012354E+01  0.40326059484E+02  0.00000000000E+00 0. -1.
</event>
<event>
 5    1  0.9034713E-005  0.9118800E+02  0.7818608E-02  0.1130116E+00
         25   -1    0    0    0    0  0.00000000000E+00  0.00000000000E+00  0.99999998245E-14  0.12500000000E+03  0.12500000000E+03 0.  0.
        -13    1    3    3    0    0 -0.75366403322E+01  0.54160552203E+02 -0.29765666767E+02  0.62258914579E+02  0.10566000000E+00 0.  1.
         23    2    1    0    0    0  0.39186790082E-01  0.27019675165E+02 -0.13493293817E+02  0.94798454350E+02  0.89858853696E+02 0.  0.
         13    1    3    3    0    0  0.75758271223E+01 -0.27140877039E+02  0.16272372950E+02  0.32539539771E+02  0.10566000000E+00 0. -1.
         22    1    1    0    0    0 -0.39186790082E-01 -0.27019675165E+02  0.13493293817E+02  0.30201545650E+02  0.00000000000E+00 0.  1.
</event>
<event>
 5    1  0.9034713E-005  0.9118800E+02  0.7818608E-02  0.1130116E+00
         25   -1    0    0    0    0  0.00000000000E+00  0.00000000000E+00  0.99999998245E-14  0.12500000000E+03  0.12500000000E+03 0.  0.
        -13    1    3    3    0    0  0.13919314541E+02  0.18805372127E+02  0.24061221594E+02  0.33561032266E+02  0.10566000000E+00 0. -1.
         23    2    1    0    0    0 -0.24940138365E+02 -0.10879647399E+02 -0.12927542698E+02  0.94875282750E+02  0.89965663936E+02 0.  0.
         13    1    3    3    0    0 -0.38859452906E+02 -0.29685019526E+02 -0.36988764292E+02  0.61314250483E+02  0.10566000000E+00 0.  1.
         22    1    1    0    0    0  0.24940138365E+02  0.10879647399E+02  0.12927542698E+02  0.30124717250E+02  0.00000000000E+00 0.  1.
</event>
<event>
 5    1  0.9034713E-005  0.9118800E+02  0.7818608E-02  0.1130116E+00
         25   -1    0    0    0    0  0.00000000000E+00  0.00000000000E+00  0.99999998245E-14  0.12500000000E+03  0.12500000000E+03 0.  0.
        -13    1    3    3    0    0 -0.18515703157E+02  0.29547102042E+02 -0.19310692331E+02  0.39859459415E+02  0.10566000000E+00 0.  1.
         23    2    1    0    0    0 -0.19812944245E+02 -0.10873267712E+02  0.18930950917E+02  0.95518453008E+02  0.90854902191E+02 0.  0.
         13    1    3    3    0    0 -0.12972410877E+01 -0.40420369754E+02  0.38241643248E+02  0.55658993594E+02  0.10566000000E+00 0. -1.
         22    1    1    0    0    0  0.19812944245E+02  0.10873267712E+02 -0.18930950917E+02  0.29481546992E+02  0.00000000000E+00 0. -1.
</event>
<event>
 5    1  0.9034713E-005  0.9118800E+02  0.7818608E-02  0.1130116E+00
         25   -1    0    0    0    0  0.00000000000E+00  0.00000000000E+00  0.99999998245E-14  0.12500000000E+03  0.12500000000E+03 0.  0.
        -13    1    3    3    0    0  0.23655949699E+01 -0.32861479970E+02  0.21275806298E+02  0.39219179020E+02  0.10566000000E+00 0.  1.
         23    2    1    0    0    0 -0.12625823500E+02  0.26232739699E+01 -0.23444411621E+02  0.98243067783E+02  0.94529185683E+02 0.  0.
         13    1    3    3    0    0 -0.14991418470E+02  0.35484753940E+02 -0.44720217920E+02  0.59023888763E+02  0.10566000000E+00 0. -1.
         22    1    1    0    0    0  0.12625823500E+02 -0.26232739699E+01  0.23444411621E+02  0.26756932217E+02  0.00000000000E+00 0. -1.
</event>
<event>
 5    1  0.9034713E-005  0.9118800E+02  0.7818608E-02  0.1130116E+00
         25   -1    0    0    0    0  0.00000000000E+00  0.00000000000E+00  0.99999998245E-14  0.12500000000E+03  0.12500000000E+03 0.  0.
        -13    1    3    3    0    0 -0.12562648227E+02 -0.52272406051E+01  0.34932939212E+02  0.37489539619E+02  0.10566000000E+00 0. -1.
         23    2    1    0    0    0 -0.20331754047E+02  0.13541633033E+00 -0.21909005002E+02  0.95110151215E+02  0.90291404927E+02 0.  0.
         13    1    3    3    0    0 -0.77691058200E+01  0.53626569354E+01 -0.56841944214E+02  0.57620611596E+02  0.10566000000E+00 0.  1.
         22    1    1    0    0    0  0.20331754047E+02 -0.13541633033E+00  0.21909005002E+02  0.29889848785E+02  0.00000000000E+00 0.  1.
</event>
<event>
 5    1  0.9034713E-005  0.9118800E+02  0.7818608E-02  0.1130116E+00
         25   -1    0    0    0    0  0.00000000000E+00  0.00000000000E+00  0.99999998245E-14  0.12500000000E+03  0.12500000000E+03 0.  0.
        -13    1    3    3    0    0  0.20803922419E+02 -0.51326484742E+02  0.14037925294E+02  0.57133928052E+02  0.10566000000E+00 0. -1.
         23    2    1    0    0    0 -0.73566566452E+01 -0.28940600726E+02  0.19875685623E+01  0.95072935390E+02  0.90239868393E+02 0.  0.
         13    1    3    3    0    0 -0.28160579065E+02  0.22385884016E+02 -0.12050356731E+02  0.37939007339E+02  0.10566000000E+00 0.  1.
         22    1    1    0    0    0  0.73566566452E+01  0.28940600726E+02 -0.19875685623E+01  0.29927064610E+02  0.00000000000E+00 0. -1.
</event>
<event>
 5    1  0.9034713E-005  0.9118800E+02  0.7818608E-02  0.1130116E+00
         25   -1    0    0    0    0  0.00000000000E+00  0.00000000000E+00  0.99999998245E-14  0.12500000000E+03  0.12500000000E+03 0.  0.
        -13    1    3    3    0    0  0.33040502876E+02 -0.21119974131E+02  0.11745628239E+02  0.40935303643E+02  0.10566000000E+00 0. -1.
         23    2    1    0    0    0  0.16046278218E+02  0.27430770035E+02  0.35576113468E+01  0.93022089064E+02  0.87352860663E+02 0.  0.
         13    1    3    3    0    0 -0.16994224658E+02  0.48550744166E+02 -0.81880168923E+01  0.52086785421E+02  0.10566000000E+00 0.  1.
         22    1    1    0    0    0 -0.16046278218E+02 -0.27430770035E+02 -0.35576113468E+01  0.31977910936E+02  0.00000000000E+00 0.  1.
</event>
<event>
 5    1  0.9034713E-005  0.9118800E+02  0.7818608E-02  0.1130116E+00
         25   -1    0    0    0    0  0.00000000000E+00  0.00000000000E+00  0.99999998245E-14  0.12500000000E+03  0.12500000000E+03 0.  0.
        -13    1    3    3    0    0 -0.19340200154E+02 -0.48215421240E+02  0.17233794640E+02  0.54733764982E+02  0.10566000000E+00 0. -1.
         23    2    1    0    0    0 -0.20580723216E+02 -0.72587096913E+01  0.19447079921E+02  0.95769126734E+02  0.91199132032E+02 0.  0.
         13    1    3    3    0    0 -0.12405230621E+01  0.40956711549E+02  0.22132852812E+01  0.41035361752E+02  0.10566000000E+00 0.  1.
         22    1    1    0    0    0  0.20580723216E+02  0.72587096913E+01 -0.19447079921E+02  0.29230873266E+02  0.00000000000E+00 0. -1.
</event>
<event>
 5    1  0.9034713E-005  0.9118800E+02  0.7818608E-02  0.1130116E+00
         25   -1    0    0    0    0  0.00000000000E+00  0.00000000000E+00  0.99999998245E-14  0.12500000000E+03  0.12500000000E+03 0.  0.
        -13    1    3    3    0    0 -0.47357571951E+01  0.21059263827E+02 -0.19534365166E+02  0.29112240993E+02  0.10566000000E+00 0. -1.
         23    2    1    0    0    0  0.16271214941E+02 -0.31928913198E+02 -0.65410276744E+00  0.89158183861E+02  0.81636670470E+02 0.  0.
         13    1    3    3    0    0  0.21006972136E+02 -0.52988177025E+02  0.18880262399E+02  0.60045942869E+02  0.10566000000E+00 0.  1.
         22    1    1    0    0    0 -0.16271214941E+02  0.31928913198E+02  0.65410276744E+00  0.35841816139E+02  0.00000000000E+00 0.  1.
</event>
<event>
 5    1  0.9034713E-005  0.9118800E+02  0.7818608E-02  0.1130116E+00
         25   -1    0    0    0    0  0.00000000000E+00  0.00000000000E+00  0.99999998245E-14  0.12500000000E+03  0.12500000000E+03 0.  0.
        -13    1    3    3    0    0  0.37721375773E+02 -0.38741277387E+02  0.27054639671E+01  0.54139814029E+02  0.10566000000E+00 0.  1.
         23    2    1    0    0    0  0.28529465536E+02 -0.15495335021E+00 -0.82685904432E+01  0.95296060830E+02  0.90548413611E+02 0.  0.
         13    1    3    3    0    0 -0.91919102364E+01  0.38586324037E+02 -0.10974054410E+02  0.41156246801E+02  0.10566000000E+00 0. -1.
         22    1    1    0    0    0 -0.28529465536E+02  0.15495335021E+00  0.82685904432E+01  0.29703939170E+02  0.00000000000E+00 0.  1.
</event>
<event>
 5    1  0.9034713E-005  0.9118800E+02  0.7818608E-02  0.1130116E+00
         25   -1    0    0    0    0  0.00000000000E+00  0.00000000000E+00  0.99999998245E-14  0.12500000000E+03  0.12500000000E+03 0.  0.
        -13    1    3    3    0    0 -0.29183485634E+02 -0.13933969817E+02 -0.11271423539E+02  0.34247445179E+02  0.10566000000E+00 0.  1.
         23    2    1    0    0    0  0.29726040661E+02 -0.50581408173E+01 -0.17722686360E+00  0.94846166226E+02  0.89925199786E+02 0.  0.
         13    1    3    3    0    0  0.58909526295E+02  0.88758289995E+01  0.11094196676E+02  0.60598721048E+02  0.10566000000E+00 0. -1.
         22    1    1    0    0    0 -0.29726040661E+02  0.50581408173E+01  0.17722686360E+00  0.30153833774E+02  0.00000000000E+00 0. -1.
</event>
<event>
 5    1  0.9034713E-005  0.9118800E+02  0.7818608E-02  0.1130116E+00
         25   -1    0    0    0    0  0.00000000000E+00  0.00000000000E+00  0.99999998245E-14  0.12500000000E+03  0.12500000000E+03 0.  0.
        -13    1    3    3    0    0 -0.24042262663E+02 -0.13460051597E+02 -0.30383517197E+02  0.41016736392E+02  0.10566000000E+00 0. -1.
         23    2    1    0    0    0 -0.90088020222E+01  0.26048990434E+02  0.60010910865E+01  0.96791463868E+02  0.92589772475E+02 0.  0.
         13    1    3    3    0    0  0.15033460641E+02  0.39509042031E+02  0.36384608283E+02  0.55774727476E+02  0.10566000000E+00 0.  1.
         22    1    1    0    0    0  0.90088020222E+01 -0.26048990434E+02 -0.60010910865E+01  0.28208536132E+02  0.00000000000E+00 0.  1.
</event>
<event>
 5    1  0.9034713E-005  0.9118800E+02  0.7818608E-02  0.1130116E+00
         25   -1    0    0    0    0  0.00000000000E+00  0.00000000000E+00  0.99999998245E-14  0.12500000000E+03  0.12500000000E+03 0.  0.
        -13    1    3    3    0    0 -0.38334698202E+01  0.43510999752E+01 -0.48374517766E+02  0.48720967714E+02  0.10566000000E+00 0. -1.
         23    2    1    0    0    0  0.54492311240E+01  0.27532231687E+02 -0.86699796917E+01  0.95625071075E+02  0.91001471245E+02 0.  0.
         13    1    3    3    0    0  0.92827009442E+01  0.23181131712E+02  0.39704538075E+02  0.46904103360E+02  0.10566000000E+00 0.  1.
         22    1    1    0    0    0 -0.54492311240E+01 -0.27532231687E+02  0.86699796917E+01  0.29374928925E+02  0.00000000000E+00 0. -1.
</event>
<event>
 5    1  0.9034713E-005  0.9118800E+02  0.7818608E-02  0.1130116E+00
         25   -1    0    0    0    0  0.00000000000E+00  0.00000000000E+00  0.99999998245E-14  0.12500000000E+03  0.12500000000E+03 0.  0.
        -13    1    3    3    0    0  0.37906280318E+02 -0.44494157218E+02  0.11787510822E+02  0.59628623072E+02  0.10566000000E+00 0. -1.
         23    2    1    0    0    0  0.19125184347E+02 -0.20555108682E+02 -0.78552299897E+01  0.95845415328E+02  0.91303635371E+02 0.  0.
         13    1    3    3    0    0 -0.18781095971E+02  0.23939048536E+02 -0.19642740812E+02  0.36216792256E+02  0.10566000000E+00 0.  1.
         22    1    1    0    0    0 -0.19125184347E+02  0.20555108682E+02  0.78552299897E+01  0.29154584672E+02  0.00000000000E+00 0. -1.
</event>
<event>
 5    1  0.9034713E-005  0.9118800E+02  0.7818608E-02  0.1130116E+00
         25   -1    0    0    0    0  0.00000000000E+00  0.00000000000E+00  0.99999998245E-14  0.12500000000E+03  0.12500000000E+03 0.  0.
        -13    1    3    3    0    0 -0.17352779252E+02  0.19597536707E+02 -0.23663380548E+02  0.35286670794E+02  0.10566000000E+00 0.  1.
         23    2    1    0    0    0 -0.11837492274E+02 -0.24840732047E+02  0.14296642603E+02  0.93990611394E+02  0.88727971061E+02 0.  0.
         13    1    3    3    0    0  0.55152869779E+01 -0.44438268754E+02  0.37960023151E+02  0.58703940600E+02  0.10566000000E+00 0. -1.
         22    1    1    0    0    0  0.11837492274E+02  0.24840732047E+02 -0.14296642603E+02  0.31009388606E+02  0.00000000000E+00 0. -1.
</event>
<event>
 5    1  0.9034713E-005  0.9118800E+02  0.7818608E-02  0.1130116E+00
         25   -1    0    0    0    0  0.00000000000E+00  0.00000000000E+00  0.99999998245E-14  0.12500000000E+03  0.12500000000E+03 0.  0.
        -13    1    3    3    0    0 -0.16606366419E+02 -0.31352766841E+02 -0.16629498363E+02  0.39183144004E+02  0.10566000000E+00 0.  1.
         23    2    1    0    0    0 -0.21622295018E+02  0.20304552303E+02  0.40731719182E+01  0.95060240222E+02  0.90222281369E+02 0.  0.
         13    1    3    3    0    0 -0.50159285991E+01  0.51657319144E+02  0.20702670281E+02  0.55877096217E+02  0.10566000000E+00 0. -1.
         22    1    1    0    0    0  0.21622295018E+02 -0.20304552303E+02 -0.40731719182E+01  0.29939759778E+02  0.00000000000E+00 0. -1.
</event>
<event>
 5    1  0.9034713E-005  0.9118800E+02  0.7818608E-02  0.1130116E+00
         25   -1    0    0    0    0  0.00000000000E+00  0.00000000000E+00  0.99999998245E-14  0.12500000000E+03  0.12500000000E+03 0.  0.
        -13    1    3    3    0    0 -0.18433040395E+02 -0.43017677735E+02 -0.14281625249E+01  0.46822520096E+02  0.10566000000E+00 0. -1.
         23    2    1    0    0    0 -0.27518316505E+01 -0.10407911715E+02  0.28978506053E+02  0.94086394309E+02  0.88862807616E+02 0.  0.
         13    1    3    3    0    0  0.15681208744E+02  0.32609766020E+02  0.30406668578E+02  0.47263874213E+02  0.10566000000E+00 0.  1.
         22    1    1    0    0    0  0.27518316505E+01  0.10407911715E+02 -0.28978506053E+02  0.30913605691E+02  0.00000000000E+00 0.  1.
</event>
<event>
 5    1  0.9034713E-005  0.9118800E+02  0.7818608E-02  0.1130116E+00
         25   -1    0    0    0    0  0.00000000000E+00  0.00000000000E+00  0.99999998245E-14  0.12500000000E+03  0.12500000000E+03 0.  0.
        -13    1    3    3    0    0  0.45436453507E+02 -0.21903435608E+02  0.12776762029E+02  0.52033533521E+02  0.10566000000E+00 0.  1.
         23    2    1    0    0    0 -0.44055225863E+00 -0.22294877257E+02  0.15259550124E+02  0.97979461364E+02  0.94179962523E+02 0.  0.
         13    1    3    3    0    0 -0.45877005765E+02 -0.39144164924E+00  0.24827880949E+01  0.45945927843E+02  0.10566000000E+00 0. -1.
         22    1    1    0    0    0  0.44055225863E+00  0.22294877257E+02 -0.15259550124E+02  0.27020538636E+02  0.00000000000E+00 0.  1.
</event>
<event>
 5    1  0.9034713E-005  0.9118800E+02  0.7818608E-02  0.1130116E+00
         25   -1    0    0    0    0  0.00000000000E+00  0.00000000000E+00  0.99999998245E-14  0.12500000000E+03  0.12500000000E+03 0.  0.
        -13    1    3    3    0    0  0.39415340659E+02 -0.35682727738E+02 -0.18193549739E+02  0.56194684395E+02  0.10566000000E+00 0.  1.
         23    2    1    0    0    0  0.68107832108E+01 -0.29888109497E+02  0.73228352781E+00  0.94336958787E+02  0.89214571102E+02 0.  0.
         13    1    3    3    0    0 -0.32604557448E+02  0.57946182413E+01  0.18925833266E+02  0.38142274392E+02  0.10566000000E+00 0. -1.
         22    1    1    0    0    0 -0.68107832108E+01  0.29888109497E+02 -0.73228352781E+00  0.30663041213E+02  0.00000000000E+00 0.  1.
</event>
<event>
 5    1  0.9034713E-005  0.9118800E+02  0.7818608E-02  0.1130116E+00
         25   -1    0    0    0    0  0.00000000000E+00  0.00000000000E+00  0.99999998245E-14  0.12500000000E+03  0.12500000000E+03 0.  0.
        -13    1    3    3    0    0  0.31582141419E+02 -0.36317073934E+02 -0.29321868573E+02  0.56357294616E+02  0.10566000000E+00 0. -1.
         23    2    1    0    0    0  0.26485087558E+02 -0.12917099336E+01 -0.10178677495E+02  0.96596939372E+02  0.92326782912E+02 0.  0.
         13    1    3    3    0    0 -0.50970538614E+01  0.35025364001E+02  0.19143191077E+02  0.40239644756E+02  0.10566000000E+00 0.  1.
         22    1    1    0    0    0 -0.26485087558E+02  0.12917099336E+01  0.10178677495E+02  0.28403060628E+02  0.00000000000E+00 0. -1.
</event>
<event>
 5    1  0.9034713E-005  0.9118800E+02  0.7818608E-02  0.1130116E+00
         25   -1    0    0    0    0  0.00000000000E+00  0.00000000000E+00  0.99999998245E-14  0.12500000000E+03  0.12500000000E+03 0.  0.
        -13    1    3    3    0    0 -0.30235807650E+02  0.60941889044E+01  0.33985842195E+02  0.45895444615E+02  0.10566000000E+00 0. -1.
         23    2    1    0    0    0  0.18136877360E+02 -0.36441035600E+01  0.21190179817E+02  0.96870841964E+02  0.92696874225E+02 0.  0.
         13    1    3    3    0    0  0.48372685010E+02 -0.97382924644E+01 -0.12795662378E+02  0.50975397349E+02  0.10566000000E+00 0.  1.
         22    1    1    0    0    0 -0.18136877360E+02  0.36441035600E+01 -0.21190179817E+02  0.28129158036E+02  0.00000000000E+00 0. -1.
</event>
<event>
 5    1  0.9034713E-005  0.9118800E+02  0.7818608E-02  0.1130116E+00
         25   -1    0    0    0    0  0.00000000000E+00  0.00000000000E+00  0.99999998245E-14  0.12500000000E+03  0.12500000000E+03 0.  0.
        -13    1    3    3    0    0 -0.21133931652E+02  0.41553045589E+02  0.30040925541E+02  0.55459598233E+02  0.10566000000E+00 0.  1.
         23    2    1    0    0    0 -0.26516039658E+02  0.24387074403E+02  0.18179631081E+01  0.88928754569E+02  0.81284615040E+02 0.  0.
         13    1    3    3    0    0 -0.53821080055E+01 -0.17165971186E+02 -0.28222962433E+02  0.33469156336E+02  0.10566000000E+00 0. -1.
         22    1    1    0    0    0  0.26516039658E+02 -0.24387074403E+02 -0.18179631081E+01  0.36071245431E+02  0.00000000000E+00 0.  1.
</event>
<event>
 5    1  0.9034713E-005  0.9118800E+02  0.7818608E-02  0.1130116E+00
         25   -1    0    0    0    0  0.00000000000E+00  0.00000000000E+00  0.99999998245E-14  0.12500000000E+03  0.12500000000E+03 0.  0.
        -13    1    3    3    0    0  0.52337381811E+02 -0.15944071570E+02  0.19097238784E+02  0.57949380033E+02  0.10566000000E+00 0. -1.
         23    2    1    0    0    0  0.14640528367E+02 -0.19396048747E+02  0.15943975184E+02  0.95935208198E+02  0.91426484398E+02 0.  0.
         13    1    3    3    0    0 -0.37696853443E+02 -0.34519771764E+01 -0.31532636007E+01  0.37985828164E+02  0.10566000000E+00 0.  1.
         22    1    1    0    0    0 -0.14640528367E+02  0.19396048747E+02 -0.15943975184E+02  0.29064791802E+02  0.00000000000E+00 0. -1.
</event>
<event>
 5    1  0.9034713E-005  0.9118800E+02  0.7818608E-02  0.1130116E+00
         25   -1    0    0    0    0  0.00000000000E+00  0.00000000000E+00  0.99999998245E-14  0.12500000000E+03  0.12500000000E+03 0.  0.
        -13    1    3    3    0    0  0.20935721727E+02 -0.38524356277E+02 -0.10074736561E+02  0.44988242370E+02  0.10566000000E+00 0. -1.
         23    2    1    0    0    0  0.95133148075E+01 -0.46546264910E+01  0.26702537626E+02  0.96273805994E+02  0.91888255499E+02 0.  0.
         13    1    3    3    0    0 -0.11422406919E+02  0.33869729786E+02  0.36777274186E+02  0.51285563624E+02  0.10566000000E+00 0.  1.
         22    1    1    0    0    0 -0.95133148075E+01  0.46546264910E+01 -0.26702537626E+02  0.28726194006E+02  0.00000000000E+00 0. -1.
</event>
<event>
 5    1  0.9034713E-005  0.9118800E+02  0.7818608E-02  0.1130116E+00
         25   -1    0    0    0    0  0.00000000000E+00  0.00000000000E+00  0.99999998245E-14  0.12500000000E+03  0.12500000000E+03 0.  0.
        -13    1    3    3    0    0  0.12258744033E+02  0.24540033357E+02  0.46111701199E+02  0.53654358574E+02  0.10566000000E+00 0.  1.
         23    2    1    0    0    0 -0.75467763631E+01 -0.74305470686E+01  0.27325758431E+02  0.95693619516E+02  0.91095581008E+02 0.  0.
         13    1    3    3    0    0 -0.19805520396E+02 -0.31970580426E+02 -0.18785942768E+02  0.42039260943E+02  0.10566000000E+00 0. -1.
         22    1    1    0    0    0  0.75467763631E+01  0.74305470686E+01 -0.27325758431E+02  0.29306380484E+02  0.00000000000E+00 0.  1.
</event>
<event>
 5    1  0.9034713E-005  0.9118800E+02  0.7818608E-02  0.1130116E+00
         25   -1    0    0    0    0  0.00000000000E+00  0.00000000000E+00  0.99999998245E-14  0.12500000000E+03  0.12500000000E+03 0.  0.
        -13    1    3    3    0    0  0.21530241442E+02 -0.33539525712E+02  0.37062478374E+02  0.54425081983E+02  0.10566000000E+00 0.  1.
         23    2    1    0    0    0  0.20071842980E+02  0.42511140862E+01  0.21384043744E+02  0.95365085145E+02  0.90643650005E+02 0.  0.
         13    1    3    3    0    0 -0.14583984621E+01  0.37790639798E+02 -0.15678434630E+02  0.40940003162E+02  0.10566000000E+00 0. -1.
         22    1    1    0    0    0 -0.20071842980E+02 -0.42511140862E+01 -0.21384043744E+02  0.29634914855E+02  0.00000000000E+00 0.  1.
</event>
<event>
 5    1  0.9034713E-005  0.9118800E+02  0.7818608E-02  0.1130116E+00
         25   -1    0    0    0    0  0.00000000000E+00  0.00000000000E+00  0.99999998245E-14  0.12500000000E+03  0.12500000000E+03 0.  0.
        -13    1    3    3    0    0  0.31397912612E+02  0.39084807009E+02  0.36590944375E+02  0.62067378144E+02  0.10566000000E+00 0.  1.
         23    2    1    0    0    0  0.19222034118E+02  0.16645671574E+02  0.15189872731E+02  0.95380796578E+02  0.90665313899E+02 0.  0.
         13    1    3    3    0    0 -0.12175878494E+02 -0.22439135435E+02 -0.21401071644E+02  0.33313418434E+02  0.10566000000E+00 0. -1.
         22    1    1    0    0    0 -0.19222034118E+02 -0.16645671574E+02 -0.15189872731E+02  0.29619203422E+02  0.00000000000E+00 0.  1.
</event>
<event>
 5    1  0.9034713E-005  0.9118800E+02  0.7818608E-02  0.1130116E+00
         25   -1    0    0    0    0  0.00000000000E+00  0.00000000000E+00  0.99999998245E-14  0.12500000000E+03  0.12500000000E+03 0.  0.
        -13    1    3    3    0    0  0.28278704491E+02 -0.35776360485E+02 -0.36452522529E+02  0.58381766502E+02  0.10566000000E+00 0. -1.
         23    2    1    0    0    0  0.11183074828E+02 -0.25511832496E+02 -0.34621170139E+01  0.96930425473E+02  0.92777186680E+02 0.  0.
         13    1    3    3    0    0 -0.17095629663E+02  0.10264527989E+02  0.32990405515E+02  0.38548658971E+02  0.10566000000E+00 0.  1.
         22    1    1    0    0    0 -0.11183074828E+02  0.25511832496E+02  0.34621170139E+01  0.28069574527E+02  0.00000000000E+00 0. -1.
</event>
<event>
 5    1  0.9034713E-005  0.9118800E+02  0.7818608E-02  0.1130116E+00
         25   -1    0    0    0    0  0.00000000000E+00  0.00000000000E+00  0.99999998245E-14  0.12500000000E+03  0.12500000000E+03 0.  0.
        -13    1    3    3    0    0  0.25837035628E+01 -0.38792095942E+02 -0.17903501511E+02  0.42802438740E+02  0.10566000000E+00 0.  1.
         23    2    1    0    0    0  0.28177552573E+02  0.51608732014E+01 -0.12303961861E+01  0.96327313415E+02  0.91961015402E+02 0.  0.
         13    1    3    3    0    0  0.25593849011E+02  0.43952969144E+02  0.16673105325E+02  0.53524874675E+02  0.10566000000E+00 0. -1.
         22    1    1    0    0    0 -0.28177552573E+02 -0.51608732014E+01  0.12303961861E+01  0.28672686585E+02  0.00000000000E+00 0. -1.
</event>
<event>
 5    1  0.9034713E-005  0.9118800E+02  0.7818608E-02  0.1130116E+00
         25   -1    0    0    0    0  0.00000000000E+00  0.00000000000E+00  0.99999998245E-14  0.12500000000E+03  0.12500000000E+03 0.  0.
        -13    1    3    3    0    0 -0.24909200601E+02 -0.24712554691E+02 -0.39023841307E+02  0.52479043325E+02  0.10566000000E+00 0.  1.
         23    2    1    0    0    0  0.13244647412E+02 -0.12665247494E+02 -0.23031071471E+02  0.95567714458E+02  0.90922651823E+02 0.  0.
         13    1    3    3    0    0  0.38153848013E+02  0.12047307197E+02  0.15992769837E+02  0.43088671132E+02  0.10566000000E+00 0. -1.
         22    1    1    0    0    0 -0.13244647412E+02  0.12665247494E+02  0.23031071471E+02  0.29432285542E+02  0.00000000000E+00 0. -1.
</event>
<event>
 5    1  0.9034713E-005  0.9118800E+02  0.7818608E-02  0.1130116E+00
         25   -1    0    0    0    0  0.00000000000E+00  0.00000000000E+00  0.99999998245E-14  0.12500000000E+03  0.12500000000E+03 0.  0.
        -13    1    3    3    0    0  0.47135588390E+02  0.79389049493E+01 -0.10466923775E+02  0.48932173077E+02  0.10566000000E+00 0.  1.
         23    2    1    0    0    0  0.17645851807E+02 -0.25332995301E+02 -0.36352519673E+01  0.93913800589E+02  0.88619693902E+02 0.  0.
         13    1    3    3    0    0 -0.29489736582E+02 -0.33271900250E+02  0.68316718076E+01  0.44981627513E+02  0.10566000000E+00 0. -1.
         22    1    1    0    0    0 -0.17645851807E+02  0.25332995301E+02  0.36352519673E+01  0.31086199411E+02  0.00000000000E+00 0.  1.
</event>
<event>
 5    1  0.9034713E-005  0.9118800E+02  0.7818608E-02  0.1130116E+00
         25   -1    0    0    0    0  0.00000000000E+00  0.00000000000E+00  0.99999998245E-14  0.12500000000E+03  0.12500000000E+03 0.  0.
        -13    1    3    3    0    0  0.77163519096E+01  0.20385575944E+02  0.28562927870E+02  0.35930012606E+02  0.10566000000E+00 0.  1.
         23    2    1    0    0    0 -0.14956687047E+02  0.80382224401E+01 -0.24645704255E+02  0.95071314001E+02  0.90237622421E+02 0.  0.
         13    1    3    3    0    0 -0.22673038957E+02 -0.12347353504E+02 -0.53208632124E+02  0.59141301395E+02  0.10566000000E+00 0. -1.
         22    1    1    0    0    0  0.14956687047E+02 -0.80382224401E+01  0.24645704255E+02  0.29928685999E+02  0.00000000000E+00 0. -1.
</event>
<event>
 5    1  0.9034713E-005  0.9118800E+02  0.7818608E-02  0.1130116E+00
         25   -1    0    0    0    0  0.00000000000E+00  0.00000000000E+00  0.99999998245E-14  0.12500000000E+03  0.12500000000E+03 0.  0.
        -13    1    3    3    0    0 -0.35478645614E+02  0.56891793637E+01 -0.82218920781E+01  0.36860707126E+02  0.10566000000E+00 0. -1.
         23    2    1    0    0    0  0.21741882977E+02 -0.33772083242E+01 -0.19166698496E+02  0.95819915307E+02  0.91268717679E+02 0.  0.
         13    1    3    3    0    0  0.57220528590E+02 -0.90663876879E+01 -0.10944806418E+02  0.58959208182E+02  0.10566000000E+00 0.  1.
         22    1    1    0    0    0 -0.21741882977E+02  0.33772083242E+01  0.19166698496E+02  0.29180084693E+02  0.00000000000E+00 0.  1.
</event>
<event>
 5    1  0.9034713E-005  0.9118800E+02  0.7818608E-02  0.1130116E+00
         25   -1    0    0    0    0  0.00000000000E+00  0.00000000000E+00  0.99999998245E-14  0.12500000000E+03  0.12500000000E+03 0.  0.
        -13    1    3    3    0    0  0.18327667232E-01  0.22469975978E+01  0.37770191108E+02  0.37837122439E+02  0.10566000000E+00 0.  1.
         23    2    1    0    0    0  0.20590279714E+02 -0.14943915020E+02 -0.13871019353E+02  0.96022674507E+02  0.91545991866E+02 0.  0.
         13    1    3    3    0    0  0.20571952047E+02 -0.17190912618E+02 -0.51641210460E+02  0.58185552068E+02  0.10566000000E+00 0. -1.
         22    1    1    0    0    0 -0.20590279714E+02  0.14943915020E+02  0.13871019353E+02  0.28977325493E+02  0.00000000000E+00 0. -1.
</event>
<event>
 5    1  0.9034713E-005  0.9118800E+02  0.7818608E-02  0.1130116E+00
         25   -1    0    0    0    0  0.00000000000E+00  0.00000000000E+00  0.99999998245E-14  0.12500000000E+03  0.12500000000E+03 0.  0.
        -13    1    3    3    0    0  0.90533340718E+01  0.51453621038E+02 -0.26956871479E+02  0.58788791956E+02  0.10566000000E+00 0.  1.
         23    2    1    0    0    0  0.81692892070E+01  0.15455623388E+02 -0.24528019077E+02  0.94879619851E+02  0.89971689785E+02 0.  0.
         13    1    3    3    0    0 -0.88404486478E+00 -0.35997997649E+02  0.24288524024E+01  0.36090827895E+02  0.10566000000E+00 0. -1.
         22    1    1    0    0    0 -0.81692892070E+01 -0.15455623388E+02  0.24528019077E+02  0.30120380149E+02  0.00000000000E+00 0.  1.
</event>
<event>
 5    1  0.9034713E-005  0.9118800E+02  0.7818608E-02  0.1130116E+00
         25   -1    0    0    0    0  0.00000000000E+00  0.00000000000E+00  0.99999998245E-14  0.12500000000E+03  0.12500000000E+03 0.  0.
        -13    1    3    3    0    0 -0.49050895934E+02  0.79245957475E+01 -0.23763598293E+02  0.55077303652E+02  0.10566000000E+00 0. -1.
         23    2    1    0    0    0 -0.25940102894E+02  0.93676552329E+01  0.96937060682E+01  0.95766289322E+02  0.91195242915E+02 0.  0.
         13    1    3    3    0    0  0.23110793041E+02  0.14430594854E+01  0.33457304361E+02  0.40688985669E+02  0.10566000000E+00 0.  1.
         22    1    1    0    0    0  0.25940102894E+02 -0.93676552329E+01 -0.96937060682E+01  0.29233710678E+02  0.00000000000E+00 0. -1.
</event>
<event>
 5    1  0.9034713E-005  0.9118800E+02  0.7818608E-02  0.1130116E+00
         25   -1    0    0    0    0  0.00000000000E+00  0.00000000000E+00  0.99999998245E-14  0.12500000000E+03  0.12500000000E+03 0.  0.
        -13    1    3    3    0    0  0.23707108498E+02 -0.29974561009E+02 -0.57887039966E+01  0.38652575063E+02  0.10566000000E+00 0. -1.
         23    2    1    0    0    0 -0.24760292295E+02 -0.79358288186E+01  0.14018891488E+02  0.95460555656E+02  0.90775210901E+02 0.  0.
         13    1    3    3    0    0 -0.48467400793E+02  0.22038732190E+02  0.19807595485E+02  0.56807980593E+02  0.10566000000E+00 0.  1.
         22    1    1    0    0    0  0.24760292295E+02  0.79358288186E+01 -0.14018891488E+02  0.29539444344E+02  0.00000000000E+00 0.  1.
</event>
<event>
 5    1  0.9034713E-005  0.9118800E+02  0.7818608E-02  0.1130116E+00
         25   -1    0    0    0    0  0.00000000000E+00  0.00000000000E+00  0.99999998245E-14  0.12500000000E+03  0.12500000000E+03 0.  0.
        -13    1    3    3    0    0 -0.14758645130E+02 -0.49478134085E+02 -0.17286069796E+02  0.54449267504E+02  0.10566000000E+00 0. -1.
         23    2    1    0    0    0  0.15802212752E+02 -0.23287808963E+02 -0.65472476700E+01  0.96105391053E+02  0.91658866256E+02 0.  0.
         13    1    3    3    0    0  0.30560857881E+02  0.26190325123E+02  0.10738822126E+02  0.41656123550E+02  0.10566000000E+00 0.  1.
         22    1    1    0    0    0 -0.15802212752E+02  0.23287808963E+02  0.65472476700E+01  0.28894608947E+02  0.00000000000E+00 0. -1.
</event>
<event>
 5    1  0.9034713E-005  0.9118800E+02  0.7818608E-02  0.1130116E+00
         25   -1    0    0    0    0  0.00000000000E+00  0.00000000000E+00  0.99999998245E-14  0.12500000000E+03  0.12500000000E+03 0.  0.
        -13    1    3    3    0    0 -0.37188390932E+02  0.33439929882E+01  0.28994237605E+02  0.47274048775E+02  0.10566000000E+00 0. -1.
         23    2    1    0    0    0 -0.63945810471E+01 -0.27676573226E+02  0.11485910740E+02  0.94360001341E+02  0.89246850562E+02 0.  0.
         13    1    3    3    0    0  0.30793809885E+02 -0.31020566214E+02 -0.17508326864E+02  0.47085952566E+02  0.10566000000E+00 0.  1.
         22    1    1    0    0    0  0.63945810471E+01  0.27676573226E+02 -0.11485910740E+02  0.30639998659E+02  0.00000000000E+00 0. -1.
</event>
<event>
 5    1  0.9034713E-005  0.9118800E+02  0.7818608E-02  0.1130116E+00
         25   -1    0    0    0    0  0.00000000000E+00  0.00000000000E+00  0.99999998245E-14  0.12500000000E+03  0.12500000000E+03 0.  0.
        -13    1    3    3    0    0  0.18298294217E+02  0.15032746790E+02  0.36799632940E+02  0.43761115112E+02  0.10566000000E+00 0.  1.
         23    2    1    0    0    0  0.47324443283E+01  0.24569633424E+02 -0.13391304621E+02  0.96620606853E+02  0.92358820441E+02 0.  0.
         13    1    3    3    0    0 -0.13565849889E+02  0.95368866347E+01 -0.50190937561E+02  0.52859491741E+02  0.10566000000E+00 0. -1.
         22    1    1    0    0    0 -0.47324443283E+01 -0.24569633424E+02  0.13391304621E+02  0.28379393147E+02  0.00000000000E+00 0. -1.
</event>
<event>
 5    1  0.9034713E-005  0.9118800E+02  0.7818608E-02  0.1130116E+00
         25   -1    0    0    0    0  0.00000000000E+00  0.00000000000E+00  0.99999998245E-14  0.12500000000E+03  0.12500000000E+03 0.  0.
        -13    1    3    3    0    0  0.34562154234E+02 -0.29775716190E+02  0.37205672886E+02  0.58867724934E+02  0.10566000000E+00 0. -1.
         23    2    1    0    0    0  0.83500861680E+01 -0.71365378446E+01  0.28319370593E+02  0.94624996095E+02  0.89617236198E+02 0.  0.
         13    1    3    3    0    0 -0.26212068066E+02  0.22639178345E+02 -0.88863022925E+01  0.35757271162E+02  0.10566000000E+00 0.  1.
         22    1    1    0    0    0 -0.83500861680E+01  0.71365378446E+01 -0.28319370593E+02  0.30375003905E+02  0.00000000000E+00 0. -1.
</event>
<event>
 5    1  0.9034713E-005  0.9118800E+02  0.7818608E-02  0.1130116E+00
         25   -1    0    0    0    0  0.00000000000E+00  0.00000000000E+00  0.99999998245E-14  0.12500000000E+03  0.12500000000E+03 0.  0.
        -13    1    3    3    0    0 -0.36254687522E+01  0.29543598572E+02  0.20501246170E+02  0.36142502664E+02  0.10566000000E+00 0.  1.
         23    2    1    0    0    0  0.13713117034E+00 -0.28177092671E+02  0.25493621294E+01  0.96707481491E+02  0.92476323308E+02 0.  0.
         13    1    3    3    0    0  0.37625999225E+01 -0.57720691242E+02 -0.17951884040E+02  0.60564978827E+02  0.10566000000E+00 0. -1.
         22    1    1    0    0    0 -0.13713117034E+00  0.28177092671E+02 -0.25493621294E+01  0.28292518509E+02  0.00000000000E+00 0. -1.
</event>
<event>
 5    1  0.9034713E-005  0.9118800E+02  0.7818608E-02  0.1130116E+00
         25   -1    0    0    0    0  0.00000000000E+00  0.00000000000E+00  0.99999998245E-14  0.12500000000E+03  0.12500000000E+03 0.  0.
        -13    1    3    3    0    0  0.34813026954E+02 -0.17795546896E+02 -0.20989414973E+02  0.44375613123E+02  0.10566000000E+00 0. -1.
         23    2    1    0    0    0 -0.15466445713E+02 -0.22541334767E+02 -0.69794430214E+01  0.96785901734E+02  0.92582263061E+02 0.  0.
         13    1    3    3    0    0 -0.50279472668E+02 -0.47457878705E+01  0.14009971952E+02  0.52410288612E+02  0.10566000000E+00 0.  1.
         22    1    1    0    0    0  0.15466445713E+02  0.22541334767E+02  0.69794430214E+01  0.28214098266E+02  0.00000000000E+00 0.  1.
</event>
<event>
 5    1  0.9034713E-005  0.9118800E+02  0.7818608E-02  0.1130116E+00
         25   -1    0    0    0    0  0.00000000000E+00  0.00000000000E+00  0.99999998245E-14  0.12500000000E+03  0.12500000000E+03 0.  0.
        -13    1    3    3    0    0 -0.31042338935E+02 -0.46030150176E+02 -0.56468339067E+00  0.55522351924E+02  0.10566000000E+00 0.  1.
         23    2    1    0    0    0 -0.27793613892E+02 -0.78515373349E+01  0.84943682059E+01  0.94895417244E+02  0.89993634837E+02 0.  0.
         13    1    3    3    0    0  0.32487250430E+01  0.38178612841E+02  0.90590515966E+01  0.39373065321E+02  0.10566000000E+00 0. -1.
         22    1    1    0    0    0  0.27793613892E+02  0.78515373349E+01 -0.84943682059E+01  0.30104582756E+02  0.00000000000E+00 0.  1.
</event>
<event>
 5    1  0.9034713E-005  0.9118800E+02  0.7818608E-02  0.1130116E+00
         25   -1    0    0    0    0  0.00000000000E+00  0.00000000000E+00  0.99999998245E-14  0.12500000000E+03  0.12500000000E+03 0.  0.
        -13    1    3    3    0    0 -0.57706520099E+02  0.18353202800E+02 -0.14341188660E+02  0.62229923439E+02  0.10566000000E+00 0.  1.
         23    2    1    0    0    0 -0.27993675843E+02  0.88008683883E+01 -0.27369637203E+01  0.95528112683E+02  0.90868191194E+02 0.  0.
         13    1    3    3    0    0  0.29712844256E+02 -0.95523344119E+01  0.11604224940E+02  0.33298189245E+02  0.10566000000E+00 0. -1.
         22    1    1    0    0    0  0.27993675843E+02 -0.88008683883E+01  0.27369637203E+01  0.29471887317E+02  0.00000000000E+00 0.  1.
</event>
<event>
 5    1  0.9034713E-005  0.9118800E+02  0.7818608E-02  0.1130116E+00
         25   -1    0    0    0    0  0.00000000000E+00  0.00000000000E+00  0.99999998245E-14  0.12500000000E+03  0.12500000000E+03 0.  0.
        -13    1    3    3    0    0 -0.23231883028E+02  0.95453035798E+01  0.22777777835E+02  0.33906806641E+02  0.10566000000E+00 0.  1.
         23    2    1    0    0    0  0.12468817359E+02  0.10865348114E+02 -0.25889386741E+02  0.94278874666E+02  0.89133151333E+02 0.  0.
         13    1    3    3    0    0  0.35700700386E+02  0.13200445343E+01 -0.48667164576E+02  0.60372068025E+02  0.10566000000E+00 0. -1.
         22    1    1    0    0    0 -0.12468817359E+02 -0.10865348114E+02  0.25889386741E+02  0.30721125334E+02  0.00000000000E+00 0. -1.
</event>
<event>
 5    1  0.9034713E-005  0.9118800E+02  0.7818608E-02  0.1130116E+00
         25   -1    0    0    0    0  0.00000000000E+00  0.00000000000E+00  0.99999998245E-14  0.12500000000E+03  0.12500000000E+03 0.  0.
        -13    1    3    3    0    0 -0.39145503485E+01 -0.31811248794E+02  0.81250742961E+01  0.33065196969E+02  0.10566000000E+00 0.  1.
         23    2    1    0    0    0  0.13385870015E+02  0.26411955732E+02 -0.43485496813E+01  0.95072039729E+02  0.90238627718E+02 0.  0.
         13    1    3    3    0    0  0.17300420364E+02  0.58223204525E+02 -0.12473623977E+02  0.62006842760E+02  0.10566000000E+00 0. -1.
         22    1    1    0    0    0 -0.13385870015E+02 -0.26411955732E+02  0.43485496813E+01  0.29927960271E+02  0.00000000000E+00 0. -1.
</event>
<event>
 5    1  0.9034713E-005  0.9118800E+02  0.7818608E-02  0.1130116E+00
         25   -1    0    0    0    0  0.00000000000E+00  0.00000000000E+00  0.99999998245E-14  0.12500000000E+03  0.12500000000E+03 0.  0.
        -13    1    3    3    0    0 -0.86252801911E+01 -0.34035408731E+02  0.31989123316E+00  0.35112932094E+02  0.10566000000E+00 0. -1.
         23    2    1    0    0    0  0.21916610832E+02  0.18535356694E+02 -0.37732926830E+01  0.96049438420E+02  0.91582528929E+02 0.  0.
         13    1    3    3    0    0  0.30541891023E+02  0.52570765424E+02 -0.40931839161E+01  0.60936506326E+02  0.10566000000E+00 0.  1.
         22    1    1    0    0    0 -0.21916610832E+02 -0.18535356694E+02  0.37732926830E+01  0.28950561580E+02  0.00000000000E+00 0.  1.
</event>
<event>
 5    1  0.9034713E-005  0.9118800E+02  0.7818608E-02  0.1130116E+00
         25   -1    0    0    0    0  0.00000000000E+00  0.00000000000E+00  0.99999998245E-14  0.12500000000E+03  0.12500000000E+03 0.  0.
        -13    1    3    3    0    0 -0.73769789865E+01  0.11139979990E+02  0.38331337149E+02  0.40593368237E+02  0.10566000000E+00 0.  1.
         23    2    1    0    0    0 -0.23253029182E+02 -0.16667427992E+02 -0.64765041355E+01  0.95666544223E+02  0.91058421113E+02 0.  0.
         13    1    3    3    0    0 -0.15876050196E+02 -0.27807407983E+02 -0.44807841285E+02  0.55073175986E+02  0.10566000000E+00 0. -1.
         22    1    1    0    0    0  0.23253029182E+02  0.16667427992E+02  0.64765041355E+01  0.29333455777E+02  0.00000000000E+00 0. -1.
</event>
<event>
 5    1  0.9034713E-005  0.9118800E+02  0.7818608E-02  0.1130116E+00
         25   -1    0    0    0    0  0.00000000000E+00  0.00000000000E+00  0.99999998245E-14  0.12500000000E+03  0.12500000000E+03 0.  0.
        -13    1    3    3    0    0 -0.41269059272E+02  0.42416501225E+02 -0.42765568097E+00  0.59181828991E+02  0.10566000000E+00 0.  1.
         23    2    1    0    0    0 -0.12176420640E+02  0.29810236265E+02 -0.80836400554E+01  0.91799689123E+02  0.85585759801E+02 0.  0.
         13    1    3    3    0    0  0.29092638631E+02 -0.12606264960E+02 -0.76559843744E+01  0.32617860131E+02  0.10566000000E+00 0. -1.
         22    1    1    0    0    0  0.12176420640E+02 -0.29810236265E+02  0.80836400554E+01  0.33200310877E+02  0.00000000000E+00 0.  1.
</event>
<event>
 5    1  0.9034713E-005  0.9118800E+02  0.7818608E-02  0.1130116E+00
         25   -1    0    0    0    0  0.00000000000E+00  0.00000000000E+00  0.99999998245E-14  0.12500000000E+03  0.12500000000E+03 0.  0.
        -13    1    3    3    0    0  0.40926160510E+02 -0.14596408071E+02 -0.31348666931E+01  0.43564254795E+02  0.10566000000E+00 0. -1.
         23    2    1    0    0    0 -0.73102221001E+01 -0.17671509196E+02 -0.22356105020E+02  0.95580329437E+02  0.90939993178E+02 0.  0.
         13    1    3    3    0    0 -0.48236382610E+02 -0.30751011249E+01 -0.19221238327E+02  0.52016074641E+02  0.10566000000E+00 0.  1.
         22    1    1    0    0    0  0.73102221001E+01  0.17671509196E+02  0.22356105020E+02  0.29419670563E+02  0.00000000000E+00 0.  1.
</event>
<event>
 5    1  0.9034713E-005  0.9118800E+02  0.7818608E-02  0.1130116E+00
         25   -1    0    0    0    0  0.00000000000E+00  0.00000000000E+00  0.99999998245E-14  0.12500000000E+03  0.12500000000E+03 0.  0.
        -13    1    3    3    0    0 -0.43544495163E+02 -0.34708545383E+02 -0.26704011338E+02  0.61756955618E+02  0.10566000000E+00 0.  1.
         23    2    1    0    0    0 -0.24178271939E+02 -0.10586722026E+02 -0.12330754546E+02  0.95867286002E+02  0.91333572691E+02 0.  0.
         13    1    3    3    0    0  0.19366223225E+02  0.24121823357E+02  0.14373256793E+02  0.34110330384E+02  0.10566000000E+00 0. -1.
         22    1    1    0    0    0  0.24178271939E+02  0.10586722026E+02  0.12330754546E+02  0.29132713998E+02  0.00000000000E+00 0.  1.
</event>
<event>
 5    1  0.9034713E-005  0.9118800E+02  0.7818608E-02  0.1130116E+00
         25   -1    0    0    0    0  0.00000000000E+00  0.00000000000E+00  0.99999998245E-14  0.12500000000E+03  0.12500000000E+03 0.  0.
        -13    1    3    3    0    0  0.58388288321E+02  0.41671801693E+01  0.90569196733E+01  0.59233407479E+02  0.10566000000E+00 0.  1.
         23    2    1    0    0    0  0.24455983346E+02  0.13405153015E+02 -0.41599288300E+01  0.96802513292E+02  0.92604688451E+02 0.  0.
         13    1    3    3    0    0 -0.33932304975E+02  0.92379728455E+01 -0.13216848503E+02  0.37569105813E+02  0.10566000000E+00 0. -1.
         22    1    1    0    0    0 -0.24455983346E+02 -0.13405153015E+02  0.41599288300E+01  0.28197486708E+02  0.00000000000E+00 0.  1.
</event>
<event>
 5    1  0.9034713E-005  0.9118800E+02  0.7818608E-02  0.1130116E+00
         25   -1    0    0    0    0  0.00000000000E+00  0.00000000000E+00  0.99999998245E-14  0.12500000000E+03  0.12500000000E+03 0.  0.
        -13    1    3    3    0    0 -0.29057785400E+02 -0.97493298383E+01  0.13251400408E+02  0.33391841840E+02  0.10566000000E+00 0. -1.
         23    2    1    0    0    0  0.26070505136E+02 -0.20404128348E+01 -0.13965633009E+02  0.95354200501E+02  0.90628638549E+02 0.  0.
         13    1    3    3    0    0  0.55128290536E+02  0.77089170035E+01 -0.27217033418E+02  0.61962358661E+02  0.10566000000E+00 0.  1.
         22    1    1    0    0    0 -0.26070505136E+02  0.20404128348E+01  0.13965633009E+02  0.29645799499E+02  0.00000000000E+00 0.  1.
</event>
<event>
 5    1  0.9034713E-005  0.9118800E+02  0.7818608E-02  0.1130116E+00
         25   -1    0    0    0    0  0.00000000000E+00  0.00000000000E+00  0.99999998245E-14  0.12500000000E+03  0.12500000000E+03 0.  0.
        -13    1    3    3    0    0  0.11156517707E+02  0.33316732089E+02 -0.85767920713E+01  0.36166905462E+02  0.10566000000E+00 0.  1.
         23    2    1    0    0    0  0.16868265359E+02 -0.22996289437E+02  0.84157840842E+01  0.95264614920E+02  0.90504992846E+02 0.  0.
         13    1    3    3    0    0  0.57117476522E+01 -0.56313021527E+02  0.16992576156E+02  0.59097709458E+02  0.10566000000E+00 0. -1.
         22    1    1    0    0    0 -0.16868265359E+02  0.22996289437E+02 -0.84157840842E+01  0.29735385080E+02  0.00000000000E+00 0. -1.
</event>
<event>
 5    1  0.9034713E-005  0.9118800E+02  0.7818608E-02  0.1130116E+00
         25   -1    0    0    0    0  0.00000000000E+00  0.00000000000E+00  0.99999998245E-14  0.12500000000E+03  0.12500000000E+03 0.  0.
        -13    1    3    3    0    0 -0.16178254165E+02 -0.27465335541E+02 -0.18149382464E+02  0.36680946172E+02  0.10566000000E+00 0. -1.
         23    2    1    0    0    0  0.24164455109E+02  0.14150850128E+02 -0.10261927153E+02  0.95175939261E+02  0.90382436432E+02 0.  0.
         13    1    3    3    0    0  0.40342709274E+02  0.41616185669E+02  0.78874553109E+01  0.58494993089E+02  0.10566000000E+00 0.  1.
         22    1    1    0    0    0 -0.24164455109E+02 -0.14150850128E+02  0.10261927153E+02  0.29824060739E+02  0.00000000000E+00 0.  1.
</event>
<event>
 5    1  0.9034713E-005  0.9118800E+02  0.7818608E-02  0.1130116E+00
         25   -1    0    0    0    0  0.00000000000E+00  0.00000000000E+00  0.99999998245E-14  0.12500000000E+03  0.12500000000E+03 0.  0.
        -13    1    3    3    0    0 -0.22215912904E+02  0.39458450149E+02 -0.42120283018E+02  0.61843718192E+02  0.10566000000E+00 0.  1.
         23    2    1    0    0    0 -0.53478383815E+01  0.22518992935E+02 -0.20123264226E+02  0.94329979112E+02  0.89204791228E+02 0.  0.
         13    1    3    3    0    0  0.16868074522E+02 -0.16939457214E+02  0.21997018792E+02  0.32486260920E+02  0.10566000000E+00 0. -1.
         22    1    1    0    0    0  0.53478383815E+01 -0.22518992935E+02  0.20123264226E+02  0.30670020888E+02  0.00000000000E+00 0.  1.
</event>
<event>
 5    1  0.9034713E-005  0.9118800E+02  0.7818608E-02  0.1130116E+00
         25   -1    0    0    0    0  0.00000000000E+00  0.00000000000E+00  0.99999998245E-14  0.12500000000E+03  0.12500000000E+03 0.  0.
        -13    1    3    3    0    0  0.49047772295E+02 -0.17704450099E+02 -0.51431800154E+01  0.52398425407E+02  0.10566000000E+00 0. -1.
         23    2    1    0    0    0  0.73640246437E+01 -0.22044952301E+02 -0.17289290638E+02  0.96032287773E+02  0.91559117204E+02 0.  0.
         13    1    3    3    0    0 -0.41683747652E+02 -0.43405022018E+01 -0.12146110622E+02  0.43633862366E+02  0.10566000000E+00 0.  1.
         22    1    1    0    0    0 -0.73640246437E+01  0.22044952301E+02  0.17289290638E+02  0.28967712227E+02  0.00000000000E+00 0. -1.
</event>
<event>
 5    1  0.9034713E-005  0.9118800E+02  0.7818608E-02  0.1130116E+00
         25   -1    0    0    0    0  0.00000000000E+00  0.00000000000E+00  0.99999998245E-14  0.12500000000E+03  0.12500000000E+03 0.  0.
        -13    1    3    3    0    0 -0.38929547572E+02 -0.14351041504E+02  0.44092313748E+01  0.41724268139E+02  0.10566000000E+00 0. -1.
         23    2    1    0    0    0 -0.94668930338E+01  0.29104025065E+02  0.19780237378E+00  0.94394355677E+02  0.89294954612E+02 0.  0.
         13    1    3    3    0    0  0.29462654538E+02  0.43455066569E+02 -0.42114290010E+01  0.52670087537E+02  0.10566000000E+00 0.  1.
         22    1    1    0    0    0  0.94668930338E+01 -0.29104025065E+02 -0.19780237378E+00  0.30605644323E+02  0.00000000000E+00 0.  1.
</event>
<event>
 5    1  0.9034713E-005  0.9118800E+02  0.7818608E-02  0.1130116E+00
         25   -1    0    0    0    0  0.00000000000E+00  0.00000000000E+00  0.99999998245E-14  0.12500000000E+03  0.12500000000E+03 0.  0.
        -13    1    3    3    0    0 -0.36880244216E+02 -0.65083288130E+01 -0.30257669868E+02  0.48146116222E+02  0.10566000000E+00 0.  1.
         23    2    1    0    0    0  0.10196392955E+02 -0.36087500832E+01 -0.27564991346E+02  0.95388882926E+02  0.90676461839E+02 0.  0.
         13    1    3    3    0    0  0.47076637172E+02  0.28995787299E+01  0.26926785223E+01  0.47242766704E+02  0.10566000000E+00 0. -1.
         22    1    1    0    0    0 -0.10196392955E+02  0.36087500832E+01  0.27564991346E+02  0.29611117074E+02  0.00000000000E+00 0. -1.
</event>
<event>
 5    1  0.9034713E-005  0.9118800E+02  0.7818608E-02  0.1130116E+00
         25   -1    0    0    0    0  0.00000000000E+00  0.00000000000E+00  0.99999998245E-14  0.12500000000E+03  0.12500000000E+03 0.  0.
        -13    1    3    3    0    0  0.32108756695E+02 -0.37473477926E+02  0.23274258353E+02  0.54561305614E+02  0.10566000000E+00 0. -1.
         23    2    1    0    0    0  0.91207620459E+01 -0.25289532107E+02 -0.95714749359E+01  0.96462973755E+02  0.92145230146E+02 0.  0.
         13    1    3    3    0    0 -0.22987994649E+02  0.12183945819E+02 -0.32845733289E+02  0.41901668141E+02  0.10566000000E+00 0.  1.
         22    1    1    0    0    0 -0.91207620459E+01  0.25289532107E+02  0.95714749359E+01  0.28537026245E+02  0.00000000000E+00 0. -1.
</event>
<event>
 5    1  0.9034713E-005  0.9118800E+02  0.7818608E-02  0.1130116E+00
         25   -1    0    0    0    0  0.00000000000E+00  0.00000000000E+00  0.99999998245E-14  0.12500000000E+03  0.12500000000E+03 0.  0.
        -13    1    3    3    0    0 -0.43824958134E+02  0.19018437750E+02  0.47477279935E+01  0.48009165948E+02  0.10566000000E+00 0.  1.
         23    2    1    0    0    0  0.29085445794E+01  0.26151504538E+02 -0.89138073540E+01  0.97218409284E+02  0.93164383329E+02 0.  0.
         13    1    3    3    0    0  0.46733502713E+02  0.71330667877E+01 -0.13661535347E+02  0.49209243336E+02  0.10566000000E+00 0. -1.
         22    1    1    0    0    0 -0.29085445794E+01 -0.26151504538E+02  0.89138073540E+01  0.27781590716E+02  0.00000000000E+00 0.  1.
</event>
<event>
 5    1  0.9034713E-005  0.9118800E+02  0.7818608E-02  0.1130116E+00
         25   -1    0    0    0    0  0.00000000000E+00  0.00000000000E+00  0.99999998245E-14  0.12500000000E+03  0.12500000000E+03 0.  0.
        -13    1    3    3    0    0 -0.33238464064E+02 -0.17097091089E+02 -0.16540744924E+02  0.40874361447E+02  0.10566000000E+00 0. -1.
         23    2    1    0    0    0  0.18627385020E+02 -0.10208794275E+02  0.12132941601E+02  0.10053763656E+03  0.97516199371E+02 0.  0.
         13    1    3    3    0    0  0.51865849084E+02  0.68882968136E+01  0.28673686525E+02  0.59663275112E+02  0.10566000000E+00 0.  1.
         22    1    1    0    0    0 -0.18627385020E+02  0.10208794275E+02 -0.12132941601E+02  0.24462363441E+02  0.00000000000E+00 0.  1.
</event>
<event>
 5    1  0.9034713E-005  0.9118800E+02  0.7818608E-02  0.1130116E+00
         25   -1    0    0    0    0  0.00000000000E+00  0.00000000000E+00  0.99999998245E-14  0.12500000000E+03  0.12500000000E+03 0.  0.
        -13    1    3    3    0    0 -0.17187193153E+02 -0.50878351302E+01 -0.47049254374E+02  0.50348080162E+02  0.10566000000E+00 0. -1.
         23    2    1    0    0    0  0.80437378934E+01 -0.24362691568E+02 -0.15963891421E+02  0.94782649206E+02  0.89836864935E+02 0.  0.
         13    1    3    3    0    0  0.25230931047E+02 -0.19274856438E+02  0.31085362953E+02  0.44434569044E+02  0.10566000000E+00 0.  1.
         22    1    1    0    0    0 -0.80437378934E+01  0.24362691568E+02  0.15963891421E+02  0.30217350794E+02  0.00000000000E+00 0. -1.
</event>
<event>
 5    1  0.9034713E-005  0.9118800E+02  0.7818608E-02  0.1130116E+00
         25   -1    0    0    0    0  0.00000000000E+00  0.00000000000E+00  0.99999998245E-14  0.12500000000E+03  0.12500000000E+03 0.  0.
        -13    1    3    3    0    0 -0.32753715363E+02  0.48894239709E+02  0.27227201123E+01  0.58914148689E+02  0.10566000000E+00 0. -1.
         23    2    1    0    0    0 -0.10225848332E+02  0.31845940490E+02 -0.10271478793E+02  0.90010927757E+02  0.82932092336E+02 0.  0.
         13    1    3    3    0    0  0.22527867031E+02 -0.17048299219E+02 -0.12994198905E+02  0.31096779069E+02  0.10566000000E+00 0.  1.
         22    1    1    0    0    0  0.10225848332E+02 -0.31845940490E+02  0.10271478793E+02  0.34989072243E+02  0.00000000000E+00 0. -1.
</event>
<event>
 5    1  0.9034713E-005  0.9118800E+02  0.7818608E-02  0.1130116E+00
         25   -1    0    0    0    0  0.00000000000E+00  0.00000000000E+00  0.99999998245E-14  0.12500000000E+03  0.12500000000E+03 0.  0.
        -13    1    3    3    0    0  0.37205560416E+02 -0.21904645386E+02 -0.13487605466E+01  0.43196036096E+02  0.10566000000E+00 0.  1.
         23    2    1    0    0    0 -0.15477139645E+02 -0.24228213750E+02 -0.38736085594E+01  0.95990466457E+02  0.91502003335E+02 0.  0.
         13    1    3    3    0    0 -0.52682700061E+02 -0.23235683643E+01 -0.25248480129E+01  0.52794430361E+02  0.10566000000E+00 0. -1.
         22    1    1    0    0    0  0.15477139645E+02  0.24228213750E+02  0.38736085594E+01  0.29009533543E+02  0.00000000000E+00 0.  1.
</event>
<event>
 5    1  0.9034713E-005  0.9118800E+02  0.7818608E-02  0.1130116E+00
         25   -1    0    0    0    0  0.00000000000E+00  0.00000000000E+00  0.99999998245E-14  0.12500000000E+03  0.12500000000E+03 0.  0.
        -13    1    3    3    0    0  0.37408854798E+02 -0.26968557744E+02 -0.95837466169E+01  0.47101856517E+02  0.10566000000E+00 0. -1.
         23    2    1    0    0    0 -0.73350971315E+01 -0.28071658068E+02  0.75379401185E+01  0.95022638912E+02  0.90170170943E+02 0.  0.
         13    1    3    3    0    0 -0.44743951930E+02 -0.11031003242E+01  0.17121686735E+02  0.47920782395E+02  0.10566000000E+00 0.  1.
         22    1    1    0    0    0  0.73350971315E+01  0.28071658068E+02 -0.75379401185E+01  0.29977361088E+02  0.00000000000E+00 0.  1.
</event>
<event>
 5    1  0.9034713E-005  0.9118800E+02  0.7818608E-02  0.1130116E+00
         25   -1    0    0    0    0  0.00000000000E+00  0.00000000000E+00  0.99999998245E-14  0.12500000000E+03  0.12500000000E+03 0.  0.
        -13    1    3    3    0    0  0.86314842066E+01 -0.16309852827E+02  0.17651662490E+02  0.25536369584E+02  0.10566000000E+00 0.  1.
         23    2    1    0    0    0  0.18056269357E+02  0.24668827370E+02 -0.25058269439E+02  0.85471570052E+02  0.75781874568E+02 0.  0.
         13    1    3    3    0    0  0.94247851502E+01  0.40978680197E+02 -0.42709931929E+02  0.59935200468E+02  0.10566000000E+00 0. -1.
         22    1    1    0    0    0 -0.18056269357E+02 -0.24668827370E+02  0.25058269439E+02  0.39528429948E+02  0.00000000000E+00 0. -1.
</event>
<event>
 5    1  0.9034713E-005  0.9118800E+02  0.7818608E-02  0.1130116E+00
         25   -1    0    0    0    0  0.00000000000E+00  0.00000000000E+00  0.99999998245E-14  0.12500000000E+03  0.12500000000E+03 0.  0.
        -13    1    3    3    0    0  0.84312952363E+01  0.23146636957E+02 -0.36927630454E+02  0.44390478672E+02  0.10566000000E+00 0. -1.
         23    2    1    0    0    0  0.62979609611E+01  0.28229529694E+02  0.12042223183E+02  0.93669730320E+02  0.88274756188E+02 0.  0.
         13    1    3    3    0    0 -0.21333342752E+01  0.50828927368E+01  0.48969853637E+02  0.49279251648E+02  0.10566000000E+00 0.  1.
         22    1    1    0    0    0 -0.62979609611E+01 -0.28229529694E+02 -0.12042223183E+02  0.31330269680E+02  0.00000000000E+00 0.  1.
</event>
<event>
 5    1  0.9034713E-005  0.9118800E+02  0.7818608E-02  0.1130116E+00
         25   -1    0    0    0    0  0.00000000000E+00  0.00000000000E+00  0.99999998245E-14  0.12500000000E+03  0.12500000000E+03 0.  0.
        -13    1    3    3    0    0 -0.17780355856E+02  0.27598735612E+02 -0.21063208295E+02  0.39006424720E+02  0.10566000000E+00 0. -1.
         23    2    1    0    0    0  0.19663706282E+02 -0.13804672529E+02 -0.18119106627E+02  0.94907935376E+02  0.90011020681E+02 0.  0.
         13    1    3    3    0    0  0.37444062137E+02 -0.41403408141E+02  0.29441016676E+01  0.55901510656E+02  0.10566000000E+00 0.  1.
         22    1    1    0    0    0 -0.19663706282E+02  0.13804672529E+02  0.18119106627E+02  0.30092064624E+02  0.00000000000E+00 0.  1.
</event>
<event>
 5    1  0.9034713E-005  0.9118800E+02  0.7818608E-02  0.1130116E+00
         25   -1    0    0    0    0  0.00000000000E+00  0.00000000000E+00  0.99999998245E-14  0.12500000000E+03  0.12500000000E+03 0.  0.
        -13    1    3    3    0    0  0.25985700165E+02  0.44405623974E+02  0.23645638438E+02  0.56623700292E+02  0.10566000000E+00 0. -1.
         23    2    1    0    0    0 -0.43460898867E+01  0.25867019583E+02  0.10427419558E+01  0.98749695045E+02  0.95196763397E+02 0.  0.
         13    1    3    3    0    0 -0.30331790052E+02 -0.18538604390E+02 -0.22602896483E+02  0.42125994753E+02  0.10566000000E+00 0.  1.
         22    1    1    0    0    0  0.43460898867E+01 -0.25867019583E+02 -0.10427419558E+01  0.26250304955E+02  0.00000000000E+00 0. -1.
</event>
<event>
 5    1  0.9034713E-005  0.9118800E+02  0.7818608E-02  0.1130116E+00
         25   -1    0    0    0    0  0.00000000000E+00  0.00000000000E+00  0.99999998245E-14  0.12500000000E+03  0.12500000000E+03 0.  0.
        -13    1    3    3    0    0 -0.13774555636E+02  0.28782228098E+02 -0.19290567342E+02  0.37286622128E+02  0.10566000000E+00 0. -1.
         23    2    1    0    0    0  0.11719368370E+02 -0.23781580325E+02 -0.11017200194E+02  0.96289621078E+02  0.91909766997E+02 0.  0.
         13    1    3    3    0    0  0.25493924006E+02 -0.52563808423E+02  0.82733671477E+01  0.59002998950E+02  0.10566000000E+00 0.  1.
         22    1    1    0    0    0 -0.11719368370E+02  0.23781580325E+02  0.11017200194E+02  0.28710378922E+02  0.00000000000E+00 0.  1.
</event>
<event>
 5    1  0.9034713E-005  0.9118800E+02  0.7818608E-02  0.1130116E+00
         25   -1    0    0    0    0  0.00000000000E+00  0.00000000000E+00  0.99999998245E-14  0.12500000000E+03  0.12500000000E+03 0.  0.
        -13    1    3    3    0    0 -0.26685254575E+02  0.17927539030E+01  0.25044419446E+02  0.36640836341E+02  0.10566000000E+00 0. -1.
         23    2    1    0    0    0  0.24753599754E+02  0.14591219902E+02 -0.20910488691E+01  0.96189986387E+02  0.91774160834E+02 0.  0.
         13    1    3    3    0    0  0.51438854329E+02  0.12798465999E+02 -0.27135468315E+02  0.59549150047E+02  0.10566000000E+00 0.  1.
         22    1    1    0    0    0 -0.24753599754E+02 -0.14591219902E+02  0.20910488691E+01  0.28810013613E+02  0.00000000000E+00 0.  1.
</event>
<event>
 5    1  0.9034713E-005  0.9118800E+02  0.7818608E-02  0.1130116E+00
         25   -1    0    0    0    0  0.00000000000E+00  0.00000000000E+00  0.99999998245E-14  0.12500000000E+03  0.12500000000E+03 0.  0.
        -13    1    3    3    0    0  0.49818923543E+02 -0.26130792141E+02 -0.12449382726E+02  0.57617199995E+02  0.10566000000E+00 0.  1.
         23    2    1    0    0    0  0.22214630692E+02 -0.23496330285E+02 -0.20770241648E+02  0.86568628807E+02  0.77570337126E+02 0.  0.
         13    1    3    3    0    0 -0.27604292851E+02  0.26344618562E+01 -0.83208589214E+01  0.28951428813E+02  0.10566000000E+00 0. -1.
         22    1    1    0    0    0 -0.22214630692E+02  0.23496330285E+02  0.20770241648E+02  0.38431371193E+02  0.00000000000E+00 0.  1.
</event>
<event>
 5    1  0.9034713E-005  0.9118800E+02  0.7818608E-02  0.1130116E+00
         25   -1    0    0    0    0  0.00000000000E+00  0.00000000000E+00  0.99999998245E-14  0.12500000000E+03  0.12500000000E+03 0.  0.
        -13    1    3    3    0    0  0.86195992032E+01 -0.14321215739E+02  0.85875676012E+00  0.16737483021E+02  0.10566000000E+00 0.  1.
         23    2    1    0    0    0 -0.92633540547E+01  0.70785359401E+01 -0.49414961434E+02  0.74228415300E+02  0.54148904191E+02 0.  0.
         13    1    3    3    0    0 -0.17882953258E+02  0.21399751680E+02 -0.50273718194E+02  0.57490932279E+02  0.10566000000E+00 0. -1.
         22    1    1    0    0    0  0.92633540547E+01 -0.70785359401E+01  0.49414961434E+02  0.50771584700E+02  0.00000000000E+00 0. -1.
</event>
<event>
 5    1  0.9034713E-005  0.9118800E+02  0.7818608E-02  0.1130116E+00
         25   -1    0    0    0    0  0.00000000000E+00  0.00000000000E+00  0.99999998245E-14  0.12500000000E+03  0.12500000000E+03 0.  0.
        -13    1    3    3    0    0 -0.33918846796E+02  0.10015620167E+02  0.29611361796E+02  0.46126399455E+02  0.10566000000E+00 0.  1.
         23    2    1    0    0    0  0.13009357160E+02  0.86735882658E+01  0.27794949968E+02  0.93109033398E+02  0.87477187594E+02 0.  0.
         13    1    3    3    0    0  0.46928203956E+02 -0.13420319007E+01 -0.18164118282E+01  0.46982633942E+02  0.10566000000E+00 0. -1.
         22    1    1    0    0    0 -0.13009357160E+02 -0.86735882658E+01 -0.27794949968E+02  0.31890966602E+02  0.00000000000E+00 0.  1.
</event>
<event>
 5    1  0.9034713E-005  0.9118800E+02  0.7818608E-02  0.1130116E+00
         25   -1    0    0    0    0  0.00000000000E+00  0.00000000000E+00  0.99999998245E-14  0.12500000000E+03  0.12500000000E+03 0.  0.
        -13    1    3    3    0    0  0.11080057444E+02 -0.31181876357E+02 -0.35207170214E+01  0.33278877663E+02  0.10566000000E+00 0. -1.
         23    2    1    0    0    0 -0.19040975861E+02  0.22879819220E+02 -0.10178583678E+01  0.95216096211E+02  0.90437956925E+02 0.  0.
         13    1    3    3    0    0 -0.30121033305E+02  0.54061695577E+02  0.25028586535E+01  0.61937218548E+02  0.10566000000E+00 0.  1.
         22    1    1    0    0    0  0.19040975861E+02 -0.22879819220E+02  0.10178583678E+01  0.29783903789E+02  0.00000000000E+00 0.  1.
</event>
<event>
 5    1  0.9034713E-005  0.9118800E+02  0.7818608E-02  0.1130116E+00
         25   -1    0    0    0    0  0.00000000000E+00  0.00000000000E+00  0.99999998245E-14  0.12500000000E+03  0.12500000000E+03 0.  0.
        -13    1    3    3    0    0  0.55310368829E+02 -0.23891971827E+02  0.10025047597E+02  0.61078441051E+02  0.10566000000E+00 0.  1.
         23    2    1    0    0    0  0.21634554132E+02 -0.17167147733E+02  0.10582305299E+02  0.95423825819E+02  0.90724618790E+02 0.  0.
         13    1    3    3    0    0 -0.33675814698E+02  0.67248240943E+01  0.55725770188E+00  0.34345384768E+02  0.10566000000E+00 0. -1.
         22    1    1    0    0    0 -0.21634554132E+02  0.17167147733E+02 -0.10582305299E+02  0.29576174181E+02  0.00000000000E+00 0.  1.
</event>
<event>
 5    1  0.9034713E-005  0.9118800E+02  0.7818608E-02  0.1130116E+00
         25   -1    0    0    0    0  0.00000000000E+00  0.00000000000E+00  0.99999998245E-14  0.12500000000E+03  0.12500000000E+03 0.  0.
        -13    1    3    3    0    0 -0.27731083258E+02 -0.14540394776E+02  0.16555459296E+02  0.35419351426E+02  0.10566000000E+00 0. -1.
         23    2    1    0    0    0  0.11795584287E+01  0.93249213840E+01 -0.29056917811E+02  0.94460681252E+02  0.89387752589E+02 0.  0.
         13    1    3    3    0    0  0.28910641686E+02  0.23865316160E+02 -0.45612377108E+02  0.59041329826E+02  0.10566000000E+00 0.  1.
         22    1    1    0    0    0 -0.11795584287E+01 -0.93249213840E+01  0.29056917811E+02  0.30539318748E+02  0.00000000000E+00 0.  1.
</event>
<event>
 5    1  0.9034713E-005  0.9118800E+02  0.7818608E-02  0.1130116E+00
         25   -1    0    0    0    0  0.00000000000E+00  0.00000000000E+00  0.99999998245E-14  0.12500000000E+03  0.12500000000E+03 0.  0.
        -13    1    3    3    0    0  0.75555410148E+01  0.44995667254E+02 -0.28097036923E+02  0.53583121592E+02  0.10566000000E+00 0. -1.
         23    2    1    0    0    0  0.18942002260E+02  0.22811694154E+02  0.49047126291E+01  0.94946230756E+02  0.90064186495E+02 0.  0.
         13    1    3    3    0    0  0.11386461245E+02 -0.22183973099E+02  0.33001749552E+02  0.41363109164E+02  0.10566000000E+00 0.  1.
         22    1    1    0    0    0 -0.18942002260E+02 -0.22811694154E+02 -0.49047126291E+01  0.30053769244E+02  0.00000000000E+00 0.  1.
</event>
<event>
 5    1  0.9034713E-005  0.9118800E+02  0.7818608E-02  0.1130116E+00
         25   -1    0    0    0    0  0.00000000000E+00  0.00000000000E+00  0.99999998245E-14  0.12500000000E+03  0.12500000000E+03 0.  0.
        -13    1    3    3    0    0 -0.33089443598E+02  0.48331747890E+02  0.17118013098E+02  0.61023820498E+02  0.10566000000E+00 0.  1.
         23    2    1    0    0    0 -0.21131343332E+02  0.16273602572E+02  0.12481733579E+02  0.95552462160E+02  0.90901680622E+02 0.  0.
         13    1    3    3    0    0  0.11958100266E+02 -0.32058145318E+02 -0.46362795188E+01  0.34528641662E+02  0.10566000000E+00 0. -1.
         22    1    1    0    0    0  0.21131343332E+02 -0.16273602572E+02 -0.12481733579E+02  0.29447537840E+02  0.00000000000E+00 0.  1.
</event>
<event>
 5    1  0.9034713E-005  0.9118800E+02  0.7818608E-02  0.1130116E+00
         25   -1    0    0    0    0  0.00000000000E+00  0.00000000000E+00  0.99999998245E-14  0.12500000000E+03  0.12500000000E+03 0.  0.
        -13    1    3    3    0    0  0.45007718245E+02  0.51926646103E+01  0.39260661527E+02  0.59950556085E+02  0.10566000000E+00 0.  1.
         23    2    1    0    0    0  0.26525991981E+02  0.99637680890E+01  0.98720209951E+01  0.94993971878E+02  0.90130421998E+02 0.  0.
         13    1    3    3    0    0 -0.18481726264E+02  0.47711034788E+01 -0.29388640532E+02  0.35043415793E+02  0.10566000000E+00 0. -1.
         22    1    1    0    0    0 -0.26525991981E+02 -0.99637680890E+01 -0.98720209951E+01  0.30006028122E+02  0.00000000000E+00 0.  1.
</event>
<event>
 5    1  0.9034713E-005  0.9118800E+02  0.7818608E-02  0.1130116E+00
         25   -1    0    0    0    0  0.00000000000E+00  0.00000000000E+00  0.99999998245E-14  0.12500000000E+03  0.12500000000E+03 0.  0.
        -13    1    3    3    0    0 -0.11449680661E+02 -0.17601447328E+02 -0.21989839483E+02  0.30405103845E+02  0.10566000000E+00 0. -1.
         23    2    1    0    0    0  0.24030844665E+02  0.25190692932E+02  0.20756748968E-02  0.90185455482E+02  0.83194734631E+02 0.  0.
         13    1    3    3    0    0  0.35480525326E+02  0.42792140260E+02  0.21991915158E+02  0.59780351637E+02  0.10566000000E+00 0.  1.
         22    1    1    0    0    0 -0.24030844665E+02 -0.25190692932E+02 -0.20756748968E-02  0.34814544518E+02  0.00000000000E+00 0.  1.
</event>
<event>
 5    1  0.9034713E-005  0.9118800E+02  0.7818608E-02  0.1130116E+00
         25   -1    0    0    0    0  0.00000000000E+00  0.00000000000E+00  0.99999998245E-14  0.12500000000E+03  0.12500000000E+03 0.  0.
        -13    1    3    3    0    0 -0.22212262467E+02 -0.14446136351E+02 -0.29771783873E+02  0.39855310040E+02  0.10566000000E+00 0. -1.
         23    2    1    0    0    0 -0.21290259859E+02 -0.20241309089E+02  0.19671247931E+02  0.89645456393E+02  0.82379391223E+02 0.  0.
         13    1    3    3    0    0  0.92200260773E+00 -0.57951727375E+01  0.49443031804E+02  0.49790146353E+02  0.10566000000E+00 0.  1.
         22    1    1    0    0    0  0.21290259859E+02  0.20241309089E+02 -0.19671247931E+02  0.35354543607E+02  0.00000000000E+00 0.  1.
</event>
<event>
 5    1  0.9034713E-005  0.9118800E+02  0.7818608E-02  0.1130116E+00
         25   -1    0    0    0    0  0.00000000000E+00  0.00000000000E+00  0.99999998245E-14  0.12500000000E+03  0.12500000000E+03 0.  0.
        -13    1    3    3    0    0 -0.90429976669E+01  0.14293441171E+02 -0.37820472986E+02  0.41430394739E+02  0.10566000000E+00 0.  1.
         23    2    1    0    0    0  0.29511160968E+02  0.55264580649E+00 -0.27040156120E+01  0.95360065123E+02  0.90636726998E+02 0.  0.
         13    1    3    3    0    0  0.38554158635E+02 -0.13740795364E+02  0.35116457374E+02  0.53929670385E+02  0.10566000000E+00 0. -1.
         22    1    1    0    0    0 -0.29511160968E+02 -0.55264580649E+00  0.27040156120E+01  0.29639934877E+02  0.00000000000E+00 0. -1.
</event>
<event>
 5    1  0.9034713E-005  0.9118800E+02  0.7818608E-02  0.1130116E+00
         25   -1    0    0    0    0  0.00000000000E+00  0.00000000000E+00  0.99999998245E-14  0.12500000000E+03  0.12500000000E+03 0.  0.
        -13    1    3    3    0    0 -0.49683830991E+02  0.27091427977E+02  0.55714713061E+01  0.56863705369E+02  0.10566000000E+00 0. -1.
         23    2    1    0    0    0 -0.25744794883E+02 -0.10667931495E+01  0.15236132785E+02  0.95065534021E+02  0.90229615456E+02 0.  0.
         13    1    3    3    0    0  0.23939036108E+02 -0.28158221127E+02  0.96646614790E+01  0.38201828652E+02  0.10566000000E+00 0.  1.
         22    1    1    0    0    0  0.25744794883E+02  0.10667931495E+01 -0.15236132785E+02  0.29934465979E+02  0.00000000000E+00 0. -1.
</event>
<event>
 5    1  0.9034713E-005  0.9118800E+02  0.7818608E-02  0.1130116E+00
         25   -1    0    0    0    0  0.00000000000E+00  0.00000000000E+00  0.99999998245E-14  0.12500000000E+03  0.12500000000E+03 0.  0.
        -13    1    3    3    0    0  0.44214594765E+02 -0.19802274606E+02 -0.17002765589E+02  0.51343603998E+02  0.10566000000E+00 0. -1.
         23    2    1    0    0    0 -0.19632992454E+00 -0.26677974784E+02 -0.76430403615E+01  0.97248082049E+02  0.93204187203E+02 0.  0.
         13    1    3    3    0    0 -0.44410924690E+02 -0.68757001774E+01  0.93597252275E+01  0.45904478051E+02  0.10566000000E+00 0.  1.
         22    1    1    0    0    0  0.19632992454E+00  0.26677974784E+02  0.76430403615E+01  0.27751917951E+02  0.00000000000E+00 0. -1.
</event>
<event>
 5    1  0.9034713E-005  0.9118800E+02  0.7818608E-02  0.1130116E+00
         25   -1    0    0    0    0  0.00000000000E+00  0.00000000000E+00  0.99999998245E-14  0.12500000000E+03  0.12500000000E+03 0.  0.
        -13    1    3    3    0    0  0.36498428043E+02 -0.80467506744E+01 -0.25133733986E+02  0.45039995494E+02  0.10566000000E+00 0. -1.
         23    2    1    0    0    0 -0.99731448898E+01  0.14433495846E+02 -0.22142044639E+02  0.96750051998E+02  0.92533847859E+02 0.  0.
         13    1    3    3    0    0 -0.46471572933E+02  0.22480246520E+02  0.29916893467E+01  0.51710056504E+02  0.10566000000E+00 0.  1.
         22    1    1    0    0    0  0.99731448898E+01 -0.14433495846E+02  0.22142044639E+02  0.28249948002E+02  0.00000000000E+00 0.  1.
</event>
<event>
 5    1  0.9034713E-005  0.9118800E+02  0.7818608E-02  0.1130116E+00
         25   -1    0    0    0    0  0.00000000000E+00  0.00000000000E+00  0.99999998245E-14  0.12500000000E+03  0.12500000000E+03 0.  0.
        -13    1    3    3    0    0  0.47844733238E+02  0.13632172000E+02 -0.70570710655E+01  0.50247069846E+02  0.10566000000E+00 0. -1.
         23    2    1    0    0    0  0.53422679992E+01  0.24981936803E+02 -0.15608428756E+02  0.95062397524E+02  0.90225270190E+02 0.  0.
         13    1    3    3    0    0 -0.42502465239E+02  0.11349764804E+02 -0.85513576903E+01  0.44815327678E+02  0.10566000000E+00 0.  1.
         22    1    1    0    0    0 -0.53422679992E+01 -0.24981936803E+02  0.15608428756E+02  0.29937602476E+02  0.00000000000E+00 0.  1.
</event>
<event>
 5    1  0.9034713E-005  0.9118800E+02  0.7818608E-02  0.1130116E+00
         25   -1    0    0    0    0  0.00000000000E+00  0.00000000000E+00  0.99999998245E-14  0.12500000000E+03  0.12500000000E+03 0.  0.
        -13    1    3    3    0    0  0.59745495295E+01 -0.32361714190E+02 -0.39956756410E+02  0.51764170372E+02  0.10566000000E+00 0.  1.
         23    2    1    0    0    0 -0.21930622006E+02 -0.77598652567E+01 -0.21629331554E+02  0.93235307748E+02  0.87657440854E+02 0.  0.
         13    1    3    3    0    0 -0.27905171536E+02  0.24601848934E+02  0.18327424856E+02  0.41471137376E+02  0.10566000000E+00 0. -1.
         22    1    1    0    0    0  0.21930622006E+02  0.77598652567E+01  0.21629331554E+02  0.31764692252E+02  0.00000000000E+00 0.  1.
</event>
<event>
 5    1  0.9034713E-005  0.9118800E+02  0.7818608E-02  0.1130116E+00
         25   -1    0    0    0    0  0.00000000000E+00  0.00000000000E+00  0.99999998245E-14  0.12500000000E+03  0.12500000000E+03 0.  0.
        -13    1    3    3    0    0 -0.23043084181E+02  0.27591083254E+02 -0.39815892378E+02  0.53642968352E+02  0.10566000000E+00 0. -1.
         23    2    1    0    0    0 -0.13473345604E+02 -0.20412932366E+01 -0.37766911997E+02  0.84849812434E+02  0.74749268280E+02 0.  0.
         13    1    3    3    0    0  0.95697385767E+01 -0.29632376491E+02  0.20489803809E+01  0.31206844082E+02  0.10566000000E+00 0.  1.
         22    1    1    0    0    0  0.13473345604E+02  0.20412932366E+01  0.37766911997E+02  0.40150187566E+02  0.00000000000E+00 0. -1.
</event>
<event>
 5    1  0.9034713E-005  0.9118800E+02  0.7818608E-02  0.1130116E+00
         25   -1    0    0    0    0  0.00000000000E+00  0.00000000000E+00  0.99999998245E-14  0.12500000000E+03  0.12500000000E+03 0.  0.
        -13    1    3    3    0    0  0.11166442204E+01  0.34726698856E+02 -0.15852302960E+02  0.38190275999E+02  0.10566000000E+00 0.  1.
         23    2    1    0    0    0  0.19827402958E+02 -0.51354112303E+01  0.21040025464E+02  0.95637080729E+02  0.91017966261E+02 0.  0.
         13    1    3    3    0    0  0.18710758737E+02 -0.39862110086E+02  0.36892328424E+02  0.57446804730E+02  0.10566000000E+00 0. -1.
         22    1    1    0    0    0 -0.19827402958E+02  0.51354112303E+01 -0.21040025464E+02  0.29362919271E+02  0.00000000000E+00 0. -1.
</event>
<event>
 5    1  0.9034713E-005  0.9118800E+02  0.7818608E-02  0.1130116E+00
         25   -1    0    0    0    0  0.00000000000E+00  0.00000000000E+00  0.99999998245E-14  0.12500000000E+03  0.12500000000E+03 0.  0.
        -13    1    3    3    0    0  0.43709211487E+02  0.99667439706E+01 -0.86122891596E+01  0.45651000458E+02  0.10566000000E+00 0.  1.
         23    2    1    0    0    0  0.75138970930E+01 -0.20159309523E+02 -0.21612481657E+02  0.94504823770E+02  0.89449460269E+02 0.  0.
         13    1    3    3    0    0 -0.36195314394E+02 -0.30126053493E+02 -0.13000192497E+02  0.48853823312E+02  0.10566000000E+00 0. -1.
         22    1    1    0    0    0 -0.75138970930E+01  0.20159309523E+02  0.21612481657E+02  0.30495176230E+02  0.00000000000E+00 0. -1.
</event>
<event>
 5    1  0.9034713E-005  0.9118800E+02  0.7818608E-02  0.1130116E+00
         25   -1    0    0    0    0  0.00000000000E+00  0.00000000000E+00  0.99999998245E-14  0.12500000000E+03  0.12500000000E+03 0.  0.
        -13    1    3    3    0    0 -0.24008069788E+02  0.93129737492E+01  0.52971505920E+02  0.58899155329E+02  0.10566000000E+00 0.  1.
         23    2    1    0    0    0  0.38859152235E+00  0.74799146604E+01  0.34873715286E+02  0.89331019855E+02  0.81900885000E+02 0.  0.
         13    1    3    3    0    0  0.24396661310E+02 -0.18330590888E+01 -0.18097790634E+02  0.30431864526E+02  0.10566000000E+00 0. -1.
         22    1    1    0    0    0 -0.38859152235E+00 -0.74799146604E+01 -0.34873715286E+02  0.35668980145E+02  0.00000000000E+00 0.  1.
</event>
<event>
 5    1  0.9034713E-005  0.9118800E+02  0.7818608E-02  0.1130116E+00
         25   -1    0    0    0    0  0.00000000000E+00  0.00000000000E+00  0.99999998245E-14  0.12500000000E+03  0.12500000000E+03 0.  0.
        -13    1    3    3    0    0 -0.19202152936E+02 -0.11036409625E+02 -0.25705688402E+02  0.33931085969E+02  0.10566000000E+00 0.  1.
         23    2    1    0    0    0 -0.43740336718E+00  0.66502869120E+01  0.29443771322E+02  0.94811371223E+02  0.89876820181E+02 0.  0.
         13    1    3    3    0    0  0.18764749569E+02  0.17686696537E+02  0.55149459724E+02  0.60880285255E+02  0.10566000000E+00 0. -1.
         22    1    1    0    0    0  0.43740336718E+00 -0.66502869120E+01 -0.29443771322E+02  0.30188628777E+02  0.00000000000E+00 0. -1.
</event>
<event>
 5    1  0.9034713E-005  0.9118800E+02  0.7818608E-02  0.1130116E+00
         25   -1    0    0    0    0  0.00000000000E+00  0.00000000000E+00  0.99999998245E-14  0.12500000000E+03  0.12500000000E+03 0.  0.
        -13    1    3    3    0    0  0.15493101844E+02 -0.21462959111E+02 -0.26809849393E+02  0.37675907515E+02  0.10566000000E+00 0.  1.
         23    2    1    0    0    0  0.11448254691E+02 -0.19945152766E+02  0.25785853043E+02  0.90448851373E+02  0.83589549844E+02 0.  0.
         13    1    3    3    0    0 -0.40448471529E+01  0.15178063452E+01  0.52595702436E+02  0.52772943857E+02  0.10566000000E+00 0. -1.
         22    1    1    0    0    0 -0.11448254691E+02  0.19945152766E+02 -0.25785853043E+02  0.34551148627E+02  0.00000000000E+00 0. -1.
</event>
<event>
 5    1  0.9034713E-005  0.9118800E+02  0.7818608E-02  0.1130116E+00
         25   -1    0    0    0    0  0.00000000000E+00  0.00000000000E+00  0.99999998245E-14  0.12500000000E+03  0.12500000000E+03 0.  0.
        -13    1    3    3    0    0  0.56456781651E+02  0.15760428803E+02 -0.10691760100E+02  0.59582583097E+02  0.10566000000E+00 0.  1.
         23    2    1    0    0    0  0.20028473606E+02  0.19384558366E+02 -0.59792209064E+01  0.96492949282E+02  0.92185884605E+02 0.  0.
         13    1    3    3    0    0 -0.36428308046E+02  0.36241295628E+01  0.47125391939E+01  0.36910366184E+02  0.10566000000E+00 0. -1.
         22    1    1    0    0    0 -0.20028473606E+02 -0.19384558366E+02  0.59792209064E+01  0.28507050718E+02  0.00000000000E+00 0.  1.
</event>
<event>
 5    1  0.9034713E-005  0.9118800E+02  0.7818608E-02  0.1130116E+00
         25   -1    0    0    0    0  0.00000000000E+00  0.00000000000E+00  0.99999998245E-14  0.12500000000E+03  0.12500000000E+03 0.  0.
        -13    1    3    3    0    0 -0.36079426080E+01  0.79453613549E+01  0.34984881512E+02  0.36056887211E+02  0.10566000000E+00 0.  1.
         23    2    1    0    0    0  0.94579713973E+01  0.20117537009E+02 -0.20754852236E+02  0.94587298548E+02  0.89564639435E+02 0.  0.
         13    1    3    3    0    0  0.13065914005E+02  0.12172175654E+02 -0.55739733748E+02  0.58530411337E+02  0.10566000000E+00 0. -1.
         22    1    1    0    0    0 -0.94579713973E+01 -0.20117537009E+02  0.20754852236E+02  0.30412701452E+02  0.00000000000E+00 0. -1.
</event>
<event>
 5    1  0.9034713E-005  0.9118800E+02  0.7818608E-02  0.1130116E+00
         25   -1    0    0    0    0  0.00000000000E+00  0.00000000000E+00  0.99999998245E-14  0.12500000000E+03  0.12500000000E+03 0.  0.
        -13    1    3    3    0    0  0.25437936106E+02  0.22776909221E+02 -0.48534634212E+02  0.59342211529E+02  0.10566000000E+00 0. -1.
         23    2    1    0    0    0  0.17582085909E+02 -0.18025769634E+01 -0.14000010586E+02  0.10245273132E+03  0.99940896681E+02 0.  0.
         13    1    3    3    0    0 -0.78558501976E+01 -0.24579486185E+02  0.34534623626E+02  0.43110519789E+02  0.10566000000E+00 0.  1.
         22    1    1    0    0    0 -0.17582085909E+02  0.18025769634E+01  0.14000010586E+02  0.22547268682E+02  0.00000000000E+00 0. -1.
</event>
<event>
 5    1  0.9034713E-005  0.9118800E+02  0.7818608E-02  0.1130116E+00
         25   -1    0    0    0    0  0.00000000000E+00  0.00000000000E+00  0.99999998245E-14  0.12500000000E+03  0.12500000000E+03 0.  0.
        -13    1    3    3    0    0 -0.34389355643E+02  0.37474682252E+02  0.17891976796E+02  0.53917655635E+02  0.10566000000E+00 0.  1.
         23    2    1    0    0    0 -0.28037701705E+01  0.25269464142E+02 -0.98916749197E+01  0.97719014352E+02  0.93833648485E+02 0.  0.
         13    1    3    3    0    0  0.31585585472E+02 -0.12205218110E+02 -0.27783651716E+02  0.43801358717E+02  0.10566000000E+00 0. -1.
         22    1    1    0    0    0  0.28037701705E+01 -0.25269464142E+02  0.98916749197E+01  0.27280985648E+02  0.00000000000E+00 0.  1.
</event>
<event>
 5    1  0.9034713E-005  0.9118800E+02  0.7818608E-02  0.1130116E+00
         25   -1    0    0    0    0  0.00000000000E+00  0.00000000000E+00  0.99999998245E-14  0.12500000000E+03  0.12500000000E+03 0.  0.
        -13    1    3    3    0    0  0.23327632386E+02 -0.50720516077E+02  0.63687065782E+01  0.56190041567E+02  0.10566000000E+00 0.  1.
         23    2    1    0    0    0  0.85488055487E+01 -0.24029817930E+02 -0.16764971423E+02  0.94478229199E+02  0.89412288304E+02 0.  0.
         13    1    3    3    0    0 -0.14778826837E+02  0.26690698147E+02 -0.23133678001E+02  0.38288187632E+02  0.10566000000E+00 0. -1.
         22    1    1    0    0    0 -0.85488055487E+01  0.24029817930E+02  0.16764971423E+02  0.30521770801E+02  0.00000000000E+00 0.  1.
</event>
<event>
 5    1  0.9034713E-005  0.9118800E+02  0.7818608E-02  0.1130116E+00
         25   -1    0    0    0    0  0.00000000000E+00  0.00000000000E+00  0.99999998245E-14  0.12500000000E+03  0.12500000000E+03 0.  0.
        -13    1    3    3    0    0  0.25507303806E+02 -0.53122342794E+00  0.49275134894E+02  0.55488330563E+02  0.10566000000E+00 0.  1.
         23    2    1    0    0    0  0.28230646112E+01 -0.19245267402E+02  0.22484780405E+02  0.95269285898E+02  0.90511443887E+02 0.  0.
         13    1    3    3    0    0 -0.22684239195E+02 -0.18714043974E+02 -0.26790354489E+02  0.39780955335E+02  0.10566000000E+00 0. -1.
         22    1    1    0    0    0 -0.28230646112E+01  0.19245267402E+02 -0.22484780405E+02  0.29730714102E+02  0.00000000000E+00 0.  1.
</event>
<event>
 5    1  0.9034713E-005  0.9118800E+02  0.7818608E-02  0.1130116E+00
         25   -1    0    0    0    0  0.00000000000E+00  0.00000000000E+00  0.99999998245E-14  0.12500000000E+03  0.12500000000E+03 0.  0.
        -13    1    3    3    0    0  0.39124167062E+02  0.21293740821E+02  0.11405006198E+02  0.45980530410E+02  0.10566000000E+00 0.  1.
         23    2    1    0    0    0  0.66934613081E+01  0.69451570574E+01 -0.25845986398E+02  0.97412817401E+02  0.93424859381E+02 0.  0.
         13    1    3    3    0    0 -0.32430705754E+02 -0.14348583763E+02 -0.37250992596E+02  0.51432286991E+02  0.10566000000E+00 0. -1.
         22    1    1    0    0    0 -0.66934613081E+01 -0.69451570574E+01  0.25845986398E+02  0.27587182599E+02  0.00000000000E+00 0. -1.
</event>
<event>
 5    1  0.9034713E-005  0.9118800E+02  0.7818608E-02  0.1130116E+00
         25   -1    0    0    0    0  0.00000000000E+00  0.00000000000E+00  0.99999998245E-14  0.12500000000E+03  0.12500000000E+03 0.  0.
        -13    1    3    3    0    0 -0.17030929334E+02  0.40342700583E+02  0.34696524806E+02  0.55869902827E+02  0.10566000000E+00 0. -1.
         23    2    1    0    0    0  0.54370920704E+01  0.28053296938E+02  0.35316459929E+01  0.96207258507E+02  0.91797683123E+02 0.  0.
         13    1    3    3    0    0  0.22468021404E+02 -0.12289403645E+02 -0.31164878813E+02  0.40337355679E+02  0.10566000000E+00 0.  1.
         22    1    1    0    0    0 -0.54370920704E+01 -0.28053296938E+02 -0.35316459929E+01  0.28792741493E+02  0.00000000000E+00 0. -1.
</event>
<event>
 5    1  0.9034713E-005  0.9118800E+02  0.7818608E-02  0.1130116E+00
         25   -1    0    0    0    0  0.00000000000E+00  0.00000000000E+00  0.99999998245E-14  0.12500000000E+03  0.12500000000E+03 0.  0.
        -13    1    3    3    0    0  0.37658191167E+02 -0.19624888941E+02 -0.15617896115E+02  0.45246054756E+02  0.10566000000E+00 0. -1.
         23    2    1    0    0    0  0.12563686330E+02  0.24120331067E+02 -0.10140784445E+02  0.95974630164E+02  0.91480366970E+02 0.  0.
         13    1    3    3    0    0 -0.25094504837E+02  0.43745220008E+02  0.54771116693E+01  0.50728575408E+02  0.10566000000E+00 0.  1.
         22    1    1    0    0    0 -0.12563686330E+02 -0.24120331067E+02  0.10140784445E+02  0.29025369836E+02  0.00000000000E+00 0.  1.
</event>
<event>
 5    1  0.9034713E-005  0.9118800E+02  0.7818608E-02  0.1130116E+00
         25   -1    0    0    0    0  0.00000000000E+00  0.00000000000E+00  0.99999998245E-14  0.12500000000E+03  0.12500000000E+03 0.  0.
        -13    1    3    3    0    0  0.23066329762E+02  0.17861759626E+02 -0.16868133261E+02  0.33699304286E+02  0.10566000000E+00 0. -1.
         23    2    1    0    0    0 -0.15456514634E+02 -0.15606788237E+02  0.18904436526E+02  0.96019775638E+02  0.91542033567E+02 0.  0.
         13    1    3    3    0    0 -0.38522844396E+02 -0.33468547863E+02  0.35772569787E+02  0.62320471352E+02  0.10566000000E+00 0.  1.
         22    1    1    0    0    0  0.15456514634E+02  0.15606788237E+02 -0.18904436526E+02  0.28980224362E+02  0.00000000000E+00 0.  1.
</event>
<event>
 5    1  0.9034713E-005  0.9118800E+02  0.7818608E-02  0.1130116E+00
         25   -1    0    0    0    0  0.00000000000E+00  0.00000000000E+00  0.99999998245E-14  0.12500000000E+03  0.12500000000E+03 0.  0.
        -13    1    3    3    0    0  0.78340764355E+00 -0.23216652132E+02  0.26369314799E+02  0.35142262174E+02  0.10566000000E+00 0. -1.
         23    2    1    0    0    0  0.16484487215E+02  0.77821917636E+01 -0.23085937069E+02  0.95584675461E+02  0.90945966734E+02 0.  0.
         13    1    3    3    0    0  0.15701079572E+02  0.30998843895E+02 -0.49455251868E+02  0.60442413286E+02  0.10566000000E+00 0.  1.
         22    1    1    0    0    0 -0.16484487215E+02 -0.77821917636E+01  0.23085937069E+02  0.29415324539E+02  0.00000000000E+00 0.  1.
</event>
<event>
 5    1  0.9034713E-005  0.9118800E+02  0.7818608E-02  0.1130116E+00
         25   -1    0    0    0    0  0.00000000000E+00  0.00000000000E+00  0.99999998245E-14  0.12500000000E+03  0.12500000000E+03 0.  0.
        -13    1    3    3    0    0  0.21967121931E+02  0.21919951773E+02  0.11515436129E+02  0.33100682243E+02  0.10566000000E+00 0. -1.
         23    2    1    0    0    0 -0.21528720850E+02 -0.17909630704E+02 -0.90643801207E+01  0.95565264051E+02  0.90919282953E+02 0.  0.
         13    1    3    3    0    0 -0.43495842782E+02 -0.39829582477E+02 -0.20579816250E+02  0.62464581808E+02  0.10566000000E+00 0.  1.
         22    1    1    0    0    0  0.21528720850E+02  0.17909630704E+02  0.90643801207E+01  0.29434735949E+02  0.00000000000E+00 0.  1.
</event>
<event>
 5    1  0.9034713E-005  0.9118800E+02  0.7818608E-02  0.1130116E+00
         25   -1    0    0    0    0  0.00000000000E+00  0.00000000000E+00  0.99999998245E-14  0.12500000000E+03  0.12500000000E+03 0.  0.
        -13    1    3    3    0    0 -0.14672266295E+02 -0.49245394157E+01  0.38846222824E+02  0.41815866348E+02  0.10566000000E+00 0.  1.
         23    2    1    0    0    0  0.79833408904E+01 -0.30953701565E+02  0.10208509640E+01  0.93017074727E+02  0.87345684964E+02 0.  0.
         13    1    3    3    0    0  0.22655607185E+02 -0.26029162149E+02 -0.37825371860E+02  0.51201208379E+02  0.10566000000E+00 0. -1.
         22    1    1    0    0    0 -0.79833408904E+01  0.30953701565E+02 -0.10208509640E+01  0.31982925273E+02  0.00000000000E+00 0. -1.
</event>
<event>
 5    1  0.9034713E-005  0.9118800E+02  0.7818608E-02  0.1130116E+00
         25   -1    0    0    0    0  0.00000000000E+00  0.00000000000E+00  0.99999998245E-14  0.12500000000E+03  0.12500000000E+03 0.  0.
        -13    1    3    3    0    0 -0.90426463645E+01 -0.56001043547E+02 -0.11144395249E+02  0.57810855737E+02  0.10566000000E+00 0. -1.
         23    2    1    0    0    0  0.14264924449E+01 -0.20649441785E+02 -0.20520124001E+02  0.95853648329E+02  0.91314906134E+02 0.  0.
         13    1    3    3    0    0  0.10469138809E+02  0.35351601762E+02 -0.93757287511E+01  0.38042792592E+02  0.10566000000E+00 0.  1.
         22    1    1    0    0    0 -0.14264924449E+01  0.20649441785E+02  0.20520124001E+02  0.29146351671E+02  0.00000000000E+00 0. -1.
</event>
<event>
 5    1  0.9034713E-005  0.9118800E+02  0.7818608E-02  0.1130116E+00
         25   -1    0    0    0    0  0.00000000000E+00  0.00000000000E+00  0.99999998245E-14  0.12500000000E+03  0.12500000000E+03 0.  0.
        -13    1    3    3    0    0 -0.20044410199E+02 -0.36242212223E+02  0.37318177710E+02  0.55748846434E+02  0.10566000000E+00 0. -1.
         23    2    1    0    0    0  0.10147537752E+02 -0.13269324756E+02  0.23589472511E+02  0.96094797782E+02  0.91644418518E+02 0.  0.
         13    1    3    3    0    0  0.30191947952E+02  0.22972887467E+02 -0.13728705199E+02  0.40345951348E+02  0.10566000000E+00 0.  1.
         22    1    1    0    0    0 -0.10147537752E+02  0.13269324756E+02 -0.23589472511E+02  0.28905202218E+02  0.00000000000E+00 0. -1.
</event>
<event>
 5    1  0.9034713E-005  0.9118800E+02  0.7818608E-02  0.1130116E+00
         25   -1    0    0    0    0  0.00000000000E+00  0.00000000000E+00  0.99999998245E-14  0.12500000000E+03  0.12500000000E+03 0.  0.
        -13    1    3    3    0    0  0.34057530530E+02 -0.37510466770E+02  0.21435009215E+02  0.55012919275E+02  0.10566000000E+00 0.  1.
         23    2    1    0    0    0 -0.35508907236E+01 -0.25458108494E+02  0.15594031921E+02  0.94935104448E+02  0.90048742978E+02 0.  0.
         13    1    3    3    0    0 -0.37608421253E+02  0.12052358276E+02 -0.58409772944E+01  0.39922185173E+02  0.10566000000E+00 0. -1.
         22    1    1    0    0    0  0.35508907236E+01  0.25458108494E+02 -0.15594031921E+02  0.30064895552E+02  0.00000000000E+00 0.  1.
</event>
<event>
 5    1  0.9034713E-005  0.9118800E+02  0.7818608E-02  0.1130116E+00
         25   -1    0    0    0    0  0.00000000000E+00  0.00000000000E+00  0.99999998245E-14  0.12500000000E+03  0.12500000000E+03 0.  0.
        -13    1    3    3    0    0 -0.35899317836E+02  0.37685069020E+01 -0.30063108270E+02  0.46976210024E+02  0.10566000000E+00 0.  1.
         23    2    1    0    0    0  0.10971595022E+02  0.17342097368E+02 -0.19047985233E+02  0.97000893230E+02  0.92872080345E+02 0.  0.
         13    1    3    3    0    0  0.46870912859E+02  0.13573590466E+02  0.11015123036E+02  0.50024683206E+02  0.10566000000E+00 0. -1.
         22    1    1    0    0    0 -0.10971595022E+02 -0.17342097368E+02  0.19047985233E+02  0.27999106770E+02  0.00000000000E+00 0. -1.
</event>
<event>
 5    1  0.9034713E-005  0.9118800E+02  0.7818608E-02  0.1130116E+00
         25   -1    0    0    0    0  0.00000000000E+00  0.00000000000E+00  0.99999998245E-14  0.12500000000E+03  0.12500000000E+03 0.  0.
        -13    1    3    3    0    0 -0.20427415656E+02 -0.54344018904E+02  0.18441974194E+02  0.60915263089E+02  0.10566000000E+00 0.  1.
         23    2    1    0    0    0 -0.18875880444E+02 -0.21986996924E+02  0.89251703464E+01  0.94678628626E+02  0.89692012780E+02 0.  0.
         13    1    3    3    0    0  0.15515352124E+01  0.32357021980E+02 -0.95168038472E+01  0.33763365537E+02  0.10566000000E+00 0. -1.
         22    1    1    0    0    0  0.18875880444E+02  0.21986996924E+02 -0.89251703464E+01  0.30321371374E+02  0.00000000000E+00 0.  1.
</event>
<event>
 5    1  0.9034713E-005  0.9118800E+02  0.7818608E-02  0.1130116E+00
         25   -1    0    0    0    0  0.00000000000E+00  0.00000000000E+00  0.99999998245E-14  0.12500000000E+03  0.12500000000E+03 0.  0.
        -13    1    3    3    0    0 -0.46818224690E+02  0.21612417634E+02  0.34277504790E+02  0.61919312478E+02  0.10566000000E+00 0. -1.
         23    2    1    0    0    0 -0.24831244293E+02  0.58742772722E+01  0.12786941869E+02  0.96458736731E+02  0.92139482215E+02 0.  0.
         13    1    3    3    0    0  0.21986980397E+02 -0.15738140362E+02 -0.21490562921E+02  0.34539424253E+02  0.10566000000E+00 0.  1.
         22    1    1    0    0    0  0.24831244293E+02 -0.58742772722E+01 -0.12786941869E+02  0.28541263269E+02  0.00000000000E+00 0. -1.
</event>
<event>
 5    1  0.9034713E-005  0.9118800E+02  0.7818608E-02  0.1130116E+00
         25   -1    0    0    0    0  0.00000000000E+00  0.00000000000E+00  0.99999998245E-14  0.12500000000E+03  0.12500000000E+03 0.  0.
        -13    1    3    3    0    0  0.19095493933E+02 -0.11100880289E+01  0.25405527799E+02  0.31801292282E+02  0.10566000000E+00 0. -1.
         23    2    1    0    0    0 -0.24177815478E+02  0.27178516455E+02  0.19536581269E+01  0.88571229803E+02  0.80732939070E+02 0.  0.
         13    1    3    3    0    0 -0.43273309411E+02  0.28288604484E+02 -0.23451869672E+02  0.56769937522E+02  0.10566000000E+00 0.  1.
         22    1    1    0    0    0  0.24177815478E+02 -0.27178516455E+02 -0.19536581269E+01  0.36428770197E+02  0.00000000000E+00 0.  1.
</event>
<event>
 5    1  0.9034713E-005  0.9118800E+02  0.7818608E-02  0.1130116E+00
         25   -1    0    0    0    0  0.00000000000E+00  0.00000000000E+00  0.99999998245E-14  0.12500000000E+03  0.12500000000E+03 0.  0.
        -13    1    3    3    0    0  0.29732750716E+02  0.15400846405E+02  0.15479771706E+02  0.36889795760E+02  0.10566000000E+00 0.  1.
         23    2    1    0    0    0 -0.91789460952E+01  0.65812069736E+00 -0.27072627015E+02  0.96406061696E+02  0.92067993483E+02 0.  0.
         13    1    3    3    0    0 -0.38911696811E+02 -0.14742725707E+02 -0.42552398721E+02  0.59516265936E+02  0.10566000000E+00 0. -1.
         22    1    1    0    0    0  0.91789460952E+01 -0.65812069736E+00  0.27072627015E+02  0.28593938304E+02  0.00000000000E+00 0. -1.
</event>
<event>
 5    1  0.9034713E-005  0.9118800E+02  0.7818608E-02  0.1130116E+00
         25   -1    0    0    0    0  0.00000000000E+00  0.00000000000E+00  0.99999998245E-14  0.12500000000E+03  0.12500000000E+03 0.  0.
        -13    1    3    3    0    0 -0.30980068726E+02  0.76934607205E+01  0.29730670547E+02  0.43621989081E+02  0.10566000000E+00 0.  1.
         23    2    1    0    0    0  0.13875812017E+01  0.30497588858E+02 -0.20628634216E+01  0.94401246541E+02  0.89304600303E+02 0.  0.
         13    1    3    3    0    0  0.32367649928E+02  0.22804128138E+02 -0.31793533969E+02  0.50779257460E+02  0.10566000000E+00 0. -1.
         22    1    1    0    0    0 -0.13875812017E+01 -0.30497588858E+02  0.20628634216E+01  0.30598753459E+02  0.00000000000E+00 0. -1.
</event>
<event>
 5    1  0.9034713E-005  0.9118800E+02  0.7818608E-02  0.1130116E+00
         25   -1    0    0    0    0  0.00000000000E+00  0.00000000000E+00  0.99999998245E-14  0.12500000000E+03  0.12500000000E+03 0.  0.
        -13    1    3    3    0    0 -0.70970862711E+01 -0.12996536907E+02  0.33432121517E+02  0.36564962987E+02  0.10566000000E+00 0.  1.
         23    2    1    0    0    0 -0.95330079759E+01  0.25225263925E+01 -0.25555152074E+02  0.97608264421E+02  0.93685997381E+02 0.  0.
         13    1    3    3    0    0 -0.24359217048E+01  0.15519063299E+02 -0.58987273591E+02  0.61043301434E+02  0.10566000000E+00 0. -1.
         22    1    1    0    0    0  0.95330079759E+01 -0.25225263925E+01  0.25555152074E+02  0.27391735579E+02  0.00000000000E+00 0. -1.
</event>
<event>
 5    1  0.9034713E-005  0.9118800E+02  0.7818608E-02  0.1130116E+00
         25   -1    0    0    0    0  0.00000000000E+00  0.00000000000E+00  0.99999998245E-14  0.12500000000E+03  0.12500000000E+03 0.  0.
        -13    1    3    3    0    0 -0.20417989726E+02  0.21289088978E+02  0.31242253557E+02  0.42967536412E+02  0.10566000000E+00 0.  1.
         23    2    1    0    0    0 -0.24890670373E+02 -0.24674664407E+01 -0.15488056364E+02  0.95580384908E+02  0.90940069424E+02 0.  0.
         13    1    3    3    0    0 -0.44726806468E+01 -0.23756555419E+02 -0.46730309920E+02  0.52612848496E+02  0.10566000000E+00 0. -1.
         22    1    1    0    0    0  0.24890670373E+02  0.24674664407E+01  0.15488056364E+02  0.29419615092E+02  0.00000000000E+00 0. -1.
</event>
<event>
 5    1  0.9034713E-005  0.9118800E+02  0.7818608E-02  0.1130116E+00
         25   -1    0    0    0    0  0.00000000000E+00  0.00000000000E+00  0.99999998245E-14  0.12500000000E+03  0.12500000000E+03 0.  0.
        -13    1    3    3    0    0  0.15867599642E+02  0.45339809988E+02 -0.32443194963E+02  0.57965948207E+02  0.10566000000E+00 0.  1.
         23    2    1    0    0    0 -0.15581728242E+01  0.13149694113E+02 -0.26939982972E+02  0.94981588311E+02  0.90113245850E+02 0.  0.
         13    1    3    3    0    0 -0.17425772466E+02 -0.32190115874E+02  0.55032119907E+01  0.37015640104E+02  0.10566000000E+00 0. -1.
         22    1    1    0    0    0  0.15581728242E+01 -0.13149694113E+02  0.26939982972E+02  0.30018411689E+02  0.00000000000E+00 0.  1.
</event>
<event>
 5    1  0.9034713E-005  0.9118800E+02  0.7818608E-02  0.1130116E+00
         25   -1    0    0    0    0  0.00000000000E+00  0.00000000000E+00  0.99999998245E-14  0.12500000000E+03  0.12500000000E+03 0.  0.
        -13    1    3    3    0    0  0.33751374597E+02 -0.56262961470E+01  0.43027181152E+02  0.54974175550E+02  0.10566000000E+00 0.  1.
         23    2    1    0    0    0 -0.37561217362E+01 -0.37986587726E+01  0.29703510892E+02  0.94819926801E+02  0.89888718426E+02 0.  0.
         13    1    3    3    0    0 -0.37507496333E+02  0.18276373744E+01 -0.13323670260E+02  0.39845751251E+02  0.10566000000E+00 0. -1.
         22    1    1    0    0    0  0.37561217362E+01  0.37986587726E+01 -0.29703510892E+02  0.30180073199E+02  0.00000000000E+00 0.  1.
</event>
<event>
 5    1  0.9034713E-005  0.9118800E+02  0.7818608E-02  0.1130116E+00
         25   -1    0    0    0    0  0.00000000000E+00  0.00000000000E+00  0.99999998245E-14  0.12500000000E+03  0.12500000000E+03 0.  0.
        -13    1    3    3    0    0 -0.36150875243E+02  0.12038639292E+02 -0.46133117720E+01  0.38381094648E+02  0.10566000000E+00 0. -1.
         23    2    1    0    0    0  0.21605032086E+02  0.18380299834E+02 -0.49502235807E+00  0.96629982719E+02  0.92371509026E+02 0.  0.
         13    1    3    3    0    0  0.57755907328E+02  0.63416605420E+01  0.41182894139E+01  0.58248888071E+02  0.10566000000E+00 0.  1.
         22    1    1    0    0    0 -0.21605032086E+02 -0.18380299834E+02  0.49502235807E+00  0.28370017281E+02  0.00000000000E+00 0.  1.
</event>
<event>
 5    1  0.9034713E-005  0.9118800E+02  0.7818608E-02  0.1130116E+00
         25   -1    0    0    0    0  0.00000000000E+00  0.00000000000E+00  0.99999998245E-14  0.12500000000E+03  0.12500000000E+03 0.  0.
        -13    1    3    3    0    0 -0.94830278849E+01 -0.30991281397E+02 -0.38623850091E+02  0.50420237013E+02  0.10566000000E+00 0. -1.
         23    2    1    0    0    0  0.19277011432E+02 -0.55428925114E+00 -0.22682388722E+02  0.95227509938E+02  0.90453731181E+02 0.  0.
         13    1    3    3    0    0  0.28760039317E+02  0.30436992146E+02  0.15941461369E+02  0.44807272926E+02  0.10566000000E+00 0.  1.
         22    1    1    0    0    0 -0.19277011432E+02  0.55428925114E+00  0.22682388722E+02  0.29772490062E+02  0.00000000000E+00 0. -1.
</event>
<event>
 5    1  0.9034713E-005  0.9118800E+02  0.7818608E-02  0.1130116E+00
         25   -1    0    0    0    0  0.00000000000E+00  0.00000000000E+00  0.99999998245E-14  0.12500000000E+03  0.12500000000E+03 0.  0.
        -13    1    3    3    0    0 -0.37795336567E+02 -0.37034094701E+02 -0.14774174244E+02  0.54939048273E+02  0.10566000000E+00 0.  1.
         23    2    1    0    0    0 -0.28656199736E+02  0.16007275075E+01 -0.79079904069E+01  0.95229604904E+02  0.90456626214E+02 0.  0.
         13    1    3    3    0    0  0.91391368309E+01  0.38634822209E+02  0.68661838367E+01  0.40290556631E+02  0.10566000000E+00 0. -1.
         22    1    1    0    0    0  0.28656199736E+02 -0.16007275075E+01  0.79079904069E+01  0.29770395096E+02  0.00000000000E+00 0.  1.
</event>
<event>
 5    1  0.9034713E-005  0.9118800E+02  0.7818608E-02  0.1130116E+00
         25   -1    0    0    0    0  0.00000000000E+00  0.00000000000E+00  0.99999998245E-14  0.12500000000E+03  0.12500000000E+03 0.  0.
        -13    1    3    3    0    0 -0.47704022589E+02  0.23485513938E+01  0.36192369423E+02  0.59925689260E+02  0.10566000000E+00 0.  1.
         23    2    1    0    0    0 -0.26092554836E+02  0.90095938997E+01  0.76230328361E+01  0.96362527526E+02  0.92008868493E+02 0.  0.
         13    1    3    3    0    0  0.21611467753E+02  0.66610425059E+01 -0.28569336587E+02  0.36436838265E+02  0.10566000000E+00 0. -1.
         22    1    1    0    0    0  0.26092554836E+02 -0.90095938997E+01 -0.76230328361E+01  0.28637472474E+02  0.00000000000E+00 0.  1.
</event>
<event>
 5    1  0.9034713E-005  0.9118800E+02  0.7818608E-02  0.1130116E+00
         25   -1    0    0    0    0  0.00000000000E+00  0.00000000000E+00  0.99999998245E-14  0.12500000000E+03  0.12500000000E+03 0.  0.
        -13    1    3    3    0    0  0.19942425126E+02 -0.20832577439E+02 -0.33297498904E+02  0.44050325764E+02  0.10566000000E+00 0.  1.
         23    2    1    0    0    0  0.72286894472E+01  0.11718973978E+02  0.15625916525E+02  0.10417315268E+03  0.10207001601E+03 0.  0.
         13    1    3    3    0    0 -0.12713735679E+02  0.32551551417E+02  0.48923415429E+02  0.60122826911E+02  0.10566000000E+00 0. -1.
         22    1    1    0    0    0 -0.72286894472E+01 -0.11718973978E+02 -0.15625916525E+02  0.20826847325E+02  0.00000000000E+00 0. -1.
</event>
<event>
 5    1  0.9034713E-005  0.9118800E+02  0.7818608E-02  0.1130116E+00
         25   -1    0    0    0    0  0.00000000000E+00  0.00000000000E+00  0.99999998245E-14  0.12500000000E+03  0.12500000000E+03 0.  0.
        -13    1    3    3    0    0  0.51335762200E+01 -0.11889439496E+01  0.26091688906E+02  0.26618688670E+02  0.10566000000E+00 0.  1.
         23    2    1    0    0    0  0.12797284197E+02 -0.45239201394E+02  0.82008599614E+00  0.77978426583E+02  0.62206162442E+02 0.  0.
         13    1    3    3    0    0  0.76637079765E+01 -0.44050257444E+02 -0.25271602910E+02  0.51359737913E+02  0.10566000000E+00 0. -1.
         22    1    1    0    0    0 -0.12797284197E+02  0.45239201394E+02 -0.82008599614E+00  0.47021573417E+02  0.00000000000E+00 0. -1.
</event>
<event>
 5    1  0.9034713E-005  0.9118800E+02  0.7818608E-02  0.1130116E+00
         25   -1    0    0    0    0  0.00000000000E+00  0.00000000000E+00  0.99999998245E-14  0.12500000000E+03  0.12500000000E+03 0.  0.
        -13    1    3    3    0    0 -0.41588540377E+02 -0.31651640548E+02  0.10310840851E+02  0.53270607685E+02  0.10566000000E+00 0.  1.
         23    2    1    0    0    0 -0.30788221480E+01 -0.27927376142E+02 -0.75836142078E+01  0.95897960751E+02  0.91375544801E+02 0.  0.
         13    1    3    3    0    0  0.38509718229E+02  0.37242644056E+01 -0.17894455059E+02  0.42627353065E+02  0.10566000000E+00 0. -1.
         22    1    1    0    0    0  0.30788221480E+01  0.27927376142E+02  0.75836142078E+01  0.29102039249E+02  0.00000000000E+00 0.  1.
</event>
<event>
 5    1  0.9034713E-005  0.9118800E+02  0.7818608E-02  0.1130116E+00
         25   -1    0    0    0    0  0.00000000000E+00  0.00000000000E+00  0.99999998245E-14  0.12500000000E+03  0.12500000000E+03 0.  0.
        -13    1    3    3    0    0 -0.26473092152E+02 -0.13339271741E+02  0.13681927452E+02  0.32649151314E+02  0.10566000000E+00 0.  1.
         23    2    1    0    0    0  0.28272424812E+02  0.87402747670E+00 -0.11376349457E+02  0.94512047367E+02  0.89459554223E+02 0.  0.
         13    1    3    3    0    0  0.54745516964E+02  0.14213299217E+02 -0.25058276909E+02  0.61862896053E+02  0.10566000000E+00 0. -1.
         22    1    1    0    0    0 -0.28272424812E+02 -0.87402747670E+00  0.11376349457E+02  0.30487952633E+02  0.00000000000E+00 0. -1.
</event>
<event>
 5    1  0.9034713E-005  0.9118800E+02  0.7818608E-02  0.1130116E+00
         25   -1    0    0    0    0  0.00000000000E+00  0.00000000000E+00  0.99999998245E-14  0.12500000000E+03  0.12500000000E+03 0.  0.
        -13    1    3    3    0    0  0.32659752099E+02  0.31063926267E+02  0.71961941383E+01  0.45644531944E+02  0.10566000000E+00 0.  1.
         23    2    1    0    0    0 -0.16088409418E+01  0.13126603684E+02 -0.25488871020E+02  0.96284522652E+02  0.91902832726E+02 0.  0.
         13    1    3    3    0    0 -0.34268593041E+02 -0.17937322583E+02 -0.32685065158E+02  0.50639990708E+02  0.10566000000E+00 0. -1.
         22    1    1    0    0    0  0.16088409418E+01 -0.13126603684E+02  0.25488871020E+02  0.28715477348E+02  0.00000000000E+00 0. -1.
</event>
<event>
 5    1  0.9034713E-005  0.9118800E+02  0.7818608E-02  0.1130116E+00
         25   -1    0    0    0    0  0.00000000000E+00  0.00000000000E+00  0.99999998245E-14  0.12500000000E+03  0.12500000000E+03 0.  0.
        -13    1    3    3    0    0  0.24793107286E+02 -0.26104390436E+01  0.28438248234E+02  0.37818747832E+02  0.10566000000E+00 0.  1.
         23    2    1    0    0    0 -0.28312096337E+02 -0.67128747468E+01  0.85714945390E+01  0.94666717866E+02  0.89675411716E+02 0.  0.
         13    1    3    3    0    0 -0.53105203623E+02 -0.41024357031E+01 -0.19866753695E+02  0.56847970034E+02  0.10566000000E+00 0. -1.
         22    1    1    0    0    0  0.28312096337E+02  0.67128747468E+01 -0.85714945390E+01  0.30333282134E+02  0.00000000000E+00 0. -1.
</event>
<event>
 5    1  0.9034713E-005  0.9118800E+02  0.7818608E-02  0.1130116E+00
         25   -1    0    0    0    0  0.00000000000E+00  0.00000000000E+00  0.99999998245E-14  0.12500000000E+03  0.12500000000E+03 0.  0.
        -13    1    3    3    0    0  0.55650172321E+02 -0.26226273626E+02  0.64474098746E+01  0.61857411567E+02  0.10566000000E+00 0.  1.
         23    2    1    0    0    0  0.23188340539E+02 -0.17561609129E+02  0.49871583838E+01  0.95487612755E+02  0.90812461639E+02 0.  0.
         13    1    3    3    0    0 -0.32461831782E+02  0.86646644977E+01 -0.14602514908E+01  0.33630201188E+02  0.10566000000E+00 0. -1.
         22    1    1    0    0    0 -0.23188340539E+02  0.17561609129E+02 -0.49871583838E+01  0.29512387245E+02  0.00000000000E+00 0.  1.
</event>
<event>
 5    1  0.9034713E-005  0.9118800E+02  0.7818608E-02  0.1130116E+00
         25   -1    0    0    0    0  0.00000000000E+00  0.00000000000E+00  0.99999998245E-14  0.12500000000E+03  0.12500000000E+03 0.  0.
        -13    1    3    3    0    0 -0.90248904832E+01  0.29500120365E+02 -0.13402304645E+02  0.33635378453E+02  0.10566000000E+00 0.  1.
         23    2    1    0    0    0  0.16281149156E+02 -0.23382951388E+02  0.69111481944E+01  0.95681026573E+02  0.91078299518E+02 0.  0.
         13    1    3    3    0    0  0.25306039640E+02 -0.52883071754E+02  0.20313452840E+02  0.62045648120E+02  0.10566000000E+00 0. -1.
         22    1    1    0    0    0 -0.16281149156E+02  0.23382951388E+02 -0.69111481944E+01  0.29318973427E+02  0.00000000000E+00 0. -1.
</event>
<event>
 5    1  0.9034713E-005  0.9118800E+02  0.7818608E-02  0.1130116E+00
         25   -1    0    0    0    0  0.00000000000E+00  0.00000000000E+00  0.99999998245E-14  0.12500000000E+03  0.12500000000E+03 0.  0.
        -13    1    3    3    0    0  0.20866480203E+02 -0.34129755231E+02  0.13354681095E+01  0.40025552180E+02  0.10566000000E+00 0.  1.
         23    2    1    0    0    0  0.39670153967E+01  0.11596729307E+02  0.27167108479E+02  0.95196088765E+02  0.90410299144E+02 0.  0.
         13    1    3    3    0    0 -0.16899464806E+02  0.45726484538E+02  0.25831640369E+02  0.55170536586E+02  0.10566000000E+00 0. -1.
         22    1    1    0    0    0 -0.39670153967E+01 -0.11596729307E+02 -0.27167108479E+02  0.29803911235E+02  0.00000000000E+00 0. -1.
</event>
<event>
 5    1  0.9034713E-005  0.9118800E+02  0.7818608E-02  0.1130116E+00
         25   -1    0    0    0    0  0.00000000000E+00  0.00000000000E+00  0.99999998245E-14  0.12500000000E+03  0.12500000000E+03 0.  0.
        -13    1    3    3    0    0  0.41585716904E+02 -0.42852198068E+02  0.11139462995E+02  0.60743571920E+02  0.10566000000E+00 0.  1.
         23    2    1    0    0    0  0.11723967551E+02 -0.26865058387E+02  0.33726830267E+01  0.95494784053E+02  0.90822332129E+02 0.  0.
         13    1    3    3    0    0 -0.29861749353E+02  0.15987139681E+02 -0.77667799684E+01  0.34751212133E+02  0.10566000000E+00 0. -1.
         22    1    1    0    0    0 -0.11723967551E+02  0.26865058387E+02 -0.33726830267E+01  0.29505215947E+02  0.00000000000E+00 0.  1.
</event>
<event>
 5    1  0.9034713E-005  0.9118800E+02  0.7818608E-02  0.1130116E+00
         25   -1    0    0    0    0  0.00000000000E+00  0.00000000000E+00  0.99999998245E-14  0.12500000000E+03  0.12500000000E+03 0.  0.
        -13    1    3    3    0    0  0.16222422018E+02  0.11318791813E+02  0.36335055179E+02  0.41370634792E+02  0.10566000000E+00 0.  1.
         23    2    1    0    0    0 -0.25592310358E+02 -0.87321565108E+01  0.45823440180E+01  0.97573465704E+02  0.93639555883E+02 0.  0.
         13    1    3    3    0    0 -0.41814732376E+02 -0.20050948323E+02 -0.31752711161E+02  0.56202830912E+02  0.10566000000E+00 0. -1.
         22    1    1    0    0    0  0.25592310358E+02  0.87321565108E+01 -0.45823440180E+01  0.27426534296E+02  0.00000000000E+00 0. -1.
</event>
<event>
 5    1  0.9034713E-005  0.9118800E+02  0.7818608E-02  0.1130116E+00
         25   -1    0    0    0    0  0.00000000000E+00  0.00000000000E+00  0.99999998245E-14  0.12500000000E+03  0.12500000000E+03 0.  0.
        -13    1    3    3    0    0 -0.27970821010E+02 -0.24690773757E+02  0.24668538751E+01  0.37391144256E+02  0.10566000000E+00 0.  1.
         23    2    1    0    0    0 -0.86885791425E+00  0.27721932802E+02 -0.48339886874E+01  0.96846351587E+02  0.92663843524E+02 0.  0.
         13    1    3    3    0    0  0.27101963096E+02  0.52412706559E+02 -0.73008425625E+01  0.59455207330E+02  0.10566000000E+00 0. -1.
         22    1    1    0    0    0  0.86885791425E+00 -0.27721932802E+02  0.48339886874E+01  0.28153648413E+02  0.00000000000E+00 0. -1.
</event>
<event>
 5    1  0.9034713E-005  0.9118800E+02  0.7818608E-02  0.1130116E+00
         25   -1    0    0    0    0  0.00000000000E+00  0.00000000000E+00  0.99999998245E-14  0.12500000000E+03  0.12500000000E+03 0.  0.
        -13    1    3    3    0    0  0.42092650094E+02 -0.87300709867E+01 -0.42953998706E+02  0.60770572650E+02  0.10566000000E+00 0.  1.
         23    2    1    0    0    0  0.27794863580E+02 -0.11510059423E+02 -0.17232049786E+02  0.90330424733E+02  0.83412266384E+02 0.  0.
         13    1    3    3    0    0 -0.14297786513E+02 -0.27799884364E+01  0.25721948920E+02  0.29559852083E+02  0.10566000000E+00 0. -1.
         22    1    1    0    0    0 -0.27794863580E+02  0.11510059423E+02  0.17232049786E+02  0.34669575267E+02  0.00000000000E+00 0.  1.
</event>
<event>
 5    1  0.9034713E-005  0.9118800E+02  0.7818608E-02  0.1130116E+00
         25   -1    0    0    0    0  0.00000000000E+00  0.00000000000E+00  0.99999998245E-14  0.12500000000E+03  0.12500000000E+03 0.  0.
        -13    1    3    3    0    0 -0.36990965068E+02  0.48650771024E+02 -0.12722111830E+02  0.62426695502E+02  0.10566000000E+00 0.  1.
         23    2    1    0    0    0 -0.17842130171E+02  0.22733432318E+02 -0.81513977558E+01  0.94973414457E+02  0.90101906829E+02 0.  0.
         13    1    3    3    0    0  0.19148834896E+02 -0.25917338706E+02  0.45707140741E+01  0.32546718954E+02  0.10566000000E+00 0. -1.
         22    1    1    0    0    0  0.17842130171E+02 -0.22733432318E+02  0.81513977558E+01  0.30026585543E+02  0.00000000000E+00 0.  1.
</event>
<event>
 5    1  0.9034713E-005  0.9118800E+02  0.7818608E-02  0.1130116E+00
         25   -1    0    0    0    0  0.00000000000E+00  0.00000000000E+00  0.99999998245E-14  0.12500000000E+03  0.12500000000E+03 0.  0.
        -13    1    3    3    0    0  0.26646695515E+02 -0.16547861230E+02 -0.16603525757E+02  0.35490369465E+02  0.10566000000E+00 0. -1.
         23    2    1    0    0    0 -0.23515980703E-01  0.16492027918E+02  0.25074328553E+02  0.94988177492E+02  0.90122385527E+02 0.  0.
         13    1    3    3    0    0 -0.26670211496E+02  0.33039889148E+02  0.41677854310E+02  0.59497808027E+02  0.10566000000E+00 0.  1.
         22    1    1    0    0    0  0.23515980703E-01 -0.16492027918E+02 -0.25074328553E+02  0.30011822508E+02  0.00000000000E+00 0.  1.
</event>
<event>
 5    1  0.9034713E-005  0.9118800E+02  0.7818608E-02  0.1130116E+00
         25   -1    0    0    0    0  0.00000000000E+00  0.00000000000E+00  0.99999998245E-14  0.12500000000E+03  0.12500000000E+03 0.  0.
        -13    1    3    3    0    0  0.29491846939E+02  0.87950363646E+01 -0.38736261747E+02  0.49473536751E+02  0.10566000000E+00 0.  1.
         23    2    1    0    0    0  0.28455533343E+02 -0.20315461605E+02 -0.15410239734E+02  0.86791220292E+02  0.77928204606E+02 0.  0.
         13    1    3    3    0    0 -0.10363135953E+01 -0.29110497970E+02  0.23326022012E+02  0.37317683541E+02  0.10566000000E+00 0. -1.
         22    1    1    0    0    0 -0.28455533343E+02  0.20315461605E+02  0.15410239734E+02  0.38208779708E+02  0.00000000000E+00 0.  1.
</event>
<event>
 5    1  0.9034713E-005  0.9118800E+02  0.7818608E-02  0.1130116E+00
         25   -1    0    0    0    0  0.00000000000E+00  0.00000000000E+00  0.99999998245E-14  0.12500000000E+03  0.12500000000E+03 0.  0.
        -13    1    3    3    0    0  0.22456953527E+01  0.51330746923E+01 -0.46554619628E+02  0.46890674725E+02  0.10566000000E+00 0. -1.
         23    2    1    0    0    0 -0.26511413191E+02  0.76085861660E+01 -0.58262122481E+01  0.96809747039E+02  0.92614452218E+02 0.  0.
         13    1    3    3    0    0 -0.28757108544E+02  0.24755114737E+01  0.40728407380E+02  0.49919072314E+02  0.10566000000E+00 0.  1.
         22    1    1    0    0    0  0.26511413191E+02 -0.76085861660E+01  0.58262122481E+01  0.28190252961E+02  0.00000000000E+00 0.  1.
</event>
<event>
 5    1  0.9034713E-005  0.9118800E+02  0.7818608E-02  0.1130116E+00
         25   -1    0    0    0    0  0.00000000000E+00  0.00000000000E+00  0.99999998245E-14  0.12500000000E+03  0.12500000000E+03 0.  0.
        -13    1    3    3    0    0 -0.41680913874E+02  0.13187482378E+02  0.37286214742E+02  0.57458517617E+02  0.10566000000E+00 0. -1.
         23    2    1    0    0    0 -0.26641503176E+02  0.11517971779E+02  0.19366379891E+01  0.95910759170E+02  0.91393051117E+02 0.  0.
         13    1    3    3    0    0  0.15039410698E+02 -0.16695106000E+01 -0.35349576753E+02  0.38452241553E+02  0.10566000000E+00 0.  1.
         22    1    1    0    0    0  0.26641503176E+02 -0.11517971779E+02 -0.19366379891E+01  0.29089240830E+02  0.00000000000E+00 0. -1.
</event>
<event>
 5    1  0.9034713E-005  0.9118800E+02  0.7818608E-02  0.1130116E+00
         25   -1    0    0    0    0  0.00000000000E+00  0.00000000000E+00  0.99999998245E-14  0.12500000000E+03  0.12500000000E+03 0.  0.
        -13    1    3    3    0    0 -0.25397938107E+02  0.21677328924E+02  0.16055685283E+02  0.37050749565E+02  0.10566000000E+00 0. -1.
         23    2    1    0    0    0  0.77043094383E+01 -0.25844685579E+02  0.13040950092E+02  0.95043856459E+02  0.90199579348E+02 0.  0.
         13    1    3    3    0    0  0.33102247545E+02 -0.47522014502E+02 -0.30147351914E+01  0.57993106894E+02  0.10566000000E+00 0.  1.
         22    1    1    0    0    0 -0.77043094383E+01  0.25844685579E+02 -0.13040950092E+02  0.29956143541E+02  0.00000000000E+00 0.  1.
</event>
<event>
 5    1  0.9034713E-005  0.9118800E+02  0.7818608E-02  0.1130116E+00
         25   -1    0    0    0    0  0.00000000000E+00  0.00000000000E+00  0.99999998245E-14  0.12500000000E+03  0.12500000000E+03 0.  0.
        -13    1    3    3    0    0 -0.14515610212E+02  0.59475031114E+02  0.50641898775E+01  0.61429955632E+02  0.10566000000E+00 0. -1.
         23    2    1    0    0    0 -0.13927400115E+02  0.25823474699E+02 -0.10673908194E+01  0.95640782662E+02  0.91023050188E+02 0.  0.
         13    1    3    3    0    0  0.58821009695E+00 -0.33651556414E+02 -0.61315806969E+01  0.34210827030E+02  0.10566000000E+00 0.  1.
         22    1    1    0    0    0  0.13927400115E+02 -0.25823474699E+02  0.10673908194E+01  0.29359217338E+02  0.00000000000E+00 0. -1.
</event>
<event>
 5    1  0.9034713E-005  0.9118800E+02  0.7818608E-02  0.1130116E+00
         25   -1    0    0    0    0  0.00000000000E+00  0.00000000000E+00  0.99999998245E-14  0.12500000000E+03  0.12500000000E+03 0.  0.
        -13    1    3    3    0    0 -0.12099264642E+02  0.21370053963E+02 -0.32379926281E+02  0.40639170775E+02  0.10566000000E+00 0.  1.
         23    2    1    0    0    0  0.23273334665E+02  0.17873781222E+02  0.81467657963E+01  0.94545280258E+02  0.89505977815E+02 0.  0.
         13    1    3    3    0    0  0.35372599307E+02 -0.34962727407E+01  0.40526692078E+02  0.53906109483E+02  0.10566000000E+00 0. -1.
         22    1    1    0    0    0 -0.23273334665E+02 -0.17873781222E+02 -0.81467657963E+01  0.30454719742E+02  0.00000000000E+00 0.  1.
</event>
<event>
 5    1  0.9034713E-005  0.9118800E+02  0.7818608E-02  0.1130116E+00
         25   -1    0    0    0    0  0.00000000000E+00  0.00000000000E+00  0.99999998245E-14  0.12500000000E+03  0.12500000000E+03 0.  0.
        -13    1    3    3    0    0  0.32568356924E+01 -0.23429341307E+02 -0.31617166164E+02  0.39486673361E+02  0.10566000000E+00 0.  1.
         23    2    1    0    0    0  0.13120473811E+02  0.25560986814E+02 -0.59803667689E+01  0.95652501527E+02  0.91039142031E+02 0.  0.
         13    1    3    3    0    0  0.98636381182E+01  0.48990328121E+02  0.25636799395E+02  0.56165828166E+02  0.10566000000E+00 0. -1.
         22    1    1    0    0    0 -0.13120473811E+02 -0.25560986814E+02  0.59803667689E+01  0.29347498473E+02  0.00000000000E+00 0. -1.
</event>
<event>
 5    1  0.9034713E-005  0.9118800E+02  0.7818608E-02  0.1130116E+00
         25   -1    0    0    0    0  0.00000000000E+00  0.00000000000E+00  0.99999998245E-14  0.12500000000E+03  0.12500000000E+03 0.  0.
        -13    1    3    3    0    0  0.17125186521E+02 -0.43424018671E+01  0.39394778327E+02  0.43175087618E+02  0.10566000000E+00 0.  1.
         23    2    1    0    0    0 -0.13026471794E+02  0.24137795750E+02  0.48646530810E+01  0.97143456771E+02  0.93063764123E+02 0.  0.
         13    1    3    3    0    0 -0.30151658315E+02  0.28480197617E+02 -0.34530125246E+02  0.53968369153E+02  0.10566000000E+00 0. -1.
         22    1    1    0    0    0  0.13026471794E+02 -0.24137795750E+02 -0.48646530810E+01  0.27856543229E+02  0.00000000000E+00 0.  1.
</event>
<event>
 5    1  0.9034713E-005  0.9118800E+02  0.7818608E-02  0.1130116E+00
         25   -1    0    0    0    0  0.00000000000E+00  0.00000000000E+00  0.99999998245E-14  0.12500000000E+03  0.12500000000E+03 0.  0.
        -13    1    3    3    0    0 -0.38695435249E+02 -0.10419078361E+02 -0.47007937922E+02  0.61770958344E+02  0.10566000000E+00 0.  1.
         23    2    1    0    0    0 -0.22370606857E+02 -0.76094660137E+01 -0.17553174825E+02  0.95564273908E+02  0.90917921649E+02 0.  0.
         13    1    3    3    0    0  0.16324828393E+02  0.28096123470E+01  0.29454763098E+02  0.33793315564E+02  0.10566000000E+00 0. -1.
         22    1    1    0    0    0  0.22370606857E+02  0.76094660137E+01  0.17553174825E+02  0.29435726092E+02  0.00000000000E+00 0.  1.
</event>
<event>
 5    1  0.9034713E-005  0.9118800E+02  0.7818608E-02  0.1130116E+00
         25   -1    0    0    0    0  0.00000000000E+00  0.00000000000E+00  0.99999998245E-14  0.12500000000E+03  0.12500000000E+03 0.  0.
        -13    1    3    3    0    0  0.60862494793E+01 -0.48673782930E+02 -0.70611296366E+01  0.49558554188E+02  0.10566000000E+00 0.  1.
         23    2    1    0    0    0  0.28296517089E+02 -0.91440491590E+01 -0.17396918896E+01  0.95211864068E+02  0.90432107225E+02 0.  0.
         13    1    3    3    0    0  0.22210267610E+02  0.39529733771E+02  0.53214377470E+01  0.45653309880E+02  0.10566000000E+00 0. -1.
         22    1    1    0    0    0 -0.28296517089E+02  0.91440491590E+01  0.17396918896E+01  0.29788135932E+02  0.00000000000E+00 0. -1.
</event>
<event>
 5    1  0.9034713E-005  0.9118800E+02  0.7818608E-02  0.1130116E+00
         25   -1    0    0    0    0  0.00000000000E+00  0.00000000000E+00  0.99999998245E-14  0.12500000000E+03  0.12500000000E+03 0.  0.
        -13    1    3    3    0    0 -0.16880919159E+01  0.16251693832E+01 -0.58461011641E+02  0.58508049669E+02  0.10566000000E+00 0. -1.
         23    2    1    0    0    0  0.30921635633E+01 -0.14222816548E+02 -0.21157620649E+02  0.99319367267E+02  0.95941866861E+02 0.  0.
         13    1    3    3    0    0  0.47802554792E+01 -0.15847985931E+02  0.37303390993E+02  0.40811317598E+02  0.10566000000E+00 0.  1.
         22    1    1    0    0    0 -0.30921635633E+01  0.14222816548E+02  0.21157620649E+02  0.25680632733E+02  0.00000000000E+00 0. -1.
</event>
<event>
 5    1  0.9034713E-005  0.9118800E+02  0.7818608E-02  0.1130116E+00
         25   -1    0    0    0    0  0.00000000000E+00  0.00000000000E+00  0.99999998245E-14  0.12500000000E+03  0.12500000000E+03 0.  0.
        -13    1    3    3    0    0 -0.36708107674E+02 -0.23450592779E+02  0.41092033085E+02  0.59883067872E+02  0.10566000000E+00 0.  1.
         23    2    1    0    0    0 -0.63094312304E+01 -0.18386360304E+02  0.19139230146E+02  0.97720386765E+02  0.93835476720E+02 0.  0.
         13    1    3    3    0    0  0.30398676444E+02  0.50642324750E+01 -0.21952802939E+02  0.37837318893E+02  0.10566000000E+00 0. -1.
         22    1    1    0    0    0  0.63094312304E+01  0.18386360304E+02 -0.19139230146E+02  0.27279613235E+02  0.00000000000E+00 0.  1.
</event>
<event>
 5    1  0.9034713E-005  0.9118800E+02  0.7818608E-02  0.1130116E+00
         25   -1    0    0    0    0  0.00000000000E+00  0.00000000000E+00  0.99999998245E-14  0.12500000000E+03  0.12500000000E+03 0.  0.
        -13    1    3    3    0    0  0.13621139556E+02  0.37265128643E+02 -0.39323942613E+02  0.55862410279E+02  0.10566000000E+00 0.  1.
         23    2    1    0    0    0  0.25079101240E+02  0.95901143309E+01 -0.16984717586E+02  0.93228751310E+02  0.87648090837E+02 0.  0.
         13    1    3    3    0    0  0.11457961684E+02 -0.27675014312E+02  0.22339225027E+02  0.37366341030E+02  0.10566000000E+00 0. -1.
         22    1    1    0    0    0 -0.25079101240E+02 -0.95901143309E+01  0.16984717586E+02  0.31771248690E+02  0.00000000000E+00 0.  1.
</event>
<event>
 5    1  0.9034713E-005  0.9118800E+02  0.7818608E-02  0.1130116E+00
         25   -1    0    0    0    0  0.00000000000E+00  0.00000000000E+00  0.99999998245E-14  0.12500000000E+03  0.12500000000E+03 0.  0.
        -13    1    3    3    0    0 -0.45309227857E+02 -0.27315772978E+02  0.17223807832E+02  0.55639449159E+02  0.10566000000E+00 0. -1.
         23    2    1    0    0    0 -0.15343924641E+02 -0.27786362293E+02 -0.48898675646E+01  0.92884135421E+02  0.87155228502E+02 0.  0.
         13    1    3    3    0    0  0.29965303217E+02 -0.47058931557E+00 -0.22113675397E+02  0.37244686262E+02  0.10566000000E+00 0.  1.
         22    1    1    0    0    0  0.15343924641E+02  0.27786362293E+02  0.48898675646E+01  0.32115864579E+02  0.00000000000E+00 0. -1.
</event>
<event>
 5    1  0.9034713E-005  0.9118800E+02  0.7818608E-02  0.1130116E+00
         25   -1    0    0    0    0  0.00000000000E+00  0.00000000000E+00  0.99999998245E-14  0.12500000000E+03  0.12500000000E+03 0.  0.
        -13    1    3    3    0    0  0.21101621464E+02 -0.40365075946E+02  0.30111641477E+02  0.54601647420E+02  0.10566000000E+00 0.  1.
         23    2    1    0    0    0 -0.12536478144E+02 -0.21078432895E+02  0.15210040038E+02  0.96141570806E+02  0.91708193209E+02 0.  0.
         13    1    3    3    0    0 -0.33638099608E+02  0.19286643051E+02 -0.14901601439E+02  0.41539923386E+02  0.10566000000E+00 0. -1.
         22    1    1    0    0    0  0.12536478144E+02  0.21078432895E+02 -0.15210040038E+02  0.28858429194E+02  0.00000000000E+00 0.  1.
</event>
<event>
 5    1  0.9034713E-005  0.9118800E+02  0.7818608E-02  0.1130116E+00
         25   -1    0    0    0    0  0.00000000000E+00  0.00000000000E+00  0.99999998245E-14  0.12500000000E+03  0.12500000000E+03 0.  0.
        -13    1    3    3    0    0 -0.10962363696E+02  0.40247000855E+02 -0.38107062724E+02  0.56499149455E+02  0.10566000000E+00 0.  1.
         23    2    1    0    0    0  0.14363488112E+02  0.19215704452E+02 -0.16766864098E+02  0.95730889661E+02  0.91146708198E+02 0.  0.
         13    1    3    3    0    0  0.25325851809E+02 -0.21031296403E+02  0.21340198625E+02  0.39231740207E+02  0.10566000000E+00 0. -1.
         22    1    1    0    0    0 -0.14363488112E+02 -0.19215704452E+02  0.16766864098E+02  0.29269110339E+02  0.00000000000E+00 0. -1.
</event>
<event>
 5    1  0.9034713E-005  0.9118800E+02  0.7818608E-02  0.1130116E+00
         25   -1    0    0    0    0  0.00000000000E+00  0.00000000000E+00  0.99999998245E-14  0.12500000000E+03  0.12500000000E+03 0.  0.
        -13    1    3    3    0    0 -0.14885033993E+02  0.34150545335E+02  0.89586708365E+01  0.38315700840E+02  0.10566000000E+00 0. -1.
         23    2    1    0    0    0  0.27641379379E+02  0.24333277546E+00 -0.95288167098E+01  0.95761268620E+02  0.91188360853E+02 0.  0.
         13    1    3    3    0    0  0.42526413372E+02 -0.33907212559E+02 -0.18487487546E+02  0.57445567781E+02  0.10566000000E+00 0.  1.
         22    1    1    0    0    0 -0.27641379379E+02 -0.24333277546E+00  0.95288167098E+01  0.29238731380E+02  0.00000000000E+00 0.  1.
</event>
<event>
 5    1  0.9034713E-005  0.9118800E+02  0.7818608E-02  0.1130116E+00
         25   -1    0    0    0    0  0.00000000000E+00  0.00000000000E+00  0.99999998245E-14  0.12500000000E+03  0.12500000000E+03 0.  0.
        -13    1    3    3    0    0 -0.23333983521E+02  0.75862286508E+01  0.26058957568E+02  0.35792542320E+02  0.10566000000E+00 0. -1.
         23    2    1    0    0    0  0.70364312740E+01  0.10674799967E+02 -0.25934415639E+02  0.96085356064E+02  0.91631539417E+02 0.  0.
         13    1    3    3    0    0  0.30370414795E+02  0.30885713161E+01 -0.51993373208E+02  0.60292813744E+02  0.10566000000E+00 0.  1.
         22    1    1    0    0    0 -0.70364312740E+01 -0.10674799967E+02  0.25934415639E+02  0.28914643936E+02  0.00000000000E+00 0.  1.
</event>
<event>
 5    1  0.9034713E-005  0.9118800E+02  0.7818608E-02  0.1130116E+00
         25   -1    0    0    0    0  0.00000000000E+00  0.00000000000E+00  0.99999998245E-14  0.12500000000E+03  0.12500000000E+03 0.  0.
        -13    1    3    3    0    0  0.27602220527E+02 -0.14940636144E+02  0.16248409601E+02  0.35342993153E+02  0.10566000000E+00 0. -1.
         23    2    1    0    0    0 -0.17799424996E+02  0.21586723296E+02 -0.33488636582E+01  0.96821621042E+02  0.92630476953E+02 0.  0.
         13    1    3    3    0    0 -0.45401645523E+02  0.36527359441E+02 -0.19597273259E+02  0.61478627889E+02  0.10566000000E+00 0.  1.
         22    1    1    0    0    0  0.17799424996E+02 -0.21586723296E+02  0.33488636582E+01  0.28178378958E+02  0.00000000000E+00 0.  1.
</event>
<event>
 5    1  0.9034713E-005  0.9118800E+02  0.7818608E-02  0.1130116E+00
         25   -1    0    0    0    0  0.00000000000E+00  0.00000000000E+00  0.99999998245E-14  0.12500000000E+03  0.12500000000E+03 0.  0.
        -13    1    3    3    0    0  0.47443228362E+00 -0.17453934267E+02  0.27349615109E+02  0.32448074181E+02  0.10566000000E+00 0. -1.
         23    2    1    0    0    0  0.38080041913E+00  0.43958608510E+01 -0.30445888596E+02  0.94236048141E+02  0.89073071325E+02 0.  0.
         13    1    3    3    0    0 -0.93631864490E-01  0.21849795118E+02 -0.57795503705E+02  0.61787973961E+02  0.10566000000E+00 0.  1.
         22    1    1    0    0    0 -0.38080041913E+00 -0.43958608510E+01  0.30445888596E+02  0.30763951859E+02  0.00000000000E+00 0.  1.
</event>
<event>
 5    1  0.9034713E-005  0.9118800E+02  0.7818608E-02  0.1130116E+00
         25   -1    0    0    0    0  0.00000000000E+00  0.00000000000E+00  0.99999998245E-14  0.12500000000E+03  0.12500000000E+03 0.  0.
        -13    1    3    3    0    0  0.24971532734E+02  0.33068827693E+02 -0.25966701918E+02  0.48901999801E+02  0.10566000000E+00 0. -1.
         23    2    1    0    0    0 -0.14139922213E+02  0.26398818729E+02 -0.26180317773E+01  0.94938577531E+02  0.90053563964E+02 0.  0.
         13    1    3    3    0    0 -0.39111454947E+02 -0.66700089642E+01  0.23348670141E+02  0.46036577729E+02  0.10566000000E+00 0.  1.
         22    1    1    0    0    0  0.14139922213E+02 -0.26398818729E+02  0.26180317773E+01  0.30061422469E+02  0.00000000000E+00 0.  1.
</event>
<event>
 5    1  0.9034713E-005  0.9118800E+02  0.7818608E-02  0.1130116E+00
         25   -1    0    0    0    0  0.00000000000E+00  0.00000000000E+00  0.99999998245E-14  0.12500000000E+03  0.12500000000E+03 0.  0.
        -13    1    3    3    0    0  0.31493137639E+02 -0.27511945660E+02 -0.31024108522E+02  0.52069485748E+02  0.10566000000E+00 0.  1.
         23    2    1    0    0    0 -0.10420975077E+02 -0.85376023403E+01 -0.22372043267E+02  0.98884952705E+02  0.95374200790E+02 0.  0.
         13    1    3    3    0    0 -0.41914112716E+02  0.18974343320E+02  0.86520652551E+01  0.46815466957E+02  0.10566000000E+00 0. -1.
         22    1    1    0    0    0  0.10420975077E+02  0.85376023403E+01  0.22372043267E+02  0.26115047295E+02  0.00000000000E+00 0.  1.
</event>
<event>
 5    1  0.9034713E-005  0.9118800E+02  0.7818608E-02  0.1130116E+00
         25   -1    0    0    0    0  0.00000000000E+00  0.00000000000E+00  0.99999998245E-14  0.12500000000E+03  0.12500000000E+03 0.  0.
        -13    1    3    3    0    0  0.14957605821E+02 -0.29084107091E+02  0.21596063430E+01  0.32776368328E+02  0.10566000000E+00 0.  1.
         23    2    1    0    0    0 -0.17318265981E+02  0.24273833220E+02  0.15865774725E+01  0.95139347900E+02  0.90331815962E+02 0.  0.
         13    1    3    3    0    0 -0.32275871802E+02  0.53357940311E+02 -0.57302887048E+00  0.62362979571E+02  0.10566000000E+00 0. -1.
         22    1    1    0    0    0  0.17318265981E+02 -0.24273833220E+02 -0.15865774725E+01  0.29860652100E+02  0.00000000000E+00 0. -1.
</event>
<event>
 5    1  0.9034713E-005  0.9118800E+02  0.7818608E-02  0.1130116E+00
         25   -1    0    0    0    0  0.00000000000E+00  0.00000000000E+00  0.99999998245E-14  0.12500000000E+03  0.12500000000E+03 0.  0.
        -13    1    3    3    0    0  0.55578011793E+02 -0.21923690149E+02  0.10475872064E+02  0.60657387383E+02  0.10566000000E+00 0. -1.
         23    2    1    0    0    0  0.27613070326E+02 -0.11290119541E+02 -0.56387257113E+01  0.94639768121E+02  0.89637838162E+02 0.  0.
         13    1    3    3    0    0 -0.27964941467E+02  0.10633570607E+02 -0.16114597775E+02  0.33982380738E+02  0.10566000000E+00 0.  1.
         22    1    1    0    0    0 -0.27613070326E+02  0.11290119541E+02  0.56387257113E+01  0.30360231879E+02  0.00000000000E+00 0. -1.
</event>
<event>
 5    1  0.9034713E-005  0.9118800E+02  0.7818608E-02  0.1130116E+00
         25   -1    0    0    0    0  0.00000000000E+00  0.00000000000E+00  0.99999998245E-14  0.12500000000E+03  0.12500000000E+03 0.  0.
        -13    1    3    3    0    0 -0.15885553266E+02  0.31488933286E+02  0.46022285622E+02  0.57982459934E+02  0.10566000000E+00 0.  1.
         23    2    1    0    0    0 -0.25176971279E+01  0.99491250503E-01  0.28596727341E+02  0.96292483354E+02  0.91913659695E+02 0.  0.
         13    1    3    3    0    0  0.13367856138E+02 -0.31389442036E+02 -0.17425558281E+02  0.38310023420E+02  0.10566000000E+00 0. -1.
         22    1    1    0    0    0  0.25176971279E+01 -0.99491250503E-01 -0.28596727341E+02  0.28707516646E+02  0.00000000000E+00 0.  1.
</event>
<event>
 5    1  0.9034713E-005  0.9118800E+02  0.7818608E-02  0.1130116E+00
         25   -1    0    0    0    0  0.00000000000E+00  0.00000000000E+00  0.99999998245E-14  0.12500000000E+03  0.12500000000E+03 0.  0.
        -13    1    3    3    0    0 -0.15573834135E+01 -0.21439028582E+02 -0.49428463139E+02  0.53900292410E+02  0.10566000000E+00 0.  1.
         23    2    1    0    0    0 -0.22304559922E+02 -0.12006463626E+02 -0.13912255736E+02  0.96100183015E+02  0.91651763505E+02 0.  0.
         13    1    3    3    0    0 -0.20747176509E+02  0.94325649558E+01  0.35516207402E+02  0.42199890604E+02  0.10566000000E+00 0. -1.
         22    1    1    0    0    0  0.22304559922E+02  0.12006463626E+02  0.13912255736E+02  0.28899816985E+02  0.00000000000E+00 0.  1.
</event>
<event>
 5    1  0.9034713E-005  0.9118800E+02  0.7818608E-02  0.1130116E+00
         25   -1    0    0    0    0  0.00000000000E+00  0.00000000000E+00  0.99999998245E-14  0.12500000000E+03  0.12500000000E+03 0.  0.
        -13    1    3    3    0    0 -0.16169663437E+02 -0.27800285290E+02 -0.10318835136E+02  0.33775781271E+02  0.10566000000E+00 0. -1.
         23    2    1    0    0    0 -0.26605164908E+01  0.23894614625E+02 -0.26125152405E+02  0.89495710903E+02  0.82151857713E+02 0.  0.
         13    1    3    3    0    0  0.13509146946E+02  0.51694899915E+02 -0.15806317269E+02  0.55719929632E+02  0.10566000000E+00 0.  1.
         22    1    1    0    0    0  0.26605164908E+01 -0.23894614625E+02  0.26125152405E+02  0.35504289097E+02  0.00000000000E+00 0.  1.
</event>
<event>
 5    1  0.9034713E-005  0.9118800E+02  0.7818608E-02  0.1130116E+00
         25   -1    0    0    0    0  0.00000000000E+00  0.00000000000E+00  0.99999998245E-14  0.12500000000E+03  0.12500000000E+03 0.  0.
        -13    1    3    3    0    0  0.13149012891E+02 -0.57708323435E+02  0.23000871346E+01  0.59232159327E+02  0.10566000000E+00 0.  1.
         23    2    1    0    0    0 -0.65337463144E+01 -0.27538490195E+02  0.77264365407E+01  0.95661354757E+02  0.91051297021E+02 0.  0.
         13    1    3    3    0    0 -0.19682759205E+02  0.30169833241E+02  0.54263494060E+01  0.36429195429E+02  0.10566000000E+00 0. -1.
         22    1    1    0    0    0  0.65337463144E+01  0.27538490195E+02 -0.77264365407E+01  0.29338645243E+02  0.00000000000E+00 0.  1.
</event>
<event>
 5    1  0.9034713E-005  0.9118800E+02  0.7818608E-02  0.1130116E+00
         25   -1    0    0    0    0  0.00000000000E+00  0.00000000000E+00  0.99999998245E-14  0.12500000000E+03  0.12500000000E+03 0.  0.
        -13    1    3    3    0    0 -0.35695263492E+02 -0.36663811005E+02  0.24789696561E+02  0.56858834782E+02  0.10566000000E+00 0.  1.
         23    2    1    0    0    0 -0.27985013808E+02 -0.66600921121E+01  0.49276133459E+00  0.96229170354E+02  0.91827515422E+02 0.  0.
         13    1    3    3    0    0  0.77102496840E+01  0.30003718893E+02 -0.24296935226E+02  0.39370335572E+02  0.10566000000E+00 0. -1.
         22    1    1    0    0    0  0.27985013808E+02  0.66600921121E+01 -0.49276133459E+00  0.28770829646E+02  0.00000000000E+00 0.  1.
</event>
<event>
 5    1  0.9034713E-005  0.9118800E+02  0.7818608E-02  0.1130116E+00
         25   -1    0    0    0    0  0.00000000000E+00  0.00000000000E+00  0.99999998245E-14  0.12500000000E+03  0.12500000000E+03 0.  0.
        -13    1    3    3    0    0 -0.29697808172E+02 -0.37806811117E+02 -0.33151014572E+02  0.58397908423E+02  0.10566000000E+00 0.  1.
         23    2    1    0    0    0 -0.63922752114E+01 -0.33120937738E+02 -0.22536069037E+02  0.84432376127E+02  0.74047917133E+02 0.  0.
         13    1    3    3    0    0  0.23305532960E+02  0.46858733787E+01  0.10614945534E+02  0.26034467704E+02  0.10566000000E+00 0. -1.
         22    1    1    0    0    0  0.63922752114E+01  0.33120937738E+02  0.22536069037E+02  0.40567623873E+02  0.00000000000E+00 0.  1.
</event>
<event>
 5    1  0.9034713E-005  0.9118800E+02  0.7818608E-02  0.1130116E+00
         25   -1    0    0    0    0  0.00000000000E+00  0.00000000000E+00  0.99999998245E-14  0.12500000000E+03  0.12500000000E+03 0.  0.
        -13    1    3    3    0    0  0.30698567454E+02 -0.49548306329E+01 -0.43990962697E+02  0.53871776965E+02  0.10566000000E+00 0. -1.
         23    2    1    0    0    0  0.11518423324E+02 -0.23820136883E+02 -0.11248555741E+02  0.96249295604E+02  0.91854906788E+02 0.  0.
         13    1    3    3    0    0 -0.19180144130E+02 -0.18865306250E+02  0.32742406956E+02  0.42377518640E+02  0.10566000000E+00 0.  1.
         22    1    1    0    0    0 -0.11518423324E+02  0.23820136883E+02  0.11248555741E+02  0.28750704396E+02  0.00000000000E+00 0. -1.
</event>
<event>
 5    1  0.9034713E-005  0.9118800E+02  0.7818608E-02  0.1130116E+00
         25   -1    0    0    0    0  0.00000000000E+00  0.00000000000E+00  0.99999998245E-14  0.12500000000E+03  0.12500000000E+03 0.  0.
        -13    1    3    3    0    0 -0.42473447520E+02  0.24585215064E+02  0.33154285679E+02  0.59225369285E+02  0.10566000000E+00 0.  1.
         23    2    1    0    0    0 -0.29539592907E+02  0.28015544903E+02  0.15366180526E+02  0.81484740501E+02  0.68892562190E+02 0.  0.
         13    1    3    3    0    0  0.12933854613E+02  0.34303298392E+01 -0.17788105153E+02  0.22259371216E+02  0.10566000000E+00 0. -1.
         22    1    1    0    0    0  0.29539592907E+02 -0.28015544903E+02 -0.15366180526E+02  0.43515259499E+02  0.00000000000E+00 0.  1.
</event>
<event>
 5    1  0.9034713E-005  0.9118800E+02  0.7818608E-02  0.1130116E+00
         25   -1    0    0    0    0  0.00000000000E+00  0.00000000000E+00  0.99999998245E-14  0.12500000000E+03  0.12500000000E+03 0.  0.
        -13    1    3    3    0    0  0.18117530313E+02 -0.87870654814E+01 -0.44206991123E+02  0.48577017741E+02  0.10566000000E+00 0.  1.
         23    2    1    0    0    0  0.15131665549E+02  0.23237256442E+02 -0.10020445687E+02  0.95515313789E+02  0.90850583086E+02 0.  0.
         13    1    3    3    0    0 -0.29858647637E+01  0.32024321923E+02  0.34186545436E+02  0.46938296048E+02  0.10566000000E+00 0. -1.
         22    1    1    0    0    0 -0.15131665549E+02 -0.23237256442E+02  0.10020445687E+02  0.29484686211E+02  0.00000000000E+00 0.  1.
</event>
<event>
 5    1  0.9034713E-005  0.9118800E+02  0.7818608E-02  0.1130116E+00
         25   -1    0    0    0    0  0.00000000000E+00  0.00000000000E+00  0.99999998245E-14  0.12500000000E+03  0.12500000000E+03 0.  0.
        -13    1    3    3    0    0 -0.37699710534E+02 -0.25625399178E+02 -0.29330894127E+02  0.54205551115E+02  0.10566000000E+00 0.  1.
         23    2    1    0    0    0  0.18340721187E+01 -0.13830063877E+02 -0.25871841802E+02  0.95606349570E+02  0.90975751673E+02 0.  0.
         13    1    3    3    0    0  0.39533782652E+02  0.11795335301E+02  0.34590523254E+01  0.41400798455E+02  0.10566000000E+00 0. -1.
         22    1    1    0    0    0 -0.18340721187E+01  0.13830063877E+02  0.25871841802E+02  0.29393650430E+02  0.00000000000E+00 0.  1.
</event>
<event>
 5    1  0.9034713E-005  0.9118800E+02  0.7818608E-02  0.1130116E+00
         25   -1    0    0    0    0  0.00000000000E+00  0.00000000000E+00  0.99999998245E-14  0.12500000000E+03  0.12500000000E+03 0.  0.
        -13    1    3    3    0    0 -0.10605275514E+02  0.25053782782E+02 -0.22732405706E+02  0.35453312026E+02  0.10566000000E+00 0.  1.
         23    2    1    0    0    0  0.21313189900E+02 -0.30362821406E+01  0.19913487152E+02  0.95673935765E+02  0.91068567251E+02 0.  0.
         13    1    3    3    0    0  0.31918465414E+02 -0.28090064922E+02  0.42645892859E+02  0.60220623739E+02  0.10566000000E+00 0. -1.
         22    1    1    0    0    0 -0.21313189900E+02  0.30362821406E+01 -0.19913487152E+02  0.29326064235E+02  0.00000000000E+00 0. -1.
</event>
<event>
 5    1  0.9034713E-005  0.9118800E+02  0.7818608E-02  0.1130116E+00
         25   -1    0    0    0    0  0.00000000000E+00  0.00000000000E+00  0.99999998245E-14  0.12500000000E+03  0.12500000000E+03 0.  0.
        -13    1    3    3    0    0 -0.33611751524E+02  0.14889779852E+01  0.20658951670E+02  0.39481265736E+02  0.10566000000E+00 0. -1.
         23    2    1    0    0    0 -0.14104746330E+01 -0.19733877096E+02 -0.20929708269E+02  0.96199513335E+02  0.91787135993E+02 0.  0.
         13    1    3    3    0    0  0.32201276891E+02 -0.21222855081E+02 -0.41588659939E+02  0.56718247599E+02  0.10566000000E+00 0.  1.
         22    1    1    0    0    0  0.14104746330E+01  0.19733877096E+02  0.20929708269E+02  0.28800486665E+02  0.00000000000E+00 0.  1.
</event>
<event>
 5    1  0.9034713E-005  0.9118800E+02  0.7818608E-02  0.1130116E+00
         25   -1    0    0    0    0  0.00000000000E+00  0.00000000000E+00  0.99999998245E-14  0.12500000000E+03  0.12500000000E+03 0.  0.
        -13    1    3    3    0    0 -0.64853797465E+01  0.34959912282E+02  0.35166463111E+02  0.50009468194E+02  0.10566000000E+00 0. -1.
         23    2    1    0    0    0  0.34008094625E+01  0.28272489463E+02 -0.85034298326E+01  0.95281193086E+02  0.90527886707E+02 0.  0.
         13    1    3    3    0    0  0.98861892090E+01 -0.66874228189E+01 -0.43669892943E+02  0.45271724893E+02  0.10566000000E+00 0.  1.
         22    1    1    0    0    0 -0.34008094625E+01 -0.28272489463E+02  0.85034298326E+01  0.29718806914E+02  0.00000000000E+00 0. -1.
</event>
<event>
 5    1  0.9034713E-005  0.9118800E+02  0.7818608E-02  0.1130116E+00
         25   -1    0    0    0    0  0.00000000000E+00  0.00000000000E+00  0.99999998245E-14  0.12500000000E+03  0.12500000000E+03 0.  0.
        -13    1    3    3    0    0  0.14789685793E+02  0.13572103700E+02  0.35308797092E+02  0.40615995874E+02  0.10566000000E+00 0.  1.
         23    2    1    0    0    0 -0.45376671513E+01 -0.28711444275E+02  0.68165933017E+01  0.95143620451E+02  0.90337728069E+02 0.  0.
         13    1    3    3    0    0 -0.19327352944E+02 -0.42283547975E+02 -0.28492203790E+02  0.54527624577E+02  0.10566000000E+00 0. -1.
         22    1    1    0    0    0  0.45376671513E+01  0.28711444275E+02 -0.68165933017E+01  0.29856379549E+02  0.00000000000E+00 0. -1.
</event>
<event>
 5    1  0.9034713E-005  0.9118800E+02  0.7818608E-02  0.1130116E+00
         25   -1    0    0    0    0  0.00000000000E+00  0.00000000000E+00  0.99999998245E-14  0.12500000000E+03  0.12500000000E+03 0.  0.
        -13    1    3    3    0    0  0.26464999120E+02 -0.52403570392E+02  0.13708397780E+02  0.60286496846E+02  0.10566000000E+00 0. -1.
         23    2    1    0    0    0  0.20953141748E+01 -0.29719343010E+02  0.41925539211E+01  0.94913338524E+02  0.90018523821E+02 0.  0.
         13    1    3    3    0    0 -0.24369684945E+02  0.22684227382E+02 -0.95158438585E+01  0.34626841678E+02  0.10566000000E+00 0.  1.
         22    1    1    0    0    0 -0.20953141748E+01  0.29719343010E+02 -0.41925539211E+01  0.30086661476E+02  0.00000000000E+00 0. -1.
</event>
<event>
 5    1  0.9034713E-005  0.9118800E+02  0.7818608E-02  0.1130116E+00
         25   -1    0    0    0    0  0.00000000000E+00  0.00000000000E+00  0.99999998245E-14  0.12500000000E+03  0.12500000000E+03 0.  0.
        -13    1    3    3    0    0  0.34243511679E+02  0.12509566874E+02  0.16976139557E+02  0.40215765986E+02  0.10566000000E+00 0.  1.
         23    2    1    0    0    0  0.51072673985E+01  0.21737326678E+01 -0.28919494895E+02  0.95552649033E+02  0.90901937593E+02 0.  0.
         13    1    3    3    0    0 -0.29136244281E+02 -0.10335834207E+02 -0.45895634452E+02  0.55336883047E+02  0.10566000000E+00 0. -1.
         22    1    1    0    0    0 -0.51072673985E+01 -0.21737326678E+01  0.28919494895E+02  0.29447350967E+02  0.00000000000E+00 0. -1.
</event>
<event>
 5    1  0.9034713E-005  0.9118800E+02  0.7818608E-02  0.1130116E+00
         25   -1    0    0    0    0  0.00000000000E+00  0.00000000000E+00  0.99999998245E-14  0.12500000000E+03  0.12500000000E+03 0.  0.
        -13    1    3    3    0    0 -0.18509543688E+02 -0.39393124053E+02  0.27145880514E+02  0.51296504979E+02  0.10566000000E+00 0. -1.
         23    2    1    0    0    0 -0.13711833920E+02  0.47052168852E+01  0.25477945560E+02  0.95686536108E+02  0.91085860741E+02 0.  0.
         13    1    3    3    0    0  0.47977097682E+01  0.44098340938E+02 -0.16679349532E+01  0.44390031128E+02  0.10566000000E+00 0.  1.
         22    1    1    0    0    0  0.13711833920E+02 -0.47052168852E+01 -0.25477945560E+02  0.29313463892E+02  0.00000000000E+00 0. -1.
</event>
<event>
 5    1  0.9034713E-005  0.9118800E+02  0.7818608E-02  0.1130116E+00
         25   -1    0    0    0    0  0.00000000000E+00  0.00000000000E+00  0.99999998245E-14  0.12500000000E+03  0.12500000000E+03 0.  0.
        -13    1    3    3    0    0 -0.29129397837E+00 -0.22485083047E+02 -0.27639388938E+02  0.35631598290E+02  0.10566000000E+00 0. -1.
         23    2    1    0    0    0 -0.29269268942E+02  0.67891972348E+01  0.11856798274E+02  0.92698808554E+02  0.86889021968E+02 0.  0.
         13    1    3    3    0    0 -0.28977974964E+02  0.29274280282E+02  0.39496187211E+02  0.57067210264E+02  0.10566000000E+00 0.  1.
         22    1    1    0    0    0  0.29269268942E+02 -0.67891972348E+01 -0.11856798274E+02  0.32301191446E+02  0.00000000000E+00 0.  1.
</event>
<event>
 5    1  0.9034713E-005  0.9118800E+02  0.7818608E-02  0.1130116E+00
         25   -1    0    0    0    0  0.00000000000E+00  0.00000000000E+00  0.99999998245E-14  0.12500000000E+03  0.12500000000E+03 0.  0.
        -13    1    3    3    0    0 -0.13397706469E+02 -0.41220404274E+02  0.29582529612E+01  0.43444017906E+02  0.10566000000E+00 0.  1.
         23    2    1    0    0    0  0.27426419015E+02 -0.10246013090E+02  0.71555856052E+01  0.94860463680E+02  0.89945071683E+02 0.  0.
         13    1    3    3    0    0  0.40824125484E+02  0.30974391184E+02  0.41973326440E+01  0.51416445775E+02  0.10566000000E+00 0. -1.
         22    1    1    0    0    0 -0.27426419015E+02  0.10246013090E+02 -0.71555856052E+01  0.30139536320E+02  0.00000000000E+00 0. -1.
</event>
<event>
 5    1  0.9034713E-005  0.9118800E+02  0.7818608E-02  0.1130116E+00
         25   -1    0    0    0    0  0.00000000000E+00  0.00000000000E+00  0.99999998245E-14  0.12500000000E+03  0.12500000000E+03 0.  0.
        -13    1    3    3    0    0 -0.45075610177E+02  0.10069775533E+02 -0.17593826483E+02  0.49424335164E+02  0.10566000000E+00 0.  1.
         23    2    1    0    0    0  0.27248420268E+00  0.19604089099E+02 -0.21468997923E+02  0.95925742849E+02  0.91413542281E+02 0.  0.
         13    1    3    3    0    0  0.45348094379E+02  0.95343135656E+01 -0.38751714406E+01  0.46501407685E+02  0.10566000000E+00 0. -1.
         22    1    1    0    0    0 -0.27248420268E+00 -0.19604089099E+02  0.21468997923E+02  0.29074257151E+02  0.00000000000E+00 0. -1.
</event>
<event>
 5    1  0.9034713E-005  0.9118800E+02  0.7818608E-02  0.1130116E+00
         25   -1    0    0    0    0  0.00000000000E+00  0.00000000000E+00  0.99999998245E-14  0.12500000000E+03  0.12500000000E+03 0.  0.
        -13    1    3    3    0    0  0.43145579729E+02  0.40038126221E+02 -0.11166465368E+02  0.59910714520E+02  0.10566000000E+00 0.  1.
         23    2    1    0    0    0  0.11595755655E+02  0.27189193933E+02 -0.92382589673E+01  0.94031318325E+02  0.88785300480E+02 0.  0.
         13    1    3    3    0    0 -0.31549824075E+02 -0.12848932288E+02  0.19282064006E+01  0.34120603805E+02  0.10566000000E+00 0. -1.
         22    1    1    0    0    0 -0.11595755655E+02 -0.27189193933E+02  0.92382589673E+01  0.30968681675E+02  0.00000000000E+00 0.  1.
</event>
<event>
 5    1  0.9034713E-005  0.9118800E+02  0.7818608E-02  0.1130116E+00
         25   -1    0    0    0    0  0.00000000000E+00  0.00000000000E+00  0.99999998245E-14  0.12500000000E+03  0.12500000000E+03 0.  0.
        -13    1    3    3    0    0 -0.22575390965E+02 -0.13111621835E+02 -0.19236458354E+02  0.32428620051E+02  0.10566000000E+00 0. -1.
         23    2    1    0    0    0  0.29843327884E+02  0.87745206102E+01 -0.17606553110E+02  0.89256369189E+02  0.81786871179E+02 0.  0.
         13    1    3    3    0    0  0.52418718850E+02  0.21886142445E+02  0.16299052439E+01  0.56827749138E+02  0.10566000000E+00 0.  1.
         22    1    1    0    0    0 -0.29843327884E+02 -0.87745206102E+01  0.17606553110E+02  0.35743630811E+02  0.00000000000E+00 0.  1.
</event>
<event>
 5    1  0.9034713E-005  0.9118800E+02  0.7818608E-02  0.1130116E+00
         25   -1    0    0    0    0  0.00000000000E+00  0.00000000000E+00  0.99999998245E-14  0.12500000000E+03  0.12500000000E+03 0.  0.
        -13    1    3    3    0    0 -0.48447070098E+02  0.71953010696E+01 -0.13809729054E+01  0.48998053112E+02  0.10566000000E+00 0.  1.
         23    2    1    0    0    0 -0.14107886850E+02 -0.16333836046E+02 -0.20883853192E+02  0.94967317876E+02  0.90093448536E+02 0.  0.
         13    1    3    3    0    0  0.34339183247E+02 -0.23529137116E+02 -0.19502880287E+02  0.45969264765E+02  0.10566000000E+00 0. -1.
         22    1    1    0    0    0  0.14107886850E+02  0.16333836046E+02  0.20883853192E+02  0.30032682124E+02  0.00000000000E+00 0.  1.
</event>
<event>
 5    1  0.9034713E-005  0.9118800E+02  0.7818608E-02  0.1130116E+00
         25   -1    0    0    0    0  0.00000000000E+00  0.00000000000E+00  0.99999998245E-14  0.12500000000E+03  0.12500000000E+03 0.  0.
        -13    1    3    3    0    0 -0.15013627114E+02  0.44994715172E+02  0.64401349863E+01  0.47868777875E+02  0.10566000000E+00 0.  1.
         23    2    1    0    0    0 -0.28438549424E+02  0.24875149983E+01 -0.90378188579E+01  0.95056369727E+02  0.90216918767E+02 0.  0.
         13    1    3    3    0    0 -0.13424922310E+02 -0.42507200174E+02 -0.15477953844E+02  0.47187591853E+02  0.10566000000E+00 0. -1.
         22    1    1    0    0    0  0.28438549424E+02 -0.24875149983E+01  0.90378188579E+01  0.29943630273E+02  0.00000000000E+00 0. -1.
</event>
<event>
 5    1  0.9034713E-005  0.9118800E+02  0.7818608E-02  0.1130116E+00
         25   -1    0    0    0    0  0.00000000000E+00  0.00000000000E+00  0.99999998245E-14  0.12500000000E+03  0.12500000000E+03 0.  0.
        -13    1    3    3    0    0  0.48652301997E+02 -0.12666876815E+02  0.36510030108E+02  0.62132839307E+02  0.10566000000E+00 0.  1.
         23    2    1    0    0    0  0.25721229525E+02 -0.78167504297E+01  0.13745321058E+02  0.94807002690E+02  0.89870744252E+02 0.  0.
         13    1    3    3    0    0 -0.22931072471E+02  0.48501263858E+01 -0.22764709050E+02  0.32674163383E+02  0.10566000000E+00 0. -1.
         22    1    1    0    0    0 -0.25721229525E+02  0.78167504297E+01 -0.13745321058E+02  0.30192997310E+02  0.00000000000E+00 0.  1.
</event>
<event>
 5    1  0.9034713E-005  0.9118800E+02  0.7818608E-02  0.1130116E+00
         25   -1    0    0    0    0  0.00000000000E+00  0.00000000000E+00  0.99999998245E-14  0.12500000000E+03  0.12500000000E+03 0.  0.
        -13    1    3    3    0    0 -0.10498029237E+02  0.34306225058E+02 -0.57270637487E+01  0.36330925103E+02  0.10566000000E+00 0.  1.
         23    2    1    0    0    0  0.10101715404E+00 -0.20039220160E+02  0.19375924288E+02  0.97125154869E+02  0.93039178399E+02 0.  0.
         13    1    3    3    0    0  0.10599046391E+02 -0.54345445219E+02  0.25102988036E+02  0.60794229766E+02  0.10566000000E+00 0. -1.
         22    1    1    0    0    0 -0.10101715404E+00  0.20039220160E+02 -0.19375924288E+02  0.27874845131E+02  0.00000000000E+00 0. -1.
</event>
<event>
 5    1  0.9034713E-005  0.9118800E+02  0.7818608E-02  0.1130116E+00
         25   -1    0    0    0    0  0.00000000000E+00  0.00000000000E+00  0.99999998245E-14  0.12500000000E+03  0.12500000000E+03 0.  0.
        -13    1    3    3    0    0  0.66405146043E+01  0.50984110082E+02  0.31603517033E+01  0.51511890880E+02  0.10566000000E+00 0. -1.
         23    2    1    0    0    0  0.40171265983E+01  0.11225587989E+02 -0.22941538042E+02  0.99145304110E+02  0.95714816134E+02 0.  0.
         13    1    3    3    0    0 -0.26233880060E+01 -0.39758522093E+02 -0.26101889746E+02  0.47633413231E+02  0.10566000000E+00 0.  1.
         22    1    1    0    0    0 -0.40171265983E+01 -0.11225587989E+02  0.22941538042E+02  0.25854695890E+02  0.00000000000E+00 0.  1.
</event>
<event>
 5    1  0.9034713E-005  0.9118800E+02  0.7818608E-02  0.1130116E+00
         25   -1    0    0    0    0  0.00000000000E+00  0.00000000000E+00  0.99999998245E-14  0.12500000000E+03  0.12500000000E+03 0.  0.
        -13    1    3    3    0    0 -0.18667252292E+01  0.30824742222E+02 -0.18734794760E+02  0.36119981933E+02  0.10566000000E+00 0.  1.
         23    2    1    0    0    0 -0.38005806651E+02  0.18002610194E+02  0.70912025109E+01  0.82352368577E+02  0.70449216775E+02 0.  0.
         13    1    3    3    0    0 -0.36139081421E+02 -0.12822132028E+02  0.25825997271E+02  0.46232386644E+02  0.10566000000E+00 0. -1.
         22    1    1    0    0    0  0.38005806651E+02 -0.18002610194E+02 -0.70912025109E+01  0.42647631423E+02  0.00000000000E+00 0. -1.
</event>
<event>
 5    1  0.9034713E-005  0.9118800E+02  0.7818608E-02  0.1130116E+00
         25   -1    0    0    0    0  0.00000000000E+00  0.00000000000E+00  0.99999998245E-14  0.12500000000E+03  0.12500000000E+03 0.  0.
        -13    1    3    3    0    0  0.57586480102E+02 -0.10789867175E+02  0.45703572044E+01  0.58766684892E+02  0.10566000000E+00 0.  1.
         23    2    1    0    0    0  0.27108586170E+02 -0.95598796247E+01 -0.12425004563E+02  0.93684708512E+02  0.88295963261E+02 0.  0.
         13    1    3    3    0    0 -0.30477893932E+02  0.12299875498E+01 -0.16995361767E+02  0.34918023620E+02  0.10566000000E+00 0. -1.
         22    1    1    0    0    0 -0.27108586170E+02  0.95598796247E+01  0.12425004563E+02  0.31315291488E+02  0.00000000000E+00 0.  1.
</event>
<event>
 5    1  0.9034713E-005  0.9118800E+02  0.7818608E-02  0.1130116E+00
         25   -1    0    0    0    0  0.00000000000E+00  0.00000000000E+00  0.99999998245E-14  0.12500000000E+03  0.12500000000E+03 0.  0.
        -13    1    3    3    0    0  0.31241345476E+01  0.50651246011E+02 -0.28659608811E+02  0.58281157163E+02  0.10566000000E+00 0.  1.
         23    2    1    0    0    0 -0.14736168826E+02  0.22891420580E+02 -0.13720302537E+02  0.94513634038E+02  0.89461771219E+02 0.  0.
         13    1    3    3    0    0 -0.17860303374E+02 -0.27759825430E+02  0.14939306274E+02  0.36232476875E+02  0.10566000000E+00 0. -1.
         22    1    1    0    0    0  0.14736168826E+02 -0.22891420580E+02  0.13720302537E+02  0.30486365962E+02  0.00000000000E+00 0.  1.
</event>
<event>
 5    1  0.9034713E-005  0.9118800E+02  0.7818608E-02  0.1130116E+00
         25   -1    0    0    0    0  0.00000000000E+00  0.00000000000E+00  0.99999998245E-14  0.12500000000E+03  0.12500000000E+03 0.  0.
        -13    1    3    3    0    0 -0.41654033443E+02  0.32387228429E+02  0.20956813196E+02  0.56773147268E+02  0.10566000000E+00 0. -1.
         23    2    1    0    0    0 -0.24383721518E+02  0.74875118943E+01 -0.75719882551E+01  0.98392412444E+02  0.94726464681E+02 0.  0.
         13    1    3    3    0    0  0.17270311925E+02 -0.24899716534E+02 -0.28528801451E+02  0.41619265176E+02  0.10566000000E+00 0.  1.
         22    1    1    0    0    0  0.24383721518E+02 -0.74875118943E+01  0.75719882551E+01  0.26607587556E+02  0.00000000000E+00 0. -1.
</event>
<event>
 5    1  0.9034713E-005  0.9118800E+02  0.7818608E-02  0.1130116E+00
         25   -1    0    0    0    0  0.00000000000E+00  0.00000000000E+00  0.99999998245E-14  0.12500000000E+03  0.12500000000E+03 0.  0.
        -13    1    3    3    0    0 -0.17856350405E+00  0.53517436182E+00  0.48193743664E+02  0.48197161627E+02  0.10566000000E+00 0.  1.
         23    2    1    0    0    0 -0.23050267530E+02 -0.14234601074E+02  0.79852312478E+01  0.96756370293E+02  0.92542382578E+02 0.  0.
         13    1    3    3    0    0 -0.22871704026E+02 -0.14769775436E+02 -0.40208512416E+02  0.48559208666E+02  0.10566000000E+00 0. -1.
         22    1    1    0    0    0  0.23050267530E+02  0.14234601074E+02 -0.79852312478E+01  0.28243629707E+02  0.00000000000E+00 0.  1.
</event>
<event>
 5    1  0.9034713E-005  0.9118800E+02  0.7818608E-02  0.1130116E+00
         25   -1    0    0    0    0  0.00000000000E+00  0.00000000000E+00  0.99999998245E-14  0.12500000000E+03  0.12500000000E+03 0.  0.
        -13    1    3    3    0    0 -0.39623651639E+02  0.16682297439E+02  0.54142341585E+01  0.43331950252E+02  0.10566000000E+00 0. -1.
         23    2    1    0    0    0  0.12320280558E+02  0.25796131975E+02  0.43767486025E+01  0.96079666907E+02  0.91623778173E+02 0.  0.
         13    1    3    3    0    0  0.51943932197E+02  0.91138345363E+01 -0.10374855559E+01  0.52747716655E+02  0.10566000000E+00 0.  1.
         22    1    1    0    0    0 -0.12320280558E+02 -0.25796131975E+02 -0.43767486025E+01  0.28920333093E+02  0.00000000000E+00 0.  1.
</event>
<event>
 5    1  0.9034713E-005  0.9118800E+02  0.7818608E-02  0.1130116E+00
         25   -1    0    0    0    0  0.00000000000E+00  0.00000000000E+00  0.99999998245E-14  0.12500000000E+03  0.12500000000E+03 0.  0.
        -13    1    3    3    0    0 -0.54633119638E+01 -0.44590882282E+02  0.39747436149E+02  0.59983867871E+02  0.10566000000E+00 0.  1.
         23    2    1    0    0    0  0.10013699542E+02 -0.18330488577E+02  0.17974867575E+02  0.97443206748E+02  0.93465510681E+02 0.  0.
         13    1    3    3    0    0  0.15477011506E+02  0.26260393705E+02 -0.21772568574E+02  0.37459338876E+02  0.10566000000E+00 0. -1.
         22    1    1    0    0    0 -0.10013699542E+02  0.18330488577E+02 -0.17974867575E+02  0.27556793252E+02  0.00000000000E+00 0.  1.
</event>
<event>
 5    1  0.9034713E-005  0.9118800E+02  0.7818608E-02  0.1130116E+00
         25   -1    0    0    0    0  0.00000000000E+00  0.00000000000E+00  0.99999998245E-14  0.12500000000E+03  0.12500000000E+03 0.  0.
        -13    1    3    3    0    0 -0.99030258857E+01  0.40023413483E+02  0.10155566395E+02  0.42462810097E+02  0.10566000000E+00 0. -1.
         23    2    1    0    0    0 -0.29797307463E+02  0.12807762328E+01 -0.13765340156E+02  0.92151795948E+02  0.86098484232E+02 0.  0.
         13    1    3    3    0    0 -0.19894281577E+02 -0.38742637250E+02 -0.23920906552E+02  0.49688985851E+02  0.10566000000E+00 0.  1.
         22    1    1    0    0    0  0.29797307463E+02 -0.12807762328E+01  0.13765340156E+02  0.32848204052E+02  0.00000000000E+00 0. -1.
</event>
<event>
 5    1  0.9034713E-005  0.9118800E+02  0.7818608E-02  0.1130116E+00
         25   -1    0    0    0    0  0.00000000000E+00  0.00000000000E+00  0.99999998245E-14  0.12500000000E+03  0.12500000000E+03 0.  0.
        -13    1    3    3    0    0  0.14540259838E+01  0.30554570495E+02  0.52179310185E+02  0.60484605853E+02  0.10566000000E+00 0. -1.
         23    2    1    0    0    0 -0.94708923215E+01  0.93627808107E+01  0.25259444558E+02  0.96444807735E+02  0.92120583660E+02 0.  0.
         13    1    3    3    0    0 -0.10924918305E+02 -0.21191789685E+02 -0.26919865627E+02  0.35960201882E+02  0.10566000000E+00 0.  1.
         22    1    1    0    0    0  0.94708923215E+01 -0.93627808107E+01 -0.25259444558E+02  0.28555192265E+02  0.00000000000E+00 0. -1.
</event>
<event>
 5    1  0.9034713E-005  0.9118800E+02  0.7818608E-02  0.1130116E+00
         25   -1    0    0    0    0  0.00000000000E+00  0.00000000000E+00  0.99999998245E-14  0.12500000000E+03  0.12500000000E+03 0.  0.
        -13    1    3    3    0    0 -0.13055644892E+02  0.29737387109E+02  0.19957452898E+02  0.38119196553E+02  0.10566000000E+00 0. -1.
         23    2    1    0    0    0  0.51033026221E+01  0.58326465986E+01 -0.28688929615E+02  0.95282696178E+02  0.90529962136E+02 0.  0.
         13    1    3    3    0    0  0.18158947514E+02 -0.23904740511E+02 -0.48646382513E+02  0.57163499625E+02  0.10566000000E+00 0.  1.
         22    1    1    0    0    0 -0.51033026221E+01 -0.58326465986E+01  0.28688929615E+02  0.29717303822E+02  0.00000000000E+00 0.  1.
</event>
<event>
 5    1  0.9034713E-005  0.9118800E+02  0.7818608E-02  0.1130116E+00
         25   -1    0    0    0    0  0.00000000000E+00  0.00000000000E+00  0.99999998245E-14  0.12500000000E+03  0.12500000000E+03 0.  0.
        -13    1    3    3    0    0  0.22107382647E+02  0.12088088976E+02  0.37521441165E+02  0.45196548251E+02  0.10566000000E+00 0.  1.
         23    2    1    0    0    0  0.36043012880E+02  0.15298476658E+02 -0.52409407711E+00  0.85841133314E+02  0.76389026231E+02 0.  0.
         13    1    3    3    0    0  0.13935630233E+02  0.32103876820E+01 -0.38045535243E+02  0.40644585063E+02  0.10566000000E+00 0. -1.
         22    1    1    0    0    0 -0.36043012880E+02 -0.15298476658E+02  0.52409407711E+00  0.39158866686E+02  0.00000000000E+00 0.  1.
</event>
<event>
 5    1  0.9034713E-005  0.9118800E+02  0.7818608E-02  0.1130116E+00
         25   -1    0    0    0    0  0.00000000000E+00  0.00000000000E+00  0.99999998245E-14  0.12500000000E+03  0.12500000000E+03 0.  0.
        -13    1    3    3    0    0 -0.43728354626E+02  0.67280805359E+01 -0.17074090676E+02  0.47423325511E+02  0.10566000000E+00 0. -1.
         23    2    1    0    0    0 -0.11309538963E+02 -0.26361040962E+02 -0.15709962303E+01  0.96272344661E+02  0.91886267555E+02 0.  0.
         13    1    3    3    0    0  0.32418815664E+02 -0.33089121498E+02  0.15503094446E+02  0.48849019150E+02  0.10566000000E+00 0.  1.
         22    1    1    0    0    0  0.11309538963E+02  0.26361040962E+02  0.15709962303E+01  0.28727655339E+02  0.00000000000E+00 0.  1.
</event>
<event>
 5    1  0.9034713E-005  0.9118800E+02  0.7818608E-02  0.1130116E+00
         25   -1    0    0    0    0  0.00000000000E+00  0.00000000000E+00  0.99999998245E-14  0.12500000000E+03  0.12500000000E+03 0.  0.
        -13    1    3    3    0    0 -0.26350440335E+02  0.26518987494E+02  0.57015037788E+01  0.37816936852E+02  0.10566000000E+00 0. -1.
         23    2    1    0    0    0  0.11687231960E+02 -0.22206067513E+02 -0.13135397967E+00  0.99905815830E+02  0.96702915972E+02 0.  0.
         13    1    3    3    0    0  0.38037672294E+02 -0.48725055007E+02 -0.58328577585E+01  0.62088878978E+02  0.10566000000E+00 0.  1.
         22    1    1    0    0    0 -0.11687231960E+02  0.22206067513E+02  0.13135397967E+00  0.25094184170E+02  0.00000000000E+00 0.  1.
</event>
<event>
 5    1  0.9034713E-005  0.9118800E+02  0.7818608E-02  0.1130116E+00
         25   -1    0    0    0    0  0.00000000000E+00  0.00000000000E+00  0.99999998245E-14  0.12500000000E+03  0.12500000000E+03 0.  0.
        -13    1    3    3    0    0 -0.79449928712E+01 -0.36313124557E+02  0.12064827795E+02  0.39081161197E+02  0.10566000000E+00 0.  1.
         23    2    1    0    0    0 -0.23239493533E+02  0.13662300041E+02 -0.10580806446E+02  0.96039924601E+02  0.91569542699E+02 0.  0.
         13    1    3    3    0    0 -0.15294500662E+02  0.49975424598E+02 -0.22645634241E+02  0.56958763403E+02  0.10566000000E+00 0. -1.
         22    1    1    0    0    0  0.23239493533E+02 -0.13662300041E+02  0.10580806446E+02  0.28960075399E+02  0.00000000000E+00 0. -1.
</event>
<event>
 5    1  0.9034713E-005  0.9118800E+02  0.7818608E-02  0.1130116E+00
         25   -1    0    0    0    0  0.00000000000E+00  0.00000000000E+00  0.99999998245E-14  0.12500000000E+03  0.12500000000E+03 0.  0.
        -13    1    3    3    0    0 -0.20619585407E+02 -0.23781417397E+02 -0.90586816038E+01  0.32753534041E+02  0.10566000000E+00 0.  1.
         23    2    1    0    0    0 -0.21662685876E+02 -0.15594397764E+02  0.36905888491E+02  0.79453300819E+02  0.65102420882E+02 0.  0.
         13    1    3    3    0    0 -0.10431004691E+01  0.81870196332E+01  0.45964570095E+02  0.46699766778E+02  0.10566000000E+00 0. -1.
         22    1    1    0    0    0  0.21662685876E+02  0.15594397764E+02 -0.36905888491E+02  0.45546699181E+02  0.00000000000E+00 0. -1.
</event>
<event>
 5    1  0.9034713E-005  0.9118800E+02  0.7818608E-02  0.1130116E+00
         25   -1    0    0    0    0  0.00000000000E+00  0.00000000000E+00  0.99999998245E-14  0.12500000000E+03  0.12500000000E+03 0.  0.
        -13    1    3    3    0    0 -0.24974078065E+02 -0.55614936115E+02 -0.68781885319E+01  0.61351824226E+02  0.10566000000E+00 0.  1.
         23    2    1    0    0    0 -0.18979987746E+02 -0.22062155394E+02 -0.14924556475E+01  0.95858859677E+02  0.91322039614E+02 0.  0.
         13    1    3    3    0    0  0.59940903196E+01  0.33552780721E+02  0.53857328844E+01  0.34507035451E+02  0.10566000000E+00 0. -1.
         22    1    1    0    0    0  0.18979987746E+02  0.22062155394E+02  0.14924556475E+01  0.29141140323E+02  0.00000000000E+00 0.  1.
</event>
<event>
 5    1  0.9034713E-005  0.9118800E+02  0.7818608E-02  0.1130116E+00
         25   -1    0    0    0    0  0.00000000000E+00  0.00000000000E+00  0.99999998245E-14  0.12500000000E+03  0.12500000000E+03 0.  0.
        -13    1    3    3    0    0 -0.41562738787E+01  0.62176919659E+02 -0.14576263298E+01  0.62332814708E+02  0.10566000000E+00 0. -1.
         23    2    1    0    0    0 -0.39181077624E+01  0.28788618245E+02  0.18597064188E+01  0.95886521732E+02  0.91359895101E+02 0.  0.
         13    1    3    3    0    0  0.23816611631E+00 -0.33388301414E+02  0.33173327486E+01  0.33553707024E+02  0.10566000000E+00 0.  1.
         22    1    1    0    0    0  0.39181077624E+01 -0.28788618245E+02 -0.18597064188E+01  0.29113478268E+02  0.00000000000E+00 0. -1.
</event>
<event>
 5    1  0.9034713E-005  0.9118800E+02  0.7818608E-02  0.1130116E+00
         25   -1    0    0    0    0  0.00000000000E+00  0.00000000000E+00  0.99999998245E-14  0.12500000000E+03  0.12500000000E+03 0.  0.
        -13    1    3    3    0    0  0.16813310845E+02 -0.18808755918E+02 -0.43806105621E+02  0.50551387463E+02  0.10566000000E+00 0. -1.
         23    2    1    0    0    0 -0.15093591371E+02  0.65659056340E+01 -0.24059510451E+02  0.95848882347E+02  0.91308381799E+02 0.  0.
         13    1    3    3    0    0 -0.31906902216E+02  0.25374661552E+02  0.19746595170E+02  0.45297494884E+02  0.10566000000E+00 0.  1.
         22    1    1    0    0    0  0.15093591371E+02 -0.65659056340E+01  0.24059510451E+02  0.29151117653E+02  0.00000000000E+00 0. -1.
</event>
<event>
 5    1  0.9034713E-005  0.9118800E+02  0.7818608E-02  0.1130116E+00
         25   -1    0    0    0    0  0.00000000000E+00  0.00000000000E+00  0.99999998245E-14  0.12500000000E+03  0.12500000000E+03 0.  0.
        -13    1    3    3    0    0  0.10574414961E+02 -0.31316479895E+02 -0.15186812688E+02  0.36375687052E+02  0.10566000000E+00 0. -1.
         23    2    1    0    0    0  0.15265460671E+02  0.17114639791E+02  0.18481744695E+02  0.95546306316E+02  0.90893215253E+02 0.  0.
         13    1    3    3    0    0  0.46910457095E+01  0.48431119686E+02  0.33668557383E+02  0.59170619265E+02  0.10566000000E+00 0.  1.
         22    1    1    0    0    0 -0.15265460671E+02 -0.17114639791E+02 -0.18481744695E+02  0.29453693684E+02  0.00000000000E+00 0.  1.
</event>
<event>
 5    1  0.9034713E-005  0.9118800E+02  0.7818608E-02  0.1130116E+00
         25   -1    0    0    0    0  0.00000000000E+00  0.00000000000E+00  0.99999998245E-14  0.12500000000E+03  0.12500000000E+03 0.  0.
        -13    1    3    3    0    0  0.50286141759E+02 -0.30391209348E+01  0.30057533744E+02  0.58663436721E+02  0.10566000000E+00 0.  1.
         23    2    1    0    0    0  0.14992418792E+02 -0.13377910882E+01  0.26945936190E+02  0.94135039553E+02  0.88931208742E+02 0.  0.
         13    1    3    3    0    0 -0.35293722967E+02  0.17013298466E+01 -0.31115975540E+01  0.35471602832E+02  0.10566000000E+00 0. -1.
         22    1    1    0    0    0 -0.14992418792E+02  0.13377910882E+01 -0.26945936190E+02  0.30864960447E+02  0.00000000000E+00 0.  1.
</event>
<event>
 5    1  0.9034713E-005  0.9118800E+02  0.7818608E-02  0.1130116E+00
         25   -1    0    0    0    0  0.00000000000E+00  0.00000000000E+00  0.99999998245E-14  0.12500000000E+03  0.12500000000E+03 0.  0.
        -13    1    3    3    0    0 -0.27991482092E+02 -0.23599620447E+01  0.24360675016E+02  0.37182605366E+02  0.10566000000E+00 0.  1.
         23    2    1    0    0    0 -0.24132905326E+01 -0.44452801505E+01 -0.28558922157E+02  0.95996611895E+02  0.91510398173E+02 0.  0.
         13    1    3    3    0    0  0.25578191559E+02 -0.20853181057E+01 -0.52919597172E+02  0.58814006529E+02  0.10566000000E+00 0. -1.
         22    1    1    0    0    0  0.24132905326E+01  0.44452801505E+01  0.28558922157E+02  0.29003388105E+02  0.00000000000E+00 0. -1.
</event>
<event>
 5    1  0.9034713E-005  0.9118800E+02  0.7818608E-02  0.1130116E+00
         25   -1    0    0    0    0  0.00000000000E+00  0.00000000000E+00  0.99999998245E-14  0.12500000000E+03  0.12500000000E+03 0.  0.
        -13    1    3    3    0    0 -0.96015163757E+01 -0.23898014363E+02  0.37920508371E+02  0.45839724327E+02  0.10566000000E+00 0.  1.
         23    2    1    0    0    0  0.38490043003E+01  0.21389696204E+02  0.75970428528E+01  0.10197720699E+03  0.99344359416E+02 0.  0.
         13    1    3    3    0    0  0.13450520676E+02  0.45287710567E+02 -0.30323465518E+02  0.56137482665E+02  0.10566000000E+00 0. -1.
         22    1    1    0    0    0 -0.38490043003E+01 -0.21389696204E+02 -0.75970428528E+01  0.23022793009E+02  0.00000000000E+00 0. -1.
</event>
<event>
 5    1  0.9034713E-005  0.9118800E+02  0.7818608E-02  0.1130116E+00
         25   -1    0    0    0    0  0.00000000000E+00  0.00000000000E+00  0.99999998245E-14  0.12500000000E+03  0.12500000000E+03 0.  0.
        -13    1    3    3    0    0 -0.37449550713E+02 -0.41333260579E+02  0.11250925799E+02  0.56899048973E+02  0.10566000000E+00 0. -1.
         23    2    1    0    0    0 -0.17514303382E+02 -0.10442904202E+02  0.21802390504E+02  0.95147876075E+02  0.90343616370E+02 0.  0.
         13    1    3    3    0    0  0.19935247330E+02  0.30890356377E+02  0.10551464705E+02  0.38248827102E+02  0.10566000000E+00 0.  1.
         22    1    1    0    0    0  0.17514303382E+02  0.10442904202E+02 -0.21802390504E+02  0.29852123925E+02  0.00000000000E+00 0. -1.
</event>
<event>
 5    1  0.9034713E-005  0.9118800E+02  0.7818608E-02  0.1130116E+00
         25   -1    0    0    0    0  0.00000000000E+00  0.00000000000E+00  0.99999998245E-14  0.12500000000E+03  0.12500000000E+03 0.  0.
        -13    1    3    3    0    0  0.17014352517E+02  0.20975615240E+01 -0.29997188687E+02  0.34550404470E+02  0.10566000000E+00 0.  1.
         23    2    1    0    0    0 -0.50387929220E+01  0.62883135314E+01  0.27536696725E+02  0.96308503216E+02  0.91935443677E+02 0.  0.
         13    1    3    3    0    0 -0.22053145439E+02  0.41907520075E+01  0.57533885411E+02  0.61758098746E+02  0.10566000000E+00 0. -1.
         22    1    1    0    0    0  0.50387929220E+01 -0.62883135314E+01 -0.27536696725E+02  0.28691496784E+02  0.00000000000E+00 0. -1.
</event>
<event>
 5    1  0.9034713E-005  0.9118800E+02  0.7818608E-02  0.1130116E+00
         25   -1    0    0    0    0  0.00000000000E+00  0.00000000000E+00  0.99999998245E-14  0.12500000000E+03  0.12500000000E+03 0.  0.
        -13    1    3    3    0    0 -0.32894279881E+02 -0.95563956337E+01 -0.13761570749E+02  0.36915448526E+02  0.10566000000E+00 0. -1.
         23    2    1    0    0    0  0.21583595796E+02 -0.22231318592E+02 -0.30485753507E+01  0.93865181139E+02  0.88551088558E+02 0.  0.
         13    1    3    3    0    0  0.54477875677E+02 -0.12674922958E+02  0.10712995398E+02  0.56949732613E+02  0.10566000000E+00 0.  1.
         22    1    1    0    0    0 -0.21583595796E+02  0.22231318592E+02  0.30485753507E+01  0.31134818861E+02  0.00000000000E+00 0.  1.
</event>
<event>
 4    1  0.9034713E-005  0.9118800E+02  0.7818608E-02  0.1130116E+00
         25   -1    0    0    0    0  0.00000000000E+00  0.00000000000E+00  0.99999998245E-14  0.12500000000E+03  0.12500000000E+03 0.  0.
        -13    1    1    0    0    0 -0.11431538974E+02 -0.49210094506E+02 -0.19069496729E+02  0.53999725501E+02  0.10566000000E+00 0.  1.
         13    1    1    0    0    0  0.10197913944E+01 -0.41102358721E+01  0.16038409934E+02  0.16588422790E+02  0.10566000000E+00 0. -1.
         22    1    1    0    0    0  0.10411747580E+02  0.53320330378E+02  0.30310867951E+01  0.54411851709E+02  0.00000000000E+00 0.  1.
</event>
<event>
 5    1  0.9034713E-005  0.9118800E+02  0.7818608E-02  0.1130116E+00
         25   -1    0    0    0    0  0.00000000000E+00  0.00000000000E+00  0.99999998245E-14  0.12500000000E+03  0.12500000000E+03 0.  0.
        -13    1    3    3    0    0  0.23929924556E+02  0.19180072312E+02 -0.52299001739E+02  0.60627660437E+02  0.10566000000E+00 0.  1.
         23    2    1    0    0    0  0.49321209084E+01  0.28363818976E+01 -0.30896945117E+02  0.93583569641E+02  0.88152665361E+02 0.  0.
         13    1    3    3    0    0 -0.18997803648E+02 -0.16343690414E+02  0.21402056622E+02  0.32955909204E+02  0.10566000000E+00 0. -1.
         22    1    1    0    0    0 -0.49321209084E+01 -0.28363818976E+01  0.30896945117E+02  0.31416430359E+02  0.00000000000E+00 0.  1.
</event>
<event>
 5    1  0.9034713E-005  0.9118800E+02  0.7818608E-02  0.1130116E+00
         25   -1    0    0    0    0  0.00000000000E+00  0.00000000000E+00  0.99999998245E-14  0.12500000000E+03  0.12500000000E+03 0.  0.
        -13    1    3    3    0    0  0.16706515609E+02  0.18931567888E+02 -0.52341320054E+02  0.58113138580E+02  0.10566000000E+00 0. -1.
         23    2    1    0    0    0  0.22836657097E+02  0.45537628234E+01 -0.18965437548E+02  0.94967725950E+02  0.90094014715E+02 0.  0.
         13    1    3    3    0    0  0.61301414880E+01 -0.14377805064E+02  0.33375882506E+02  0.36854587370E+02  0.10566000000E+00 0.  1.
         22    1    1    0    0    0 -0.22836657097E+02 -0.45537628234E+01  0.18965437548E+02  0.30032274050E+02  0.00000000000E+00 0. -1.
</event>
<event>
 5    1  0.9034713E-005  0.9118800E+02  0.7818608E-02  0.1130116E+00
         25   -1    0    0    0    0  0.00000000000E+00  0.00000000000E+00  0.99999998245E-14  0.12500000000E+03  0.12500000000E+03 0.  0.
        -13    1    3    3    0    0 -0.10731167516E+02  0.49858416357E+02 -0.19260438386E+02  0.54516009472E+02  0.10566000000E+00 0.  1.
         23    2    1    0    0    0 -0.21004114167E+02  0.27503559310E+02  0.61119426155E+01  0.89857797035E+02  0.82700962865E+02 0.  0.
         13    1    3    3    0    0 -0.10272946651E+02 -0.22354857046E+02  0.25372381002E+02  0.35341787563E+02  0.10566000000E+00 0. -1.
         22    1    1    0    0    0  0.21004114167E+02 -0.27503559310E+02 -0.61119426155E+01  0.35142202965E+02  0.00000000000E+00 0.  1.
</event>
<event>
 5    1  0.9034713E-005  0.9118800E+02  0.7818608E-02  0.1130116E+00
         25   -1    0    0    0    0  0.00000000000E+00  0.00000000000E+00  0.99999998245E-14  0.12500000000E+03  0.12500000000E+03 0.  0.
        -13    1    3    3    0    0 -0.29057842859E+02  0.21646391407E+02 -0.29756502934E+02  0.46886939796E+02  0.10566000000E+00 0.  1.
         23    2    1    0    0    0 -0.24772036343E+02 -0.16309053047E+02  0.56646541993E-01  0.95341237303E+02  0.90610757230E+02 0.  0.
         13    1    3    3    0    0  0.42858065161E+01 -0.37955444454E+02  0.29813149476E+02  0.48454297507E+02  0.10566000000E+00 0. -1.
         22    1    1    0    0    0  0.24772036343E+02  0.16309053047E+02 -0.56646541993E-01  0.29658762697E+02  0.00000000000E+00 0. -1.
</event>
<event>
 5    1  0.9034713E-005  0.9118800E+02  0.7818608E-02  0.1130116E+00
         25   -1    0    0    0    0  0.00000000000E+00  0.00000000000E+00  0.99999998245E-14  0.12500000000E+03  0.12500000000E+03 0.  0.
        -13    1    3    3    0    0 -0.22236653985E+02  0.11879815596E+02 -0.23576750180E+02  0.34517721711E+02  0.10566000000E+00 0.  1.
         23    2    1    0    0    0  0.13589804853E+02  0.45491371409E+01  0.25516803212E+02  0.95734240300E+02  0.91151303200E+02 0.  0.
         13    1    3    3    0    0  0.35826458838E+02 -0.73306784550E+01  0.49093553392E+02  0.61216518589E+02  0.10566000000E+00 0. -1.
         22    1    1    0    0    0 -0.13589804853E+02 -0.45491371409E+01 -0.25516803212E+02  0.29265759700E+02  0.00000000000E+00 0. -1.
</event>
<event>
 5    1  0.9034713E-005  0.9118800E+02  0.7818608E-02  0.1130116E+00
         25   -1    0    0    0    0  0.00000000000E+00  0.00000000000E+00  0.99999998245E-14  0.12500000000E+03  0.12500000000E+03 0.  0.
        -13    1    3    3    0    0  0.12331912044E+02  0.19865471022E+02  0.30832111529E+02  0.38695519882E+02  0.10566000000E+00 0. -1.
         23    2    1    0    0    0  0.20333896751E+02 -0.16589687239E+02 -0.12539327117E+02  0.95915299480E+02  0.91399260774E+02 0.  0.
         13    1    3    3    0    0  0.80019847066E+01 -0.36455158261E+02 -0.43371438645E+02  0.57219779599E+02  0.10566000000E+00 0.  1.
         22    1    1    0    0    0 -0.20333896751E+02  0.16589687239E+02  0.12539327117E+02  0.29084700520E+02  0.00000000000E+00 0.  1.
</event>
<event>
 5    1  0.9034713E-005  0.9118800E+02  0.7818608E-02  0.1130116E+00
         25   -1    0    0    0    0  0.00000000000E+00  0.00000000000E+00  0.99999998245E-14  0.12500000000E+03  0.12500000000E+03 0.  0.
        -13    1    3    3    0    0 -0.23341423403E+02 -0.33092605926E+02  0.14585001373E+02  0.43042723457E+02  0.10566000000E+00 0.  1.
         23    2    1    0    0    0 -0.16807936387E+02 -0.67569298132E+01 -0.26873209046E+02  0.92591171103E+02  0.86734034702E+02 0.  0.
         13    1    3    3    0    0  0.65334870162E+01  0.26335676113E+02 -0.41458210419E+02  0.49548447646E+02  0.10566000000E+00 0. -1.
         22    1    1    0    0    0  0.16807936387E+02  0.67569298132E+01  0.26873209046E+02  0.32408828897E+02  0.00000000000E+00 0. -1.
</event>
<event>
 5    1  0.9034713E-005  0.9118800E+02  0.7818608E-02  0.1130116E+00
         25   -1    0    0    0    0  0.00000000000E+00  0.00000000000E+00  0.99999998245E-14  0.12500000000E+03  0.12500000000E+03 0.  0.
        -13    1    3    3    0    0 -0.22705108329E+02 -0.41952493988E+02  0.40256731755E+02  0.62419142189E+02  0.10566000000E+00 0.  1.
         23    2    1    0    0    0 -0.95871607171E+01 -0.18078902370E+02  0.20191153340E+02  0.96252077732E+02  0.91858692746E+02 0.  0.
         13    1    3    3    0    0  0.13117947612E+02  0.23873591618E+02 -0.20065578415E+02  0.33832935543E+02  0.10566000000E+00 0. -1.
         22    1    1    0    0    0  0.95871607171E+01  0.18078902370E+02 -0.20191153340E+02  0.28747922268E+02  0.00000000000E+00 0.  1.
</event>
<event>
 5    1  0.9034713E-005  0.9118800E+02  0.7818608E-02  0.1130116E+00
         25   -1    0    0    0    0  0.00000000000E+00  0.00000000000E+00  0.99999998245E-14  0.12500000000E+03  0.12500000000E+03 0.  0.
        -13    1    3    3    0    0 -0.42764989050E+02 -0.10225791282E+02 -0.22050240903E+02  0.49189789425E+02  0.10566000000E+00 0.  1.
         23    2    1    0    0    0 -0.22230641308E+02 -0.31888401131E+01  0.18971844597E+02  0.95601003390E+02  0.90968405766E+02 0.  0.
         13    1    3    3    0    0  0.20534347742E+02  0.70369511685E+01  0.41022085500E+02  0.46411213965E+02  0.10566000000E+00 0. -1.
         22    1    1    0    0    0  0.22230641308E+02  0.31888401131E+01 -0.18971844597E+02  0.29398996610E+02  0.00000000000E+00 0. -1.
</event>
<event>
 5    1  0.9034713E-005  0.9118800E+02  0.7818608E-02  0.1130116E+00
         25   -1    0    0    0    0  0.00000000000E+00  0.00000000000E+00  0.99999998245E-14  0.12500000000E+03  0.12500000000E+03 0.  0.
        -13    1    3    3    0    0  0.28398636395E+02  0.25752324725E+02 -0.37945745650E+01  0.38523690608E+02  0.10566000000E+00 0. -1.
         23    2    1    0    0    0 -0.25633746296E+02  0.57376266257E+00  0.52811359943E+01  0.98821601459E+02  0.95291134765E+02 0.  0.
         13    1    3    3    0    0 -0.54032382692E+02 -0.25178562063E+02  0.90757105593E+01  0.60297910852E+02  0.10566000000E+00 0.  1.
         22    1    1    0    0    0  0.25633746296E+02 -0.57376266257E+00 -0.52811359943E+01  0.26178398541E+02  0.00000000000E+00 0.  1.
</event>
<event>
 5    1  0.9034713E-005  0.9118800E+02  0.7818608E-02  0.1130116E+00
         25   -1    0    0    0    0  0.00000000000E+00  0.00000000000E+00  0.99999998245E-14  0.12500000000E+03  0.12500000000E+03 0.  0.
        -13    1    3    3    0    0 -0.11223410716E+02  0.18775735211E+02  0.50298685243E+02  0.54849449241E+02  0.10566000000E+00 0. -1.
         23    2    1    0    0    0  0.15967490973E+02  0.13318372147E+02  0.17325781052E+02  0.97934847244E+02  0.94120729975E+02 0.  0.
         13    1    3    3    0    0  0.27190901689E+02 -0.54573630638E+01 -0.32972904191E+02  0.43085398003E+02  0.10566000000E+00 0.  1.
         22    1    1    0    0    0 -0.15967490973E+02 -0.13318372147E+02 -0.17325781052E+02  0.27065152756E+02  0.00000000000E+00 0. -1.
</event>
<event>
 5    1  0.9034713E-005  0.9118800E+02  0.7818608E-02  0.1130116E+00
         25   -1    0    0    0    0  0.00000000000E+00  0.00000000000E+00  0.99999998245E-14  0.12500000000E+03  0.12500000000E+03 0.  0.
        -13    1    3    3    0    0  0.45638894181E+02 -0.25656184056E+02  0.19877591360E+01  0.52393804909E+02  0.10566000000E+00 0. -1.
         23    2    1    0    0    0  0.33057795159E+02  0.64045135280E+01 -0.11552558232E+02  0.89400881808E+02  0.82007441443E+02 0.  0.
         13    1    3    3    0    0 -0.12581099022E+02  0.32060697584E+02 -0.13540317368E+02  0.37007076900E+02  0.10566000000E+00 0.  1.
         22    1    1    0    0    0 -0.33057795159E+02 -0.64045135280E+01  0.11552558232E+02  0.35599118192E+02  0.00000000000E+00 0. -1.
</event>
<event>
 5    1  0.9034713E-005  0.9118800E+02  0.7818608E-02  0.1130116E+00
         25   -1    0    0    0    0  0.00000000000E+00  0.00000000000E+00  0.99999998245E-14  0.12500000000E+03  0.12500000000E+03 0.  0.
        -13    1    3    3    0    0 -0.21496599091E+02 -0.47104244335E+02 -0.22062769992E+02  0.56282240455E+02  0.10566000000E+00 0. -1.
         23    2    1    0    0    0 -0.19905875442E+01 -0.13122837947E+02 -0.26147464172E+02  0.95676610066E+02  0.91072237903E+02 0.  0.
         13    1    3    3    0    0  0.19506011547E+02  0.33981406387E+02 -0.40846941800E+01  0.39394369612E+02  0.10566000000E+00 0.  1.
         22    1    1    0    0    0  0.19905875442E+01  0.13122837947E+02  0.26147464172E+02  0.29323389934E+02  0.00000000000E+00 0. -1.
</event>
<event>
 5    1  0.9034713E-005  0.9118800E+02  0.7818608E-02  0.1130116E+00
         25   -1    0    0    0    0  0.00000000000E+00  0.00000000000E+00  0.99999998245E-14  0.12500000000E+03  0.12500000000E+03 0.  0.
        -13    1    3    3    0    0  0.21908501668E+02  0.28090673543E+02  0.12908733528E+02  0.37890829375E+02  0.10566000000E+00 0.  1.
         23    2    1    0    0    0  0.27711667725E+01 -0.25519741717E+02 -0.73278847422E+01  0.98304785497E+02  0.94610762465E+02 0.  0.
         13    1    3    3    0    0 -0.19137334896E+02 -0.53610415259E+02 -0.20236618270E+02  0.60413956121E+02  0.10566000000E+00 0. -1.
         22    1    1    0    0    0 -0.27711667725E+01  0.25519741717E+02  0.73278847422E+01  0.26695214503E+02  0.00000000000E+00 0. -1.
</event>
<event>
 5    1  0.9034713E-005  0.9118800E+02  0.7818608E-02  0.1130116E+00
         25   -1    0    0    0    0  0.00000000000E+00  0.00000000000E+00  0.99999998245E-14  0.12500000000E+03  0.12500000000E+03 0.  0.
        -13    1    3    3    0    0 -0.61462135569E+01 -0.40646249863E+02  0.33697884990E+02  0.53154982700E+02  0.10566000000E+00 0.  1.
         23    2    1    0    0    0  0.21205682074E+02 -0.18897942060E+02  0.13080528549E+02  0.93728393175E+02  0.88357785699E+02 0.  0.
         13    1    3    3    0    0  0.27351895631E+02  0.21748307803E+02 -0.20617356441E+02  0.40573410475E+02  0.10566000000E+00 0. -1.
         22    1    1    0    0    0 -0.21205682074E+02  0.18897942060E+02 -0.13080528549E+02  0.31271606825E+02  0.00000000000E+00 0.  1.
</event>
<event>
 5    1  0.9034713E-005  0.9118800E+02  0.7818608E-02  0.1130116E+00
         25   -1    0    0    0    0  0.00000000000E+00  0.00000000000E+00  0.99999998245E-14  0.12500000000E+03  0.12500000000E+03 0.  0.
        -13    1    3    3    0    0  0.19827658241E+02 -0.31062396406E+02  0.15514154624E+02  0.39983854986E+02  0.10566000000E+00 0. -1.
         23    2    1    0    0    0  0.21633750954E+02  0.17577919759E+02  0.22527146373E+02  0.89160430149E+02  0.81640109856E+02 0.  0.
         13    1    3    3    0    0  0.18060927133E+01  0.48640316164E+02  0.70129917496E+01  0.49176575163E+02  0.10566000000E+00 0.  1.
         22    1    1    0    0    0 -0.21633750954E+02 -0.17577919759E+02 -0.22527146373E+02  0.35839569851E+02  0.00000000000E+00 0.  1.
</event>
<event>
 5    1  0.9034713E-005  0.9118800E+02  0.7818608E-02  0.1130116E+00
         25   -1    0    0    0    0  0.00000000000E+00  0.00000000000E+00  0.99999998245E-14  0.12500000000E+03  0.12500000000E+03 0.  0.
        -13    1    3    3    0    0 -0.12752899866E+02 -0.31509860815E+02  0.42450056477E+02  0.54383143000E+02  0.10566000000E+00 0.  1.
         23    2    1    0    0    0 -0.20470093133E+02 -0.20214159842E+02  0.30746126786E+01  0.96067488631E+02  0.91607162154E+02 0.  0.
         13    1    3    3    0    0 -0.77171932666E+01  0.11295700973E+02 -0.39375443798E+02  0.41684345632E+02  0.10566000000E+00 0. -1.
         22    1    1    0    0    0  0.20470093133E+02  0.20214159842E+02 -0.30746126786E+01  0.28932511369E+02  0.00000000000E+00 0.  1.
</event>
<event>
 5    1  0.9034713E-005  0.9118800E+02  0.7818608E-02  0.1130116E+00
         25   -1    0    0    0    0  0.00000000000E+00  0.00000000000E+00  0.99999998245E-14  0.12500000000E+03  0.12500000000E+03 0.  0.
        -13    1    3    3    0    0 -0.40314606308E+02 -0.34949790299E+02  0.96398269614E+01  0.54218933516E+02  0.10566000000E+00 0.  1.
         23    2    1    0    0    0 -0.11039874212E+02 -0.25064303598E+02 -0.15030845271E+02  0.93758610033E+02  0.88400523236E+02 0.  0.
         13    1    3    3    0    0  0.29274732097E+02  0.98854867007E+01 -0.24670672232E+02  0.39539676517E+02  0.10566000000E+00 0. -1.
         22    1    1    0    0    0  0.11039874212E+02  0.25064303598E+02  0.15030845271E+02  0.31241389967E+02  0.00000000000E+00 0.  1.
</event>
<event>
 5    1  0.9034713E-005  0.9118800E+02  0.7818608E-02  0.1130116E+00
         25   -1    0    0    0    0  0.00000000000E+00  0.00000000000E+00  0.99999998245E-14  0.12500000000E+03  0.12500000000E+03 0.  0.
        -13    1    3    3    0    0 -0.28112637623E+02 -0.43092846779E+02  0.13090156433E+02  0.53091215819E+02  0.10566000000E+00 0.  1.
         23    2    1    0    0    0 -0.28210519000E+02 -0.14654265556E+01  0.10718226864E+02  0.94786406299E+02  0.89842092444E+02 0.  0.
         13    1    3    3    0    0 -0.97881376240E-01  0.41627420224E+02 -0.23719295689E+01  0.41695190480E+02  0.10566000000E+00 0. -1.
         22    1    1    0    0    0  0.28210519000E+02  0.14654265556E+01 -0.10718226864E+02  0.30213593701E+02  0.00000000000E+00 0. -1.
</event>
<event>
 5    1  0.9034713E-005  0.9118800E+02  0.7818608E-02  0.1130116E+00
         25   -1    0    0    0    0  0.00000000000E+00  0.00000000000E+00  0.99999998245E-14  0.12500000000E+03  0.12500000000E+03 0.  0.
        -13    1    3    3    0    0  0.22722338700E+02 -0.30579350438E+02  0.20911666847E+02  0.43459295019E+02  0.10566000000E+00 0.  1.
         23    2    1    0    0    0  0.21967602826E+02  0.18277140685E+02  0.48600909461E+00  0.96419138390E+02  0.92085745897E+02 0.  0.
         13    1    3    3    0    0 -0.75473587421E+00  0.48856491124E+02 -0.20425657752E+02  0.52959843370E+02  0.10566000000E+00 0. -1.
         22    1    1    0    0    0 -0.21967602826E+02 -0.18277140685E+02 -0.48600909461E+00  0.28580861610E+02  0.00000000000E+00 0.  1.
</event>
<event>
 5    1  0.9034713E-005  0.9118800E+02  0.7818608E-02  0.1130116E+00
         25   -1    0    0    0    0  0.00000000000E+00  0.00000000000E+00  0.99999998245E-14  0.12500000000E+03  0.12500000000E+03 0.  0.
        -13    1    3    3    0    0  0.23426962083E+02 -0.12587365944E+02  0.54442351493E+02  0.60590800738E+02  0.10566000000E+00 0.  1.
         23    2    1    0    0    0  0.14430685877E+02 -0.15973537293E+02  0.22877706917E+02  0.93586817062E+02  0.88157270066E+02 0.  0.
         13    1    3    3    0    0 -0.89962762058E+01 -0.33861713492E+01 -0.31564644577E+02  0.32996016324E+02  0.10566000000E+00 0. -1.
         22    1    1    0    0    0 -0.14430685877E+02  0.15973537293E+02 -0.22877706917E+02  0.31413182938E+02  0.00000000000E+00 0.  1.
</event>
<event>
 5    1  0.9034713E-005  0.9118800E+02  0.7818608E-02  0.1130116E+00
         25   -1    0    0    0    0  0.00000000000E+00  0.00000000000E+00  0.99999998245E-14  0.12500000000E+03  0.12500000000E+03 0.  0.
        -13    1    3    3    0    0 -0.23383374678E+02 -0.38754111257E+02  0.20269237350E+02  0.49593512655E+02  0.10566000000E+00 0.  1.
         23    2    1    0    0    0  0.47747367116E+00 -0.17244946933E+01  0.30197062321E+02  0.94749968002E+02  0.89791380435E+02 0.  0.
         13    1    3    3    0    0  0.23860848350E+02  0.37029616564E+02  0.99278249714E+01  0.45156455347E+02  0.10566000000E+00 0. -1.
         22    1    1    0    0    0 -0.47747367116E+00  0.17244946933E+01 -0.30197062321E+02  0.30250031998E+02  0.00000000000E+00 0.  1.
</event>
<event>
 5    1  0.9034713E-005  0.9118800E+02  0.7818608E-02  0.1130116E+00
         25   -1    0    0    0    0  0.00000000000E+00  0.00000000000E+00  0.99999998245E-14  0.12500000000E+03  0.12500000000E+03 0.  0.
        -13    1    3    3    0    0 -0.35994873793E+02 -0.62697877673E+01 -0.65846452421E+01  0.37125596224E+02  0.10566000000E+00 0.  1.
         23    2    1    0    0    0  0.60428428780E+01 -0.58130867557E+01  0.30612744214E+02  0.93259678074E+02  0.87692186188E+02 0.  0.
         13    1    3    3    0    0  0.42037716671E+02  0.45670101164E+00  0.37197389456E+02  0.56134081850E+02  0.10566000000E+00 0. -1.
         22    1    1    0    0    0 -0.60428428780E+01  0.58130867557E+01 -0.30612744214E+02  0.31740321926E+02  0.00000000000E+00 0. -1.
</event>
<event>
 5    1  0.9034713E-005  0.9118800E+02  0.7818608E-02  0.1130116E+00
         25   -1    0    0    0    0  0.00000000000E+00  0.00000000000E+00  0.99999998245E-14  0.12500000000E+03  0.12500000000E+03 0.  0.
        -13    1    3    3    0    0 -0.13153573430E+02 -0.29430292115E+02 -0.24473651135E+02  0.40473810691E+02  0.10566000000E+00 0.  1.
         23    2    1    0    0    0  0.19085550018E+02 -0.22002289863E+02  0.15211382102E+02  0.92140524591E+02  0.86082118629E+02 0.  0.
         13    1    3    3    0    0  0.32239123448E+02  0.74280022511E+01  0.39685033237E+02  0.51666713900E+02  0.10566000000E+00 0. -1.
         22    1    1    0    0    0 -0.19085550018E+02  0.22002289863E+02 -0.15211382102E+02  0.32859475409E+02  0.00000000000E+00 0. -1.
</event>
<event>
 5    1  0.9034713E-005  0.9118800E+02  0.7818608E-02  0.1130116E+00
         25   -1    0    0    0    0  0.00000000000E+00  0.00000000000E+00  0.99999998245E-14  0.12500000000E+03  0.12500000000E+03 0.  0.
        -13    1    3    3    0    0 -0.51176702108E+02  0.34486496008E+02  0.58446409150E+01  0.61988258864E+02  0.10566000000E+00 0.  1.
         23    2    1    0    0    0 -0.24895738154E+02  0.11270389972E+02  0.58390398560E+01  0.97055164076E+02  0.92945096799E+02 0.  0.
         13    1    3    3    0    0  0.26280963953E+02 -0.23216106035E+02 -0.56010590502E-02  0.35066905212E+02  0.10566000000E+00 0. -1.
         22    1    1    0    0    0  0.24895738154E+02 -0.11270389972E+02 -0.58390398560E+01  0.27944835924E+02  0.00000000000E+00 0.  1.
</event>
<event>
 5    1  0.9034713E-005  0.9118800E+02  0.7818608E-02  0.1130116E+00
         25   -1    0    0    0    0  0.00000000000E+00  0.00000000000E+00  0.99999998245E-14  0.12500000000E+03  0.12500000000E+03 0.  0.
        -13    1    3    3    0    0 -0.52894495703E+02 -0.92707275032E+01  0.31714414286E+01  0.53794453886E+02  0.10566000000E+00 0.  1.
         23    2    1    0    0    0 -0.16682820445E+02 -0.10529990793E+02  0.22675278215E+02  0.94943961568E+02  0.90061037036E+02 0.  0.
         13    1    3    3    0    0  0.36211675258E+02 -0.12592632893E+01  0.19503836787E+02  0.41149507682E+02  0.10566000000E+00 0. -1.
         22    1    1    0    0    0  0.16682820445E+02  0.10529990793E+02 -0.22675278215E+02  0.30056038432E+02  0.00000000000E+00 0.  1.
</event>
<event>
 5    1  0.9034713E-005  0.9118800E+02  0.7818608E-02  0.1130116E+00
         25   -1    0    0    0    0  0.00000000000E+00  0.00000000000E+00  0.99999998245E-14  0.12500000000E+03  0.12500000000E+03 0.  0.
        -13    1    3    3    0    0  0.32365787879E+02 -0.40782482581E+02  0.22283460332E+02  0.56633195909E+02  0.10566000000E+00 0.  1.
         23    2    1    0    0    0 -0.66831466560E+00 -0.29715304426E+02  0.86566008398E+01  0.94042243303E+02  0.88800680322E+02 0.  0.
         13    1    3    3    0    0 -0.33034102545E+02  0.11067178155E+02 -0.13626859492E+02  0.37409047394E+02  0.10566000000E+00 0. -1.
         22    1    1    0    0    0  0.66831466560E+00  0.29715304426E+02 -0.86566008398E+01  0.30957756697E+02  0.00000000000E+00 0.  1.
</event>
<event>
 5    1  0.9034713E-005  0.9118800E+02  0.7818608E-02  0.1130116E+00
         25   -1    0    0    0    0  0.00000000000E+00  0.00000000000E+00  0.99999998245E-14  0.12500000000E+03  0.12500000000E+03 0.  0.
        -13    1    3    3    0    0 -0.45203113677E+02 -0.85096835666E+01  0.31017549593E+02  0.55478245712E+02  0.10566000000E+00 0.  1.
         23    2    1    0    0    0 -0.14300098110E+02 -0.16745644622E+02 -0.36879717533E+01  0.10267265006E+03  0.10021558020E+03 0.  0.
         13    1    3    3    0    0  0.30903015567E+02 -0.82359610552E+01 -0.34705521347E+02  0.47194404346E+02  0.10566000000E+00 0. -1.
         22    1    1    0    0    0  0.14300098110E+02  0.16745644622E+02  0.36879717533E+01  0.22327349941E+02  0.00000000000E+00 0.  1.
</event>
<event>
 5    1  0.9034713E-005  0.9118800E+02  0.7818608E-02  0.1130116E+00
         25   -1    0    0    0    0  0.00000000000E+00  0.00000000000E+00  0.99999998245E-14  0.12500000000E+03  0.12500000000E+03 0.  0.
        -13    1    3    3    0    0 -0.33220436477E+02  0.99476389856E+01  0.46381577767E+02  0.57912130347E+02  0.10566000000E+00 0.  1.
         23    2    1    0    0    0 -0.52535203870E+01 -0.84038388740E+01  0.26221459528E+02  0.96968073129E+02  0.92827896035E+02 0.  0.
         13    1    3    3    0    0  0.27966916090E+02 -0.18351477860E+02 -0.20160118239E+02  0.39055942783E+02  0.10566000000E+00 0. -1.
         22    1    1    0    0    0  0.52535203870E+01  0.84038388740E+01 -0.26221459528E+02  0.28031926871E+02  0.00000000000E+00 0.  1.
</event>
<event>
 5    1  0.9034713E-005  0.9118800E+02  0.7818608E-02  0.1130116E+00
         25   -1    0    0    0    0  0.00000000000E+00  0.00000000000E+00  0.99999998245E-14  0.12500000000E+03  0.12500000000E+03 0.  0.
        -13    1    3    3    0    0 -0.30786197739E+02 -0.26242715739E+02 -0.47563876447E+02  0.62440400442E+02  0.10566000000E+00 0.  1.
         23    2    1    0    0    0 -0.12740950478E+02 -0.12930660724E+02 -0.22972019920E+02  0.95721210663E+02  0.91133433304E+02 0.  0.
         13    1    3    3    0    0  0.18045247261E+02  0.13312055016E+02  0.24591856527E+02  0.33280810221E+02  0.10566000000E+00 0. -1.
         22    1    1    0    0    0  0.12740950478E+02  0.12930660724E+02  0.22972019920E+02  0.29278789337E+02  0.00000000000E+00 0.  1.
</event>
<event>
 5    1  0.9034713E-005  0.9118800E+02  0.7818608E-02  0.1130116E+00
         25   -1    0    0    0    0  0.00000000000E+00  0.00000000000E+00  0.99999998245E-14  0.12500000000E+03  0.12500000000E+03 0.  0.
        -13    1    3    3    0    0 -0.11776973382E+02 -0.16320470624E+01 -0.33624029622E+02  0.35664368938E+02  0.10566000000E+00 0. -1.
         23    2    1    0    0    0 -0.21357491145E+01  0.15530600313E+02  0.23874071676E+02  0.96438972904E+02  0.92112665937E+02 0.  0.
         13    1    3    3    0    0  0.96412242677E+01  0.17162647376E+02  0.57498101298E+02  0.60774603966E+02  0.10566000000E+00 0.  1.
         22    1    1    0    0    0  0.21357491145E+01 -0.15530600313E+02 -0.23874071676E+02  0.28561027096E+02  0.00000000000E+00 0.  1.
</event>
<event>
 5    1  0.9034713E-005  0.9118800E+02  0.7818608E-02  0.1130116E+00
         25   -1    0    0    0    0  0.00000000000E+00  0.00000000000E+00  0.99999998245E-14  0.12500000000E+03  0.12500000000E+03 0.  0.
        -13    1    3    3    0    0 -0.32417561005E+02 -0.87896208458E+00  0.10199585633E+02  0.33995787195E+02  0.10566000000E+00 0.  1.
         23    2    1    0    0    0  0.20635513645E+02 -0.11732798927E+02 -0.18148765754E+02  0.95119225371E+02  0.90303966373E+02 0.  0.
         13    1    3    3    0    0  0.53053074651E+02 -0.10853836842E+02 -0.28348351387E+02  0.61123438176E+02  0.10566000000E+00 0. -1.
         22    1    1    0    0    0 -0.20635513645E+02  0.11732798927E+02  0.18148765754E+02  0.29880774629E+02  0.00000000000E+00 0. -1.
</event>
<event>
 5    1  0.9034713E-005  0.9118800E+02  0.7818608E-02  0.1130116E+00
         25   -1    0    0    0    0  0.00000000000E+00  0.00000000000E+00  0.99999998245E-14  0.12500000000E+03  0.12500000000E+03 0.  0.
        -13    1    3    3    0    0 -0.43457095060E+02  0.31967776666E+02 -0.55766918141E+01  0.54236228774E+02  0.10566000000E+00 0. -1.
         23    2    1    0    0    0 -0.23001431022E+02 -0.21748479355E+01 -0.17757812959E+02  0.95860066684E+02  0.91323691729E+02 0.  0.
         13    1    3    3    0    0  0.20455664038E+02 -0.34142624602E+02 -0.12181121145E+02  0.41623837909E+02  0.10566000000E+00 0.  1.
         22    1    1    0    0    0  0.23001431022E+02  0.21748479355E+01  0.17757812959E+02  0.29139933316E+02  0.00000000000E+00 0. -1.
</event>
<event>
 5    1  0.9034713E-005  0.9118800E+02  0.7818608E-02  0.1130116E+00
         25   -1    0    0    0    0  0.00000000000E+00  0.00000000000E+00  0.99999998245E-14  0.12500000000E+03  0.12500000000E+03 0.  0.
        -13    1    3    3    0    0 -0.27780181189E+02  0.86926848859E+01 -0.35688421597E+02  0.46054053432E+02  0.10566000000E+00 0.  1.
         23    2    1    0    0    0 -0.25933453249E+02 -0.79764028801E+01  0.11044909487E+02  0.95705682703E+02  0.91112132429E+02 0.  0.
         13    1    3    3    0    0  0.18467279403E+01 -0.16669087766E+02  0.46733331083E+02  0.49651629271E+02  0.10566000000E+00 0. -1.
         22    1    1    0    0    0  0.25933453249E+02  0.79764028801E+01 -0.11044909487E+02  0.29294317297E+02  0.00000000000E+00 0. -1.
</event>
<event>
 5    1  0.9034713E-005  0.9118800E+02  0.7818608E-02  0.1130116E+00
         25   -1    0    0    0    0  0.00000000000E+00  0.00000000000E+00  0.99999998245E-14  0.12500000000E+03  0.12500000000E+03 0.  0.
        -13    1    3    3    0    0 -0.16926164856E+02 -0.59285116653E+01  0.30869844422E+02  0.35701551310E+02  0.10566000000E+00 0. -1.
         23    2    1    0    0    0 -0.14005018207E+02 -0.38698815918E+02 -0.40102169771E+01  0.83650021419E+02  0.72715234682E+02 0.  0.
         13    1    3    3    0    0  0.29211466488E+01 -0.32770304252E+02 -0.34880061399E+02  0.47948470109E+02  0.10566000000E+00 0.  1.
         22    1    1    0    0    0  0.14005018207E+02  0.38698815918E+02  0.40102169771E+01  0.41349978581E+02  0.00000000000E+00 0.  1.
</event>
<event>
 5    1  0.9034713E-005  0.9118800E+02  0.7818608E-02  0.1130116E+00
         25   -1    0    0    0    0  0.00000000000E+00  0.00000000000E+00  0.99999998245E-14  0.12500000000E+03  0.12500000000E+03 0.  0.
        -13    1    3    3    0    0 -0.12827049998E+02 -0.39998556807E+01 -0.34117434781E+02  0.36668004816E+02  0.10566000000E+00 0. -1.
         23    2    1    0    0    0 -0.12469285440E+02 -0.14925492772E+02  0.23032734985E+02  0.94854348659E+02  0.89936573009E+02 0.  0.
         13    1    3    3    0    0  0.35776455797E+00 -0.10925637092E+02  0.57150169767E+02  0.58186343842E+02  0.10566000000E+00 0.  1.
         22    1    1    0    0    0  0.12469285440E+02  0.14925492772E+02 -0.23032734985E+02  0.30145651341E+02  0.00000000000E+00 0.  1.
</event>
<event>
 5    1  0.9034713E-005  0.9118800E+02  0.7818608E-02  0.1130116E+00
         25   -1    0    0    0    0  0.00000000000E+00  0.00000000000E+00  0.99999998245E-14  0.12500000000E+03  0.12500000000E+03 0.  0.
        -13    1    3    3    0    0 -0.31237345663E+02  0.22582467469E+02 -0.19765640617E+02  0.43317794427E+02  0.10566000000E+00 0. -1.
         23    2    1    0    0    0 -0.23705466555E+02 -0.21197231588E+02  0.26751510370E+01  0.93087178053E+02  0.87445951954E+02 0.  0.
         13    1    3    3    0    0  0.75318791077E+01 -0.43779699056E+02  0.22440791654E+02  0.49769383625E+02  0.10566000000E+00 0.  1.
         22    1    1    0    0    0  0.23705466555E+02  0.21197231588E+02 -0.26751510370E+01  0.31912821947E+02  0.00000000000E+00 0.  1.
</event>
<event>
 5    1  0.9034713E-005  0.9118800E+02  0.7818608E-02  0.1130116E+00
         25   -1    0    0    0    0  0.00000000000E+00  0.00000000000E+00  0.99999998245E-14  0.12500000000E+03  0.12500000000E+03 0.  0.
        -13    1    3    3    0    0 -0.24286545082E+02  0.22759225730E+02  0.47701035244E+02  0.58165441245E+02  0.10566000000E+00 0.  1.
         23    2    1    0    0    0 -0.59945219891E+01 -0.25118049315E+01  0.30550754276E+02  0.93765531144E+02  0.88410309275E+02 0.  0.
         13    1    3    3    0    0  0.18292023093E+02 -0.25271030661E+02 -0.17150280968E+02  0.35600089899E+02  0.10566000000E+00 0. -1.
         22    1    1    0    0    0  0.59945219891E+01  0.25118049315E+01 -0.30550754276E+02  0.31234468856E+02  0.00000000000E+00 0.  1.
</event>
<event>
 5    1  0.9034713E-005  0.9118800E+02  0.7818608E-02  0.1130116E+00
         25   -1    0    0    0    0  0.00000000000E+00  0.00000000000E+00  0.99999998245E-14  0.12500000000E+03  0.12500000000E+03 0.  0.
        -13    1    3    3    0    0 -0.81990202624E+01  0.28345733441E+01 -0.53189093309E+02  0.53892017501E+02  0.10566000000E+00 0.  1.
         23    2    1    0    0    0 -0.20210126459E+02  0.18529431337E+02 -0.30136912274E+02  0.84256626077E+02  0.73750637417E+02 0.  0.
         13    1    3    3    0    0 -0.12011106197E+02  0.15694857993E+02  0.23052181035E+02  0.30364608576E+02  0.10566000000E+00 0. -1.
         22    1    1    0    0    0  0.20210126459E+02 -0.18529431337E+02  0.30136912274E+02  0.40743373923E+02  0.00000000000E+00 0.  1.
</event>
<event>
 5    1  0.9034713E-005  0.9118800E+02  0.7818608E-02  0.1130116E+00
         25   -1    0    0    0    0  0.00000000000E+00  0.00000000000E+00  0.99999998245E-14  0.12500000000E+03  0.12500000000E+03 0.  0.
        -13    1    3    3    0    0  0.34441706621E+01  0.26926462661E+01  0.32448898781E+02  0.32742248725E+02  0.10566000000E+00 0. -1.
         23    2    1    0    0    0 -0.13419493422E+01 -0.74611670883E+01 -0.28906407187E+02  0.95116054163E+02  0.90299576636E+02 0.  0.
         13    1    3    3    0    0 -0.47861200043E+01 -0.10153813354E+02 -0.61355305968E+02  0.62373805437E+02  0.10566000000E+00 0.  1.
         22    1    1    0    0    0  0.13419493422E+01  0.74611670883E+01  0.28906407187E+02  0.29883945837E+02  0.00000000000E+00 0.  1.
</event>
<event>
 5    1  0.9034713E-005  0.9118800E+02  0.7818608E-02  0.1130116E+00
         25   -1    0    0    0    0  0.00000000000E+00  0.00000000000E+00  0.99999998245E-14  0.12500000000E+03  0.12500000000E+03 0.  0.
        -13    1    3    3    0    0 -0.10949938111E+02  0.27698153271E+02  0.17418693163E+02  0.34503780587E+02  0.10566000000E+00 0.  1.
         23    2    1    0    0    0  0.12909561458E+02 -0.97058133424E+01 -0.24575216528E+02  0.95592503386E+02  0.90956725131E+02 0.  0.
         13    1    3    3    0    0  0.23859499569E+02 -0.37403966614E+02 -0.41993909691E+02  0.61088722799E+02  0.10566000000E+00 0. -1.
         22    1    1    0    0    0 -0.12909561458E+02  0.97058133424E+01  0.24575216528E+02  0.29407496614E+02  0.00000000000E+00 0. -1.
</event>
<event>
 5    1  0.9034713E-005  0.9118800E+02  0.7818608E-02  0.1130116E+00
         25   -1    0    0    0    0  0.00000000000E+00  0.00000000000E+00  0.99999998245E-14  0.12500000000E+03  0.12500000000E+03 0.  0.
        -13    1    3    3    0    0  0.81123546115E+01  0.18253602494E+02 -0.36333664923E+02  0.41462641885E+02  0.10566000000E+00 0. -1.
         23    2    1    0    0    0 -0.26055741216E+02 -0.11795749700E+02 -0.71529000782E+01  0.95517711405E+02  0.90853881872E+02 0.  0.
         13    1    3    3    0    0 -0.34168095827E+02 -0.30049352195E+02  0.29180764845E+02  0.54055069519E+02  0.10566000000E+00 0.  1.
         22    1    1    0    0    0  0.26055741216E+02  0.11795749700E+02  0.71529000782E+01  0.29482288595E+02  0.00000000000E+00 0.  1.
</event>
<event>
 5    1  0.9034713E-005  0.9118800E+02  0.7818608E-02  0.1130116E+00
         25   -1    0    0    0    0  0.00000000000E+00  0.00000000000E+00  0.99999998245E-14  0.12500000000E+03  0.12500000000E+03 0.  0.
        -13    1    3    3    0    0  0.21327643802E+02 -0.27093884965E+02  0.14818924686E+02  0.37530769850E+02  0.10566000000E+00 0. -1.
         23    2    1    0    0    0 -0.26495766528E+02  0.62481036899E+01  0.98854778242E+01  0.96038178313E+02  0.91567158841E+02 0.  0.
         13    1    3    3    0    0 -0.47823410330E+02  0.33341988655E+02 -0.49334468617E+01  0.58507408463E+02  0.10566000000E+00 0.  1.
         22    1    1    0    0    0  0.26495766528E+02 -0.62481036899E+01 -0.98854778242E+01  0.28961821687E+02  0.00000000000E+00 0.  1.
</event>
<event>
 5    1  0.9034713E-005  0.9118800E+02  0.7818608E-02  0.1130116E+00
         25   -1    0    0    0    0  0.00000000000E+00  0.00000000000E+00  0.99999998245E-14  0.12500000000E+03  0.12500000000E+03 0.  0.
        -13    1    3    3    0    0  0.32070926050E+02  0.81946822859E+01  0.39617515907E+02  0.51626115931E+02  0.10566000000E+00 0. -1.
         23    2    1    0    0    0  0.84718069541E+01  0.24695403754E+02  0.22593370828E+01  0.98794292917E+02  0.95255305518E+02 0.  0.
         13    1    3    3    0    0 -0.23599119096E+02  0.16500721468E+02 -0.37358178824E+02  0.47168176986E+02  0.10566000000E+00 0.  1.
         22    1    1    0    0    0 -0.84718069541E+01 -0.24695403754E+02 -0.22593370828E+01  0.26205707083E+02  0.00000000000E+00 0. -1.
</event>
<event>
 5    1  0.9034713E-005  0.9118800E+02  0.7818608E-02  0.1130116E+00
         25   -1    0    0    0    0  0.00000000000E+00  0.00000000000E+00  0.99999998245E-14  0.12500000000E+03  0.12500000000E+03 0.  0.
        -13    1    3    3    0    0 -0.34790029873E+02  0.18430002592E+02 -0.28462571141E+01  0.39473073324E+02  0.10566000000E+00 0. -1.
         23    2    1    0    0    0 -0.29881364032E+01 -0.27642302402E+02  0.70340590619E+01  0.96320672460E+02  0.91951988097E+02 0.  0.
         13    1    3    3    0    0  0.31801893469E+02 -0.46072304994E+02  0.98803161759E+01  0.56847599136E+02  0.10566000000E+00 0.  1.
         22    1    1    0    0    0  0.29881364032E+01  0.27642302402E+02 -0.70340590619E+01  0.28679327540E+02  0.00000000000E+00 0.  1.
</event>
<event>
 5    1  0.9034713E-005  0.9118800E+02  0.7818608E-02  0.1130116E+00
         25   -1    0    0    0    0  0.00000000000E+00  0.00000000000E+00  0.99999998245E-14  0.12500000000E+03  0.12500000000E+03 0.  0.
        -13    1    3    3    0    0  0.31394974643E+02 -0.46539733439E+02  0.11136188918E+01  0.56150178383E+02  0.10566000000E+00 0. -1.
         23    2    1    0    0    0 -0.48468054560E+01 -0.27457609281E+02  0.51653137965E+00  0.97113109976E+02  0.93022994437E+02 0.  0.
         13    1    3    3    0    0 -0.36241780099E+02  0.19082124159E+02 -0.59708751211E+00  0.40962931593E+02  0.10566000000E+00 0.  1.
         22    1    1    0    0    0  0.48468054560E+01  0.27457609281E+02 -0.51653137965E+00  0.27886890024E+02  0.00000000000E+00 0. -1.
</event>
<event>
 5    1  0.9034713E-005  0.9118800E+02  0.7818608E-02  0.1130116E+00
         25   -1    0    0    0    0  0.00000000000E+00  0.00000000000E+00  0.99999998245E-14  0.12500000000E+03  0.12500000000E+03 0.  0.
        -13    1    3    3    0    0 -0.12016076852E+02  0.26241433941E+02 -0.19818715173E+02  0.35011306650E+02  0.10566000000E+00 0.  1.
         23    2    1    0    0    0  0.34088690849E+02  0.65723328733E+01 -0.19591419077E+02  0.85137008333E+02  0.75228000659E+02 0.  0.
         13    1    3    3    0    0  0.46104767701E+02 -0.19669101068E+02  0.22729609649E+00  0.50125701682E+02  0.10566000000E+00 0. -1.
         22    1    1    0    0    0 -0.34088690849E+02 -0.65723328733E+01  0.19591419077E+02  0.39862991667E+02  0.00000000000E+00 0. -1.
</event>
<event>
 5    1  0.9034713E-005  0.9118800E+02  0.7818608E-02  0.1130116E+00
         25   -1    0    0    0    0  0.00000000000E+00  0.00000000000E+00  0.99999998245E-14  0.12500000000E+03  0.12500000000E+03 0.  0.
        -13    1    3    3    0    0 -0.52275213225E+01  0.17226972811E+02  0.27848291785E+02  0.33160731155E+02  0.10566000000E+00 0.  1.
         23    2    1    0    0    0  0.37730734323E-01 -0.80418402453E+01 -0.28632242132E+02  0.95259826705E+02  0.90498379412E+02 0.  0.
         13    1    3    3    0    0  0.52652520569E+01 -0.25268813056E+02 -0.56480533917E+02  0.62099095549E+02  0.10566000000E+00 0. -1.
         22    1    1    0    0    0 -0.37730734323E-01  0.80418402453E+01  0.28632242132E+02  0.29740173295E+02  0.00000000000E+00 0. -1.
</event>
<event>
 5    1  0.9034713E-005  0.9118800E+02  0.7818608E-02  0.1130116E+00
         25   -1    0    0    0    0  0.00000000000E+00  0.00000000000E+00  0.99999998245E-14  0.12500000000E+03  0.12500000000E+03 0.  0.
        -13    1    3    3    0    0 -0.31191395349E+02 -0.89737659739E+01 -0.35007517546E+02  0.47738549081E+02  0.10566000000E+00 0.  1.
         23    2    1    0    0    0 -0.10364054076E+02  0.25490281690E+02 -0.75871609378E+01  0.96456470285E+02  0.92136407414E+02 0.  0.
         13    1    3    3    0    0  0.20827341273E+02  0.34464047664E+02  0.27420356608E+02  0.48717921204E+02  0.10566000000E+00 0. -1.
         22    1    1    0    0    0  0.10364054076E+02 -0.25490281690E+02  0.75871609378E+01  0.28543529715E+02  0.00000000000E+00 0. -1.
</event>
<event>
 5    1  0.9034713E-005  0.9118800E+02  0.7818608E-02  0.1130116E+00
         25   -1    0    0    0    0  0.00000000000E+00  0.00000000000E+00  0.99999998245E-14  0.12500000000E+03  0.12500000000E+03 0.  0.
        -13    1    3    3    0    0 -0.44999992933E+01  0.11549876111E+02 -0.60640493396E+02  0.61894508926E+02  0.10566000000E+00 0. -1.
         23    2    1    0    0    0  0.30641229271E+01  0.23390859753E+01 -0.29690881649E+02  0.95059916072E+02  0.90221832269E+02 0.  0.
         13    1    3    3    0    0  0.75641222204E+01 -0.92107901355E+01  0.30949611747E+02  0.33165407147E+02  0.10566000000E+00 0.  1.
         22    1    1    0    0    0 -0.30641229271E+01 -0.23390859753E+01  0.29690881649E+02  0.29940083928E+02  0.00000000000E+00 0. -1.
</event>
<event>
 5    1  0.9034713E-005  0.9118800E+02  0.7818608E-02  0.1130116E+00
         25   -1    0    0    0    0  0.00000000000E+00  0.00000000000E+00  0.99999998245E-14  0.12500000000E+03  0.12500000000E+03 0.  0.
        -13    1    3    3    0    0  0.10501913091E+02  0.16338494639E+02  0.42609291632E+02  0.46827336921E+02  0.10566000000E+00 0.  1.
         23    2    1    0    0    0  0.24666035599E+02  0.13663632517E+02 -0.48151885158E+01  0.96394157831E+02  0.92051830279E+02 0.  0.
         13    1    3    3    0    0  0.14164122509E+02 -0.26748621223E+01 -0.47424480148E+02  0.49566820910E+02  0.10566000000E+00 0. -1.
         22    1    1    0    0    0 -0.24666035599E+02 -0.13663632517E+02  0.48151885158E+01  0.28605842169E+02  0.00000000000E+00 0.  1.
</event>
<event>
 5    1  0.9034713E-005  0.9118800E+02  0.7818608E-02  0.1130116E+00
         25   -1    0    0    0    0  0.00000000000E+00  0.00000000000E+00  0.99999998245E-14  0.12500000000E+03  0.12500000000E+03 0.  0.
        -13    1    3    3    0    0  0.29887131913E+02  0.28186263413E+02  0.37780187180E+02  0.55812720832E+02  0.10566000000E+00 0. -1.
         23    2    1    0    0    0  0.23496184180E+02 -0.51047513219E+01  0.16531840655E+02  0.95820710898E+02  0.91269807299E+02 0.  0.
         13    1    3    3    0    0 -0.63909477333E+01 -0.33291014735E+02 -0.21248346525E+02  0.40007990066E+02  0.10566000000E+00 0.  1.
         22    1    1    0    0    0 -0.23496184180E+02  0.51047513219E+01 -0.16531840655E+02  0.29179289102E+02  0.00000000000E+00 0. -1.
</event>
<event>
 5    1  0.9034713E-005  0.9118800E+02  0.7818608E-02  0.1130116E+00
         25   -1    0    0    0    0  0.00000000000E+00  0.00000000000E+00  0.99999998245E-14  0.12500000000E+03  0.12500000000E+03 0.  0.
        -13    1    3    3    0    0 -0.33197186000E+02 -0.23298409308E+00 -0.14150501905E+02  0.36088160220E+02  0.10566000000E+00 0.  1.
         23    2    1    0    0    0  0.20999156584E+02  0.19181135708E+02 -0.13151601732E+02  0.93665591239E+02  0.88268894916E+02 0.  0.
         13    1    3    3    0    0  0.54196342583E+02  0.19414119801E+02  0.99890017298E+00  0.57577431018E+02  0.10566000000E+00 0. -1.
         22    1    1    0    0    0 -0.20999156584E+02 -0.19181135708E+02  0.13151601732E+02  0.31334408761E+02  0.00000000000E+00 0. -1.
</event>
<event>
 5    1  0.9034713E-005  0.9118800E+02  0.7818608E-02  0.1130116E+00
         25   -1    0    0    0    0  0.00000000000E+00  0.00000000000E+00  0.99999998245E-14  0.12500000000E+03  0.12500000000E+03 0.  0.
        -13    1    3    3    0    0 -0.28368834716E+02 -0.51444656449E+02  0.20437967513E+02  0.62201809784E+02  0.10566000000E+00 0.  1.
         23    2    1    0    0    0 -0.17117471934E+02 -0.22124525165E+02  0.98153323825E+01  0.95354710172E+02  0.90629341513E+02 0.  0.
         13    1    3    3    0    0  0.11251362782E+02  0.29320131284E+02 -0.10622635130E+02  0.33152900388E+02  0.10566000000E+00 0. -1.
         22    1    1    0    0    0  0.17117471934E+02  0.22124525165E+02 -0.98153323825E+01  0.29645289828E+02  0.00000000000E+00 0.  1.
</event>
<event>
 5    1  0.9034713E-005  0.9118800E+02  0.7818608E-02  0.1130116E+00
         25   -1    0    0    0    0  0.00000000000E+00  0.00000000000E+00  0.99999998245E-14  0.12500000000E+03  0.12500000000E+03 0.  0.
        -13    1    3    3    0    0  0.24597040175E+02  0.73604485915E+01  0.41938124291E+02  0.49173244980E+02  0.10566000000E+00 0. -1.
         23    2    1    0    0    0  0.27032367739E+02 -0.27790281153E+00 -0.56079871606E+01  0.97390659995E+02  0.93395208649E+02 0.  0.
         13    1    3    3    0    0  0.24353275638E+01 -0.76383514030E+01 -0.47546111451E+02  0.48217415014E+02  0.10566000000E+00 0.  1.
         22    1    1    0    0    0 -0.27032367739E+02  0.27790281153E+00  0.56079871606E+01  0.27609340005E+02  0.00000000000E+00 0. -1.
</event>
<event>
 5    1  0.9034713E-005  0.9118800E+02  0.7818608E-02  0.1130116E+00
         25   -1    0    0    0    0  0.00000000000E+00  0.00000000000E+00  0.99999998245E-14  0.12500000000E+03  0.12500000000E+03 0.  0.
        -13    1    3    3    0    0  0.18589356997E+02  0.24511189605E+02 -0.50681091462E+02  0.59286986812E+02  0.10566000000E+00 0.  1.
         23    2    1    0    0    0  0.19982689195E+02  0.14546334456E+02 -0.15624453325E+02  0.95759150914E+02  0.91185457878E+02 0.  0.
         13    1    3    3    0    0  0.13933321979E+01 -0.99648551496E+01  0.35056638137E+02  0.36472164102E+02  0.10566000000E+00 0. -1.
         22    1    1    0    0    0 -0.19982689195E+02 -0.14546334456E+02  0.15624453325E+02  0.29240849086E+02  0.00000000000E+00 0.  1.
</event>
<event>
 5    1  0.9034713E-005  0.9118800E+02  0.7818608E-02  0.1130116E+00
         25   -1    0    0    0    0  0.00000000000E+00  0.00000000000E+00  0.99999998245E-14  0.12500000000E+03  0.12500000000E+03 0.  0.
        -13    1    3    3    0    0  0.21550259197E+02 -0.20772579486E+02 -0.31123495502E+02  0.43180978061E+02  0.10566000000E+00 0.  1.
         23    2    1    0    0    0 -0.48202245565E+01 -0.26577303136E+02  0.13087409317E+02  0.94985538662E+02  0.90118725388E+02 0.  0.
         13    1    3    3    0    0 -0.26370483754E+02 -0.58047236501E+01  0.44210904820E+02  0.51804560601E+02  0.10566000000E+00 0. -1.
         22    1    1    0    0    0  0.48202245565E+01  0.26577303136E+02 -0.13087409317E+02  0.30014461338E+02  0.00000000000E+00 0.  1.
</event>
<event>
 5    1  0.9034713E-005  0.9118800E+02  0.7818608E-02  0.1130116E+00
         25   -1    0    0    0    0  0.00000000000E+00  0.00000000000E+00  0.99999998245E-14  0.12500000000E+03  0.12500000000E+03 0.  0.
        -13    1    3    3    0    0  0.43045504057E+02  0.28850625615E+02  0.25079629672E+02  0.57569723001E+02  0.10566000000E+00 0. -1.
         23    2    1    0    0    0  0.88915041245E+01  0.14934801866E+02  0.25123533453E+02  0.94450055884E+02  0.89372892819E+02 0.  0.
         13    1    3    3    0    0 -0.34153999932E+02 -0.13915823749E+02  0.43903780218E-01  0.36880332883E+02  0.10566000000E+00 0.  1.
         22    1    1    0    0    0 -0.88915041245E+01 -0.14934801866E+02 -0.25123533453E+02  0.30549944116E+02  0.00000000000E+00 0. -1.
</event>
<event>
 5    1  0.9034713E-005  0.9118800E+02  0.7818608E-02  0.1130116E+00
         25   -1    0    0    0    0  0.00000000000E+00  0.00000000000E+00  0.99999998245E-14  0.12500000000E+03  0.12500000000E+03 0.  0.
        -13    1    3    3    0    0 -0.12820914652E+02 -0.10513702567E-01  0.55812228410E+02  0.57265975650E+02  0.10566000000E+00 0.  1.
         23    2    1    0    0    0  0.63846238240E+01  0.13365292286E+02  0.24711252591E+02  0.96189577166E+02  0.91773603457E+02 0.  0.
         13    1    3    3    0    0  0.19205538476E+02  0.13375805989E+02 -0.31100975819E+02  0.38923601516E+02  0.10566000000E+00 0. -1.
         22    1    1    0    0    0 -0.63846238240E+01 -0.13365292286E+02 -0.24711252591E+02  0.28810422834E+02  0.00000000000E+00 0.  1.
</event>
<event>
 5    1  0.9034713E-005  0.9118800E+02  0.7818608E-02  0.1130116E+00
         25   -1    0    0    0    0  0.00000000000E+00  0.00000000000E+00  0.99999998245E-14  0.12500000000E+03  0.12500000000E+03 0.  0.
        -13    1    3    3    0    0  0.41017196975E+02 -0.49733096899E+01  0.21069776642E+02  0.46379854557E+02  0.10566000000E+00 0. -1.
         23    2    1    0    0    0  0.15385244143E+02 -0.20815344221E+02 -0.16320103275E+02  0.94400489166E+02  0.89303540196E+02 0.  0.
         13    1    3    3    0    0 -0.25631952832E+02 -0.15842034531E+02 -0.37389879916E+02  0.48020634609E+02  0.10566000000E+00 0.  1.
         22    1    1    0    0    0 -0.15385244143E+02  0.20815344221E+02  0.16320103275E+02  0.30599510834E+02  0.00000000000E+00 0.  1.
</event>
<event>
 5    1  0.9034713E-005  0.9118800E+02  0.7818608E-02  0.1130116E+00
         25   -1    0    0    0    0  0.00000000000E+00  0.00000000000E+00  0.99999998245E-14  0.12500000000E+03  0.12500000000E+03 0.  0.
        -13    1    3    3    0    0  0.30754776053E+02  0.34296197483E+02  0.20377959943E+02  0.50372192997E+02  0.10566000000E+00 0.  1.
         23    2    1    0    0    0 -0.12911876496E+02  0.10648857370E+01  0.14492985303E+02  0.10556042286E+03  0.10375502742E+03 0.  0.
         13    1    3    3    0    0 -0.43666652548E+02 -0.33231311746E+02 -0.58849746409E+01  0.55188229866E+02  0.10566000000E+00 0. -1.
         22    1    1    0    0    0  0.12911876496E+02 -0.10648857370E+01 -0.14492985303E+02  0.19439577137E+02  0.00000000000E+00 0. -1.
</event>
<event>
 5    1  0.9034713E-005  0.9118800E+02  0.7818608E-02  0.1130116E+00
         25   -1    0    0    0    0  0.00000000000E+00  0.00000000000E+00  0.99999998245E-14  0.12500000000E+03  0.12500000000E+03 0.  0.
        -13    1    3    3    0    0  0.72469667444E+01  0.18957107079E+02  0.37635082408E+02  0.42758636878E+02  0.10566000000E+00 0. -1.
         23    2    1    0    0    0  0.25395558768E+02 -0.13467287459E+02 -0.83302522668E+00  0.96242458942E+02  0.91845602701E+02 0.  0.
         13    1    3    3    0    0  0.18148592024E+02 -0.32424394538E+02 -0.38468107634E+02  0.53483822064E+02  0.10566000000E+00 0.  1.
         22    1    1    0    0    0 -0.25395558768E+02  0.13467287459E+02  0.83302522668E+00  0.28757541058E+02  0.00000000000E+00 0.  1.
</event>
<event>
 5    1  0.9034713E-005  0.9118800E+02  0.7818608E-02  0.1130116E+00
         25   -1    0    0    0    0  0.00000000000E+00  0.00000000000E+00  0.99999998245E-14  0.12500000000E+03  0.12500000000E+03 0.  0.
        -13    1    3    3    0    0 -0.12611194290E+02 -0.33682534358E+02 -0.32477641780E+02  0.48459918715E+02  0.10566000000E+00 0.  1.
         23    2    1    0    0    0 -0.22287794581E+01  0.61929490249E+01 -0.34657913210E+02  0.89722655662E+02  0.82496447896E+02 0.  0.
         13    1    3    3    0    0  0.10382414831E+02  0.39875483383E+02 -0.21802714296E+01  0.41262736947E+02  0.10566000000E+00 0. -1.
         22    1    1    0    0    0  0.22287794581E+01 -0.61929490249E+01  0.34657913210E+02  0.35277344338E+02  0.00000000000E+00 0.  1.
</event>
<event>
 5    1  0.9034713E-005  0.9118800E+02  0.7818608E-02  0.1130116E+00
         25   -1    0    0    0    0  0.00000000000E+00  0.00000000000E+00  0.99999998245E-14  0.12500000000E+03  0.12500000000E+03 0.  0.
        -13    1    3    3    0    0  0.35918234803E+02 -0.47729400186E+02  0.83010602951E+01  0.60308656091E+02  0.10566000000E+00 0. -1.
         23    2    1    0    0    0  0.12514012780E+02 -0.20815379963E+02  0.14793682640E+02  0.96561758055E+02  0.92279139105E+02 0.  0.
         13    1    3    3    0    0 -0.23404222023E+02  0.26914020224E+02  0.64926223449E+01  0.36253101964E+02  0.10566000000E+00 0.  1.
         22    1    1    0    0    0 -0.12514012780E+02  0.20815379963E+02 -0.14793682640E+02  0.28438241945E+02  0.00000000000E+00 0. -1.
</event>
<event>
 5    1  0.9034713E-005  0.9118800E+02  0.7818608E-02  0.1130116E+00
         25   -1    0    0    0    0  0.00000000000E+00  0.00000000000E+00  0.99999998245E-14  0.12500000000E+03  0.12500000000E+03 0.  0.
        -13    1    3    3    0    0  0.21643139694E+02 -0.19586962628E+01 -0.43934533584E+02  0.49015470947E+02  0.10566000000E+00 0.  1.
         23    2    1    0    0    0  0.28599158442E+02 -0.80455791812E+01  0.13755494698E+01  0.95258861079E+02  0.90497045641E+02 0.  0.
         13    1    3    3    0    0  0.69560187485E+01 -0.60868829184E+01  0.45310083054E+02  0.46243390132E+02  0.10566000000E+00 0. -1.
         22    1    1    0    0    0 -0.28599158442E+02  0.80455791812E+01 -0.13755494698E+01  0.29741138921E+02  0.00000000000E+00 0. -1.
</event>
<event>
 5    1  0.9034713E-005  0.9118800E+02  0.7818608E-02  0.1130116E+00
         25   -1    0    0    0    0  0.00000000000E+00  0.00000000000E+00  0.99999998245E-14  0.12500000000E+03  0.12500000000E+03 0.  0.
        -13    1    3    3    0    0 -0.38020591985E+02  0.15710408567E+01  0.30032947181E+02  0.48477032342E+02  0.10566000000E+00 0. -1.
         23    2    1    0    0    0  0.55275721942E+01  0.16000756102E+02  0.25247171127E+02  0.94602666233E+02  0.89586084624E+02 0.  0.
         13    1    3    3    0    0  0.43548164179E+02  0.14429715246E+02 -0.47857760534E+01  0.46125633892E+02  0.10566000000E+00 0.  1.
         22    1    1    0    0    0 -0.55275721942E+01 -0.16000756102E+02 -0.25247171127E+02  0.30397333767E+02  0.00000000000E+00 0.  1.
</event>
<event>
 5    1  0.9034713E-005  0.9118800E+02  0.7818608E-02  0.1130116E+00
         25   -1    0    0    0    0  0.00000000000E+00  0.00000000000E+00  0.99999998245E-14  0.12500000000E+03  0.12500000000E+03 0.  0.
        -13    1    3    3    0    0 -0.32424258768E+02  0.41500810709E+02  0.21792567176E+02  0.56996289303E+02  0.10566000000E+00 0. -1.
         23    2    1    0    0    0 -0.69972701949E+01  0.28011241666E+02  0.26074171878E+02  0.86096865306E+02  0.76806356030E+02 0.  0.
         13    1    3    3    0    0  0.25426988573E+02 -0.13489569043E+02  0.42816047015E+01  0.29100576003E+02  0.10566000000E+00 0.  1.
         22    1    1    0    0    0  0.69972701949E+01 -0.28011241666E+02 -0.26074171878E+02  0.38903134694E+02  0.00000000000E+00 0. -1.
</event>
<event>
 5    1  0.9034713E-005  0.9118800E+02  0.7818608E-02  0.1130116E+00
         25   -1    0    0    0    0  0.00000000000E+00  0.00000000000E+00  0.99999998245E-14  0.12500000000E+03  0.12500000000E+03 0.  0.
        -13    1    3    3    0    0  0.36616430070E+02  0.13584059989E+01 -0.32198167511E+01  0.36782966192E+02  0.10566000000E+00 0.  1.
         23    2    1    0    0    0 -0.18317680383E+02 -0.16022430053E+02  0.14006076303E+02  0.96921078140E+02  0.92764592032E+02 0.  0.
         13    1    3    3    0    0 -0.54934110453E+02 -0.17380836052E+02  0.17225893054E+02  0.60138111948E+02  0.10566000000E+00 0. -1.
         22    1    1    0    0    0  0.18317680383E+02  0.16022430053E+02 -0.14006076303E+02  0.28078921860E+02  0.00000000000E+00 0. -1.
</event>
<event>
 5    1  0.9034713E-005  0.9118800E+02  0.7818608E-02  0.1130116E+00
         25   -1    0    0    0    0  0.00000000000E+00  0.00000000000E+00  0.99999998245E-14  0.12500000000E+03  0.12500000000E+03 0.  0.
        -13    1    3    3    0    0  0.88378555306E+01  0.43330790528E+02  0.22501516438E+02  0.49618489540E+02  0.10566000000E+00 0.  1.
         23    2    1    0    0    0 -0.54556867425E+00  0.21577244002E+02 -0.18235646914E+02  0.96743780821E+02  0.92525376007E+02 0.  0.
         13    1    3    3    0    0 -0.93834242049E+01 -0.21753546526E+02 -0.40737163352E+02  0.47125291281E+02  0.10566000000E+00 0. -1.
         22    1    1    0    0    0  0.54556867425E+00 -0.21577244002E+02  0.18235646914E+02  0.28256219179E+02  0.00000000000E+00 0.  1.
</event>
<event>
 5    1  0.9034713E-005  0.9118800E+02  0.7818608E-02  0.1130116E+00
         25   -1    0    0    0    0  0.00000000000E+00  0.00000000000E+00  0.99999998245E-14  0.12500000000E+03  0.12500000000E+03 0.  0.
        -13    1    3    3    0    0 -0.22225411942E+02 -0.44349256945E+02  0.12615573082E+02  0.51185831788E+02  0.10566000000E+00 0. -1.
         23    2    1    0    0    0  0.56200000267E+01 -0.24121522225E+02 -0.15633035493E+02  0.95711366822E+02  0.91119930341E+02 0.  0.
         13    1    3    3    0    0  0.27845411969E+02  0.20227734720E+02 -0.28248608574E+02  0.44525535034E+02  0.10566000000E+00 0.  1.
         22    1    1    0    0    0 -0.56200000267E+01  0.24121522225E+02  0.15633035493E+02  0.29288633178E+02  0.00000000000E+00 0. -1.
</event>
<event>
 5    1  0.9034713E-005  0.9118800E+02  0.7818608E-02  0.1130116E+00
         25   -1    0    0    0    0  0.00000000000E+00  0.00000000000E+00  0.99999998245E-14  0.12500000000E+03  0.12500000000E+03 0.  0.
        -13    1    3    3    0    0 -0.38969581659E+02 -0.18134523470E+02  0.10146563194E+02  0.44163934889E+02  0.10566000000E+00 0.  1.
         23    2    1    0    0    0  0.42288557793E+01  0.29063224841E+01  0.28828603102E+02  0.95718294305E+02  0.91129433095E+02 0.  0.
         13    1    3    3    0    0  0.43198437439E+02  0.21040845954E+02  0.18682039908E+02  0.51554359416E+02  0.10566000000E+00 0. -1.
         22    1    1    0    0    0 -0.42288557793E+01 -0.29063224841E+01 -0.28828603102E+02  0.29281705695E+02  0.00000000000E+00 0. -1.
</event>
<event>
 5    1  0.9034713E-005  0.9118800E+02  0.7818608E-02  0.1130116E+00
         25   -1    0    0    0    0  0.00000000000E+00  0.00000000000E+00  0.99999998245E-14  0.12500000000E+03  0.12500000000E+03 0.  0.
        -13    1    3    3    0    0 -0.10397907731E+02 -0.43828509544E+02  0.40410910117E+02  0.60515349743E+02  0.10566000000E+00 0. -1.
         23    2    1    0    0    0 -0.85524433903E+01 -0.25914598433E+02  0.37287457394E+02  0.78793234491E+02  0.63822477410E+02 0.  0.
         13    1    3    3    0    0  0.18454643407E+01  0.17913911111E+02 -0.31234527226E+01  0.18277884748E+02  0.10566000000E+00 0.  1.
         22    1    1    0    0    0  0.85524433903E+01  0.25914598433E+02 -0.37287457394E+02  0.46206765509E+02  0.00000000000E+00 0. -1.
</event>
<event>
 5    1  0.9034713E-005  0.9118800E+02  0.7818608E-02  0.1130116E+00
         25   -1    0    0    0    0  0.00000000000E+00  0.00000000000E+00  0.99999998245E-14  0.12500000000E+03  0.12500000000E+03 0.  0.
        -13    1    3    3    0    0  0.95406203253E+00  0.54927489534E+02  0.42841240624E+01  0.55102669843E+02  0.10566000000E+00 0. -1.
         23    2    1    0    0    0 -0.20807306903E+02  0.22030271176E+02  0.26755919095E+01  0.94579025974E+02  0.89553093154E+02 0.  0.
         13    1    3    3    0    0 -0.21761368936E+02 -0.32897218358E+02 -0.16085321529E+01  0.39476356131E+02  0.10566000000E+00 0.  1.
         22    1    1    0    0    0  0.20807306903E+02 -0.22030271176E+02 -0.26755919095E+01  0.30420974026E+02  0.00000000000E+00 0. -1.
</event>
<event>
 5    1  0.9034713E-005  0.9118800E+02  0.7818608E-02  0.1130116E+00
         25   -1    0    0    0    0  0.00000000000E+00  0.00000000000E+00  0.99999998245E-14  0.12500000000E+03  0.12500000000E+03 0.  0.
        -13    1    3    3    0    0 -0.22310156059E+02 -0.16086103628E+02  0.47929990899E+02  0.55261206872E+02  0.10566000000E+00 0. -1.
         23    2    1    0    0    0  0.11678745815E+01  0.10903922042E+02  0.24862431084E+02  0.97826484836E+02  0.93976705673E+02 0.  0.
         13    1    3    3    0    0  0.23478030640E+02  0.26990025670E+02 -0.23067559815E+02  0.42565277965E+02  0.10566000000E+00 0.  1.
         22    1    1    0    0    0 -0.11678745815E+01 -0.10903922042E+02 -0.24862431084E+02  0.27173515164E+02  0.00000000000E+00 0. -1.
</event>
<event>
 5    1  0.9034713E-005  0.9118800E+02  0.7818608E-02  0.1130116E+00
         25   -1    0    0    0    0  0.00000000000E+00  0.00000000000E+00  0.99999998245E-14  0.12500000000E+03  0.12500000000E+03 0.  0.
        -13    1    3    3    0    0  0.18938907443E+02  0.21015051631E+02  0.33802363831E+02  0.44078629457E+02  0.10566000000E+00 0. -1.
         23    2    1    0    0    0  0.20872809168E+02  0.14974604967E+02 -0.16296936995E+02  0.94577917364E+02  0.89551545721E+02 0.  0.
         13    1    3    3    0    0  0.19339017254E+01 -0.60404466638E+01 -0.50099300826E+02  0.50499287907E+02  0.10566000000E+00 0.  1.
         22    1    1    0    0    0 -0.20872809168E+02 -0.14974604967E+02  0.16296936995E+02  0.30422082636E+02  0.00000000000E+00 0.  1.
</event>
<event>
 5    1  0.9034713E-005  0.9118800E+02  0.7818608E-02  0.1130116E+00
         25   -1    0    0    0    0  0.00000000000E+00  0.00000000000E+00  0.99999998245E-14  0.12500000000E+03  0.12500000000E+03 0.  0.
        -13    1    3    3    0    0  0.72168264599E+01  0.16469473531E+02  0.31987154627E+02  0.36694895663E+02  0.10566000000E+00 0. -1.
         23    2    1    0    0    0  0.21412576431E+02 -0.16731546528E+02 -0.13406520244E+02  0.94698550139E+02  0.89719772262E+02 0.  0.
         13    1    3    3    0    0  0.14195749971E+02 -0.33201020059E+02 -0.45393674872E+02  0.58003654476E+02  0.10566000000E+00 0.  1.
         22    1    1    0    0    0 -0.21412576431E+02  0.16731546528E+02  0.13406520244E+02  0.30301449861E+02  0.00000000000E+00 0.  1.
</event>
<event>
 5    1  0.9034713E-005  0.9118800E+02  0.7818608E-02  0.1130116E+00
         25   -1    0    0    0    0  0.00000000000E+00  0.00000000000E+00  0.99999998245E-14  0.12500000000E+03  0.12500000000E+03 0.  0.
        -13    1    3    3    0    0 -0.22414149039E+02  0.31767242428E+02  0.43024707602E+02  0.57988691974E+02  0.10566000000E+00 0.  1.
         23    2    1    0    0    0 -0.25264012906E+02  0.17689014442E+02  0.12504127169E+02  0.91720505168E+02  0.85470031543E+02 0.  0.
         13    1    3    3    0    0 -0.28498638674E+01 -0.14078227986E+02 -0.30520580433E+02  0.33731813193E+02  0.10566000000E+00 0. -1.
         22    1    1    0    0    0  0.25264012906E+02 -0.17689014442E+02 -0.12504127169E+02  0.33279494832E+02  0.00000000000E+00 0.  1.
</event>
<event>
 5    1  0.9034713E-005  0.9118800E+02  0.7818608E-02  0.1130116E+00
         25   -1    0    0    0    0  0.00000000000E+00  0.00000000000E+00  0.99999998245E-14  0.12500000000E+03  0.12500000000E+03 0.  0.
        -13    1    3    3    0    0 -0.12384744435E+02  0.20066553626E+02 -0.40127141578E+02  0.46542959988E+02  0.10566000000E+00 0. -1.
         23    2    1    0    0    0  0.43085397690E+01 -0.20599729656E+02 -0.23273038847E+02  0.93622512624E+02  0.88207869014E+02 0.  0.
         13    1    3    3    0    0  0.16693284205E+02 -0.40666283282E+02  0.16854102731E+02  0.47079552636E+02  0.10566000000E+00 0.  1.
         22    1    1    0    0    0 -0.43085397690E+01  0.20599729656E+02  0.23273038847E+02  0.31377487376E+02  0.00000000000E+00 0. -1.
</event>
<event>
 5    1  0.9034713E-005  0.9118800E+02  0.7818608E-02  0.1130116E+00
         25   -1    0    0    0    0  0.00000000000E+00  0.00000000000E+00  0.99999998245E-14  0.12500000000E+03  0.12500000000E+03 0.  0.
        -13    1    3    3    0    0 -0.15962280187E+02 -0.30312544819E+02  0.17937332138E+02  0.38670451387E+02  0.10566000000E+00 0.  1.
         23    2    1    0    0    0 -0.18757630280E+02  0.13920448410E+02 -0.17822062705E+02  0.95618824109E+02  0.90992889982E+02 0.  0.
         13    1    3    3    0    0 -0.27953500935E+01  0.44232993229E+02 -0.35759394843E+02  0.56948372722E+02  0.10566000000E+00 0. -1.
         22    1    1    0    0    0  0.18757630280E+02 -0.13920448410E+02  0.17822062705E+02  0.29381175891E+02  0.00000000000E+00 0. -1.
</event>
<event>
 5    1  0.9034713E-005  0.9118800E+02  0.7818608E-02  0.1130116E+00
         25   -1    0    0    0    0  0.00000000000E+00  0.00000000000E+00  0.99999998245E-14  0.12500000000E+03  0.12500000000E+03 0.  0.
        -13    1    3    3    0    0  0.34336796738E+02  0.10155832122E+02 -0.40548642856E+02  0.54095842149E+02  0.10566000000E+00 0. -1.
         23    2    1    0    0    0  0.30229517931E+01 -0.12252145607E+02 -0.27483584870E+02  0.94757633247E+02  0.89802050710E+02 0.  0.
         13    1    3    3    0    0 -0.31313844945E+02 -0.22407977728E+02  0.13065057986E+02  0.40661791098E+02  0.10566000000E+00 0.  1.
         22    1    1    0    0    0 -0.30229517931E+01  0.12252145607E+02  0.27483584870E+02  0.30242366753E+02  0.00000000000E+00 0.  1.
</event>
<event>
 5    1  0.9034713E-005  0.9118800E+02  0.7818608E-02  0.1130116E+00
         25   -1    0    0    0    0  0.00000000000E+00  0.00000000000E+00  0.99999998245E-14  0.12500000000E+03  0.12500000000E+03 0.  0.
        -13    1    3    3    0    0  0.96591831947E+01  0.42606956063E+02 -0.10843306944E+02  0.45013786715E+02  0.10566000000E+00 0. -1.
         23    2    1    0    0    0  0.20362705709E+02 -0.86504677672E+01 -0.16096857697E+02  0.97639824487E+02  0.93728096757E+02 0.  0.
         13    1    3    3    0    0  0.10703522515E+02 -0.51257423830E+02 -0.52535507538E+01  0.52626037771E+02  0.10566000000E+00 0.  1.
         22    1    1    0    0    0 -0.20362705709E+02  0.86504677672E+01  0.16096857697E+02  0.27360175513E+02  0.00000000000E+00 0.  1.
</event>
<event>
 5    1  0.9034713E-005  0.9118800E+02  0.7818608E-02  0.1130116E+00
         25   -1    0    0    0    0  0.00000000000E+00  0.00000000000E+00  0.99999998245E-14  0.12500000000E+03  0.12500000000E+03 0.  0.
        -13    1    3    3    0    0  0.20797246500E+02 -0.75117010219E+01  0.45437741582E+02  0.50532669020E+02  0.10566000000E+00 0.  1.
         23    2    1    0    0    0 -0.17481067961E+02  0.37655240750E+01  0.21375517896E+02  0.97131026679E+02  0.93047066960E+02 0.  0.
         13    1    3    3    0    0 -0.38278314461E+02  0.11277225097E+02 -0.24062223685E+02  0.46598357659E+02  0.10566000000E+00 0. -1.
         22    1    1    0    0    0  0.17481067961E+02 -0.37655240750E+01 -0.21375517896E+02  0.27868973321E+02  0.00000000000E+00 0.  1.
</event>
<event>
 5    1  0.9034713E-005  0.9118800E+02  0.7818608E-02  0.1130116E+00
         25   -1    0    0    0    0  0.00000000000E+00  0.00000000000E+00  0.99999998245E-14  0.12500000000E+03  0.12500000000E+03 0.  0.
        -13    1    3    3    0    0  0.19982229137E+02 -0.24946099647E+02 -0.95149917474E+01  0.33348817084E+02  0.10566000000E+00 0.  1.
         23    2    1    0    0    0  0.20942661028E+02  0.25508001101E+02  0.14156345164E+02  0.89088229235E+02  0.81529487357E+02 0.  0.
         13    1    3    3    0    0  0.96043189090E+00  0.50454100748E+02  0.23671336911E+02  0.55739412151E+02  0.10566000000E+00 0. -1.
         22    1    1    0    0    0 -0.20942661028E+02 -0.25508001101E+02 -0.14156345164E+02  0.35911770765E+02  0.00000000000E+00 0. -1.
</event>
<event>
 5    1  0.9034713E-005  0.9118800E+02  0.7818608E-02  0.1130116E+00
         25   -1    0    0    0    0  0.00000000000E+00  0.00000000000E+00  0.99999998245E-14  0.12500000000E+03  0.12500000000E+03 0.  0.
        -13    1    3    3    0    0  0.81728168590E+01  0.28820947337E+02 -0.26823348474E+02  0.40211256237E+02  0.10566000000E+00 0.  1.
         23    2    1    0    0    0 -0.10609388324E+02  0.15752697034E+02  0.23080007725E+02  0.95110313802E+02  0.90291630013E+02 0.  0.
         13    1    3    3    0    0 -0.18782205183E+02 -0.13068250302E+02  0.49903356199E+02  0.54899057564E+02  0.10566000000E+00 0. -1.
         22    1    1    0    0    0  0.10609388324E+02 -0.15752697034E+02 -0.23080007725E+02  0.29889686198E+02  0.00000000000E+00 0. -1.
</event>
<event>
 5    1  0.9034713E-005  0.9118800E+02  0.7818608E-02  0.1130116E+00
         25   -1    0    0    0    0  0.00000000000E+00  0.00000000000E+00  0.99999998245E-14  0.12500000000E+03  0.12500000000E+03 0.  0.
        -13    1    3    3    0    0 -0.95321328358E+01 -0.54530495948E+02  0.22859691774E+02  0.59891679028E+02  0.10566000000E+00 0. -1.
         23    2    1    0    0    0  0.79571008791E+01 -0.27852427705E+02  0.90503399472E+01  0.94652317442E+02  0.89655336487E+02 0.  0.
         13    1    3    3    0    0  0.17489233715E+02  0.26678068243E+02 -0.13809351827E+02  0.34760638415E+02  0.10566000000E+00 0.  1.
         22    1    1    0    0    0 -0.79571008791E+01  0.27852427705E+02 -0.90503399472E+01  0.30347682558E+02  0.00000000000E+00 0. -1.
</event>
<event>
 5    1  0.9034713E-005  0.9118800E+02  0.7818608E-02  0.1130116E+00
         25   -1    0    0    0    0  0.00000000000E+00  0.00000000000E+00  0.99999998245E-14  0.12500000000E+03  0.12500000000E+03 0.  0.
        -13    1    3    3    0    0  0.59790678620E+02 -0.41365210256E+01 -0.75884579592E+01  0.60412183492E+02  0.10566000000E+00 0. -1.
         23    2    1    0    0    0  0.28855277579E+02  0.28786146885E+01 -0.14038165615E+02  0.92782247743E+02  0.87008976179E+02 0.  0.
         13    1    3    3    0    0 -0.30935401042E+02  0.70151357141E+01 -0.64497076558E+01  0.32370064251E+02  0.10566000000E+00 0.  1.
         22    1    1    0    0    0 -0.28855277579E+02 -0.28786146885E+01  0.14038165615E+02  0.32217752257E+02  0.00000000000E+00 0. -1.
</event>
<event>
 5    1  0.9034713E-005  0.9118800E+02  0.7818608E-02  0.1130116E+00
         25   -1    0    0    0    0  0.00000000000E+00  0.00000000000E+00  0.99999998245E-14  0.12500000000E+03  0.12500000000E+03 0.  0.
        -13    1    3    3    0    0 -0.13378039498E+02 -0.30032167814E+02  0.79595043121E+01  0.33827029390E+02  0.10566000000E+00 0.  1.
         23    2    1    0    0    0 -0.16215472658E+01  0.28243592391E+02 -0.84043333165E+01  0.95487922046E+02  0.90812887364E+02 0.  0.
         13    1    3    3    0    0  0.11756492232E+02  0.58275760205E+02 -0.16363837629E+02  0.61660892656E+02  0.10566000000E+00 0. -1.
         22    1    1    0    0    0  0.16215472658E+01 -0.28243592391E+02  0.84043333165E+01  0.29512077954E+02  0.00000000000E+00 0. -1.
</event>
<event>
 5    1  0.9034713E-005  0.9118800E+02  0.7818608E-02  0.1130116E+00
         25   -1    0    0    0    0  0.00000000000E+00  0.00000000000E+00  0.99999998245E-14  0.12500000000E+03  0.12500000000E+03 0.  0.
        -13    1    3    3    0    0 -0.12951862044E+02  0.24218617833E+02  0.35983667160E+02  0.45267291133E+02  0.10566000000E+00 0. -1.
         23    2    1    0    0    0  0.74900638401E+01  0.29271262780E+02 -0.77509689176E+01  0.93807286103E+02  0.88469325339E+02 0.  0.
         13    1    3    3    0    0  0.20441925885E+02  0.50526449470E+01 -0.43734636078E+02  0.48539994971E+02  0.10566000000E+00 0.  1.
         22    1    1    0    0    0 -0.74900638401E+01 -0.29271262780E+02  0.77509689176E+01  0.31192713897E+02  0.00000000000E+00 0.  1.
</event>
<event>
 5    1  0.9034713E-005  0.9118800E+02  0.7818608E-02  0.1130116E+00
         25   -1    0    0    0    0  0.00000000000E+00  0.00000000000E+00  0.99999998245E-14  0.12500000000E+03  0.12500000000E+03 0.  0.
        -13    1    3    3    0    0 -0.56709072307E+01 -0.31459083821E+02 -0.40362009730E+02  0.51487242470E+02  0.10566000000E+00 0.  1.
         23    2    1    0    0    0 -0.10164958340E+02  0.10379323273E+02 -0.24617322678E+02  0.96415575824E+02  0.92080909834E+02 0.  0.
         13    1    3    3    0    0 -0.44940511096E+01  0.41838407094E+02  0.15744687052E+02  0.44928333354E+02  0.10566000000E+00 0. -1.
         22    1    1    0    0    0  0.10164958340E+02 -0.10379323273E+02  0.24617322678E+02  0.28584424176E+02  0.00000000000E+00 0.  1.
</event>
<event>
 5    1  0.9034713E-005  0.9118800E+02  0.7818608E-02  0.1130116E+00
         25   -1    0    0    0    0  0.00000000000E+00  0.00000000000E+00  0.99999998245E-14  0.12500000000E+03  0.12500000000E+03 0.  0.
        -13    1    3    3    0    0  0.40530208846E+00 -0.11059333757E+02  0.31117688154E+02  0.33027182941E+02  0.10566000000E+00 0. -1.
         23    2    1    0    0    0 -0.14571046484E+02  0.15420028416E+02 -0.22124351520E+02  0.94347437266E+02  0.89229251462E+02 0.  0.
         13    1    3    3    0    0 -0.14976348573E+02  0.26479362174E+02 -0.53242039674E+02  0.61320254324E+02  0.10566000000E+00 0.  1.
         22    1    1    0    0    0  0.14571046484E+02 -0.15420028416E+02  0.22124351520E+02  0.30652562734E+02  0.00000000000E+00 0.  1.
</event>
<event>
 5    1  0.9034713E-005  0.9118800E+02  0.7818608E-02  0.1130116E+00
         25   -1    0    0    0    0  0.00000000000E+00  0.00000000000E+00  0.99999998245E-14  0.12500000000E+03  0.12500000000E+03 0.  0.
        -13    1    3    3    0    0  0.52136347296E-01  0.11745808733E+02 -0.52987919181E+02  0.54274280135E+02  0.10566000000E+00 0.  1.
         23    2    1    0    0    0 -0.20265050802E+02  0.10324597894E+02 -0.13913689595E+02  0.98338035260E+02  0.94654681949E+02 0.  0.
         13    1    3    3    0    0 -0.20317187149E+02 -0.14212108392E+01  0.39074229586E+02  0.44063755124E+02  0.10566000000E+00 0. -1.
         22    1    1    0    0    0  0.20265050802E+02 -0.10324597894E+02  0.13913689595E+02  0.26661964740E+02  0.00000000000E+00 0.  1.
</event>
<event>
 5    1  0.9034713E-005  0.9118800E+02  0.7818608E-02  0.1130116E+00
         25   -1    0    0    0    0  0.00000000000E+00  0.00000000000E+00  0.99999998245E-14  0.12500000000E+03  0.12500000000E+03 0.  0.
        -13    1    3    3    0    0  0.90975412649E+01 -0.99535917471E+01  0.36792086028E+02  0.39185558616E+02  0.10566000000E+00 0. -1.
         23    2    1    0    0    0 -0.52841235156E+01  0.28432614422E+02 -0.25063861219E+01  0.95972125542E+02  0.91476944557E+02 0.  0.
         13    1    3    3    0    0 -0.14381664781E+02  0.38386206169E+02 -0.39298472150E+02  0.56786566926E+02  0.10566000000E+00 0.  1.
         22    1    1    0    0    0  0.52841235156E+01 -0.28432614422E+02  0.25063861219E+01  0.29027874458E+02  0.00000000000E+00 0.  1.
</event>
<event>
 5    1  0.9034713E-005  0.9118800E+02  0.7818608E-02  0.1130116E+00
         25   -1    0    0    0    0  0.00000000000E+00  0.00000000000E+00  0.99999998245E-14  0.12500000000E+03  0.12500000000E+03 0.  0.
        -13    1    3    3    0    0  0.59790635272E+02 -0.19974150583E+01  0.65318961546E+01  0.60179619179E+02  0.10566000000E+00 0.  1.
         23    2    1    0    0    0  0.25151213963E+02 -0.37744457411E+01  0.14438461011E+02  0.95754501870E+02  0.91179084595E+02 0.  0.
         13    1    3    3    0    0 -0.34639421309E+02 -0.17770306828E+01  0.79065648562E+01  0.35574882691E+02  0.10566000000E+00 0. -1.
         22    1    1    0    0    0 -0.25151213963E+02  0.37744457411E+01 -0.14438461011E+02  0.29245498130E+02  0.00000000000E+00 0.  1.
</event>
<event>
 5    1  0.9034713E-005  0.9118800E+02  0.7818608E-02  0.1130116E+00
         25   -1    0    0    0    0  0.00000000000E+00  0.00000000000E+00  0.99999998245E-14  0.12500000000E+03  0.12500000000E+03 0.  0.
        -13    1    3    3    0    0 -0.61691585463E+01  0.34308659750E+02  0.13087233438E+02  0.37234788762E+02  0.10566000000E+00 0. -1.
         23    2    1    0    0    0  0.26522204077E+01 -0.23594647232E+02  0.16784997435E+02  0.95922899216E+02  0.91409653779E+02 0.  0.
         13    1    3    3    0    0  0.88213789540E+01 -0.57903306982E+02  0.36977639976E+01  0.58688110455E+02  0.10566000000E+00 0.  1.
         22    1    1    0    0    0 -0.26522204077E+01  0.23594647232E+02 -0.16784997435E+02  0.29077100784E+02  0.00000000000E+00 0.  1.
</event>
<event>
 5    1  0.9034713E-005  0.9118800E+02  0.7818608E-02  0.1130116E+00
         25   -1    0    0    0    0  0.00000000000E+00  0.00000000000E+00  0.99999998245E-14  0.12500000000E+03  0.12500000000E+03 0.  0.
        -13    1    3    3    0    0 -0.93824409634E+00 -0.30709358249E+02 -0.11316912183E+02  0.32741848626E+02  0.10566000000E+00 0.  1.
         23    2    1    0    0    0 -0.19802189484E+02  0.24948636107E+02  0.22937968154E+01  0.93065337707E+02  0.87414726601E+02 0.  0.
         13    1    3    3    0    0 -0.18863945388E+02  0.55657994356E+02  0.13610708998E+02  0.60323489080E+02  0.10566000000E+00 0. -1.
         22    1    1    0    0    0  0.19802189484E+02 -0.24948636107E+02 -0.22937968154E+01  0.31934662293E+02  0.00000000000E+00 0. -1.
</event>
<event>
 5    1  0.9034713E-005  0.9118800E+02  0.7818608E-02  0.1130116E+00
         25   -1    0    0    0    0  0.00000000000E+00  0.00000000000E+00  0.99999998245E-14  0.12500000000E+03  0.12500000000E+03 0.  0.
        -13    1    3    3    0    0 -0.92556935812E+01 -0.25511552775E+02  0.19742887581E+02  0.33560392768E+02  0.10566000000E+00 0.  1.
         23    2    1    0    0    0  0.30279302547E+02  0.82416013121E+01 -0.81823645609E+01  0.92569902178E+02  0.86703376777E+02 0.  0.
         13    1    3    3    0    0  0.39534996128E+02  0.33753154087E+02 -0.27925252141E+02  0.59009509411E+02  0.10566000000E+00 0. -1.
         22    1    1    0    0    0 -0.30279302547E+02 -0.82416013121E+01  0.81823645609E+01  0.32430097822E+02  0.00000000000E+00 0. -1.
</event>
<event>
 5    1  0.9034713E-005  0.9118800E+02  0.7818608E-02  0.1130116E+00
         25   -1    0    0    0    0  0.00000000000E+00  0.00000000000E+00  0.99999998245E-14  0.12500000000E+03  0.12500000000E+03 0.  0.
        -13    1    3    3    0    0 -0.29238916879E+02  0.79651662014E+01  0.30730639243E+02  0.43159488936E+02  0.10566000000E+00 0.  1.
         23    2    1    0    0    0 -0.11841246879E+02  0.19469028870E+02 -0.17866647229E+02  0.96043562098E+02  0.91574508050E+02 0.  0.
         13    1    3    3    0    0  0.17397670000E+02  0.11503862668E+02 -0.48597286472E+02  0.52884073162E+02  0.10566000000E+00 0. -1.
         22    1    1    0    0    0  0.11841246879E+02 -0.19469028870E+02  0.17866647229E+02  0.28956437902E+02  0.00000000000E+00 0.  1.
</event>
<event>
 5    1  0.9034713E-005  0.9118800E+02  0.7818608E-02  0.1130116E+00
         25   -1    0    0    0    0  0.00000000000E+00  0.00000000000E+00  0.99999998245E-14  0.12500000000E+03  0.12500000000E+03 0.  0.
        -13    1    3    3    0    0  0.17237970068E+02  0.33350203559E+02 -0.15556847490E+02  0.40637548614E+02  0.10566000000E+00 0. -1.
         23    2    1    0    0    0 -0.57056573798E+01 -0.16396053237E+02 -0.23277825796E+02  0.95961366050E+02  0.91462240911E+02 0.  0.
         13    1    3    3    0    0 -0.22943627448E+02 -0.49746256796E+02 -0.77209783059E+01  0.55323817436E+02  0.10566000000E+00 0.  1.
         22    1    1    0    0    0  0.57056573798E+01  0.16396053237E+02  0.23277825796E+02  0.29038633950E+02  0.00000000000E+00 0.  1.
</event>
<event>
 5    1  0.9034713E-005  0.9118800E+02  0.7818608E-02  0.1130116E+00
         25   -1    0    0    0    0  0.00000000000E+00  0.00000000000E+00  0.99999998245E-14  0.12500000000E+03  0.12500000000E+03 0.  0.
        -13    1    3    3    0    0 -0.97827267706E+01 -0.73647944962E+00  0.59217670554E+02  0.60024893294E+02  0.10566000000E+00 0.  1.
         23    2    1    0    0    0 -0.15794176230E+02 -0.62678570275E+01  0.28422374152E+02  0.91885450525E+02  0.85710924807E+02 0.  0.
         13    1    3    3    0    0 -0.60114494595E+01 -0.55313775779E+01 -0.30795296403E+02  0.31860557231E+02  0.10566000000E+00 0. -1.
         22    1    1    0    0    0  0.15794176230E+02  0.62678570275E+01 -0.28422374152E+02  0.33114549475E+02  0.00000000000E+00 0.  1.
</event>
<event>
 5    1  0.9034713E-005  0.9118800E+02  0.7818608E-02  0.1130116E+00
         25   -1    0    0    0    0  0.00000000000E+00  0.00000000000E+00  0.99999998245E-14  0.12500000000E+03  0.12500000000E+03 0.  0.
        -13    1    3    3    0    0  0.16606461070E+02 -0.23385907234E+01  0.22731644400E+02  0.28248581859E+02  0.10566000000E+00 0. -1.
         23    2    1    0    0    0 -0.29694101739E+02  0.12169644868E+02  0.34195156711E+02  0.78104918416E+02  0.62459823919E+02 0.  0.
         13    1    3    3    0    0 -0.46300562809E+02  0.14508235591E+02  0.11463512311E+02  0.49856336557E+02  0.10566000000E+00 0.  1.
         22    1    1    0    0    0  0.29694101739E+02 -0.12169644868E+02 -0.34195156711E+02  0.46895081584E+02  0.00000000000E+00 0.  1.
</event>
<event>
 5    1  0.9034713E-005  0.9118800E+02  0.7818608E-02  0.1130116E+00
         25   -1    0    0    0    0  0.00000000000E+00  0.00000000000E+00  0.99999998245E-14  0.12500000000E+03  0.12500000000E+03 0.  0.
        -13    1    3    3    0    0 -0.25016431658E+02 -0.33448702036E+02  0.18938171461E+02  0.45861781726E+02  0.10566000000E+00 0. -1.
         23    2    1    0    0    0 -0.64360533643E+01  0.12652892689E+02  0.25317148427E+02  0.95974554598E+02  0.91480263716E+02 0.  0.
         13    1    3    3    0    0  0.18580378293E+02  0.46101594725E+02  0.63789769656E+01  0.50112772872E+02  0.10566000000E+00 0.  1.
         22    1    1    0    0    0  0.64360533643E+01 -0.12652892689E+02 -0.25317148427E+02  0.29025445402E+02  0.00000000000E+00 0.  1.
</event>
<event>
 5    1  0.9034713E-005  0.9118800E+02  0.7818608E-02  0.1130116E+00
         25   -1    0    0    0    0  0.00000000000E+00  0.00000000000E+00  0.99999998245E-14  0.12500000000E+03  0.12500000000E+03 0.  0.
        -13    1    3    3    0    0  0.22806045068E+02  0.13654290483E+02 -0.21560296176E+02  0.34225909418E+02  0.10566000000E+00 0.  1.
         23    2    1    0    0    0 -0.99687090235E+01 -0.15868482954E+01  0.27810726316E+02  0.95414027896E+02  0.90711118250E+02 0.  0.
         13    1    3    3    0    0 -0.32774754092E+02 -0.15241138779E+02  0.49371022492E+02  0.61188118478E+02  0.10566000000E+00 0. -1.
         22    1    1    0    0    0  0.99687090235E+01  0.15868482954E+01 -0.27810726316E+02  0.29585972104E+02  0.00000000000E+00 0. -1.
</event>
<event>
 5    1  0.9034713E-005  0.9118800E+02  0.7818608E-02  0.1130116E+00
         25   -1    0    0    0    0  0.00000000000E+00  0.00000000000E+00  0.99999998245E-14  0.12500000000E+03  0.12500000000E+03 0.  0.
        -13    1    3    3    0    0  0.24770008095E+01 -0.24713895125E+02 -0.43088866302E+02  0.49735035021E+02  0.10566000000E+00 0.  1.
         23    2    1    0    0    0 -0.24509165499E+02  0.86831270717E+00 -0.16922580197E+02  0.95203576038E+02  0.90420650348E+02 0.  0.
         13    1    3    3    0    0 -0.26986166308E+02  0.25582207833E+02  0.26166286105E+02  0.45468541017E+02  0.10566000000E+00 0. -1.
         22    1    1    0    0    0  0.24509165499E+02 -0.86831270717E+00  0.16922580197E+02  0.29796423962E+02  0.00000000000E+00 0. -1.
</event>
<event>
 5    1  0.9034713E-005  0.9118800E+02  0.7818608E-02  0.1130116E+00
         25   -1    0    0    0    0  0.00000000000E+00  0.00000000000E+00  0.99999998245E-14  0.12500000000E+03  0.12500000000E+03 0.  0.
        -13    1    3    3    0    0 -0.33329704768E+02 -0.46925641837E+01 -0.15316794161E+01  0.33693420492E+02  0.10566000000E+00 0.  1.
         23    2    1    0    0    0  0.28457069475E+02 -0.38934987494E+01  0.50580817530E+01  0.95835838318E+02  0.91290522944E+02 0.  0.
         13    1    3    3    0    0  0.61786774243E+02  0.79906543431E+00  0.65897611692E+01  0.62142417826E+02  0.10566000000E+00 0. -1.
         22    1    1    0    0    0 -0.28457069475E+02  0.38934987494E+01 -0.50580817530E+01  0.29164161682E+02  0.00000000000E+00 0. -1.
</event>
<event>
 5    1  0.9034713E-005  0.9118800E+02  0.7818608E-02  0.1130116E+00
         25   -1    0    0    0    0  0.00000000000E+00  0.00000000000E+00  0.99999998245E-14  0.12500000000E+03  0.12500000000E+03 0.  0.
        -13    1    3    3    0    0 -0.44208081537E+02 -0.11100900903E+02 -0.40795590822E+02  0.61170874349E+02  0.10566000000E+00 0. -1.
         23    2    1    0    0    0 -0.18901483906E+02  0.21569356660E+01 -0.24224731976E+02  0.94198115242E+02  0.89019822571E+02 0.  0.
         13    1    3    3    0    0  0.25306597631E+02  0.13257836569E+02  0.16570858846E+02  0.33027240894E+02  0.10566000000E+00 0.  1.
         22    1    1    0    0    0  0.18901483906E+02 -0.21569356660E+01  0.24224731976E+02  0.30801884758E+02  0.00000000000E+00 0. -1.
</event>
<event>
 5    1  0.9034713E-005  0.9118800E+02  0.7818608E-02  0.1130116E+00
         25   -1    0    0    0    0  0.00000000000E+00  0.00000000000E+00  0.99999998245E-14  0.12500000000E+03  0.12500000000E+03 0.  0.
        -13    1    3    3    0    0  0.11074435990E+02 -0.27441616837E+02 -0.39908152183E+02  0.49682564767E+02  0.10566000000E+00 0.  1.
         23    2    1    0    0    0  0.50367082013E+01  0.15738771026E+02 -0.23506661915E+02  0.96266039304E+02  0.91877689489E+02 0.  0.
         13    1    3    3    0    0 -0.60377277890E+01  0.43180387863E+02  0.16401490268E+02  0.46583474537E+02  0.10566000000E+00 0. -1.
         22    1    1    0    0    0 -0.50367082013E+01 -0.15738771026E+02  0.23506661915E+02  0.28733960696E+02  0.00000000000E+00 0.  1.
</event>
<event>
 5    1  0.9034713E-005  0.9118800E+02  0.7818608E-02  0.1130116E+00
         25   -1    0    0    0    0  0.00000000000E+00  0.00000000000E+00  0.99999998245E-14  0.12500000000E+03  0.12500000000E+03 0.  0.
        -13    1    3    3    0    0 -0.50302995459E+02 -0.36090287652E+02  0.16065384544E+01  0.61931351873E+02  0.10566000000E+00 0. -1.
         23    2    1    0    0    0 -0.22085381595E+02 -0.18821107452E+02  0.61893963903E+01  0.95330035497E+02  0.90595302717E+02 0.  0.
         13    1    3    3    0    0  0.28217613864E+02  0.17269180199E+02  0.45828579359E+01  0.33398683624E+02  0.10566000000E+00 0.  1.
         22    1    1    0    0    0  0.22085381595E+02  0.18821107452E+02 -0.61893963903E+01  0.29669964503E+02  0.00000000000E+00 0. -1.
</event>
<event>
 5    1  0.9034713E-005  0.9118800E+02  0.7818608E-02  0.1130116E+00
         25   -1    0    0    0    0  0.00000000000E+00  0.00000000000E+00  0.99999998245E-14  0.12500000000E+03  0.12500000000E+03 0.  0.
        -13    1    3    3    0    0 -0.33592768717E+02 -0.83362338482E+01 -0.14555301595E+01  0.34642410957E+02  0.10566000000E+00 0.  1.
         23    2    1    0    0    0  0.12408294639E+02  0.20413342678E+02 -0.21879258075E+02  0.92605984055E+02  0.86755380316E+02 0.  0.
         13    1    3    3    0    0  0.46001063356E+02  0.28749576526E+02 -0.20423727916E+02  0.57963573098E+02  0.10566000000E+00 0. -1.
         22    1    1    0    0    0 -0.12408294639E+02 -0.20413342678E+02  0.21879258075E+02  0.32394015945E+02  0.00000000000E+00 0. -1.
</event>
<event>
 5    1  0.9034713E-005  0.9118800E+02  0.7818608E-02  0.1130116E+00
         25   -1    0    0    0    0  0.00000000000E+00  0.00000000000E+00  0.99999998245E-14  0.12500000000E+03  0.12500000000E+03 0.  0.
        -13    1    3    3    0    0  0.21215232290E+02  0.47428693270E+02  0.15252512856E+02  0.54149952344E+02  0.10566000000E+00 0. -1.
         23    2    1    0    0    0  0.11752482653E+02  0.21409710044E+02 -0.15922881062E+02  0.95844645878E+02  0.91302581943E+02 0.  0.
         13    1    3    3    0    0 -0.94627496377E+01 -0.26018983226E+02 -0.31175393919E+02  0.41694693533E+02  0.10566000000E+00 0.  1.
         22    1    1    0    0    0 -0.11752482653E+02 -0.21409710044E+02  0.15922881062E+02  0.29155354122E+02  0.00000000000E+00 0. -1.
</event>
<event>
 5    1  0.9034713E-005  0.9118800E+02  0.7818608E-02  0.1130116E+00
         25   -1    0    0    0    0  0.00000000000E+00  0.00000000000E+00  0.99999998245E-14  0.12500000000E+03  0.12500000000E+03 0.  0.
        -13    1    3    3    0    0 -0.20545388575E+02 -0.33929176980E+02  0.23423592041E+01  0.39734114473E+02  0.10566000000E+00 0.  1.
         23    2    1    0    0    0 -0.19070424214E+02  0.16374423743E+02 -0.18071592140E+02  0.94042201708E+02  0.88800621771E+02 0.  0.
         13    1    3    3    0    0  0.14749643610E+01  0.50303600723E+02 -0.20413951344E+02  0.54308087235E+02  0.10566000000E+00 0. -1.
         22    1    1    0    0    0  0.19070424214E+02 -0.16374423743E+02  0.18071592140E+02  0.30957798292E+02  0.00000000000E+00 0. -1.
</event>
<event>
 5    1  0.9034713E-005  0.9118800E+02  0.7818608E-02  0.1130116E+00
         25   -1    0    0    0    0  0.00000000000E+00  0.00000000000E+00  0.99999998245E-14  0.12500000000E+03  0.12500000000E+03 0.  0.
        -13    1    3    3    0    0  0.29722881555E+02 -0.24971502013E+02 -0.86070165201E+01  0.39763268203E+02  0.10566000000E+00 0.  1.
         23    2    1    0    0    0 -0.85243728044E+00  0.17676217123E+02 -0.24667100892E+02  0.94641456433E+02  0.89640192482E+02 0.  0.
         13    1    3    3    0    0 -0.30575318835E+02  0.42647719136E+02 -0.16060084372E+02  0.54878188231E+02  0.10566000000E+00 0. -1.
         22    1    1    0    0    0  0.85243728044E+00 -0.17676217123E+02  0.24667100892E+02  0.30358543567E+02  0.00000000000E+00 0. -1.
</event>
<event>
 5    1  0.9034713E-005  0.9118800E+02  0.7818608E-02  0.1130116E+00
         25   -1    0    0    0    0  0.00000000000E+00  0.00000000000E+00  0.99999998245E-14  0.12500000000E+03  0.12500000000E+03 0.  0.
        -13    1    3    3    0    0 -0.27005481934E+02  0.26206279529E+02  0.25392928322E+02  0.45396884409E+02  0.10566000000E+00 0.  1.
         23    2    1    0    0    0  0.33167356601E+01  0.20717555548E+02 -0.17131765117E+02  0.97912821865E+02  0.94091473929E+02 0.  0.
         13    1    3    3    0    0  0.30322217594E+02 -0.54887239811E+01 -0.42524693438E+02  0.52515937456E+02  0.10566000000E+00 0. -1.
         22    1    1    0    0    0 -0.33167356601E+01 -0.20717555548E+02  0.17131765117E+02  0.27087178135E+02  0.00000000000E+00 0.  1.
</event>
<event>
 5    1  0.9034713E-005  0.9118800E+02  0.7818608E-02  0.1130116E+00
         25   -1    0    0    0    0  0.00000000000E+00  0.00000000000E+00  0.99999998245E-14  0.12500000000E+03  0.12500000000E+03 0.  0.
        -13    1    3    3    0    0  0.10013016911E+02 -0.14061335253E+02 -0.31099064905E+02  0.35568872048E+02  0.10566000000E+00 0. -1.
         23    2    1    0    0    0  0.74627845918E+01 -0.50890265384E+01  0.28092522736E+02  0.95490998346E+02  0.90817121659E+02 0.  0.
         13    1    3    3    0    0 -0.25502323197E+01  0.89723087147E+01  0.59191587641E+02  0.59922126298E+02  0.10566000000E+00 0.  1.
         22    1    1    0    0    0 -0.74627845918E+01  0.50890265384E+01 -0.28092522736E+02  0.29509001654E+02  0.00000000000E+00 0.  1.
</event>
<event>
 5    1  0.9034713E-005  0.9118800E+02  0.7818608E-02  0.1130116E+00
         25   -1    0    0    0    0  0.00000000000E+00  0.00000000000E+00  0.99999998245E-14  0.12500000000E+03  0.12500000000E+03 0.  0.
        -13    1    3    3    0    0 -0.42367766376E+02 -0.39782593997E+02 -0.37616699440E+01  0.58239537581E+02  0.10566000000E+00 0. -1.
         23    2    1    0    0    0 -0.27240467069E+02 -0.50148524979E+01 -0.74009804119E+01  0.96330045295E+02  0.91964728694E+02 0.  0.
         13    1    3    3    0    0  0.15127299307E+02  0.34767741499E+02 -0.36393104679E+01  0.38090507714E+02  0.10566000000E+00 0.  1.
         22    1    1    0    0    0  0.27240467069E+02  0.50148524979E+01  0.74009804119E+01  0.28669954705E+02  0.00000000000E+00 0. -1.
</event>
<event>
 5    1  0.9034713E-005  0.9118800E+02  0.7818608E-02  0.1130116E+00
         25   -1    0    0    0    0  0.00000000000E+00  0.00000000000E+00  0.99999998245E-14  0.12500000000E+03  0.12500000000E+03 0.  0.
        -13    1    3    3    0    0 -0.14041333345E+02 -0.35273924827E+02 -0.77069901844E+01  0.38740388183E+02  0.10566000000E+00 0.  1.
         23    2    1    0    0    0  0.46985202517E+01  0.14274880353E+02 -0.26154922115E+02  0.94834982968E+02  0.89909653220E+02 0.  0.
         13    1    3    3    0    0  0.18739853597E+02  0.49548805180E+02 -0.18447931931E+02  0.56094594786E+02  0.10566000000E+00 0. -1.
         22    1    1    0    0    0 -0.46985202517E+01 -0.14274880353E+02  0.26154922115E+02  0.30165017032E+02  0.00000000000E+00 0. -1.
</event>
<event>
 5    1  0.9034713E-005  0.9118800E+02  0.7818608E-02  0.1130116E+00
         25   -1    0    0    0    0  0.00000000000E+00  0.00000000000E+00  0.99999998245E-14  0.12500000000E+03  0.12500000000E+03 0.  0.
        -13    1    3    3    0    0  0.17020252981E+01  0.40376315262E+02  0.51217275815E+01  0.40735573909E+02  0.10566000000E+00 0. -1.
         23    2    1    0    0    0  0.21564525853E+02 -0.86792054613E+01  0.18461683367E+02  0.95315136257E+02  0.90574742971E+02 0.  0.
         13    1    3    3    0    0  0.19862500554E+02 -0.49055520723E+02  0.13339955785E+02  0.54579562348E+02  0.10566000000E+00 0.  1.
         22    1    1    0    0    0 -0.21564525853E+02  0.86792054613E+01 -0.18461683367E+02  0.29684863743E+02  0.00000000000E+00 0.  1.
</event>
<event>
 5    1  0.9034713E-005  0.9118800E+02  0.7818608E-02  0.1130116E+00
         25   -1    0    0    0    0  0.00000000000E+00  0.00000000000E+00  0.99999998245E-14  0.12500000000E+03  0.12500000000E+03 0.  0.
        -13    1    3    3    0    0  0.18615645829E+02 -0.59049127925E+02  0.73993113788E+00  0.61918498370E+02  0.10566000000E+00 0.  1.
         23    2    1    0    0    0  0.10732929071E+02 -0.28298515400E+02 -0.54126828827E+01  0.94254286863E+02  0.89098662817E+02 0.  0.
         13    1    3    3    0    0 -0.78827167581E+01  0.30750612525E+02 -0.61526140206E+01  0.32335788493E+02  0.10566000000E+00 0. -1.
         22    1    1    0    0    0 -0.10732929071E+02  0.28298515400E+02  0.54126828827E+01  0.30745713137E+02  0.00000000000E+00 0.  1.
</event>
<event>
 5    1  0.9034713E-005  0.9118800E+02  0.7818608E-02  0.1130116E+00
         25   -1    0    0    0    0  0.00000000000E+00  0.00000000000E+00  0.99999998245E-14  0.12500000000E+03  0.12500000000E+03 0.  0.
        -13    1    3    3    0    0 -0.33785047882E+02  0.37553607760E+02  0.33620653440E+02  0.60680000148E+02  0.10566000000E+00 0.  1.
         23    2    1    0    0    0 -0.23963706410E+02  0.11002473277E+02  0.13801171923E+02  0.95237842996E+02  0.90468009533E+02 0.  0.
         13    1    3    3    0    0  0.98213414722E+01 -0.26551134483E+02 -0.19819481517E+02  0.34557842848E+02  0.10566000000E+00 0. -1.
         22    1    1    0    0    0  0.23963706410E+02 -0.11002473277E+02 -0.13801171923E+02  0.29762157004E+02  0.00000000000E+00 0.  1.
</event>
<event>
 5    1  0.9034713E-005  0.9118800E+02  0.7818608E-02  0.1130116E+00
         25   -1    0    0    0    0  0.00000000000E+00  0.00000000000E+00  0.99999998245E-14  0.12500000000E+03  0.12500000000E+03 0.  0.
        -13    1    3    3    0    0 -0.32474298311E+02 -0.39374575705E+02 -0.35427303474E+02  0.62129238352E+02  0.10566000000E+00 0. -1.
         23    2    1    0    0    0 -0.17221335256E+02 -0.18789704463E+02 -0.12069515592E+02  0.96798925758E+02  0.92599845786E+02 0.  0.
         13    1    3    3    0    0  0.15252963056E+02  0.20584871243E+02  0.23357787882E+02  0.34669687406E+02  0.10566000000E+00 0.  1.
         22    1    1    0    0    0  0.17221335256E+02  0.18789704463E+02  0.12069515592E+02  0.28201074242E+02  0.00000000000E+00 0. -1.
</event>
<event>
 5    1  0.9034713E-005  0.9118800E+02  0.7818608E-02  0.1130116E+00
         25   -1    0    0    0    0  0.00000000000E+00  0.00000000000E+00  0.99999998245E-14  0.12500000000E+03  0.12500000000E+03 0.  0.
        -13    1    3    3    0    0  0.35451187912E+02 -0.98498711780E+00 -0.37574726107E+02  0.51668444238E+02  0.10566000000E+00 0.  1.
         23    2    1    0    0    0 -0.76161238003E+01 -0.51214314222E+01 -0.27385213677E+02  0.96117750613E+02  0.91675720086E+02 0.  0.
         13    1    3    3    0    0 -0.43067311712E+02 -0.41364443044E+01  0.10189512430E+02  0.44449306375E+02  0.10566000000E+00 0. -1.
         22    1    1    0    0    0  0.76161238003E+01  0.51214314222E+01  0.27385213677E+02  0.28882249387E+02  0.00000000000E+00 0.  1.
</event>
<event>
 5    1  0.9034713E-005  0.9118800E+02  0.7818608E-02  0.1130116E+00
         25   -1    0    0    0    0  0.00000000000E+00  0.00000000000E+00  0.99999998245E-14  0.12500000000E+03  0.12500000000E+03 0.  0.
        -13    1    3    3    0    0  0.22249878182E+02 -0.26936016204E+02 -0.92913595653E+01  0.36151716068E+02  0.10566000000E+00 0.  1.
         23    2    1    0    0    0 -0.84828903498E+01 -0.49506913342E+02 -0.49943410810E+01  0.74523893373E+02  0.54826757549E+02 0.  0.
         13    1    3    3    0    0 -0.30732768532E+02 -0.22570897138E+02  0.42970184843E+01  0.38372177305E+02  0.10566000000E+00 0. -1.
         22    1    1    0    0    0  0.84828903498E+01  0.49506913342E+02  0.49943410810E+01  0.50476106627E+02  0.00000000000E+00 0. -1.
</event>
<event>
 5    1  0.9034713E-005  0.9118800E+02  0.7818608E-02  0.1130116E+00
         25   -1    0    0    0    0  0.00000000000E+00  0.00000000000E+00  0.99999998245E-14  0.12500000000E+03  0.12500000000E+03 0.  0.
        -13    1    3    3    0    0  0.27412626515E+02  0.21032112902E+02 -0.47181769820E+02  0.58480188380E+02  0.10566000000E+00 0.  1.
         23    2    1    0    0    0  0.19163786503E+02 -0.47288074701E+01 -0.22095288718E+02  0.95372072014E+02  0.90653284571E+02 0.  0.
         13    1    3    3    0    0 -0.82488400124E+01 -0.25760920372E+02  0.25086481102E+02  0.36891883634E+02  0.10566000000E+00 0. -1.
         22    1    1    0    0    0 -0.19163786503E+02  0.47288074701E+01  0.22095288718E+02  0.29627927986E+02  0.00000000000E+00 0.  1.
</event>
<event>
 5    1  0.9034713E-005  0.9118800E+02  0.7818608E-02  0.1130116E+00
         25   -1    0    0    0    0  0.00000000000E+00  0.00000000000E+00  0.99999998245E-14  0.12500000000E+03  0.12500000000E+03 0.  0.
        -13    1    3    3    0    0 -0.31368399447E+02 -0.17658183709E+01  0.63781613011E+01  0.32059112651E+02  0.10566000000E+00 0.  1.
         23    2    1    0    0    0  0.30292496577E+02  0.41444149999E+01  0.50082157529E+01  0.94017847886E+02  0.88766333548E+02 0.  0.
         13    1    3    3    0    0  0.61660896024E+02  0.59102333708E+01 -0.13699455483E+01  0.61958735235E+02  0.10566000000E+00 0. -1.
         22    1    1    0    0    0 -0.30292496577E+02 -0.41444149999E+01 -0.50082157529E+01  0.30982152114E+02  0.00000000000E+00 0. -1.
</event>
<event>
 5    1  0.9034713E-005  0.9118800E+02  0.7818608E-02  0.1130116E+00
         25   -1    0    0    0    0  0.00000000000E+00  0.00000000000E+00  0.99999998245E-14  0.12500000000E+03  0.12500000000E+03 0.  0.
        -13    1    3    3    0    0 -0.21931276393E+02  0.73603927969E+01 -0.31367046001E+02  0.38975107507E+02  0.10566000000E+00 0.  1.
         23    2    1    0    0    0  0.11152176480E+02 -0.19383967041E+02  0.11912407509E+02  0.99661991570E+02  0.96387228888E+02 0.  0.
         13    1    3    3    0    0  0.33083452873E+02 -0.26744359838E+02  0.43279453510E+02  0.60686884063E+02  0.10566000000E+00 0. -1.
         22    1    1    0    0    0 -0.11152176480E+02  0.19383967041E+02 -0.11912407509E+02  0.25338008430E+02  0.00000000000E+00 0. -1.
</event>
<event>
 5    1  0.9034713E-005  0.9118800E+02  0.7818608E-02  0.1130116E+00
         25   -1    0    0    0    0  0.00000000000E+00  0.00000000000E+00  0.99999998245E-14  0.12500000000E+03  0.12500000000E+03 0.  0.
        -13    1    3    3    0    0 -0.76505668149E+01  0.39661596849E+02 -0.13996863001E+02  0.42749231281E+02  0.10566000000E+00 0. -1.
         23    2    1    0    0    0  0.24439449647E+01  0.67063783761E+01  0.27439900057E+02  0.96646931505E+02  0.92394441804E+02 0.  0.
         13    1    3    3    0    0  0.10094511780E+02 -0.32955218473E+02  0.41436763058E+02  0.53897700224E+02  0.10566000000E+00 0.  1.
         22    1    1    0    0    0 -0.24439449647E+01 -0.67063783761E+01 -0.27439900057E+02  0.28353068495E+02  0.00000000000E+00 0.  1.
</event>
<event>
 5    1  0.9034713E-005  0.9118800E+02  0.7818608E-02  0.1130116E+00
         25   -1    0    0    0    0  0.00000000000E+00  0.00000000000E+00  0.99999998245E-14  0.12500000000E+03  0.12500000000E+03 0.  0.
        -13    1    3    3    0    0  0.17899201350E+02 -0.34458424120E+01  0.27546384079E+02  0.33031343884E+02  0.10566000000E+00 0. -1.
         23    2    1    0    0    0  0.22792725981E+02  0.78708953253E+01 -0.26910391300E+02  0.88866518148E+02  0.81188851063E+02 0.  0.
         13    1    3    3    0    0  0.48935246307E+01  0.11316737737E+02 -0.54456775379E+02  0.55835174264E+02  0.10566000000E+00 0.  1.
         22    1    1    0    0    0 -0.22792725981E+02 -0.78708953253E+01  0.26910391300E+02  0.36133481852E+02  0.00000000000E+00 0.  1.
</event>
<event>
 5    1  0.9034713E-005  0.9118800E+02  0.7818608E-02  0.1130116E+00
         25   -1    0    0    0    0  0.00000000000E+00  0.00000000000E+00  0.99999998245E-14  0.12500000000E+03  0.12500000000E+03 0.  0.
        -13    1    3    3    0    0 -0.16186929850E+01  0.49602580720E+02 -0.14347336967E+02  0.51661333927E+02  0.10566000000E+00 0.  1.
         23    2    1    0    0    0  0.23456701150E+02  0.13419790205E+02 -0.11039404721E+02  0.95807945352E+02  0.91252322370E+02 0.  0.
         13    1    3    3    0    0  0.25075394135E+02 -0.36182790515E+02  0.33079322466E+01  0.44146611424E+02  0.10566000000E+00 0. -1.
         22    1    1    0    0    0 -0.23456701150E+02 -0.13419790205E+02  0.11039404721E+02  0.29192054648E+02  0.00000000000E+00 0. -1.
</event>
<event>
 5    1  0.9034713E-005  0.9118800E+02  0.7818608E-02  0.1130116E+00
         25   -1    0    0    0    0  0.00000000000E+00  0.00000000000E+00  0.99999998245E-14  0.12500000000E+03  0.12500000000E+03 0.  0.
        -13    1    3    3    0    0 -0.49894847434E+02 -0.52669779512E+01 -0.20156541546E+02  0.54069716000E+02  0.10566000000E+00 0. -1.
         23    2    1    0    0    0 -0.14280661600E+02  0.14596162727E+02 -0.22119459061E+02  0.94895918363E+02  0.89994330881E+02 0.  0.
         13    1    3    3    0    0  0.35614185833E+02  0.19863140678E+02 -0.19629175150E+01  0.40826202363E+02  0.10566000000E+00 0.  1.
         22    1    1    0    0    0  0.14280661600E+02 -0.14596162727E+02  0.22119459061E+02  0.30104081637E+02  0.00000000000E+00 0. -1.
</event>
<event>
 5    1  0.9034713E-005  0.9118800E+02  0.7818608E-02  0.1130116E+00
         25   -1    0    0    0    0  0.00000000000E+00  0.00000000000E+00  0.99999998245E-14  0.12500000000E+03  0.12500000000E+03 0.  0.
        -13    1    3    3    0    0 -0.28386534855E+02  0.37751351381E+02 -0.39309756236E+02  0.61451021078E+02  0.10566000000E+00 0.  1.
         23    2    1    0    0    0 -0.20116588295E+02  0.13504743504E+02 -0.17261784153E+02  0.95250640109E+02  0.90485689627E+02 0.  0.
         13    1    3    3    0    0  0.82699465597E+01 -0.24246607877E+02  0.22047972083E+02  0.33799619031E+02  0.10566000000E+00 0. -1.
         22    1    1    0    0    0  0.20116588295E+02 -0.13504743504E+02  0.17261784153E+02  0.29749359891E+02  0.00000000000E+00 0.  1.
</event>
<event>
 5    1  0.9034713E-005  0.9118800E+02  0.7818608E-02  0.1130116E+00
         25   -1    0    0    0    0  0.00000000000E+00  0.00000000000E+00  0.99999998245E-14  0.12500000000E+03  0.12500000000E+03 0.  0.
        -13    1    3    3    0    0  0.15407431301E+02 -0.24422572562E+02  0.25759075630E+02  0.38696151374E+02  0.10566000000E+00 0. -1.
         23    2    1    0    0    0 -0.13191658713E+02  0.23223709445E+02  0.10267488058E+02  0.96385635582E+02  0.92040256929E+02 0.  0.
         13    1    3    3    0    0 -0.28599090014E+02  0.47646282007E+02 -0.15491587572E+02  0.57689484208E+02  0.10566000000E+00 0.  1.
         22    1    1    0    0    0  0.13191658713E+02 -0.23223709445E+02 -0.10267488058E+02  0.28614364418E+02  0.00000000000E+00 0.  1.
</event>
<event>
 5    1  0.9034713E-005  0.9118800E+02  0.7818608E-02  0.1130116E+00
         25   -1    0    0    0    0  0.00000000000E+00  0.00000000000E+00  0.99999998245E-14  0.12500000000E+03  0.12500000000E+03 0.  0.
        -13    1    3    3    0    0 -0.14133921146E+02  0.31883198452E+02 -0.92458250369E+01  0.36080500484E+02  0.10566000000E+00 0.  1.
         23    2    1    0    0    0 -0.16252289769E+02 -0.24565511362E+02  0.67323562885E+01  0.94785336467E+02  0.89840603943E+02 0.  0.
         13    1    3    3    0    0 -0.21183686227E+01 -0.56448709814E+02  0.15978181325E+02  0.58704835983E+02  0.10566000000E+00 0. -1.
         22    1    1    0    0    0  0.16252289769E+02  0.24565511362E+02 -0.67323562885E+01  0.30214663533E+02  0.00000000000E+00 0. -1.
</event>
<event>
 5    1  0.9034713E-005  0.9118800E+02  0.7818608E-02  0.1130116E+00
         25   -1    0    0    0    0  0.00000000000E+00  0.00000000000E+00  0.99999998245E-14  0.12500000000E+03  0.12500000000E+03 0.  0.
        -13    1    3    3    0    0 -0.30755258369E+02  0.27030148857E+02 -0.42934985050E+01  0.41169893830E+02  0.10566000000E+00 0.  1.
         23    2    1    0    0    0  0.16287197372E+02 -0.13800085441E+02  0.52038969042E+00  0.10364617220E+03  0.10142259634E+03 0.  0.
         13    1    3    3    0    0  0.47042455741E+02 -0.40830234298E+02  0.48138881954E+01  0.62476278367E+02  0.10566000000E+00 0. -1.
         22    1    1    0    0    0 -0.16287197372E+02  0.13800085441E+02 -0.52038969042E+00  0.21353827803E+02  0.00000000000E+00 0. -1.
</event>
<event>
 5    1  0.9034713E-005  0.9118800E+02  0.7818608E-02  0.1130116E+00
         25   -1    0    0    0    0  0.00000000000E+00  0.00000000000E+00  0.99999998245E-14  0.12500000000E+03  0.12500000000E+03 0.  0.
        -13    1    3    3    0    0  0.21052852890E+02  0.48496949448E+02  0.29987029989E+02  0.60781657201E+02  0.10566000000E+00 0. -1.
         23    2    1    0    0    0  0.16087254172E+02  0.15141753401E+02  0.17764606823E+02  0.96651213457E+02  0.92400234655E+02 0.  0.
         13    1    3    3    0    0 -0.49655987172E+01 -0.33355196046E+02 -0.12222423165E+02  0.35869556256E+02  0.10566000000E+00 0.  1.
         22    1    1    0    0    0 -0.16087254172E+02 -0.15141753401E+02 -0.17764606823E+02  0.28348786543E+02  0.00000000000E+00 0. -1.
</event>
<event>
 5    1  0.9034713E-005  0.9118800E+02  0.7818608E-02  0.1130116E+00
         25   -1    0    0    0    0  0.00000000000E+00  0.00000000000E+00  0.99999998245E-14  0.12500000000E+03  0.12500000000E+03 0.  0.
        -13    1    3    3    0    0  0.50097853991E+01 -0.26289379799E+01 -0.43692320197E+02  0.44057227249E+02  0.10566000000E+00 0. -1.
         23    2    1    0    0    0  0.10639853875E+00 -0.29890389905E+02 -0.82118883244E+00  0.95098142526E+02  0.90274778490E+02 0.  0.
         13    1    3    3    0    0 -0.49033868604E+01 -0.27261451925E+02  0.42871131365E+02  0.51040915277E+02  0.10566000000E+00 0.  1.
         22    1    1    0    0    0 -0.10639853875E+00  0.29890389905E+02  0.82118883244E+00  0.29901857474E+02  0.00000000000E+00 0. -1.
</event>
<event>
 5    1  0.9034713E-005  0.9118800E+02  0.7818608E-02  0.1130116E+00
         25   -1    0    0    0    0  0.00000000000E+00  0.00000000000E+00  0.99999998245E-14  0.12500000000E+03  0.12500000000E+03 0.  0.
        -13    1    3    3    0    0 -0.58102202191E+02 -0.16265617201E+02  0.74485198782E+01  0.60794142932E+02  0.10566000000E+00 0.  1.
         23    2    1    0    0    0 -0.16277689850E+02 -0.13340128817E+02 -0.22688325486E+01  0.10383234012E+03  0.10165178321E+03 0.  0.
         13    1    3    3    0    0  0.41824512342E+02  0.29254883839E+01 -0.97173524268E+01  0.43038197187E+02  0.10566000000E+00 0. -1.
         22    1    1    0    0    0  0.16277689850E+02  0.13340128817E+02  0.22688325486E+01  0.21167659881E+02  0.00000000000E+00 0.  1.
</event>
<event>
 5    1  0.9034713E-005  0.9118800E+02  0.7818608E-02  0.1130116E+00
         25   -1    0    0    0    0  0.00000000000E+00  0.00000000000E+00  0.99999998245E-14  0.12500000000E+03  0.12500000000E+03 0.  0.
        -13    1    3    3    0    0 -0.12396060874E+02 -0.31056452784E+02  0.19568394189E+02  0.38744016311E+02  0.10566000000E+00 0.  1.
         23    2    1    0    0    0  0.24431626941E+02  0.11381647941E+02  0.12199938815E+02  0.95414787276E+02  0.90712164669E+02 0.  0.
         13    1    3    3    0    0  0.36827687816E+02  0.42438100726E+02 -0.73684553741E+01  0.56670770964E+02  0.10566000000E+00 0. -1.
         22    1    1    0    0    0 -0.24431626941E+02 -0.11381647941E+02 -0.12199938815E+02  0.29585212724E+02  0.00000000000E+00 0. -1.
</event>
<event>
 5    1  0.9034713E-005  0.9118800E+02  0.7818608E-02  0.1130116E+00
         25   -1    0    0    0    0  0.00000000000E+00  0.00000000000E+00  0.99999998245E-14  0.12500000000E+03  0.12500000000E+03 0.  0.
        -13    1    3    3    0    0  0.39285038278E+02  0.69816807057E+01 -0.14680554203E+02  0.42515737483E+02  0.10566000000E+00 0.  1.
         23    2    1    0    0    0 -0.94697403117E+01  0.26667378660E+02 -0.84721974177E+01  0.95460142261E+02  0.90774641642E+02 0.  0.
         13    1    3    3    0    0 -0.48754778590E+02  0.19685697954E+02  0.62083567853E+01  0.52944404778E+02  0.10566000000E+00 0. -1.
         22    1    1    0    0    0  0.94697403117E+01 -0.26667378660E+02  0.84721974177E+01  0.29539857739E+02  0.00000000000E+00 0. -1.
</event>
<event>
 5    1  0.9034713E-005  0.9118800E+02  0.7818608E-02  0.1130116E+00
         25   -1    0    0    0    0  0.00000000000E+00  0.00000000000E+00  0.99999998245E-14  0.12500000000E+03  0.12500000000E+03 0.  0.
        -13    1    3    3    0    0 -0.22911685333E+02 -0.20762091891E+02 -0.40998188340E+01  0.31190214218E+02  0.10566000000E+00 0. -1.
         23    2    1    0    0    0  0.28106765289E+02  0.85766434657E+01  0.13560824701E+02  0.92635744490E+02  0.86798249535E+02 0.  0.
         13    1    3    3    0    0  0.51018450622E+02  0.29338735357E+02  0.17660643535E+02  0.61445530271E+02  0.10566000000E+00 0.  1.
         22    1    1    0    0    0 -0.28106765289E+02 -0.85766434657E+01 -0.13560824701E+02  0.32364255510E+02  0.00000000000E+00 0.  1.
</event>
<event>
 5    1  0.9034713E-005  0.9118800E+02  0.7818608E-02  0.1130116E+00
         25   -1    0    0    0    0  0.00000000000E+00  0.00000000000E+00  0.99999998245E-14  0.12500000000E+03  0.12500000000E+03 0.  0.
        -13    1    3    3    0    0 -0.21736623722E+02  0.18845014145E+02 -0.21241652554E+02  0.35760793283E+02  0.10566000000E+00 0.  1.
         23    2    1    0    0    0  0.13134611736E+02  0.74242734236E+01  0.25612789040E+02  0.95273701480E+02  0.90517541781E+02 0.  0.
         13    1    3    3    0    0  0.34871235458E+02 -0.11420740722E+02  0.46854441594E+02  0.59512908197E+02  0.10566000000E+00 0. -1.
         22    1    1    0    0    0 -0.13134611736E+02 -0.74242734236E+01 -0.25612789040E+02  0.29726298520E+02  0.00000000000E+00 0. -1.
</event>
<event>
 5    1  0.9034713E-005  0.9118800E+02  0.7818608E-02  0.1130116E+00
         25   -1    0    0    0    0  0.00000000000E+00  0.00000000000E+00  0.99999998245E-14  0.12500000000E+03  0.12500000000E+03 0.  0.
        -13    1    3    3    0    0  0.32480943471E+02  0.13292513390E+02  0.40314568721E+02  0.53450708285E+02  0.10566000000E+00 0. -1.
         23    2    1    0    0    0 -0.25276814480E+01  0.22543789801E+02  0.18528026524E+02  0.95710080250E+02  0.91118165382E+02 0.  0.
         13    1    3    3    0    0 -0.35008624919E+02  0.92512764107E+01 -0.21786542197E+02  0.42259371965E+02  0.10566000000E+00 0.  1.
         22    1    1    0    0    0  0.25276814480E+01 -0.22543789801E+02 -0.18528026524E+02  0.29289919750E+02  0.00000000000E+00 0. -1.
</event>
<event>
 5    1  0.9034713E-005  0.9118800E+02  0.7818608E-02  0.1130116E+00
         25   -1    0    0    0    0  0.00000000000E+00  0.00000000000E+00  0.99999998245E-14  0.12500000000E+03  0.12500000000E+03 0.  0.
        -13    1    3    3    0    0  0.31010879064E+02  0.58264101816E+00 -0.38452194086E+01  0.31253975222E+02  0.10566000000E+00 0. -1.
         23    2    1    0    0    0 -0.30310972672E+02 -0.55697192519E+01 -0.84161135932E+01  0.93053047018E+02  0.87397149578E+02 0.  0.
         13    1    3    3    0    0 -0.61321851735E+02 -0.61523602700E+01 -0.45708941846E+01  0.61799071796E+02  0.10566000000E+00 0.  1.
         22    1    1    0    0    0  0.30310972672E+02  0.55697192519E+01  0.84161135932E+01  0.31946952982E+02  0.00000000000E+00 0.  1.
</event>
<event>
 5    1  0.9034713E-005  0.9118800E+02  0.7818608E-02  0.1130116E+00
         25   -1    0    0    0    0  0.00000000000E+00  0.00000000000E+00  0.99999998245E-14  0.12500000000E+03  0.12500000000E+03 0.  0.
        -13    1    3    3    0    0 -0.32990798498E+02  0.91526685007E+01 -0.18922393557E+02  0.39118183345E+02  0.10566000000E+00 0.  1.
         23    2    1    0    0    0  0.13132999196E+02  0.25996320188E+02  0.75628373719E+01  0.94908791312E+02  0.90012209327E+02 0.  0.
         13    1    3    3    0    0  0.46123797694E+02  0.16843651688E+02  0.26485230929E+02  0.55790607967E+02  0.10566000000E+00 0. -1.
         22    1    1    0    0    0 -0.13132999196E+02 -0.25996320188E+02 -0.75628373719E+01  0.30091208688E+02  0.00000000000E+00 0. -1.
</event>
<event>
 5    1  0.9034713E-005  0.9118800E+02  0.7818608E-02  0.1130116E+00
         25   -1    0    0    0    0  0.00000000000E+00  0.00000000000E+00  0.99999998245E-14  0.12500000000E+03  0.12500000000E+03 0.  0.
        -13    1    3    3    0    0  0.48240800107E+02 -0.25619134803E+02 -0.17743390365E+02  0.57431297466E+02  0.10566000000E+00 0. -1.
         23    2    1    0    0    0  0.11075769303E+02 -0.20552973581E+02 -0.18905384712E+02  0.94958179819E+02  0.90080769062E+02 0.  0.
         13    1    3    3    0    0 -0.37165030804E+02  0.50661612218E+01 -0.11619943476E+01  0.37526882353E+02  0.10566000000E+00 0.  1.
         22    1    1    0    0    0 -0.11075769303E+02  0.20552973581E+02  0.18905384712E+02  0.30041820181E+02  0.00000000000E+00 0.  1.
</event>
<event>
 5    1  0.9034713E-005  0.9118800E+02  0.7818608E-02  0.1130116E+00
         25   -1    0    0    0    0  0.00000000000E+00  0.00000000000E+00  0.99999998245E-14  0.12500000000E+03  0.12500000000E+03 0.  0.
        -13    1    3    3    0    0  0.13328732247E+02 -0.32820709043E+02 -0.48663339651E+02  0.60191243843E+02  0.10566000000E+00 0. -1.
         23    2    1    0    0    0 -0.59743559788E+01 -0.16063706555E+02 -0.21744099940E+02  0.97313514491E+02  0.93291900092E+02 0.  0.
         13    1    3    3    0    0 -0.19303088226E+02  0.16757002488E+02  0.26919239710E+02  0.37122270648E+02  0.10566000000E+00 0.  1.
         22    1    1    0    0    0  0.59743559788E+01  0.16063706555E+02  0.21744099940E+02  0.27686485509E+02  0.00000000000E+00 0. -1.
</event>
<event>
 5    1  0.9034713E-005  0.9118800E+02  0.7818608E-02  0.1130116E+00
         25   -1    0    0    0    0  0.00000000000E+00  0.00000000000E+00  0.99999998245E-14  0.12500000000E+03  0.12500000000E+03 0.  0.
        -13    1    3    3    0    0  0.23265606527E+02 -0.25533325094E+02  0.12198074311E+02  0.36633909406E+02  0.10566000000E+00 0.  1.
         23    2    1    0    0    0  0.10917441917E+02  0.29310049190E+02  0.54022645213E+01  0.93259584384E+02  0.87692052639E+02 0.  0.
         13    1    3    3    0    0 -0.12348164610E+02  0.54843374283E+02 -0.67958097897E+01  0.56625674978E+02  0.10566000000E+00 0. -1.
         22    1    1    0    0    0 -0.10917441917E+02 -0.29310049190E+02 -0.54022645213E+01  0.31740415616E+02  0.00000000000E+00 0. -1.
</event>
<event>
 5    1  0.9034713E-005  0.9118800E+02  0.7818608E-02  0.1130116E+00
         25   -1    0    0    0    0  0.00000000000E+00  0.00000000000E+00  0.99999998245E-14  0.12500000000E+03  0.12500000000E+03 0.  0.
        -13    1    3    3    0    0 -0.31100293223E+02  0.25242004466E+02  0.24884148524E+02  0.47155265239E+02  0.10566000000E+00 0.  1.
         23    2    1    0    0    0  0.15568771901E+02  0.21611875295E+02  0.12506818481E+02  0.95574155564E+02  0.90931506592E+02 0.  0.
         13    1    3    3    0    0  0.46669065123E+02 -0.36301291714E+01 -0.12377330043E+02  0.48418890325E+02  0.10566000000E+00 0. -1.
         22    1    1    0    0    0 -0.15568771901E+02 -0.21611875295E+02 -0.12506818481E+02  0.29425844436E+02  0.00000000000E+00 0.  1.
</event>
<event>
 5    1  0.9034713E-005  0.9118800E+02  0.7818608E-02  0.1130116E+00
         25   -1    0    0    0    0  0.00000000000E+00  0.00000000000E+00  0.99999998245E-14  0.12500000000E+03  0.12500000000E+03 0.  0.
        -13    1    3    3    0    0 -0.19319592545E+02 -0.12507749339E+02  0.54281808327E+02  0.58959446478E+02  0.10566000000E+00 0.  1.
         23    2    1    0    0    0 -0.22232061251E+02 -0.32710598694E+01  0.18918079029E+02  0.95625553719E+02  0.91002134205E+02 0.  0.
         13    1    3    3    0    0 -0.29124687063E+01  0.92366894693E+01 -0.35363729298E+02  0.36666107242E+02  0.10566000000E+00 0. -1.
         22    1    1    0    0    0  0.22232061251E+02  0.32710598694E+01 -0.18918079029E+02  0.29374446281E+02  0.00000000000E+00 0.  1.
</event>
<event>
 5    1  0.9034713E-005  0.9118800E+02  0.7818608E-02  0.1130116E+00
         25   -1    0    0    0    0  0.00000000000E+00  0.00000000000E+00  0.99999998245E-14  0.12500000000E+03  0.12500000000E+03 0.  0.
        -13    1    3    3    0    0 -0.35163243852E+02  0.42018427040E+02 -0.65007212591E+01  0.55174926099E+02  0.10566000000E+00 0. -1.
         23    2    1    0    0    0 -0.10995325198E+02  0.14814931216E+02 -0.23321592685E+02  0.95263220609E+02  0.90503067088E+02 0.  0.
         13    1    3    3    0    0  0.24167918654E+02 -0.27203495825E+02 -0.16820871426E+02  0.40088294510E+02  0.10566000000E+00 0.  1.
         22    1    1    0    0    0  0.10995325198E+02 -0.14814931216E+02  0.23321592685E+02  0.29736779391E+02  0.00000000000E+00 0. -1.
</event>
<event>
 5    1  0.9034713E-005  0.9118800E+02  0.7818608E-02  0.1130116E+00
         25   -1    0    0    0    0  0.00000000000E+00  0.00000000000E+00  0.99999998245E-14  0.12500000000E+03  0.12500000000E+03 0.  0.
        -13    1    3    3    0    0 -0.27894869209E+01 -0.53293303062E+02 -0.73099523322E+01  0.53864681896E+02  0.10566000000E+00 0.  1.
         23    2    1    0    0    0 -0.11268714864E+02 -0.17927753532E+02  0.17198778366E+02  0.97720222533E+02  0.93835257943E+02 0.  0.
         13    1    3    3    0    0 -0.84792279434E+01  0.35365549531E+02  0.24508730698E+02  0.43855540637E+02  0.10566000000E+00 0. -1.
         22    1    1    0    0    0  0.11268714864E+02  0.17927753532E+02 -0.17198778366E+02  0.27279777467E+02  0.00000000000E+00 0. -1.
</event>
<event>
 5    1  0.9034713E-005  0.9118800E+02  0.7818608E-02  0.1130116E+00
         25   -1    0    0    0    0  0.00000000000E+00  0.00000000000E+00  0.99999998245E-14  0.12500000000E+03  0.12500000000E+03 0.  0.
        -13    1    3    3    0    0  0.15980799983E+02  0.26689645164E+02 -0.14982213621E+02  0.34528264018E+02  0.10566000000E+00 0.  1.
         23    2    1    0    0    0 -0.24032702228E+02 -0.87819060387E+01  0.14500197428E+02  0.95589995316E+02  0.90953278275E+02 0.  0.
         13    1    3    3    0    0 -0.40013502211E+02 -0.35471551202E+02  0.29482411049E+02  0.61061731299E+02  0.10566000000E+00 0. -1.
         22    1    1    0    0    0  0.24032702228E+02  0.87819060387E+01 -0.14500197428E+02  0.29410004684E+02  0.00000000000E+00 0. -1.
</event>
<event>
 5    1  0.9034713E-005  0.9118800E+02  0.7818608E-02  0.1130116E+00
         25   -1    0    0    0    0  0.00000000000E+00  0.00000000000E+00  0.99999998245E-14  0.12500000000E+03  0.12500000000E+03 0.  0.
        -13    1    3    3    0    0  0.19063960484E+02  0.45782053921E+02  0.32241211295E+02  0.59151820939E+02  0.10566000000E+00 0.  1.
         23    2    1    0    0    0  0.77171205507E+01  0.28919205293E+02  0.27854664001E+01  0.94939507531E+02  0.90054854854E+02 0.  0.
         13    1    3    3    0    0 -0.11346839934E+02 -0.16862848628E+02 -0.29455744894E+02  0.35787686593E+02  0.10566000000E+00 0. -1.
         22    1    1    0    0    0 -0.77171205507E+01 -0.28919205293E+02 -0.27854664001E+01  0.30060492469E+02  0.00000000000E+00 0.  1.
</event>
<event>
 5    1  0.9034713E-005  0.9118800E+02  0.7818608E-02  0.1130116E+00
         25   -1    0    0    0    0  0.00000000000E+00  0.00000000000E+00  0.99999998245E-14  0.12500000000E+03  0.12500000000E+03 0.  0.
        -13    1    3    3    0    0 -0.82335533805E+00  0.43627584397E+02  0.51760753994E+01  0.43941403652E+02  0.10566000000E+00 0.  1.
         23    2    1    0    0    0  0.14634658787E+02 -0.11102630871E+02 -0.11647507467E+02  0.10324899818E+03  0.10093190548E+03 0.  0.
         13    1    3    3    0    0  0.15458014125E+02 -0.54730215268E+02 -0.16823582866E+02  0.59307594526E+02  0.10566000000E+00 0. -1.
         22    1    1    0    0    0 -0.14634658787E+02  0.11102630871E+02  0.11647507467E+02  0.21751001822E+02  0.00000000000E+00 0. -1.
</event>
<event>
 5    1  0.9034713E-005  0.9118800E+02  0.7818608E-02  0.1130116E+00
         25   -1    0    0    0    0  0.00000000000E+00  0.00000000000E+00  0.99999998245E-14  0.12500000000E+03  0.12500000000E+03 0.  0.
        -13    1    3    3    0    0  0.41623896620E+02  0.22286802277E+01 -0.58492619120E+01  0.42092051676E+02  0.10566000000E+00 0. -1.
         23    2    1    0    0    0 -0.63592584102E+00  0.35850971915E+01  0.28315271716E+02  0.96451586106E+02  0.92129780888E+02 0.  0.
         13    1    3    3    0    0 -0.42259822461E+02  0.13564169638E+01  0.34164533628E+02  0.54359534430E+02  0.10566000000E+00 0.  1.
         22    1    1    0    0    0  0.63592584102E+00 -0.35850971915E+01 -0.28315271716E+02  0.28548413894E+02  0.00000000000E+00 0. -1.
</event>
<event>
 5    1  0.9034713E-005  0.9118800E+02  0.7818608E-02  0.1130116E+00
         25   -1    0    0    0    0  0.00000000000E+00  0.00000000000E+00  0.99999998245E-14  0.12500000000E+03  0.12500000000E+03 0.  0.
        -13    1    3    3    0    0 -0.22139587989E+02  0.51102939918E+02  0.24004833063E+02  0.60645816006E+02  0.10566000000E+00 0. -1.
         23    2    1    0    0    0 -0.15912348912E+02  0.18369893603E+02  0.18587036823E+02  0.94403696681E+02  0.89308029708E+02 0.  0.
         13    1    3    3    0    0  0.62272390773E+01 -0.32733046315E+02 -0.54177962393E+01  0.33757880676E+02  0.10566000000E+00 0.  1.
         22    1    1    0    0    0  0.15912348912E+02 -0.18369893603E+02 -0.18587036823E+02  0.30596303319E+02  0.00000000000E+00 0. -1.
</event>
<event>
 5    1  0.9034713E-005  0.9118800E+02  0.7818608E-02  0.1130116E+00
         25   -1    0    0    0    0  0.00000000000E+00  0.00000000000E+00  0.99999998245E-14  0.12500000000E+03  0.12500000000E+03 0.  0.
        -13    1    3    3    0    0  0.43026828724E+02  0.49429485885E+01  0.38501902644E+02  0.57949533234E+02  0.10566000000E+00 0.  1.
         23    2    1    0    0    0  0.11012451286E+02  0.16425364333E+02  0.20829741420E+02  0.96278147615E+02  0.91894161424E+02 0.  0.
         13    1    3    3    0    0 -0.32014377437E+02  0.11482415744E+02 -0.17672161224E+02  0.38328614381E+02  0.10566000000E+00 0. -1.
         22    1    1    0    0    0 -0.11012451286E+02 -0.16425364333E+02 -0.20829741420E+02  0.28721852385E+02  0.00000000000E+00 0.  1.
</event>
<event>
 5    1  0.9034713E-005  0.9118800E+02  0.7818608E-02  0.1130116E+00
         25   -1    0    0    0    0  0.00000000000E+00  0.00000000000E+00  0.99999998245E-14  0.12500000000E+03  0.12500000000E+03 0.  0.
        -13    1    3    3    0    0 -0.53882218288E+01  0.31150420106E+01  0.38597681954E+02  0.39096401848E+02  0.10566000000E+00 0.  1.
         23    2    1    0    0    0 -0.61892528143E+01  0.22200225164E+02 -0.16002878116E+02  0.96942042916E+02  0.92792837703E+02 0.  0.
         13    1    3    3    0    0 -0.80103098553E+00  0.19085183154E+02 -0.54600560069E+02  0.57845641068E+02  0.10566000000E+00 0. -1.
         22    1    1    0    0    0  0.61892528143E+01 -0.22200225164E+02  0.16002878116E+02  0.28057957084E+02  0.00000000000E+00 0. -1.
</event>
<event>
 5    1  0.9034713E-005  0.9118800E+02  0.7818608E-02  0.1130116E+00
         25   -1    0    0    0    0  0.00000000000E+00  0.00000000000E+00  0.99999998245E-14  0.12500000000E+03  0.12500000000E+03 0.  0.
        -13    1    3    3    0    0  0.21631678557E+02 -0.27845937690E+02  0.37510784295E+02  0.51481995547E+02  0.10566000000E+00 0.  1.
         23    2    1    0    0    0  0.10336896091E+01 -0.28682401581E+02 -0.21894235391E+01  0.96215590156E+02  0.91809027546E+02 0.  0.
         13    1    3    3    0    0 -0.20597988948E+02 -0.83646389081E+00 -0.39700207834E+02  0.44733594609E+02  0.10566000000E+00 0. -1.
         22    1    1    0    0    0 -0.10336896091E+01  0.28682401581E+02  0.21894235391E+01  0.28784409844E+02  0.00000000000E+00 0.  1.
</event>
<event>
 5    1  0.9034713E-005  0.9118800E+02  0.7818608E-02  0.1130116E+00
         25   -1    0    0    0    0  0.00000000000E+00  0.00000000000E+00  0.99999998245E-14  0.12500000000E+03  0.12500000000E+03 0.  0.
        -13    1    3    3    0    0  0.60147808566E+02 -0.15009874614E+02 -0.49855148390E+01  0.62192617998E+02  0.10566000000E+00 0. -1.
         23    2    1    0    0    0  0.27413034264E+02 -0.52132776635E+01 -0.63230842062E+01  0.96388217367E+02  0.92043763187E+02 0.  0.
         13    1    3    3    0    0 -0.32734774301E+02  0.97965969503E+01 -0.13375693672E+01  0.34195599369E+02  0.10566000000E+00 0.  1.
         22    1    1    0    0    0 -0.27413034264E+02  0.52132776635E+01  0.63230842062E+01  0.28611782633E+02  0.00000000000E+00 0. -1.
</event>
<event>
 5    1  0.9034713E-005  0.9118800E+02  0.7818608E-02  0.1130116E+00
         25   -1    0    0    0    0  0.00000000000E+00  0.00000000000E+00  0.99999998245E-14  0.12500000000E+03  0.12500000000E+03 0.  0.
        -13    1    3    3    0    0 -0.13193535432E+02  0.11405961081E+02  0.35970028605E+02  0.39975235425E+02  0.10566000000E+00 0.  1.
         23    2    1    0    0    0  0.10019729562E+02  0.23778174807E+02 -0.13406892206E+02  0.95921806517E+02  0.91408159533E+02 0.  0.
         13    1    3    3    0    0  0.23213264994E+02  0.12372213726E+02 -0.49376920811E+02  0.55946571092E+02  0.10566000000E+00 0. -1.
         22    1    1    0    0    0 -0.10019729562E+02 -0.23778174807E+02  0.13406892206E+02  0.29078193483E+02  0.00000000000E+00 0. -1.
</event>
<event>
 5    1  0.9034713E-005  0.9118800E+02  0.7818608E-02  0.1130116E+00
         25   -1    0    0    0    0  0.00000000000E+00  0.00000000000E+00  0.99999998245E-14  0.12500000000E+03  0.12500000000E+03 0.  0.
        -13    1    3    3    0    0 -0.14467228472E+02 -0.13572731639E+02  0.29968306096E+02  0.35939258174E+02  0.10566000000E+00 0.  1.
         23    2    1    0    0    0 -0.26748639483E+01 -0.27528755790E+01 -0.28338532057E+02  0.96402699074E+02  0.92063427965E+02 0.  0.
         13    1    3    3    0    0  0.11792364523E+02  0.10819856060E+02 -0.58306838153E+02  0.60463440901E+02  0.10566000000E+00 0. -1.
         22    1    1    0    0    0  0.26748639483E+01  0.27528755790E+01  0.28338532057E+02  0.28597300926E+02  0.00000000000E+00 0. -1.
</event>
<event>
 5    1  0.9034713E-005  0.9118800E+02  0.7818608E-02  0.1130116E+00
         25   -1    0    0    0    0  0.00000000000E+00  0.00000000000E+00  0.99999998245E-14  0.12500000000E+03  0.12500000000E+03 0.  0.
        -13    1    3    3    0    0 -0.22109258649E+01  0.27822534559E+02  0.42125215453E+01  0.28226549989E+02  0.10566000000E+00 0.  1.
         23    2    1    0    0    0  0.17259142630E+02 -0.30146505029E+02 -0.44130298823E+01  0.89983366774E+02  0.82890540434E+02 0.  0.
         13    1    3    3    0    0  0.19470068495E+02 -0.57969039588E+02 -0.86255514276E+01  0.61756816785E+02  0.10566000000E+00 0. -1.
         22    1    1    0    0    0 -0.17259142630E+02  0.30146505029E+02  0.44130298823E+01  0.35016633226E+02  0.00000000000E+00 0. -1.
</event>
<event>
 5    1  0.9034713E-005  0.9118800E+02  0.7818608E-02  0.1130116E+00
         25   -1    0    0    0    0  0.00000000000E+00  0.00000000000E+00  0.99999998245E-14  0.12500000000E+03  0.12500000000E+03 0.  0.
        -13    1    3    3    0    0 -0.19555060856E+02 -0.16247524944E+02  0.50103499551E+02  0.56185000695E+02  0.10566000000E+00 0. -1.
         23    2    1    0    0    0 -0.10031186214E+02  0.12537965971E+02  0.23597223319E+02  0.96457851589E+02  0.92138281388E+02 0.  0.
         13    1    3    3    0    0  0.95238746416E+01  0.28785490914E+02 -0.26506276232E+02  0.40272850893E+02  0.10566000000E+00 0.  1.
         22    1    1    0    0    0  0.10031186214E+02 -0.12537965971E+02 -0.23597223319E+02  0.28542148411E+02  0.00000000000E+00 0. -1.
</event>
<event>
 5    1  0.9034713E-005  0.9118800E+02  0.7818608E-02  0.1130116E+00
         25   -1    0    0    0    0  0.00000000000E+00  0.00000000000E+00  0.99999998245E-14  0.12500000000E+03  0.12500000000E+03 0.  0.
        -13    1    3    3    0    0 -0.16695092546E+02 -0.26151007535E+02  0.37936198130E+02  0.49007832055E+02  0.10566000000E+00 0.  1.
         23    2    1    0    0    0  0.17316394248E+02  0.35964280128E+01  0.21663656572E+02  0.97033845093E+02  0.92916420903E+02 0.  0.
         13    1    3    3    0    0  0.34011486793E+02  0.29747435548E+02 -0.16272541558E+02  0.48026013038E+02  0.10566000000E+00 0. -1.
         22    1    1    0    0    0 -0.17316394248E+02 -0.35964280128E+01 -0.21663656572E+02  0.27966154907E+02  0.00000000000E+00 0.  1.
</event>
<event>
 5    1  0.9034713E-005  0.9118800E+02  0.7818608E-02  0.1130116E+00
         25   -1    0    0    0    0  0.00000000000E+00  0.00000000000E+00  0.99999998245E-14  0.12500000000E+03  0.12500000000E+03 0.  0.
        -13    1    3    3    0    0  0.40471219123E+01  0.29935999320E+02 -0.34795879005E+02  0.46079362092E+02  0.10566000000E+00 0.  1.
         23    2    1    0    0    0  0.27985983718E+02  0.13793227735E+01 -0.12184520144E+00  0.96979781189E+02  0.92843660511E+02 0.  0.
         13    1    3    3    0    0  0.23938861806E+02 -0.28556676546E+02  0.34674033804E+02  0.50900419096E+02  0.10566000000E+00 0. -1.
         22    1    1    0    0    0 -0.27985983718E+02 -0.13793227735E+01  0.12184520144E+00  0.28020218811E+02  0.00000000000E+00 0. -1.
</event>
<event>
 5    1  0.9034713E-005  0.9118800E+02  0.7818608E-02  0.1130116E+00
         25   -1    0    0    0    0  0.00000000000E+00  0.00000000000E+00  0.99999998245E-14  0.12500000000E+03  0.12500000000E+03 0.  0.
        -13    1    3    3    0    0 -0.56100522156E+01  0.32850169374E+02  0.16133459672E+02  0.37025747781E+02  0.10566000000E+00 0. -1.
         23    2    1    0    0    0  0.18435969466E+02 -0.20249781801E+02 -0.38620913011E+00  0.97612269342E+02  0.93691340771E+02 0.  0.
         13    1    3    3    0    0  0.24046021681E+02 -0.53099951174E+02 -0.16519668802E+02  0.60586521560E+02  0.10566000000E+00 0.  1.
         22    1    1    0    0    0 -0.18435969466E+02  0.20249781801E+02  0.38620913011E+00  0.27387730658E+02  0.00000000000E+00 0.  1.
</event>
<event>
 5    1  0.9034713E-005  0.9118800E+02  0.7818608E-02  0.1130116E+00
         25   -1    0    0    0    0  0.00000000000E+00  0.00000000000E+00  0.99999998245E-14  0.12500000000E+03  0.12500000000E+03 0.  0.
        -13    1    3    3    0    0  0.96256441556E+01  0.45045210585E+02  0.80049606690E+01  0.46752695980E+02  0.10566000000E+00 0.  1.
         23    2    1    0    0    0 -0.24194496145E+02  0.13205825389E+02 -0.86701570639E+01  0.96104687380E+02  0.91657906614E+02 0.  0.
         13    1    3    3    0    0 -0.33820140301E+02 -0.31839385196E+02 -0.16675117733E+02  0.49351991399E+02  0.10566000000E+00 0. -1.
         22    1    1    0    0    0  0.24194496145E+02 -0.13205825389E+02  0.86701570639E+01  0.28895312620E+02  0.00000000000E+00 0. -1.
</event>
<event>
 5    1  0.9034713E-005  0.9118800E+02  0.7818608E-02  0.1130116E+00
         25   -1    0    0    0    0  0.00000000000E+00  0.00000000000E+00  0.99999998245E-14  0.12500000000E+03  0.12500000000E+03 0.  0.
        -13    1    3    3    0    0 -0.19104126510E+02 -0.11424560323E+02  0.32327685262E+02  0.39250205435E+02  0.10566000000E+00 0.  1.
         23    2    1    0    0    0  0.26410980254E+02  0.94459474190E+01  0.43293190060E+01  0.96618513011E+02  0.92355986556E+02 0.  0.
         13    1    3    3    0    0  0.45515106764E+02  0.20870507742E+02 -0.27998366256E+02  0.57368307576E+02  0.10566000000E+00 0. -1.
         22    1    1    0    0    0 -0.26410980254E+02 -0.94459474190E+01 -0.43293190060E+01  0.28381486989E+02  0.00000000000E+00 0. -1.
</event>
<event>
 5    1  0.9034713E-005  0.9118800E+02  0.7818608E-02  0.1130116E+00
         25   -1    0    0    0    0  0.00000000000E+00  0.00000000000E+00  0.99999998245E-14  0.12500000000E+03  0.12500000000E+03 0.  0.
        -13    1    3    3    0    0  0.17976884540E+02  0.15468483223E+02  0.27422076357E+02  0.36254982923E+02  0.10566000000E+00 0. -1.
         23    2    1    0    0    0 -0.25555629462E+02 -0.16278059030E+02  0.67916197417E+01  0.93948566834E+02  0.88668718884E+02 0.  0.
         13    1    3    3    0    0 -0.43532514002E+02 -0.31746542253E+02 -0.20630456615E+02  0.57693583911E+02  0.10566000000E+00 0.  1.
         22    1    1    0    0    0  0.25555629462E+02  0.16278059030E+02 -0.67916197417E+01  0.31051433166E+02  0.00000000000E+00 0.  1.
</event>
<event>
 5    1  0.9034713E-005  0.9118800E+02  0.7818608E-02  0.1130116E+00
         25   -1    0    0    0    0  0.00000000000E+00  0.00000000000E+00  0.99999998245E-14  0.12500000000E+03  0.12500000000E+03 0.  0.
        -13    1    3    3    0    0  0.20033100747E+02  0.45474229980E+02  0.36772471648E+02  0.61817930676E+02  0.10566000000E+00 0. -1.
         23    2    1    0    0    0  0.11917249997E+02  0.15783062072E+02  0.20006203891E+02  0.96868628011E+02  0.92693888702E+02 0.  0.
         13    1    3    3    0    0 -0.81158507500E+01 -0.29691167908E+02 -0.16766267757E+02  0.35050697335E+02  0.10566000000E+00 0.  1.
         22    1    1    0    0    0 -0.11917249997E+02 -0.15783062072E+02 -0.20006203891E+02  0.28131371989E+02  0.00000000000E+00 0. -1.
</event>
<event>
 5    1  0.9034713E-005  0.9118800E+02  0.7818608E-02  0.1130116E+00
         25   -1    0    0    0    0  0.00000000000E+00  0.00000000000E+00  0.99999998245E-14  0.12500000000E+03  0.12500000000E+03 0.  0.
        -13    1    3    3    0    0 -0.17420774839E+02  0.16979274465E+02 -0.22203902967E+02  0.32936357242E+02  0.10566000000E+00 0.  1.
         23    2    1    0    0    0  0.28194091803E+02 -0.24417997925E+01  0.13116314949E+02  0.93808544172E+02  0.88471102870E+02 0.  0.
         13    1    3    3    0    0  0.45614866642E+02 -0.19421074258E+02  0.35320217915E+02  0.60872186931E+02  0.10566000000E+00 0. -1.
         22    1    1    0    0    0 -0.28194091803E+02  0.24417997925E+01 -0.13116314949E+02  0.31191455828E+02  0.00000000000E+00 0. -1.
</event>
<event>
 5    1  0.9034713E-005  0.9118800E+02  0.7818608E-02  0.1130116E+00
         25   -1    0    0    0    0  0.00000000000E+00  0.00000000000E+00  0.99999998245E-14  0.12500000000E+03  0.12500000000E+03 0.  0.
        -13    1    3    3    0    0  0.51095821015E+02 -0.26182310298E+02  0.16015882900E+02  0.59605502824E+02  0.10566000000E+00 0. -1.
         23    2    1    0    0    0  0.15633698280E+02 -0.22633734993E+02  0.98927099241E+01  0.95767070087E+02  0.91196313093E+02 0.  0.
         13    1    3    3    0    0 -0.35462122736E+02  0.35485753048E+01 -0.61231729764E+01  0.36161567263E+02  0.10566000000E+00 0.  1.
         22    1    1    0    0    0 -0.15633698280E+02  0.22633734993E+02 -0.98927099241E+01  0.29232929913E+02  0.00000000000E+00 0. -1.
</event>
<event>
 5    1  0.9034713E-005  0.9118800E+02  0.7818608E-02  0.1130116E+00
         25   -1    0    0    0    0  0.00000000000E+00  0.00000000000E+00  0.99999998245E-14  0.12500000000E+03  0.12500000000E+03 0.  0.
        -13    1    3    3    0    0  0.21168989112E+02  0.19044554578E+02  0.20342881470E+02  0.34995216096E+02  0.10566000000E+00 0.  1.
         23    2    1    0    0    0 -0.24755215832E+02 -0.81945046267E+01 -0.10762911477E+02  0.96789879822E+02  0.92587633924E+02 0.  0.
         13    1    3    3    0    0 -0.45924204944E+02 -0.27239059205E+02 -0.31105792947E+02  0.61794663726E+02  0.10566000000E+00 0. -1.
         22    1    1    0    0    0  0.24755215832E+02  0.81945046267E+01  0.10762911477E+02  0.28210120178E+02  0.00000000000E+00 0. -1.
</event>
<event>
 5    1  0.9034713E-005  0.9118800E+02  0.7818608E-02  0.1130116E+00
         25   -1    0    0    0    0  0.00000000000E+00  0.00000000000E+00  0.99999998245E-14  0.12500000000E+03  0.12500000000E+03 0.  0.
        -13    1    3    3    0    0 -0.25798104113E+02 -0.24441339664E+02 -0.21130815338E+02  0.41345420318E+02  0.10566000000E+00 0. -1.
         23    2    1    0    0    0  0.18133320376E+02 -0.22357568899E+02  0.92091100979E+01  0.94776070677E+02  0.89827711032E+02 0.  0.
         13    1    3    3    0    0  0.43931424490E+02  0.20837707649E+01  0.30339925436E+02  0.53430650359E+02  0.10566000000E+00 0.  1.
         22    1    1    0    0    0 -0.18133320376E+02  0.22357568899E+02 -0.92091100979E+01  0.30223929323E+02  0.00000000000E+00 0.  1.
</event>
<event>
 5    1  0.9034713E-005  0.9118800E+02  0.7818608E-02  0.1130116E+00
         25   -1    0    0    0    0  0.00000000000E+00  0.00000000000E+00  0.99999998245E-14  0.12500000000E+03  0.12500000000E+03 0.  0.
        -13    1    3    3    0    0 -0.39066069527E+02 -0.59204013801E+01 -0.13075132906E+02  0.41619457052E+02  0.10566000000E+00 0. -1.
         23    2    1    0    0    0  0.88135466792E+01  0.52945886403E+01 -0.29732713444E+02  0.93539778725E+02  0.88090548194E+02 0.  0.
         13    1    3    3    0    0  0.47879616206E+02  0.11214990020E+02 -0.16657580538E+02  0.51920321673E+02  0.10566000000E+00 0.  1.
         22    1    1    0    0    0 -0.88135466792E+01 -0.52945886403E+01  0.29732713444E+02  0.31460221275E+02  0.00000000000E+00 0. -1.
</event>
<event>
 5    1  0.9034713E-005  0.9118800E+02  0.7818608E-02  0.1130116E+00
         25   -1    0    0    0    0  0.00000000000E+00  0.00000000000E+00  0.99999998245E-14  0.12500000000E+03  0.12500000000E+03 0.  0.
        -13    1    3    3    0    0 -0.38291859951E+02 -0.14760568954E+02  0.94326062061E+01  0.42108504584E+02  0.10566000000E+00 0.  1.
         23    2    1    0    0    0  0.63166536478E+01 -0.20484072171E+02 -0.19857598855E+02  0.95779774842E+02  0.91213725450E+02 0.  0.
         13    1    3    3    0    0  0.44608513599E+02 -0.57235032169E+01 -0.29290205061E+02  0.53671270258E+02  0.10566000000E+00 0. -1.
         22    1    1    0    0    0 -0.63166536478E+01  0.20484072171E+02  0.19857598855E+02  0.29220225158E+02  0.00000000000E+00 0. -1.
</event>
<event>
 5    1  0.9034713E-005  0.9118800E+02  0.7818608E-02  0.1130116E+00
         25   -1    0    0    0    0  0.00000000000E+00  0.00000000000E+00  0.99999998245E-14  0.12500000000E+03  0.12500000000E+03 0.  0.
        -13    1    3    3    0    0  0.50557409600E+02  0.35919788504E+02  0.39314888924E+01  0.62142985449E+02  0.10566000000E+00 0. -1.
         23    2    1    0    0    0  0.21136758564E+02  0.20083579391E+02 -0.44068101536E+00  0.95839977306E+02  0.91296190099E+02 0.  0.
         13    1    3    3    0    0 -0.29420651036E+02 -0.15836209113E+02 -0.43721699077E+01  0.33696991857E+02  0.10566000000E+00 0.  1.
         22    1    1    0    0    0 -0.21136758564E+02 -0.20083579391E+02  0.44068101536E+00  0.29160022694E+02  0.00000000000E+00 0. -1.
</event>
<event>
 5    1  0.9034713E-005  0.9118800E+02  0.7818608E-02  0.1130116E+00
         25   -1    0    0    0    0  0.00000000000E+00  0.00000000000E+00  0.99999998245E-14  0.12500000000E+03  0.12500000000E+03 0.  0.
        -13    1    3    3    0    0 -0.28591155211E+02 -0.92907775425E+01 -0.47971317899E+02  0.56612995051E+02  0.10566000000E+00 0.  1.
         23    2    1    0    0    0  0.35678310004E+01 -0.12704677319E+02 -0.26395963525E+02  0.95489236977E+02  0.90814697292E+02 0.  0.
         13    1    3    3    0    0  0.32158986212E+02 -0.34138997764E+01  0.21575354374E+02  0.38876241926E+02  0.10566000000E+00 0. -1.
         22    1    1    0    0    0 -0.35678310004E+01  0.12704677319E+02  0.26395963525E+02  0.29510763023E+02  0.00000000000E+00 0.  1.
</event>
<event>
 5    1  0.9034713E-005  0.9118800E+02  0.7818608E-02  0.1130116E+00
         25   -1    0    0    0    0  0.00000000000E+00  0.00000000000E+00  0.99999998245E-14  0.12500000000E+03  0.12500000000E+03 0.  0.
        -13    1    3    3    0    0 -0.41655529688E+02 -0.20508461208E+02 -0.11212937894E+02  0.47765272688E+02  0.10566000000E+00 0.  1.
         23    2    1    0    0    0 -0.10085691547E+02  0.11936298341E+02 -0.25375790504E+02  0.95198538026E+02  0.90413685394E+02 0.  0.
         13    1    3    3    0    0  0.31569838142E+02  0.32444759550E+02 -0.14162852610E+02  0.47433265338E+02  0.10566000000E+00 0. -1.
         22    1    1    0    0    0  0.10085691547E+02 -0.11936298341E+02  0.25375790504E+02  0.29801461974E+02  0.00000000000E+00 0.  1.
</event>
<event>
 5    1  0.9034713E-005  0.9118800E+02  0.7818608E-02  0.1130116E+00
         25   -1    0    0    0    0  0.00000000000E+00  0.00000000000E+00  0.99999998245E-14  0.12500000000E+03  0.12500000000E+03 0.  0.
        -13    1    3    3    0    0  0.14198285501E+02  0.71579514501E+01  0.38419470840E+02  0.41579976957E+02  0.10566000000E+00 0. -1.
         23    2    1    0    0    0  0.24658703315E+02 -0.14737011213E+02 -0.90410499019E+01  0.94884028623E+02  0.89977814798E+02 0.  0.
         13    1    3    3    0    0  0.10460417814E+02 -0.21894962663E+02 -0.47460520742E+02  0.53304051666E+02  0.10566000000E+00 0.  1.
         22    1    1    0    0    0 -0.24658703315E+02  0.14737011213E+02  0.90410499019E+01  0.30115971377E+02  0.00000000000E+00 0.  1.
</event>
<event>
 5    1  0.9034713E-005  0.9118800E+02  0.7818608E-02  0.1130116E+00
         25   -1    0    0    0    0  0.00000000000E+00  0.00000000000E+00  0.99999998245E-14  0.12500000000E+03  0.12500000000E+03 0.  0.
        -13    1    3    3    0    0  0.19759247406E+02 -0.17910495836E+02  0.39237595249E+02  0.47442741954E+02  0.10566000000E+00 0. -1.
         23    2    1    0    0    0 -0.21852816317E+02 -0.71042196782E+01  0.19974308390E+02  0.94553513932E+02  0.89517475853E+02 0.  0.
         13    1    3    3    0    0 -0.41612063723E+02  0.10806276158E+02 -0.19263286859E+02  0.47110771978E+02  0.10566000000E+00 0.  1.
         22    1    1    0    0    0  0.21852816317E+02  0.71042196782E+01 -0.19974308390E+02  0.30446486068E+02  0.00000000000E+00 0.  1.
</event>
<event>
 5    1  0.9034713E-005  0.9118800E+02  0.7818608E-02  0.1130116E+00
         25   -1    0    0    0    0  0.00000000000E+00  0.00000000000E+00  0.99999998245E-14  0.12500000000E+03  0.12500000000E+03 0.  0.
        -13    1    3    3    0    0  0.24269088845E+01 -0.40382562826E+02 -0.35226226578E+01  0.40608635800E+02  0.10566000000E+00 0.  1.
         23    2    1    0    0    0  0.18611942829E+02  0.88255734102E+01  0.18890385704E+02  0.97051085282E+02  0.92939611148E+02 0.  0.
         13    1    3    3    0    0  0.16185033944E+02  0.49208136236E+02  0.22413008362E+02  0.56442449482E+02  0.10566000000E+00 0. -1.
         22    1    1    0    0    0 -0.18611942829E+02 -0.88255734102E+01 -0.18890385704E+02  0.27948914718E+02  0.00000000000E+00 0. -1.
</event>
<event>
 5    1  0.9034713E-005  0.9118800E+02  0.7818608E-02  0.1130116E+00
         25   -1    0    0    0    0  0.00000000000E+00  0.00000000000E+00  0.99999998245E-14  0.12500000000E+03  0.12500000000E+03 0.  0.
        -13    1    3    3    0    0 -0.28752953293E+02 -0.11142209222E+02  0.12461993505E+02  0.33259488805E+02  0.10566000000E+00 0.  1.
         23    2    1    0    0    0  0.24246996161E+02  0.93775097945E+01 -0.13459310286E+02  0.95725308778E+02  0.91139054167E+02 0.  0.
         13    1    3    3    0    0  0.52999949454E+02  0.20519719016E+02 -0.25921303791E+02  0.62465819973E+02  0.10566000000E+00 0. -1.
         22    1    1    0    0    0 -0.24246996161E+02 -0.93775097945E+01  0.13459310286E+02  0.29274691222E+02  0.00000000000E+00 0. -1.
</event>
<event>
 5    1  0.9034713E-005  0.9118800E+02  0.7818608E-02  0.1130116E+00
         25   -1    0    0    0    0  0.00000000000E+00  0.00000000000E+00  0.99999998245E-14  0.12500000000E+03  0.12500000000E+03 0.  0.
        -13    1    3    3    0    0 -0.65076028022E+01  0.38521457442E+02 -0.13400909013E+02  0.41301901943E+02  0.10566000000E+00 0.  1.
         23    2    1    0    0    0  0.27026335710E+02 -0.51425887703E+01 -0.58646307009E+01  0.96870603732E+02  0.92696552972E+02 0.  0.
         13    1    3    3    0    0  0.33533938512E+02 -0.43664046212E+02  0.75362783125E+01  0.55568701789E+02  0.10566000000E+00 0. -1.
         22    1    1    0    0    0 -0.27026335710E+02  0.51425887703E+01  0.58646307009E+01  0.28129396268E+02  0.00000000000E+00 0. -1.
</event>
<event>
 5    1  0.9034713E-005  0.9118800E+02  0.7818608E-02  0.1130116E+00
         25   -1    0    0    0    0  0.00000000000E+00  0.00000000000E+00  0.99999998245E-14  0.12500000000E+03  0.12500000000E+03 0.  0.
        -13    1    3    3    0    0 -0.34393572274E+02  0.30912103375E+00 -0.13500607772E+02  0.36949843624E+02  0.10566000000E+00 0.  1.
         23    2    1    0    0    0  0.81308097965E+01  0.21415563593E+02  0.19622637611E+02  0.94837368504E+02  0.89912969732E+02 0.  0.
         13    1    3    3    0    0  0.42524382070E+02  0.21106442560E+02  0.33123245383E+02  0.57887524880E+02  0.10566000000E+00 0. -1.
         22    1    1    0    0    0 -0.81308097965E+01 -0.21415563593E+02 -0.19622637611E+02  0.30162631496E+02  0.00000000000E+00 0. -1.
</event>
<event>
 5    1  0.9034713E-005  0.9118800E+02  0.7818608E-02  0.1130116E+00
         25   -1    0    0    0    0  0.00000000000E+00  0.00000000000E+00  0.99999998245E-14  0.12500000000E+03  0.12500000000E+03 0.  0.
        -13    1    3    3    0    0  0.33900960061E+02  0.15071485541E+02  0.33638196466E+01  0.37252533016E+02  0.10566000000E+00 0.  1.
         23    2    1    0    0    0 -0.14609228291E+02 -0.12437235926E+02 -0.19608834727E+02  0.97566065027E+02  0.93629676155E+02 0.  0.
         13    1    3    3    0    0 -0.48510188351E+02 -0.27508721467E+02 -0.22972654374E+02  0.60313532011E+02  0.10566000000E+00 0. -1.
         22    1    1    0    0    0  0.14609228291E+02  0.12437235926E+02  0.19608834727E+02  0.27433934973E+02  0.00000000000E+00 0. -1.
</event>
<event>
 5    1  0.9034713E-005  0.9118800E+02  0.7818608E-02  0.1130116E+00
         25   -1    0    0    0    0  0.00000000000E+00  0.00000000000E+00  0.99999998245E-14  0.12500000000E+03  0.12500000000E+03 0.  0.
        -13    1    3    3    0    0 -0.82085204930E+01  0.32577362399E+01  0.21638401270E+02  0.23371440427E+02  0.10566000000E+00 0.  1.
         23    2    1    0    0    0 -0.10209880202E+02  0.35360577604E+02 -0.25346415558E+02  0.80311602358E+02  0.66730057616E+02 0.  0.
         13    1    3    3    0    0 -0.20013597090E+01  0.32102841364E+02 -0.46984816828E+02  0.56940161931E+02  0.10566000000E+00 0. -1.
         22    1    1    0    0    0  0.10209880202E+02 -0.35360577604E+02  0.25346415558E+02  0.44688397642E+02  0.00000000000E+00 0. -1.
</event>
<event>
 5    1  0.9034713E-005  0.9118800E+02  0.7818608E-02  0.1130116E+00
         25   -1    0    0    0    0  0.00000000000E+00  0.00000000000E+00  0.99999998245E-14  0.12500000000E+03  0.12500000000E+03 0.  0.
        -13    1    3    3    0    0 -0.64196899635E+01 -0.35237412446E+02 -0.43096377715E+02  0.56037457038E+02  0.10566000000E+00 0. -1.
         23    2    1    0    0    0  0.10251304576E+02 -0.23739576332E+01 -0.26566850582E+02  0.96425142692E+02  0.92093895959E+02 0.  0.
         13    1    3    3    0    0  0.16670994540E+02  0.32863454812E+02  0.16529527134E+02  0.40387685653E+02  0.10566000000E+00 0.  1.
         22    1    1    0    0    0 -0.10251304576E+02  0.23739576332E+01  0.26566850582E+02  0.28574857308E+02  0.00000000000E+00 0. -1.
</event>
<event>
 5    1  0.9034713E-005  0.9118800E+02  0.7818608E-02  0.1130116E+00
         25   -1    0    0    0    0  0.00000000000E+00  0.00000000000E+00  0.99999998245E-14  0.12500000000E+03  0.12500000000E+03 0.  0.
        -13    1    3    3    0    0 -0.53113086216E+02  0.62835143586E+01 -0.57929635742E+01  0.53796394592E+02  0.10566000000E+00 0.  1.
         23    2    1    0    0    0 -0.23406915738E+02  0.16995444412E+02 -0.21397043883E+02  0.89019973290E+02  0.81424770939E+02 0.  0.
         13    1    3    3    0    0  0.29706170478E+02  0.10711930054E+02 -0.15604080309E+02  0.35223578698E+02  0.10566000000E+00 0. -1.
         22    1    1    0    0    0  0.23406915738E+02 -0.16995444412E+02  0.21397043883E+02  0.35980026710E+02  0.00000000000E+00 0. -1.
</event>
<event>
 5    1  0.9034713E-005  0.9118800E+02  0.7818608E-02  0.1130116E+00
         25   -1    0    0    0    0  0.00000000000E+00  0.00000000000E+00  0.99999998245E-14  0.12500000000E+03  0.12500000000E+03 0.  0.
        -13    1    3    3    0    0 -0.40098829170E+02  0.14263045133E+02 -0.42033508234E+02  0.59817869703E+02  0.10566000000E+00 0. -1.
         23    2    1    0    0    0 -0.18055979362E+02 -0.58630279890E+01 -0.22819624286E+02  0.95316187231E+02  0.90576193384E+02 0.  0.
         13    1    3    3    0    0  0.22042849809E+02 -0.20126073122E+02  0.19213883947E+02  0.35498317529E+02  0.10566000000E+00 0.  1.
         22    1    1    0    0    0  0.18055979362E+02  0.58630279890E+01  0.22819624286E+02  0.29683812769E+02  0.00000000000E+00 0. -1.
</event>
<event>
 5    1  0.9034713E-005  0.9118800E+02  0.7818608E-02  0.1130116E+00
         25   -1    0    0    0    0  0.00000000000E+00  0.00000000000E+00  0.99999998245E-14  0.12500000000E+03  0.12500000000E+03 0.  0.
        -13    1    3    3    0    0 -0.44219219427E+00 -0.61359214191E+02  0.23513749842E+01  0.61405934798E+02  0.10566000000E+00 0. -1.
         23    2    1    0    0    0 -0.44412563914E+01 -0.26927119956E+02  0.80761020819E+01  0.96539185319E+02  0.92248557331E+02 0.  0.
         13    1    3    3    0    0 -0.39990641972E+01  0.34432094234E+02  0.57247270977E+01  0.35133250521E+02  0.10566000000E+00 0.  1.
         22    1    1    0    0    0  0.44412563914E+01  0.26927119956E+02 -0.80761020819E+01  0.28460814681E+02  0.00000000000E+00 0. -1.
</event>
<event>
 5    1  0.9034713E-005  0.9118800E+02  0.7818608E-02  0.1130116E+00
         25   -1    0    0    0    0  0.00000000000E+00  0.00000000000E+00  0.99999998245E-14  0.12500000000E+03  0.12500000000E+03 0.  0.
        -13    1    3    3    0    0 -0.54371426495E+02  0.14030881835E+02  0.18717365867E+02  0.59190105703E+02  0.10566000000E+00 0. -1.
         23    2    1    0    0    0 -0.24276112004E+02 -0.57785670880E+01  0.16073827139E+02  0.95316850395E+02  0.90577108580E+02 0.  0.
         13    1    3    3    0    0  0.30095314491E+02 -0.19809448923E+02 -0.26435387286E+01  0.36126744691E+02  0.10566000000E+00 0.  1.
         22    1    1    0    0    0  0.24276112004E+02  0.57785670880E+01 -0.16073827139E+02  0.29683149605E+02  0.00000000000E+00 0. -1.
</event>
<event>
 5    1  0.9034713E-005  0.9118800E+02  0.7818608E-02  0.1130116E+00
         25   -1    0    0    0    0  0.00000000000E+00  0.00000000000E+00  0.99999998245E-14  0.12500000000E+03  0.12500000000E+03 0.  0.
        -13    1    3    3    0    0 -0.32568050496E+02  0.15681930813E+02  0.12498095220E+02  0.38246756925E+02  0.10566000000E+00 0.  1.
         23    2    1    0    0    0  0.25591606295E+02  0.90509779145E+01  0.14535066039E+01  0.97816122509E+02  0.93962921556E+02 0.  0.
         13    1    3    3    0    0  0.58159656791E+02 -0.66309528981E+01 -0.11044588616E+02  0.59569365584E+02  0.10566000000E+00 0. -1.
         22    1    1    0    0    0 -0.25591606295E+02 -0.90509779145E+01 -0.14535066039E+01  0.27183877491E+02  0.00000000000E+00 0. -1.
</event>
<event>
 5    1  0.9034713E-005  0.9118800E+02  0.7818608E-02  0.1130116E+00
         25   -1    0    0    0    0  0.00000000000E+00  0.00000000000E+00  0.99999998245E-14  0.12500000000E+03  0.12500000000E+03 0.  0.
        -13    1    3    3    0    0  0.14301482060E+02 -0.27256750855E+02 -0.43102561149E+02  0.52965128131E+02  0.10566000000E+00 0.  1.
         23    2    1    0    0    0 -0.81827707882E+01 -0.12342904180E+01 -0.35973444652E+02  0.88086995100E+02  0.79979677263E+02 0.  0.
         13    1    3    3    0    0 -0.22484252848E+02  0.26022460437E+02  0.71291164975E+01  0.35121866969E+02  0.10566000000E+00 0. -1.
         22    1    1    0    0    0  0.81827707882E+01  0.12342904180E+01  0.35973444652E+02  0.36913004900E+02  0.00000000000E+00 0. -1.
</event>
<event>
 5    1  0.9034713E-005  0.9118800E+02  0.7818608E-02  0.1130116E+00
         25   -1    0    0    0    0  0.00000000000E+00  0.00000000000E+00  0.99999998245E-14  0.12500000000E+03  0.12500000000E+03 0.  0.
        -13    1    3    3    0    0 -0.32064977386E+02 -0.13595768640E+02 -0.16039244734E+02  0.38344181244E+02  0.10566000000E+00 0. -1.
         23    2    1    0    0    0  0.23200920329E+00  0.23602852141E+02  0.15429521359E+02  0.96800379668E+02  0.92601808390E+02 0.  0.
         13    1    3    3    0    0  0.32296986589E+02  0.37198620781E+02  0.31468766093E+02  0.58456198424E+02  0.10566000000E+00 0.  1.
         22    1    1    0    0    0 -0.23200920329E+00 -0.23602852141E+02 -0.15429521359E+02  0.28199620332E+02  0.00000000000E+00 0.  1.
</event>
<event>
 5    1  0.9034713E-005  0.9118800E+02  0.7818608E-02  0.1130116E+00
         25   -1    0    0    0    0  0.00000000000E+00  0.00000000000E+00  0.99999998245E-14  0.12500000000E+03  0.12500000000E+03 0.  0.
        -13    1    3    3    0    0  0.24817960931E+01  0.28848901442E+02  0.32449503858E+02  0.43490227533E+02  0.10566000000E+00 0.  1.
         23    2    1    0    0    0 -0.14770005558E+02 -0.17987528138E+02  0.18365817437E+02  0.95351939645E+02  0.90625520199E+02 0.  0.
         13    1    3    3    0    0 -0.17251801651E+02 -0.46836429579E+02 -0.14083686421E+02  0.51861712112E+02  0.10566000000E+00 0. -1.
         22    1    1    0    0    0  0.14770005558E+02  0.17987528138E+02 -0.18365817437E+02  0.29648060355E+02  0.00000000000E+00 0. -1.
</event>
<event>
 5    1  0.9034713E-005  0.9118800E+02  0.7818608E-02  0.1130116E+00
         25   -1    0    0    0    0  0.00000000000E+00  0.00000000000E+00  0.99999998245E-14  0.12500000000E+03  0.12500000000E+03 0.  0.
        -13    1    3    3    0    0  0.22429008024E+02 -0.42524476178E+02  0.32177444855E+02  0.57851452848E+02  0.10566000000E+00 0. -1.
         23    2    1    0    0    0  0.98497918900E+01 -0.61889232695E+01  0.25626213653E+02  0.96857079084E+02  0.92678313380E+02 0.  0.
         13    1    3    3    0    0 -0.12579216134E+02  0.36335552909E+02 -0.65512312022E+01  0.39005626236E+02  0.10566000000E+00 0.  1.
         22    1    1    0    0    0 -0.98497918900E+01  0.61889232695E+01 -0.25626213653E+02  0.28142920916E+02  0.00000000000E+00 0. -1.
</event>
<event>
 5    1  0.9034713E-005  0.9118800E+02  0.7818608E-02  0.1130116E+00
         25   -1    0    0    0    0  0.00000000000E+00  0.00000000000E+00  0.99999998245E-14  0.12500000000E+03  0.12500000000E+03 0.  0.
        -13    1    3    3    0    0 -0.40823036501E+01 -0.62022041130E+02  0.57767817263E+01  0.62424203321E+02  0.10566000000E+00 0. -1.
         23    2    1    0    0    0 -0.52269399186E+00 -0.33461258824E+02  0.44888291736E+01  0.91234949453E+02  0.84756931064E+02 0.  0.
         13    1    3    3    0    0  0.35596096582E+01  0.28560782307E+02 -0.12879525527E+01  0.28810746133E+02  0.10566000000E+00 0.  1.
         22    1    1    0    0    0  0.52269399186E+00  0.33461258824E+02 -0.44888291736E+01  0.33765050547E+02  0.00000000000E+00 0. -1.
</event>
<event>
 5    1  0.9034713E-005  0.9118800E+02  0.7818608E-02  0.1130116E+00
         25   -1    0    0    0    0  0.00000000000E+00  0.00000000000E+00  0.99999998245E-14  0.12500000000E+03  0.12500000000E+03 0.  0.
        -13    1    3    3    0    0 -0.10761176355E+02 -0.42759584317E+02 -0.70194412360E+01  0.44648277534E+02  0.10566000000E+00 0.  1.
         23    2    1    0    0    0  0.18419013213E+02 -0.31774951214E+01 -0.22073065674E+02  0.96076363451E+02  0.91619271241E+02 0.  0.
         13    1    3    3    0    0  0.29180189568E+02  0.39582089195E+02 -0.15053624438E+02  0.51428085917E+02  0.10566000000E+00 0. -1.
         22    1    1    0    0    0 -0.18419013213E+02  0.31774951214E+01  0.22073065674E+02  0.28923636549E+02  0.00000000000E+00 0. -1.
</event>
<event>
 5    1  0.9034713E-005  0.9118800E+02  0.7818608E-02  0.1130116E+00
         25   -1    0    0    0    0  0.00000000000E+00  0.00000000000E+00  0.99999998245E-14  0.12500000000E+03  0.12500000000E+03 0.  0.
        -13    1    3    3    0    0 -0.56331617855E+02 -0.17903993647E+00  0.15421219680E+02  0.58404695067E+02  0.10566000000E+00 0.  1.
         23    2    1    0    0    0 -0.25497186781E+02  0.15009507115E+02  0.18634960495E+01  0.95354351835E+02  0.90628847277E+02 0.  0.
         13    1    3    3    0    0  0.30834431074E+02  0.15188547052E+02 -0.13557723631E+02  0.36949656768E+02  0.10566000000E+00 0. -1.
         22    1    1    0    0    0  0.25497186781E+02 -0.15009507115E+02 -0.18634960495E+01  0.29645648165E+02  0.00000000000E+00 0.  1.
</event>
<event>
 5    1  0.9034713E-005  0.9118800E+02  0.7818608E-02  0.1130116E+00
         25   -1    0    0    0    0  0.00000000000E+00  0.00000000000E+00  0.99999998245E-14  0.12500000000E+03  0.12500000000E+03 0.  0.
        -13    1    3    3    0    0 -0.55357902382E+02 -0.84881224128E+01  0.93762509620E+01  0.56784424135E+02  0.10566000000E+00 0. -1.
         23    2    1    0    0    0 -0.19476268683E+02 -0.19359108430E+02 -0.52735340562E+01  0.97037341284E+02  0.92921124192E+02 0.  0.
         13    1    3    3    0    0  0.35881633699E+02 -0.10870986018E+02 -0.14649785018E+02  0.40252917149E+02  0.10566000000E+00 0.  1.
         22    1    1    0    0    0  0.19476268683E+02  0.19359108430E+02  0.52735340562E+01  0.27962658716E+02  0.00000000000E+00 0. -1.
</event>
<event>
 5    1  0.9034713E-005  0.9118800E+02  0.7818608E-02  0.1130116E+00
         25   -1    0    0    0    0  0.00000000000E+00  0.00000000000E+00  0.99999998245E-14  0.12500000000E+03  0.12500000000E+03 0.  0.
        -13    1    3    3    0    0  0.17862882163E+02 -0.16608241646E+02  0.19380357635E+02  0.31153261079E+02  0.10566000000E+00 0.  1.
         23    2    1    0    0    0 -0.23318549687E+02  0.17228853002E+02 -0.12683413678E+02  0.93354192730E+02  0.87826807881E+02 0.  0.
         13    1    3    3    0    0 -0.41181431850E+02  0.33837094648E+02 -0.32063771313E+02  0.62200931651E+02  0.10566000000E+00 0. -1.
         22    1    1    0    0    0  0.23318549687E+02 -0.17228853002E+02  0.12683413678E+02  0.31645807270E+02  0.00000000000E+00 0. -1.
</event>
<event>
 5    1  0.9034713E-005  0.9118800E+02  0.7818608E-02  0.1130116E+00
         25   -1    0    0    0    0  0.00000000000E+00  0.00000000000E+00  0.99999998245E-14  0.12500000000E+03  0.12500000000E+03 0.  0.
        -13    1    3    3    0    0  0.70682781028E+01 -0.11848018417E+02  0.30647063045E+02  0.33609369721E+02  0.10566000000E+00 0.  1.
         23    2    1    0    0    0 -0.73531696670E+01  0.31281530404E+01 -0.28025878619E+02  0.95857173817E+02  0.91319732009E+02 0.  0.
         13    1    3    3    0    0 -0.14421447770E+02  0.14976171457E+02 -0.58672941663E+02  0.62247804096E+02  0.10566000000E+00 0. -1.
         22    1    1    0    0    0  0.73531696670E+01 -0.31281530404E+01  0.28025878619E+02  0.29142826183E+02  0.00000000000E+00 0. -1.
</event>
<event>
 5    1  0.9034713E-005  0.9118800E+02  0.7818608E-02  0.1130116E+00
         25   -1    0    0    0    0  0.00000000000E+00  0.00000000000E+00  0.99999998245E-14  0.12500000000E+03  0.12500000000E+03 0.  0.
        -13    1    3    3    0    0 -0.23536990029E+02  0.29575030000E+02  0.44144810973E+02  0.58115813674E+02  0.10566000000E+00 0.  1.
         23    2    1    0    0    0 -0.68359582480E+01  0.30180487278E+02  0.17839341204E+02  0.89281178181E+02  0.81824779531E+02 0.  0.
         13    1    3    3    0    0  0.16701031781E+02  0.60545727831E+00 -0.26305469769E+02  0.31165364507E+02  0.10566000000E+00 0. -1.
         22    1    1    0    0    0  0.68359582480E+01 -0.30180487278E+02 -0.17839341204E+02  0.35718821819E+02  0.00000000000E+00 0.  1.
</event>
<event>
 5    1  0.9034713E-005  0.9118800E+02  0.7818608E-02  0.1130116E+00
         25   -1    0    0    0    0  0.00000000000E+00  0.00000000000E+00  0.99999998245E-14  0.12500000000E+03  0.12500000000E+03 0.  0.
        -13    1    3    3    0    0 -0.51268132291E+02  0.31719780187E+01  0.19428108334E+01  0.51403000993E+02  0.10566000000E+00 0. -1.
         23    2    1    0    0    0 -0.22249634901E+02 -0.15232096475E+02  0.21114985087E+02  0.90752290420E+02  0.84042088295E+02 0.  0.
         13    1    3    3    0    0  0.29018497390E+02 -0.18404074494E+02  0.19172174253E+02  0.39349289427E+02  0.10566000000E+00 0.  1.
         22    1    1    0    0    0  0.22249634901E+02  0.15232096475E+02 -0.21114985087E+02  0.34247709580E+02  0.00000000000E+00 0. -1.
</event>
<event>
 5    1  0.9034713E-005  0.9118800E+02  0.7818608E-02  0.1130116E+00
         25   -1    0    0    0    0  0.00000000000E+00  0.00000000000E+00  0.99999998245E-14  0.12500000000E+03  0.12500000000E+03 0.  0.
        -13    1    3    3    0    0  0.40934007604E+02  0.20058337688E+02  0.58533261073E+01  0.45958704071E+02  0.10566000000E+00 0.  1.
         23    2    1    0    0    0  0.12929407729E+02 -0.22249285166E+02  0.11117931322E+02  0.96967720901E+02  0.92827421731E+02 0.  0.
         13    1    3    3    0    0 -0.28004599876E+02 -0.42307622855E+02  0.52646052143E+01  0.51009016829E+02  0.10566000000E+00 0. -1.
         22    1    1    0    0    0 -0.12929407729E+02  0.22249285166E+02 -0.11117931322E+02  0.28032279099E+02  0.00000000000E+00 0.  1.
</event>
<event>
 5    1  0.9034713E-005  0.9118800E+02  0.7818608E-02  0.1130116E+00
         25   -1    0    0    0    0  0.00000000000E+00  0.00000000000E+00  0.99999998245E-14  0.12500000000E+03  0.12500000000E+03 0.  0.
        -13    1    3    3    0    0 -0.34862031535E+02  0.38174298648E+02 -0.34526175979E+02  0.62166762114E+02  0.10566000000E+00 0.  1.
         23    2    1    0    0    0 -0.19610197999E+02  0.16310955466E+02 -0.13357708736E+02  0.96207023140E+02  0.91797362626E+02 0.  0.
         13    1    3    3    0    0  0.15251833536E+02 -0.21863343182E+02  0.21168467243E+02  0.34040261026E+02  0.10566000000E+00 0. -1.
         22    1    1    0    0    0  0.19610197999E+02 -0.16310955466E+02  0.13357708736E+02  0.28792976860E+02  0.00000000000E+00 0.  1.
</event>
<event>
 5    1  0.9034713E-005  0.9118800E+02  0.7818608E-02  0.1130116E+00
         25   -1    0    0    0    0  0.00000000000E+00  0.00000000000E+00  0.99999998245E-14  0.12500000000E+03  0.12500000000E+03 0.  0.
        -13    1    3    3    0    0 -0.22917570650E+02  0.81731012557E+01 -0.28365495622E+02  0.37371474878E+02  0.10566000000E+00 0.  1.
         23    2    1    0    0    0  0.28060328899E+02 -0.83823326638E+01 -0.11075392373E+02  0.93690099409E+02  0.88303594787E+02 0.  0.
         13    1    3    3    0    0  0.50977899549E+02 -0.16555433920E+02  0.17290103249E+02  0.56318624531E+02  0.10566000000E+00 0. -1.
         22    1    1    0    0    0 -0.28060328899E+02  0.83823326638E+01  0.11075392373E+02  0.31309900591E+02  0.00000000000E+00 0. -1.
</event>
<event>
 5    1  0.9034713E-005  0.9118800E+02  0.7818608E-02  0.1130116E+00
         25   -1    0    0    0    0  0.00000000000E+00  0.00000000000E+00  0.99999998245E-14  0.12500000000E+03  0.12500000000E+03 0.  0.
        -13    1    3    3    0    0 -0.18342326950E+02  0.26631587609E+02  0.11143765349E+02  0.34203466004E+02  0.10566000000E+00 0. -1.
         23    2    1    0    0    0  0.46373883913E+01 -0.21916621353E+02 -0.18849790152E+02  0.95722734906E+02  0.91135523954E+02 0.  0.
         13    1    3    3    0    0  0.22979715342E+02 -0.48548208962E+02 -0.29993555501E+02  0.61519268902E+02  0.10566000000E+00 0.  1.
         22    1    1    0    0    0 -0.46373883913E+01  0.21916621353E+02  0.18849790152E+02  0.29277265094E+02  0.00000000000E+00 0.  1.
</event>
<event>
 5    1  0.9034713E-005  0.9118800E+02  0.7818608E-02  0.1130116E+00
         25   -1    0    0    0    0  0.00000000000E+00  0.00000000000E+00  0.99999998245E-14  0.12500000000E+03  0.12500000000E+03 0.  0.
        -13    1    3    3    0    0 -0.45520028816E+02  0.36743689831E+02  0.16671518268E+02  0.60828631837E+02  0.10566000000E+00 0.  1.
         23    2    1    0    0    0 -0.16255121447E+02  0.24787270996E+02  0.32234986595E+01  0.95183415348E+02  0.90392775358E+02 0.  0.
         13    1    3    3    0    0  0.29264907369E+02 -0.11956418835E+02 -0.13448019609E+02  0.34354783511E+02  0.10566000000E+00 0. -1.
         22    1    1    0    0    0  0.16255121447E+02 -0.24787270996E+02 -0.32234986595E+01  0.29816584652E+02  0.00000000000E+00 0.  1.
</event>
<event>
 5    1  0.9034713E-005  0.9118800E+02  0.7818608E-02  0.1130116E+00
         25   -1    0    0    0    0  0.00000000000E+00  0.00000000000E+00  0.99999998245E-14  0.12500000000E+03  0.12500000000E+03 0.  0.
        -13    1    3    3    0    0  0.58926123095E+02  0.47932761146E+00 -0.17310398749E+02  0.61418065802E+02  0.10566000000E+00 0.  1.
         23    2    1    0    0    0  0.28733816633E+02 -0.37538918649E+01 -0.97676644273E+00  0.96005552340E+02  0.91522609692E+02 0.  0.
         13    1    3    3    0    0 -0.30192306462E+02 -0.42332194764E+01  0.16333632306E+02  0.34587486537E+02  0.10566000000E+00 0. -1.
         22    1    1    0    0    0 -0.28733816633E+02  0.37538918649E+01  0.97676644273E+00  0.28994447660E+02  0.00000000000E+00 0.  1.
</event>
<event>
 5    1  0.9034713E-005  0.9118800E+02  0.7818608E-02  0.1130116E+00
         25   -1    0    0    0    0  0.00000000000E+00  0.00000000000E+00  0.99999998245E-14  0.12500000000E+03  0.12500000000E+03 0.  0.
        -13    1    3    3    0    0 -0.15187874946E+02  0.79690876440E+01  0.36109282884E+02  0.39975859936E+02  0.10566000000E+00 0.  1.
         23    2    1    0    0    0  0.38593289297E+01  0.39219848233E+02  0.25422540059E+02  0.78102276620E+02  0.62454536704E+02 0.  0.
         13    1    3    3    0    0  0.19047203875E+02  0.31250760589E+02 -0.10686742825E+02  0.38126416683E+02  0.10566000000E+00 0. -1.
         22    1    1    0    0    0 -0.38593289297E+01 -0.39219848233E+02 -0.25422540059E+02  0.46897723380E+02  0.00000000000E+00 0. -1.
</event>
<event>
 5    1  0.9034713E-005  0.9118800E+02  0.7818608E-02  0.1130116E+00
         25   -1    0    0    0    0  0.00000000000E+00  0.00000000000E+00  0.99999998245E-14  0.12500000000E+03  0.12500000000E+03 0.  0.
        -13    1    3    3    0    0  0.33385221173E+02 -0.50802084806E+02 -0.45469470164E+01  0.60959910635E+02  0.10566000000E+00 0. -1.
         23    2    1    0    0    0  0.16248048614E+02 -0.22934556930E+02 -0.11877708104E+02  0.94486512243E+02  0.89423867399E+02 0.  0.
         13    1    3    3    0    0 -0.17137172559E+02  0.27867527876E+02 -0.73307610873E+01  0.33526601608E+02  0.10566000000E+00 0.  1.
         22    1    1    0    0    0 -0.16248048614E+02  0.22934556930E+02  0.11877708104E+02  0.30513487757E+02  0.00000000000E+00 0. -1.
</event>
<event>
 5    1  0.9034713E-005  0.9118800E+02  0.7818608E-02  0.1130116E+00
         25   -1    0    0    0    0  0.00000000000E+00  0.00000000000E+00  0.99999998245E-14  0.12500000000E+03  0.12500000000E+03 0.  0.
        -13    1    3    3    0    0 -0.69935636158E+01 -0.61035788049E+02  0.10758922414E+02  0.62370208676E+02  0.10566000000E+00 0.  1.
         23    2    1    0    0    0 -0.26465561583E+01 -0.28826220595E+02  0.22618825192E+01  0.95964308759E+02  0.91466262577E+02 0.  0.
         13    1    3    3    0    0  0.43470074575E+01  0.32209567454E+02 -0.84970398949E+01  0.33594100083E+02  0.10566000000E+00 0. -1.
         22    1    1    0    0    0  0.26465561583E+01  0.28826220595E+02 -0.22618825192E+01  0.29035691241E+02  0.00000000000E+00 0.  1.
</event>
<event>
 5    1  0.9034713E-005  0.9118800E+02  0.7818608E-02  0.1130116E+00
         25   -1    0    0    0    0  0.00000000000E+00  0.00000000000E+00  0.99999998245E-14  0.12500000000E+03  0.12500000000E+03 0.  0.
        -13    1    3    3    0    0 -0.31629342536E+02 -0.32010244139E+02  0.41371685878E+02  0.61128541579E+02  0.10566000000E+00 0. -1.
         23    2    1    0    0    0 -0.84776074229E+01 -0.12535698542E+02  0.25638407398E+02  0.95228511971E+02  0.90455115902E+02 0.  0.
         13    1    3    3    0    0  0.23151735114E+02  0.19474545597E+02 -0.15733278480E+02  0.34099970392E+02  0.10566000000E+00 0.  1.
         22    1    1    0    0    0  0.84776074229E+01  0.12535698542E+02 -0.25638407398E+02  0.29771488029E+02  0.00000000000E+00 0. -1.
</event>
<event>
 5    1  0.9034713E-005  0.9118800E+02  0.7818608E-02  0.1130116E+00
         25   -1    0    0    0    0  0.00000000000E+00  0.00000000000E+00  0.99999998245E-14  0.12500000000E+03  0.12500000000E+03 0.  0.
        -13    1    3    3    0    0 -0.36806173092E+02 -0.56439705882E+01 -0.15011078159E+02  0.40148379957E+02  0.10566000000E+00 0. -1.
         23    2    1    0    0    0 -0.82343271436E+00  0.22921200700E+02  0.17262287639E+02  0.96293797578E+02  0.91915446985E+02 0.  0.
         13    1    3    3    0    0  0.35982740377E+02  0.28565171288E+02  0.32273365798E+02  0.56145417620E+02  0.10566000000E+00 0.  1.
         22    1    1    0    0    0  0.82343271436E+00 -0.22921200700E+02 -0.17262287639E+02  0.28706202422E+02  0.00000000000E+00 0.  1.
</event>
<event>
 5    1  0.9034713E-005  0.9118800E+02  0.7818608E-02  0.1130116E+00
         25   -1    0    0    0    0  0.00000000000E+00  0.00000000000E+00  0.99999998245E-14  0.12500000000E+03  0.12500000000E+03 0.  0.
        -13    1    3    3    0    0  0.48125359068E+02 -0.17404541239E+02 -0.19144449811E+02  0.54639631805E+02  0.10566000000E+00 0. -1.
         23    2    1    0    0    0  0.30062192846E+02  0.12238645315E+02 -0.48462199193E+01  0.92182234607E+02  0.86142664527E+02 0.  0.
         13    1    3    3    0    0 -0.18063166222E+02  0.29643186554E+02  0.14298229892E+02  0.37542602802E+02  0.10566000000E+00 0.  1.
         22    1    1    0    0    0 -0.30062192846E+02 -0.12238645315E+02  0.48462199193E+01  0.32817765393E+02  0.00000000000E+00 0. -1.
</event>
<event>
 5    1  0.9034713E-005  0.9118800E+02  0.7818608E-02  0.1130116E+00
         25   -1    0    0    0    0  0.00000000000E+00  0.00000000000E+00  0.99999998245E-14  0.12500000000E+03  0.12500000000E+03 0.  0.
        -13    1    3    3    0    0  0.27814673886E+02 -0.32468305273E+02  0.30721466587E+02  0.52646620063E+02  0.10566000000E+00 0.  1.
         23    2    1    0    0    0  0.19072298651E+02  0.86428530629E+01  0.20047002753E+02  0.96011488409E+02  0.91530716715E+02 0.  0.
         13    1    3    3    0    0 -0.87423752356E+01  0.41111158336E+02 -0.10674463834E+02  0.43364868346E+02  0.10566000000E+00 0. -1.
         22    1    1    0    0    0 -0.19072298651E+02 -0.86428530629E+01 -0.20047002753E+02  0.28988511591E+02  0.00000000000E+00 0.  1.
</event>
<event>
 5    1  0.9034713E-005  0.9118800E+02  0.7818608E-02  0.1130116E+00
         25   -1    0    0    0    0  0.00000000000E+00  0.00000000000E+00  0.99999998245E-14  0.12500000000E+03  0.12500000000E+03 0.  0.
        -13    1    3    3    0    0  0.89041338617E+01 -0.38444165980E+02 -0.14029041821E+02  0.41881531445E+02  0.10566000000E+00 0.  1.
         23    2    1    0    0    0  0.25765100103E+01  0.15790291794E+02 -0.22761771450E+02  0.97177887242E+02  0.93109998445E+02 0.  0.
         13    1    3    3    0    0 -0.63276238514E+01  0.54234457774E+02 -0.87327296293E+01  0.55296355797E+02  0.10566000000E+00 0. -1.
         22    1    1    0    0    0 -0.25765100103E+01 -0.15790291794E+02  0.22761771450E+02  0.27822112758E+02  0.00000000000E+00 0. -1.
</event>
<event>
 5    1  0.9034713E-005  0.9118800E+02  0.7818608E-02  0.1130116E+00
         25   -1    0    0    0    0  0.00000000000E+00  0.00000000000E+00  0.99999998245E-14  0.12500000000E+03  0.12500000000E+03 0.  0.
        -13    1    3    3    0    0  0.43891678176E+02  0.22255429170E+01  0.24613608121E+02  0.50371354192E+02  0.10566000000E+00 0. -1.
         23    2    1    0    0    0  0.81315637464E+01 -0.23025928818E+02  0.18040670939E+02  0.94639144696E+02  0.89636968790E+02 0.  0.
         13    1    3    3    0    0 -0.35760114430E+02 -0.25251471735E+02 -0.65729371824E+01  0.44267790503E+02  0.10566000000E+00 0.  1.
         22    1    1    0    0    0 -0.81315637464E+01  0.23025928818E+02 -0.18040670939E+02  0.30360855304E+02  0.00000000000E+00 0. -1.
</event>
<event>
 5    1  0.9034713E-005  0.9118800E+02  0.7818608E-02  0.1130116E+00
         25   -1    0    0    0    0  0.00000000000E+00  0.00000000000E+00  0.99999998245E-14  0.12500000000E+03  0.12500000000E+03 0.  0.
        -13    1    3    3    0    0 -0.85450308722E+01  0.36872737377E+02  0.97480625306E+00  0.37862616464E+02  0.10566000000E+00 0. -1.
         23    2    1    0    0    0 -0.20850957998E+02 -0.19512066985E+02 -0.54386786682E+01  0.95930042430E+02  0.91419421391E+02 0.  0.
         13    1    3    3    0    0 -0.12305927126E+02 -0.56384804362E+02 -0.64134849212E+01  0.58067425965E+02  0.10566000000E+00 0.  1.
         22    1    1    0    0    0  0.20850957998E+02  0.19512066985E+02  0.54386786682E+01  0.29069957570E+02  0.00000000000E+00 0.  1.
</event>
<event>
 5    1  0.9034713E-005  0.9118800E+02  0.7818608E-02  0.1130116E+00
         25   -1    0    0    0    0  0.00000000000E+00  0.00000000000E+00  0.99999998245E-14  0.12500000000E+03  0.12500000000E+03 0.  0.
        -13    1    3    3    0    0 -0.42441992856E+02  0.89881249451E+01 -0.29917720629E+02  0.52699054254E+02  0.10566000000E+00 0. -1.
         23    2    1    0    0    0  0.39977986521E+00  0.13814490250E+02 -0.25445885704E+02  0.96043255292E+02  0.91574089255E+02 0.  0.
         13    1    3    3    0    0  0.42841772721E+02  0.48263653054E+01  0.44718349246E+01  0.43344201038E+02  0.10566000000E+00 0.  1.
         22    1    1    0    0    0 -0.39977986521E+00 -0.13814490250E+02  0.25445885704E+02  0.28956744708E+02  0.00000000000E+00 0. -1.
</event>
<event>
 5    1  0.9034713E-005  0.9118800E+02  0.7818608E-02  0.1130116E+00
         25   -1    0    0    0    0  0.00000000000E+00  0.00000000000E+00  0.99999998245E-14  0.12500000000E+03  0.12500000000E+03 0.  0.
        -13    1    3    3    0    0 -0.19299296096E+02  0.37358666856E+02  0.92481820154E+01  0.43054301221E+02  0.10566000000E+00 0.  1.
         23    2    1    0    0    0 -0.12410111888E+02  0.67256642713E+00 -0.27119012050E+02  0.95168740602E+02  0.90372480051E+02 0.  0.
         13    1    3    3    0    0  0.68891842079E+01 -0.36686100428E+02 -0.36367194066E+02  0.52114439381E+02  0.10566000000E+00 0. -1.
         22    1    1    0    0    0  0.12410111888E+02 -0.67256642713E+00  0.27119012050E+02  0.29831259398E+02  0.00000000000E+00 0. -1.
</event>
<event>
 5    1  0.9034713E-005  0.9118800E+02  0.7818608E-02  0.1130116E+00
         25   -1    0    0    0    0  0.00000000000E+00  0.00000000000E+00  0.99999998245E-14  0.12500000000E+03  0.12500000000E+03 0.  0.
        -13    1    3    3    0    0  0.22715691718E+02 -0.13828791515E+02 -0.19464248804E+02  0.32956126449E+02  0.10566000000E+00 0.  1.
         23    2    1    0    0    0 -0.22032948806E+02  0.16826707659E+02  0.11007343008E+02  0.95171313743E+02  0.90376039057E+02 0.  0.
         13    1    3    3    0    0 -0.44748640524E+02  0.30655499174E+02  0.30471591812E+02  0.62215187294E+02  0.10566000000E+00 0. -1.
         22    1    1    0    0    0  0.22032948806E+02 -0.16826707659E+02 -0.11007343008E+02  0.29828686257E+02  0.00000000000E+00 0. -1.
</event>
<event>
 5    1  0.9034713E-005  0.9118800E+02  0.7818608E-02  0.1130116E+00
         25   -1    0    0    0    0  0.00000000000E+00  0.00000000000E+00  0.99999998245E-14  0.12500000000E+03  0.12500000000E+03 0.  0.
        -13    1    3    3    0    0  0.45590396410E+02  0.88500066516E+01 -0.17459778378E+02  0.49615137686E+02  0.10566000000E+00 0.  1.
         23    2    1    0    0    0  0.23273522423E+02 -0.14070477089E+02  0.13938585582E+02  0.94439906095E+02  0.89358695848E+02 0.  0.
         13    1    3    3    0    0 -0.22316873988E+02 -0.22920483741E+02  0.31398363960E+02  0.44824768408E+02  0.10566000000E+00 0. -1.
         22    1    1    0    0    0 -0.23273522423E+02  0.14070477089E+02 -0.13938585582E+02  0.30560093905E+02  0.00000000000E+00 0.  1.
</event>
<event>
 5    1  0.9034713E-005  0.9118800E+02  0.7818608E-02  0.1130116E+00
         25   -1    0    0    0    0  0.00000000000E+00  0.00000000000E+00  0.99999998245E-14  0.12500000000E+03  0.12500000000E+03 0.  0.
        -13    1    3    3    0    0 -0.48590853031E+02  0.33862565498E+02  0.13592523454E+02  0.60766044780E+02  0.10566000000E+00 0.  1.
         23    2    1    0    0    0 -0.21005365864E+02  0.16967972958E+02 -0.41815504345E+01  0.97675599450E+02  0.93775795718E+02 0.  0.
         13    1    3    3    0    0  0.27585487167E+02 -0.16894592540E+02 -0.17774073888E+02  0.36909554670E+02  0.10566000000E+00 0. -1.
         22    1    1    0    0    0  0.21005365864E+02 -0.16967972958E+02  0.41815504345E+01  0.27324400550E+02  0.00000000000E+00 0.  1.
</event>
<event>
 5    1  0.9034713E-005  0.9118800E+02  0.7818608E-02  0.1130116E+00
         25   -1    0    0    0    0  0.00000000000E+00  0.00000000000E+00  0.99999998245E-14  0.12500000000E+03  0.12500000000E+03 0.  0.
        -13    1    3    3    0    0 -0.82953095789E+00 -0.10262174363E+02 -0.32302757156E+02  0.33903976583E+02  0.10566000000E+00 0. -1.
         23    2    1    0    0    0 -0.79903003490E+01  0.14693509211E+02  0.23908743486E+02  0.95821718219E+02  0.91271186882E+02 0.  0.
         13    1    3    3    0    0 -0.71607693911E+01  0.24955683573E+02  0.56211500642E+02  0.61917741636E+02  0.10566000000E+00 0.  1.
         22    1    1    0    0    0  0.79903003490E+01 -0.14693509211E+02 -0.23908743486E+02  0.29178281781E+02  0.00000000000E+00 0.  1.
</event>
<event>
 5    1  0.9034713E-005  0.9118800E+02  0.7818608E-02  0.1130116E+00
         25   -1    0    0    0    0  0.00000000000E+00  0.00000000000E+00  0.99999998245E-14  0.12500000000E+03  0.12500000000E+03 0.  0.
        -13    1    3    3    0    0  0.32784899611E+02  0.39500321799E+02  0.10540842043E+02  0.52404633189E+02  0.10566000000E+00 0. -1.
         23    2    1    0    0    0  0.13017447357E+02  0.36975000094E+01  0.25646197786E+02  0.96002536268E+02  0.91518490301E+02 0.  0.
         13    1    3    3    0    0 -0.19767452253E+02 -0.35802821790E+02  0.15105355743E+02  0.43597903079E+02  0.10566000000E+00 0.  1.
         22    1    1    0    0    0 -0.13017447357E+02 -0.36975000094E+01 -0.25646197786E+02  0.28997463732E+02  0.00000000000E+00 0.  1.
</event>
<event>
 5    1  0.9034713E-005  0.9118800E+02  0.7818608E-02  0.1130116E+00
         25   -1    0    0    0    0  0.00000000000E+00  0.00000000000E+00  0.99999998245E-14  0.12500000000E+03  0.12500000000E+03 0.  0.
        -13    1    3    3    0    0 -0.96995913572E+01  0.49448398625E+02  0.27612076263E+02  0.57460108934E+02  0.10566000000E+00 0.  1.
         23    2    1    0    0    0  0.90112740709E+01  0.17939188896E+02  0.23120016612E+02  0.94380517203E+02  0.89275580652E+02 0.  0.
         13    1    3    3    0    0  0.18710865428E+02 -0.31509209729E+02 -0.44920596510E+01  0.36920408269E+02  0.10566000000E+00 0. -1.
         22    1    1    0    0    0 -0.90112740709E+01 -0.17939188896E+02 -0.23120016612E+02  0.30619482797E+02  0.00000000000E+00 0.  1.
</event>
<event>
 5    1  0.9034713E-005  0.9118800E+02  0.7818608E-02  0.1130116E+00
         25   -1    0    0    0    0  0.00000000000E+00  0.00000000000E+00  0.99999998245E-14  0.12500000000E+03  0.12500000000E+03 0.  0.
        -13    1    3    3    0    0 -0.84463014901E-01 -0.42892727495E+02 -0.22881734496E+02  0.48614587765E+02  0.10566000000E+00 0.  1.
         23    2    1    0    0    0  0.21758925440E+02  0.31300460561E-01  0.25722196044E+01  0.10308954291E+03  0.10073423315E+03 0.  0.
         13    1    3    3    0    0  0.21843388455E+02  0.42924027956E+02  0.25453954101E+02  0.54474955149E+02  0.10566000000E+00 0. -1.
         22    1    1    0    0    0 -0.21758925440E+02 -0.31300460561E-01 -0.25722196044E+01  0.21910457086E+02  0.00000000000E+00 0. -1.
</event>
<event>
 5    1  0.9034713E-005  0.9118800E+02  0.7818608E-02  0.1130116E+00
         25   -1    0    0    0    0  0.00000000000E+00  0.00000000000E+00  0.99999998245E-14  0.12500000000E+03  0.12500000000E+03 0.  0.
        -13    1    3    3    0    0  0.20040547044E+01 -0.45371175817E+02  0.41210813903E+02  0.61326194867E+02  0.10566000000E+00 0.  1.
         23    2    1    0    0    0  0.81455623626E+01 -0.25533371904E+02  0.16829685448E+02  0.93352858277E+02  0.87824908592E+02 0.  0.
         13    1    3    3    0    0  0.61415076583E+01  0.19837803913E+02 -0.24381128455E+02  0.32026663410E+02  0.10566000000E+00 0. -1.
         22    1    1    0    0    0 -0.81455623626E+01  0.25533371904E+02 -0.16829685448E+02  0.31647141723E+02  0.00000000000E+00 0.  1.
</event>
<event>
 5    1  0.9034713E-005  0.9118800E+02  0.7818608E-02  0.1130116E+00
         25   -1    0    0    0    0  0.00000000000E+00  0.00000000000E+00  0.99999998245E-14  0.12500000000E+03  0.12500000000E+03 0.  0.
        -13    1    3    3    0    0 -0.19504327803E+02 -0.51963660571E+02 -0.15394677714E+02  0.57599028542E+02  0.10566000000E+00 0. -1.
         23    2    1    0    0    0  0.63621136985E+01 -0.29078301447E+02 -0.45152230153E+00  0.95230418576E+02  0.90457750602E+02 0.  0.
         13    1    3    3    0    0  0.25866441502E+02  0.22885359124E+02  0.14943155412E+02  0.37631390034E+02  0.10566000000E+00 0.  1.
         22    1    1    0    0    0 -0.63621136985E+01  0.29078301447E+02  0.45152230153E+00  0.29769581424E+02  0.00000000000E+00 0. -1.
</event>
<event>
 5    1  0.9034713E-005  0.9118800E+02  0.7818608E-02  0.1130116E+00
         25   -1    0    0    0    0  0.00000000000E+00  0.00000000000E+00  0.99999998245E-14  0.12500000000E+03  0.12500000000E+03 0.  0.
        -13    1    3    3    0    0  0.38756467814E+02 -0.38110551035E+00  0.11845169142E+02  0.40528116596E+02  0.10566000000E+00 0. -1.
         23    2    1    0    0    0 -0.96337939142E+01  0.26178695142E+02  0.85395135943E+01  0.95827112640E+02  0.91278574485E+02 0.  0.
         13    1    3    3    0    0 -0.48390261728E+02  0.26559800652E+02 -0.33056555473E+01  0.55298996044E+02  0.10566000000E+00 0.  1.
         22    1    1    0    0    0  0.96337939142E+01 -0.26178695142E+02 -0.85395135943E+01  0.29172887360E+02  0.00000000000E+00 0.  1.
</event>
<event>
 5    1  0.9034713E-005  0.9118800E+02  0.7818608E-02  0.1130116E+00
         25   -1    0    0    0    0  0.00000000000E+00  0.00000000000E+00  0.99999998245E-14  0.12500000000E+03  0.12500000000E+03 0.  0.
        -13    1    3    3    0    0 -0.63444763644E+01 -0.56413512153E+02 -0.12478710015E+02  0.58124573989E+02  0.10566000000E+00 0. -1.
         23    2    1    0    0    0 -0.10876347581E+02 -0.17708562358E+02 -0.18029299681E+02  0.97487388993E+02  0.93524580984E+02 0.  0.
         13    1    3    3    0    0 -0.45318712162E+01  0.38704949795E+02 -0.55505896657E+01  0.39362815004E+02  0.10566000000E+00 0.  1.
         22    1    1    0    0    0  0.10876347581E+02  0.17708562358E+02  0.18029299681E+02  0.27512611007E+02  0.00000000000E+00 0. -1.
</event>
<event>
 5    1  0.9034713E-005  0.9118800E+02  0.7818608E-02  0.1130116E+00
         25   -1    0    0    0    0  0.00000000000E+00  0.00000000000E+00  0.99999998245E-14  0.12500000000E+03  0.12500000000E+03 0.  0.
        -13    1    3    3    0    0  0.16154421141E+02 -0.50551948006E+02  0.10428398644E+02  0.54085371700E+02  0.10566000000E+00 0. -1.
         23    2    1    0    0    0 -0.11246720494E+02 -0.22400258516E+02  0.18061254738E+02  0.94105514632E+02  0.88889699392E+02 0.  0.
         13    1    3    3    0    0 -0.27401141635E+02  0.28151689491E+02  0.76328560939E+01  0.40020142932E+02  0.10566000000E+00 0.  1.
         22    1    1    0    0    0  0.11246720494E+02  0.22400258516E+02 -0.18061254738E+02  0.30894485368E+02  0.00000000000E+00 0. -1.
</event>
<event>
 5    1  0.9034713E-005  0.9118800E+02  0.7818608E-02  0.1130116E+00
         25   -1    0    0    0    0  0.00000000000E+00  0.00000000000E+00  0.99999998245E-14  0.12500000000E+03  0.12500000000E+03 0.  0.
        -13    1    3    3    0    0 -0.35071373650E+02  0.27479089167E+01 -0.30244184765E+01  0.35308788202E+02  0.10566000000E+00 0. -1.
         23    2    1    0    0    0  0.21257289189E+02 -0.10094090725E+02 -0.18439323388E+02  0.95103985914E+02  0.90282869242E+02 0.  0.
         13    1    3    3    0    0  0.56328662839E+02 -0.12841999642E+02 -0.15414904911E+02  0.59795197712E+02  0.10566000000E+00 0.  1.
         22    1    1    0    0    0 -0.21257289189E+02  0.10094090725E+02  0.18439323388E+02  0.29896014086E+02  0.00000000000E+00 0.  1.
</event>
<event>
 5    1  0.9034713E-005  0.9118800E+02  0.7818608E-02  0.1130116E+00
         25   -1    0    0    0    0  0.00000000000E+00  0.00000000000E+00  0.99999998245E-14  0.12500000000E+03  0.12500000000E+03 0.  0.
        -13    1    3    3    0    0 -0.37296575698E+02  0.11082161581E+02  0.54964683282E+01  0.39294671296E+02  0.10566000000E+00 0. -1.
         23    2    1    0    0    0  0.11482044469E+02 -0.28079019645E+01  0.27869059693E+02  0.94727799109E+02  0.89760513463E+02 0.  0.
         13    1    3    3    0    0  0.48778620167E+02 -0.13890063545E+02  0.22372591365E+02  0.55433127813E+02  0.10566000000E+00 0.  1.
         22    1    1    0    0    0 -0.11482044469E+02  0.28079019645E+01 -0.27869059693E+02  0.30272200891E+02  0.00000000000E+00 0. -1.
</event>
<event>
 5    1  0.9034713E-005  0.9118800E+02  0.7818608E-02  0.1130116E+00
         25   -1    0    0    0    0  0.00000000000E+00  0.00000000000E+00  0.99999998245E-14  0.12500000000E+03  0.12500000000E+03 0.  0.
        -13    1    3    3    0    0  0.17438746609E+02  0.12561343506E+02  0.34611047848E+02  0.40741048479E+02  0.10566000000E+00 0.  1.
         23    2    1    0    0    0  0.11287496155E+02  0.20838694783E+02 -0.18556811117E+02  0.94899933413E+02  0.89999907518E+02 0.  0.
         13    1    3    3    0    0 -0.61512504542E+01  0.82773512769E+01 -0.53167858965E+02  0.54158884934E+02  0.10566000000E+00 0. -1.
         22    1    1    0    0    0 -0.11287496155E+02 -0.20838694783E+02  0.18556811117E+02  0.30100066587E+02  0.00000000000E+00 0. -1.
</event>
<event>
 5    1  0.9034713E-005  0.9118800E+02  0.7818608E-02  0.1130116E+00
         25   -1    0    0    0    0  0.00000000000E+00  0.00000000000E+00  0.99999998245E-14  0.12500000000E+03  0.12500000000E+03 0.  0.
        -13    1    3    3    0    0 -0.74486707149E+01  0.30260338321E+02 -0.23240817945E+02  0.38875667885E+02  0.10566000000E+00 0.  1.
         23    2    1    0    0    0 -0.20970654525E+02 -0.15314836274E+02  0.10308910672E+02  0.97061027210E+02  0.92952981676E+02 0.  0.
         13    1    3    3    0    0 -0.13521983810E+02 -0.45575174595E+02  0.33549728617E+02  0.58185359325E+02  0.10566000000E+00 0. -1.
         22    1    1    0    0    0  0.20970654525E+02  0.15314836274E+02 -0.10308910672E+02  0.27938972790E+02  0.00000000000E+00 0. -1.
</event>
<event>
 5    1  0.9034713E-005  0.9118800E+02  0.7818608E-02  0.1130116E+00
         25   -1    0    0    0    0  0.00000000000E+00  0.00000000000E+00  0.99999998245E-14  0.12500000000E+03  0.12500000000E+03 0.  0.
        -13    1    3    3    0    0 -0.27011353831E+02 -0.28553453335E+02  0.47754062341E+02  0.61849612507E+02  0.10566000000E+00 0. -1.
         23    2    1    0    0    0 -0.90217008575E+01 -0.12515707121E+02  0.28078642906E+02  0.92961832160E+02  0.87266591775E+02 0.  0.
         13    1    3    3    0    0  0.17989652974E+02  0.16037746214E+02 -0.19675419436E+02  0.31112219653E+02  0.10566000000E+00 0.  1.
         22    1    1    0    0    0  0.90217008575E+01  0.12515707121E+02 -0.28078642906E+02  0.32038167840E+02  0.00000000000E+00 0. -1.
</event>
<event>
 4    1  0.9034713E-005  0.9118800E+02  0.7818608E-02  0.1130116E+00
         25   -1    0    0    0    0  0.00000000000E+00  0.00000000000E+00  0.99999998245E-14  0.12500000000E+03  0.12500000000E+03 0.  0.
        -13    1    1    0    0    0  0.15007549592E+02 -0.40926286176E+02  0.15559852775E+02  0.46285069162E+02  0.10566000000E+00 0.  1.
         13    1    1    0    0    0  0.24451604554E+02  0.78895774830E+01 -0.47390574555E+01  0.26126542590E+02  0.10566000000E+00 0. -1.
         22    1    1    0    0    0 -0.39459154146E+02  0.33036708693E+02 -0.10820795319E+02  0.52588388248E+02  0.00000000000E+00 0.  1.
</event>
<event>
 5    1  0.9034713E-005  0.9118800E+02  0.7818608E-02  0.1130116E+00
         25   -1    0    0    0    0  0.00000000000E+00  0.00000000000E+00  0.99999998245E-14  0.12500000000E+03  0.12500000000E+03 0.  0.
        -13    1    3    3    0    0 -0.17774407502E+02 -0.21890289630E+02  0.27984760057E+02  0.39727475399E+02  0.10566000000E+00 0.  1.
         23    2    1    0    0    0 -0.19763625180E+02  0.20058270389E+02 -0.87397234338E+01  0.95515803267E+02  0.90851256551E+02 0.  0.
         13    1    3    3    0    0 -0.19892176784E+01  0.41948560019E+02 -0.36724483490E+02  0.55788327868E+02  0.10566000000E+00 0. -1.
         22    1    1    0    0    0  0.19763625180E+02 -0.20058270389E+02  0.87397234338E+01  0.29484196733E+02  0.00000000000E+00 0. -1.
</event>
<event>
 5    1  0.9034713E-005  0.9118800E+02  0.7818608E-02  0.1130116E+00
         25   -1    0    0    0    0  0.00000000000E+00  0.00000000000E+00  0.99999998245E-14  0.12500000000E+03  0.12500000000E+03 0.  0.
        -13    1    3    3    0    0  0.25838593884E+02 -0.29593528237E+02  0.16791305219E+02  0.42724336653E+02  0.10566000000E+00 0.  1.
         23    2    1    0    0    0 -0.53512321584E+01 -0.38422733382E+02  0.28146451338E+02  0.77071252373E+02  0.60355721297E+02 0.  0.
         13    1    3    3    0    0 -0.31189826043E+02 -0.88292051450E+01  0.11355146118E+02  0.34346915720E+02  0.10566000000E+00 0. -1.
         22    1    1    0    0    0  0.53512321584E+01  0.38422733382E+02 -0.28146451338E+02  0.47928747627E+02  0.00000000000E+00 0.  1.
</event>
<event>
 5    1  0.9034713E-005  0.9118800E+02  0.7818608E-02  0.1130116E+00
         25   -1    0    0    0    0  0.00000000000E+00  0.00000000000E+00  0.99999998245E-14  0.12500000000E+03  0.12500000000E+03 0.  0.
        -13    1    3    3    0    0  0.14329300915E+02 -0.51057635508E+01  0.74730986082E+01  0.16948629827E+02  0.10566000000E+00 0.  1.
         23    2    1    0    0    0 -0.96909216380E+01  0.21268090167E+02 -0.41401416299E+02  0.77457146772E+02  0.61149707219E+02 0.  0.
         13    1    3    3    0    0 -0.24020222553E+02  0.26373853718E+02 -0.48874514907E+02  0.60508516945E+02  0.10566000000E+00 0. -1.
         22    1    1    0    0    0  0.96909216380E+01 -0.21268090167E+02  0.41401416299E+02  0.47542853228E+02  0.00000000000E+00 0. -1.
</event>
<event>
 5    1  0.9034713E-005  0.9118800E+02  0.7818608E-02  0.1130116E+00
         25   -1    0    0    0    0  0.00000000000E+00  0.00000000000E+00  0.99999998245E-14  0.12500000000E+03  0.12500000000E+03 0.  0.
        -13    1    3    3    0    0  0.56540965292E+02 -0.14879607996E+02 -0.10558208167E+02  0.59411870985E+02  0.10566000000E+00 0.  1.
         23    2    1    0    0    0  0.20707180295E+02 -0.15755104145E+02 -0.14055842445E+02  0.95426746388E+02  0.90728642649E+02 0.  0.
         13    1    3    3    0    0 -0.35833784997E+02 -0.87549614930E+00 -0.34976342773E+01  0.36014875403E+02  0.10566000000E+00 0. -1.
         22    1    1    0    0    0 -0.20707180295E+02  0.15755104145E+02  0.14055842445E+02  0.29573253612E+02  0.00000000000E+00 0.  1.
</event>
<event>
 5    1  0.9034713E-005  0.9118800E+02  0.7818608E-02  0.1130116E+00
         25   -1    0    0    0    0  0.00000000000E+00  0.00000000000E+00  0.99999998245E-14  0.12500000000E+03  0.12500000000E+03 0.  0.
        -13    1    3    3    0    0 -0.17726921946E+02  0.38148791476E+02 -0.47296783965E+01  0.42331490342E+02  0.10566000000E+00 0.  1.
         23    2    1    0    0    0  0.97580239516E+01 -0.72999470479E+00  0.24787023176E+02  0.98351389499E+02  0.94672315778E+02 0.  0.
         13    1    3    3    0    0  0.27484945898E+02 -0.38878786181E+02  0.29516701572E+02  0.56019899158E+02  0.10566000000E+00 0. -1.
         22    1    1    0    0    0 -0.97580239516E+01  0.72999470479E+00 -0.24787023176E+02  0.26648610501E+02  0.00000000000E+00 0. -1.
</event>
<event>
 5    1  0.9034713E-005  0.9118800E+02  0.7818608E-02  0.1130116E+00
         25   -1    0    0    0    0  0.00000000000E+00  0.00000000000E+00  0.99999998245E-14  0.12500000000E+03  0.12500000000E+03 0.  0.
        -13    1    3    3    0    0  0.57220042687E+02  0.78082427269E+01  0.11203605781E+02  0.58827152626E+02  0.10566000000E+00 0. -1.
         23    2    1    0    0    0  0.21458499538E+02  0.17651376129E+02  0.81479022471E+01  0.96044403085E+02  0.91575655997E+02 0.  0.
         13    1    3    3    0    0 -0.35761543149E+02  0.98431334023E+01 -0.30557035337E+01  0.37217250459E+02  0.10566000000E+00 0.  1.
         22    1    1    0    0    0 -0.21458499538E+02 -0.17651376129E+02 -0.81479022471E+01  0.28955596915E+02  0.00000000000E+00 0. -1.
</event>
<event>
 5    1  0.9034713E-005  0.9118800E+02  0.7818608E-02  0.1130116E+00
         25   -1    0    0    0    0  0.00000000000E+00  0.00000000000E+00  0.99999998245E-14  0.12500000000E+03  0.12500000000E+03 0.  0.
        -13    1    3    3    0    0  0.19567165148E+02 -0.36253489535E+01  0.38694701056E+02  0.43512161068E+02  0.10566000000E+00 0.  1.
         23    2    1    0    0    0  0.11839957057E+02  0.23817768728E+02 -0.71124542328E+01  0.97467152427E+02  0.93497529950E+02 0.  0.
         13    1    3    3    0    0 -0.77272080907E+01  0.27443117681E+02 -0.45807155288E+02  0.53954991359E+02  0.10566000000E+00 0. -1.
         22    1    1    0    0    0 -0.11839957057E+02 -0.23817768728E+02  0.71124542328E+01  0.27532847573E+02  0.00000000000E+00 0.  1.
</event>
<event>
 5    1  0.9034713E-005  0.9118800E+02  0.7818608E-02  0.1130116E+00
         25   -1    0    0    0    0  0.00000000000E+00  0.00000000000E+00  0.99999998245E-14  0.12500000000E+03  0.12500000000E+03 0.  0.
        -13    1    3    3    0    0 -0.13595454517E+02 -0.48038153668E+02  0.30528291699E+01  0.50018311861E+02  0.10566000000E+00 0.  1.
         23    2    1    0    0    0 -0.22109147059E+02 -0.75760138374E+01 -0.17124051961E+02  0.96026848206E+02  0.91551690598E+02 0.  0.
         13    1    3    3    0    0 -0.85136925414E+01  0.40462139831E+02 -0.20176881131E+02  0.46008536345E+02  0.10566000000E+00 0. -1.
         22    1    1    0    0    0  0.22109147059E+02  0.75760138374E+01  0.17124051961E+02  0.28973151794E+02  0.00000000000E+00 0.  1.
</event>
<event>
 5    1  0.9034713E-005  0.9118800E+02  0.7818608E-02  0.1130116E+00
         25   -1    0    0    0    0  0.00000000000E+00  0.00000000000E+00  0.99999998245E-14  0.12500000000E+03  0.12500000000E+03 0.  0.
        -13    1    3    3    0    0 -0.47186929556E+02 -0.40128113411E+02  0.54541816352E+01  0.62182240778E+02  0.10566000000E+00 0.  1.
         23    2    1    0    0    0 -0.22957732009E+02 -0.18172898923E+02  0.69249671013E+01  0.94912346658E+02  0.90017146503E+02 0.  0.
         13    1    3    3    0    0  0.24229197547E+02  0.21955214488E+02  0.14707854661E+01  0.32730105880E+02  0.10566000000E+00 0. -1.
         22    1    1    0    0    0  0.22957732009E+02  0.18172898923E+02 -0.69249671013E+01  0.30087653342E+02  0.00000000000E+00 0.  1.
</event>
<event>
 5    1  0.9034713E-005  0.9118800E+02  0.7818608E-02  0.1130116E+00
         25   -1    0    0    0    0  0.00000000000E+00  0.00000000000E+00  0.99999998245E-14  0.12500000000E+03  0.12500000000E+03 0.  0.
        -13    1    3    3    0    0 -0.22088289885E+02 -0.17182594987E+02 -0.55549127240E+02  0.62200086991E+02  0.10566000000E+00 0. -1.
         23    2    1    0    0    0 -0.14442713397E+02 -0.77053910178E+01 -0.24675254319E+02  0.95388630618E+02  0.90676114024E+02 0.  0.
         13    1    3    3    0    0  0.76455764888E+01  0.94772039690E+01  0.30873872921E+02  0.33188543627E+02  0.10566000000E+00 0.  1.
         22    1    1    0    0    0  0.14442713397E+02  0.77053910178E+01  0.24675254319E+02  0.29611369382E+02  0.00000000000E+00 0. -1.
</event>
<event>
 5    1  0.9034713E-005  0.9118800E+02  0.7818608E-02  0.1130116E+00
         25   -1    0    0    0    0  0.00000000000E+00  0.00000000000E+00  0.99999998245E-14  0.12500000000E+03  0.12500000000E+03 0.  0.
        -13    1    3    3    0    0  0.16505251832E+02 -0.30249874720E+02 -0.12135020606E+02  0.36534205175E+02  0.10566000000E+00 0.  1.
         23    2    1    0    0    0  0.12594350000E+02  0.19905742749E+02  0.18157689807E+02  0.95258481118E+02  0.90496520814E+02 0.  0.
         13    1    3    3    0    0 -0.39109018323E+01  0.50155617469E+02  0.30292710413E+02  0.58724275943E+02  0.10566000000E+00 0. -1.
         22    1    1    0    0    0 -0.12594350000E+02 -0.19905742749E+02 -0.18157689807E+02  0.29741518882E+02  0.00000000000E+00 0. -1.
</event>
<event>
 5    1  0.9034713E-005  0.9118800E+02  0.7818608E-02  0.1130116E+00
         25   -1    0    0    0    0  0.00000000000E+00  0.00000000000E+00  0.99999998245E-14  0.12500000000E+03  0.12500000000E+03 0.  0.
        -13    1    3    3    0    0  0.47727453385E+01 -0.34957873680E+02 -0.62133136689E+01  0.35825248932E+02  0.10566000000E+00 0. -1.
         23    2    1    0    0    0 -0.10978756899E+02  0.24329824796E+02 -0.78038617913E+01  0.97190402079E+02  0.93126798075E+02 0.  0.
         13    1    3    3    0    0 -0.15751502238E+02  0.59287698476E+02 -0.15905481224E+01  0.61365153147E+02  0.10566000000E+00 0.  1.
         22    1    1    0    0    0  0.10978756899E+02 -0.24329824796E+02  0.78038617913E+01  0.27809597921E+02  0.00000000000E+00 0.  1.
</event>
<event>
 5    1  0.9034713E-005  0.9118800E+02  0.7818608E-02  0.1130116E+00
         25   -1    0    0    0    0  0.00000000000E+00  0.00000000000E+00  0.99999998245E-14  0.12500000000E+03  0.12500000000E+03 0.  0.
        -13    1    3    3    0    0 -0.34257041016E+02  0.40463408447E+02 -0.10921086883E+02  0.54130523599E+02  0.10566000000E+00 0.  1.
         23    2    1    0    0    0  0.51432657818E+01  0.28330084428E+02 -0.41470091285E+01  0.95909717236E+02  0.91391626033E+02 0.  0.
         13    1    3    3    0    0  0.39400306798E+02 -0.12133324019E+02  0.67740777541E+01  0.41779193637E+02  0.10566000000E+00 0. -1.
         22    1    1    0    0    0 -0.51432657818E+01 -0.28330084428E+02  0.41470091285E+01  0.29090282764E+02  0.00000000000E+00 0.  1.
</event>
<event>
 5    1  0.9034713E-005  0.9118800E+02  0.7818608E-02  0.1130116E+00
         25   -1    0    0    0    0  0.00000000000E+00  0.00000000000E+00  0.99999998245E-14  0.12500000000E+03  0.12500000000E+03 0.  0.
        -13    1    3    3    0    0 -0.23112482945E+02  0.30299887917E+02  0.31859744776E+02  0.49672171051E+02  0.10566000000E+00 0.  1.
         23    2    1    0    0    0  0.14746588123E+02  0.50829508725E+01  0.24796005156E+02  0.95705971214E+02  0.91112528246E+02 0.  0.
         13    1    3    3    0    0  0.37859071067E+02 -0.25216937044E+02 -0.70637396200E+01  0.46033800163E+02  0.10566000000E+00 0. -1.
         22    1    1    0    0    0 -0.14746588123E+02 -0.50829508725E+01 -0.24796005156E+02  0.29294028786E+02  0.00000000000E+00 0. -1.
</event>
<event>
 5    1  0.9034713E-005  0.9118800E+02  0.7818608E-02  0.1130116E+00
         25   -1    0    0    0    0  0.00000000000E+00  0.00000000000E+00  0.99999998245E-14  0.12500000000E+03  0.12500000000E+03 0.  0.
        -13    1    3    3    0    0  0.21099790546E+00 -0.48550258694E+02 -0.79568809826E+01  0.49198529027E+02  0.10566000000E+00 0.  1.
         23    2    1    0    0    0  0.10861218756E+02 -0.89495026783E+01 -0.27106848416E+02  0.94457555728E+02  0.89383381744E+02 0.  0.
         13    1    3    3    0    0  0.10650220851E+02  0.39600756016E+02 -0.19149967433E+02  0.45259026701E+02  0.10566000000E+00 0. -1.
         22    1    1    0    0    0 -0.10861218756E+02  0.89495026783E+01  0.27106848416E+02  0.30542444272E+02  0.00000000000E+00 0.  1.
</event>
<event>
 5    1  0.9034713E-005  0.9118800E+02  0.7818608E-02  0.1130116E+00
         25   -1    0    0    0    0  0.00000000000E+00  0.00000000000E+00  0.99999998245E-14  0.12500000000E+03  0.12500000000E+03 0.  0.
        -13    1    3    3    0    0 -0.49409330306E+02  0.18620301162E+02 -0.12431228835E+02  0.54245222380E+02  0.10566000000E+00 0.  1.
         23    2    1    0    0    0 -0.93389943046E+01  0.20599074611E+02 -0.19686230990E+02  0.95015230866E+02  0.90159900823E+02 0.  0.
         13    1    3    3    0    0  0.40070336002E+02  0.19787734489E+01 -0.72550021547E+01  0.40770008486E+02  0.10566000000E+00 0. -1.
         22    1    1    0    0    0  0.93389943046E+01 -0.20599074611E+02  0.19686230990E+02  0.29984769134E+02  0.00000000000E+00 0.  1.
</event>
<event>
 5    1  0.9034713E-005  0.9118800E+02  0.7818608E-02  0.1130116E+00
         25   -1    0    0    0    0  0.00000000000E+00  0.00000000000E+00  0.99999998245E-14  0.12500000000E+03  0.12500000000E+03 0.  0.
        -13    1    3    3    0    0 -0.20718659249E+02  0.27912434825E+02 -0.17177293013E+02  0.38774184946E+02  0.10566000000E+00 0.  1.
         23    2    1    0    0    0  0.16425419258E+02 -0.18354942555E+02 -0.94945772082E+01  0.98602172242E+02  0.95002858170E+02 0.  0.
         13    1    3    3    0    0  0.37144078506E+02 -0.46267377380E+02  0.76827158051E+01  0.59827987296E+02  0.10566000000E+00 0. -1.
         22    1    1    0    0    0 -0.16425419258E+02  0.18354942555E+02  0.94945772082E+01  0.26397827758E+02  0.00000000000E+00 0. -1.
</event>
<event>
 5    1  0.9034713E-005  0.9118800E+02  0.7818608E-02  0.1130116E+00
         25   -1    0    0    0    0  0.00000000000E+00  0.00000000000E+00  0.99999998245E-14  0.12500000000E+03  0.12500000000E+03 0.  0.
        -13    1    3    3    0    0 -0.45470143127E+01 -0.33714395483E+02 -0.73442330734E+00  0.34027729040E+02  0.10566000000E+00 0.  1.
         23    2    1    0    0    0  0.90822959103E+00  0.28500806375E+02 -0.19487387630E+00  0.96484060232E+02  0.92173830657E+02 0.  0.
         13    1    3    3    0    0  0.54552439037E+01  0.62215201859E+02  0.53954943104E+00  0.62456331192E+02  0.10566000000E+00 0. -1.
         22    1    1    0    0    0 -0.90822959103E+00 -0.28500806375E+02  0.19487387630E+00  0.28515939768E+02  0.00000000000E+00 0. -1.
</event>
<event>
 5    1  0.9034713E-005  0.9118800E+02  0.7818608E-02  0.1130116E+00
         25   -1    0    0    0    0  0.00000000000E+00  0.00000000000E+00  0.99999998245E-14  0.12500000000E+03  0.12500000000E+03 0.  0.
        -13    1    3    3    0    0 -0.56420189672E+02 -0.78851473932E+01 -0.21677430443E+02  0.60953552043E+02  0.10566000000E+00 0.  1.
         23    2    1    0    0    0 -0.24759497529E+02 -0.10911777815E+02 -0.16854939277E+02  0.93122286923E+02  0.87496124090E+02 0.  0.
         13    1    3    3    0    0  0.31660692143E+02 -0.30266304215E+01  0.48224911662E+01  0.32168734880E+02  0.10566000000E+00 0. -1.
         22    1    1    0    0    0  0.24759497529E+02  0.10911777815E+02  0.16854939277E+02  0.31877713077E+02  0.00000000000E+00 0.  1.
</event>
<event>
 5    1  0.9034713E-005  0.9118800E+02  0.7818608E-02  0.1130116E+00
         25   -1    0    0    0    0  0.00000000000E+00  0.00000000000E+00  0.99999998245E-14  0.12500000000E+03  0.12500000000E+03 0.  0.
        -13    1    3    3    0    0  0.99281836322E+01 -0.47145781018E+02 -0.63472973411E+01  0.48596222544E+02  0.10566000000E+00 0. -1.
         23    2    1    0    0    0 -0.24458933793E+02 -0.15295505392E+02 -0.63222567986E+01  0.95467596466E+02  0.90784905775E+02 0.  0.
         13    1    3    3    0    0 -0.34387117425E+02  0.31850275626E+02  0.25040542448E-01  0.46871373922E+02  0.10566000000E+00 0.  1.
         22    1    1    0    0    0  0.24458933793E+02  0.15295505392E+02  0.63222567986E+01  0.29532403534E+02  0.00000000000E+00 0. -1.
</event>
<event>
 5    1  0.9034713E-005  0.9118800E+02  0.7818608E-02  0.1130116E+00
         25   -1    0    0    0    0  0.00000000000E+00  0.00000000000E+00  0.99999998245E-14  0.12500000000E+03  0.12500000000E+03 0.  0.
        -13    1    3    3    0    0  0.30779887311E+02  0.97491559890E+01  0.90938483854E+01  0.33543356240E+02  0.10566000000E+00 0.  1.
         23    2    1    0    0    0 -0.28697104720E+02 -0.60092490077E+01  0.54322316453E+01  0.95181481700E+02  0.90390101367E+02 0.  0.
         13    1    3    3    0    0 -0.59476992031E+02 -0.15758404997E+02 -0.36616167401E+01  0.61638125460E+02  0.10566000000E+00 0. -1.
         22    1    1    0    0    0  0.28697104720E+02  0.60092490077E+01 -0.54322316453E+01  0.29818518300E+02  0.00000000000E+00 0. -1.
</event>
<event>
 5    1  0.9034713E-005  0.9118800E+02  0.7818608E-02  0.1130116E+00
         25   -1    0    0    0    0  0.00000000000E+00  0.00000000000E+00  0.99999998245E-14  0.12500000000E+03  0.12500000000E+03 0.  0.
        -13    1    3    3    0    0  0.21516549487E+02 -0.21097738496E+02 -0.26672436784E+02  0.40243092818E+02  0.10566000000E+00 0. -1.
         23    2    1    0    0    0  0.13463846559E+02  0.78069880803E+00  0.24811730732E+02  0.96759840002E+02  0.92547069108E+02 0.  0.
         13    1    3    3    0    0 -0.80527029281E+01  0.21878437305E+02  0.51484167517E+02  0.56516747184E+02  0.10566000000E+00 0.  1.
         22    1    1    0    0    0 -0.13463846559E+02 -0.78069880803E+00 -0.24811730732E+02  0.28240159998E+02  0.00000000000E+00 0. -1.
</event>
<event>
 5    1  0.9034713E-005  0.9118800E+02  0.7818608E-02  0.1130116E+00
         25   -1    0    0    0    0  0.00000000000E+00  0.00000000000E+00  0.99999998245E-14  0.12500000000E+03  0.12500000000E+03 0.  0.
        -13    1    3    3    0    0 -0.10353145252E+02  0.33500865836E+02  0.43324181068E+02  0.55735908153E+02  0.10566000000E+00 0. -1.
         23    2    1    0    0    0 -0.82776538872E+00  0.28460747692E+02  0.43203080273E+01  0.96201312249E+02  0.91789585804E+02 0.  0.
         13    1    3    3    0    0  0.95253798630E+01 -0.50401181431E+01 -0.39003873041E+02  0.40465404096E+02  0.10566000000E+00 0.  1.
         22    1    1    0    0    0  0.82776538872E+00 -0.28460747692E+02 -0.43203080273E+01  0.28798687751E+02  0.00000000000E+00 0. -1.
</event>
<event>
 5    1  0.9034713E-005  0.9118800E+02  0.7818608E-02  0.1130116E+00
         25   -1    0    0    0    0  0.00000000000E+00  0.00000000000E+00  0.99999998245E-14  0.12500000000E+03  0.12500000000E+03 0.  0.
        -13    1    3    3    0    0  0.19210854218E+01  0.40266632599E+02 -0.28970903231E+02  0.49642891415E+02  0.10566000000E+00 0.  1.
         23    2    1    0    0    0 -0.68928658249E+01  0.22370961513E+02  0.14494202498E+02  0.97467229991E+02  0.93497633648E+02 0.  0.
         13    1    3    3    0    0 -0.88139512467E+01 -0.17895671085E+02  0.43465105729E+02  0.47824338576E+02  0.10566000000E+00 0. -1.
         22    1    1    0    0    0  0.68928658249E+01 -0.22370961513E+02 -0.14494202498E+02  0.27532770009E+02  0.00000000000E+00 0. -1.
</event>
<event>
 5    1  0.9034713E-005  0.9118800E+02  0.7818608E-02  0.1130116E+00
         25   -1    0    0    0    0  0.00000000000E+00  0.00000000000E+00  0.99999998245E-14  0.12500000000E+03  0.12500000000E+03 0.  0.
        -13    1    3    3    0    0 -0.10749626773E+02 -0.40921635234E+02 -0.70989247393E+01  0.42901522146E+02  0.10566000000E+00 0.  1.
         23    2    1    0    0    0  0.50082454265E+01 -0.12089845064E+01  0.26967191036E+02  0.97545063137E+02  0.93601633449E+02 0.  0.
         13    1    3    3    0    0  0.15757872200E+02  0.39712650727E+02  0.34066115775E+02  0.54643540991E+02  0.10566000000E+00 0. -1.
         22    1    1    0    0    0 -0.50082454265E+01  0.12089845064E+01 -0.26967191036E+02  0.27454936863E+02  0.00000000000E+00 0. -1.
</event>
<event>
 5    1  0.9034713E-005  0.9118800E+02  0.7818608E-02  0.1130116E+00
         25   -1    0    0    0    0  0.00000000000E+00  0.00000000000E+00  0.99999998245E-14  0.12500000000E+03  0.12500000000E+03 0.  0.
        -13    1    3    3    0    0  0.91252469665E+01  0.16515956336E+02 -0.34003334766E+02  0.38888107245E+02  0.10566000000E+00 0.  1.
         23    2    1    0    0    0 -0.34126571494E+01  0.71061267777E+01  0.24399673570E+02  0.99358484114E+02  0.95992817589E+02 0.  0.
         13    1    3    3    0    0 -0.12537904116E+02 -0.94098295579E+01  0.58403008336E+02  0.60470376869E+02  0.10566000000E+00 0. -1.
         22    1    1    0    0    0  0.34126571494E+01 -0.71061267777E+01 -0.24399673570E+02  0.25641515886E+02  0.00000000000E+00 0. -1.
</event>
<event>
 5    1  0.9034713E-005  0.9118800E+02  0.7818608E-02  0.1130116E+00
         25   -1    0    0    0    0  0.00000000000E+00  0.00000000000E+00  0.99999998245E-14  0.12500000000E+03  0.12500000000E+03 0.  0.
        -13    1    3    3    0    0 -0.32201511596E+01  0.53925569940E+02 -0.17859804954E+02  0.56897453932E+02  0.10566000000E+00 0. -1.
         23    2    1    0    0    0 -0.92342850585E+01  0.17488043808E+02  0.96950717026E+01  0.10297505705E+03  0.10059206858E+03 0.  0.
         13    1    3    3    0    0 -0.60141338990E+01 -0.36437526132E+02  0.27554876657E+02  0.46077603115E+02  0.10566000000E+00 0.  1.
         22    1    1    0    0    0  0.92342850585E+01 -0.17488043808E+02 -0.96950717026E+01  0.22024942953E+02  0.00000000000E+00 0. -1.
</event>
<event>
 5    1  0.9034713E-005  0.9118800E+02  0.7818608E-02  0.1130116E+00
         25   -1    0    0    0    0  0.00000000000E+00  0.00000000000E+00  0.99999998245E-14  0.12500000000E+03  0.12500000000E+03 0.  0.
        -13    1    3    3    0    0  0.30227271931E+02  0.44887759383E+02 -0.21360402659E+02  0.58179694710E+02  0.10566000000E+00 0.  1.
         23    2    1    0    0    0  0.10096777369E+02  0.27068002988E+02  0.48259126844E+01  0.95709879955E+02  0.91117890608E+02 0.  0.
         13    1    3    3    0    0 -0.20130494562E+02 -0.17819756395E+02  0.26186315343E+02  0.37530185245E+02  0.10566000000E+00 0. -1.
         22    1    1    0    0    0 -0.10096777369E+02 -0.27068002988E+02 -0.48259126844E+01  0.29290120045E+02  0.00000000000E+00 0.  1.
</event>
<event>
 5    1  0.9034713E-005  0.9118800E+02  0.7818608E-02  0.1130116E+00
         25   -1    0    0    0    0  0.00000000000E+00  0.00000000000E+00  0.99999998245E-14  0.12500000000E+03  0.12500000000E+03 0.  0.
        -13    1    3    3    0    0  0.23174619293E+02  0.14706875907E+02  0.30997896602E+02  0.41403332427E+02  0.10566000000E+00 0.  1.
         23    2    1    0    0    0 -0.23556641615E+02  0.17222098047E+02  0.36903305147E+01  0.95586830082E+02  0.90948928088E+02 0.  0.
         13    1    3    3    0    0 -0.46731260908E+02  0.25152221405E+01 -0.27307566087E+02  0.54183497655E+02  0.10566000000E+00 0. -1.
         22    1    1    0    0    0  0.23556641615E+02 -0.17222098047E+02 -0.36903305147E+01  0.29413169918E+02  0.00000000000E+00 0. -1.
</event>
<event>
 5    1  0.9034713E-005  0.9118800E+02  0.7818608E-02  0.1130116E+00
         25   -1    0    0    0    0  0.00000000000E+00  0.00000000000E+00  0.99999998245E-14  0.12500000000E+03  0.12500000000E+03 0.  0.
        -13    1    3    3    0    0 -0.43710627934E+02 -0.25111909992E+02 -0.27024432319E+02  0.57197535996E+02  0.10566000000E+00 0.  1.
         23    2    1    0    0    0 -0.14317463016E+02 -0.23940790725E+02 -0.57205922814E-01  0.97104579583E+02  0.93011530983E+02 0.  0.
         13    1    3    3    0    0  0.29393164918E+02  0.11711192673E+01  0.26967226397E+02  0.39907043587E+02  0.10566000000E+00 0. -1.
         22    1    1    0    0    0  0.14317463016E+02  0.23940790725E+02  0.57205922814E-01  0.27895420417E+02  0.00000000000E+00 0.  1.
</event>
<event>
 5    1  0.9034713E-005  0.9118800E+02  0.7818608E-02  0.1130116E+00
         25   -1    0    0    0    0  0.00000000000E+00  0.00000000000E+00  0.99999998245E-14  0.12500000000E+03  0.12500000000E+03 0.  0.
        -13    1    3    3    0    0 -0.31300956698E+02 -0.13521953293E+02 -0.45518143393E+02  0.56872714487E+02  0.10566000000E+00 0.  1.
         23    2    1    0    0    0 -0.12052206953E+02 -0.23264863162E+02 -0.13381820368E+02  0.95579213696E+02  0.90938459543E+02 0.  0.
         13    1    3    3    0    0  0.19248749745E+02 -0.97429098684E+01  0.32136323025E+02  0.38706499210E+02  0.10566000000E+00 0. -1.
         22    1    1    0    0    0  0.12052206953E+02  0.23264863162E+02  0.13381820368E+02  0.29420786304E+02  0.00000000000E+00 0.  1.
</event>
<event>
 5    1  0.9034713E-005  0.9118800E+02  0.7818608E-02  0.1130116E+00
         25   -1    0    0    0    0  0.00000000000E+00  0.00000000000E+00  0.99999998245E-14  0.12500000000E+03  0.12500000000E+03 0.  0.
        -13    1    3    3    0    0 -0.56282498539E+02 -0.10852048752E+02  0.24239732579E+02  0.62233932894E+02  0.10566000000E+00 0.  1.
         23    2    1    0    0    0 -0.24639172524E+02 -0.82150037535E+01  0.13310199679E+02  0.95815474566E+02  0.91262635517E+02 0.  0.
         13    1    3    3    0    0  0.31643326015E+02  0.26370449981E+01 -0.10929532900E+02  0.33581541672E+02  0.10566000000E+00 0. -1.
         22    1    1    0    0    0  0.24639172524E+02  0.82150037535E+01 -0.13310199679E+02  0.29184525434E+02  0.00000000000E+00 0.  1.
</event>
<event>
 5    1  0.9034713E-005  0.9118800E+02  0.7818608E-02  0.1130116E+00
         25   -1    0    0    0    0  0.00000000000E+00  0.00000000000E+00  0.99999998245E-14  0.12500000000E+03  0.12500000000E+03 0.  0.
        -13    1    3    3    0    0 -0.34701678633E+02  0.31186384275E+01  0.32004409062E+02  0.47309890816E+02  0.10566000000E+00 0.  1.
         23    2    1    0    0    0 -0.20967335487E+02  0.19165905993E+02 -0.10452575092E+02  0.94730916168E+02  0.89764854158E+02 0.  0.
         13    1    3    3    0    0  0.13734343145E+02  0.16047267565E+02 -0.42456984154E+02  0.47421025352E+02  0.10566000000E+00 0. -1.
         22    1    1    0    0    0  0.20967335487E+02 -0.19165905993E+02  0.10452575092E+02  0.30269083832E+02  0.00000000000E+00 0.  1.
</event>
<event>
 5    1  0.9034713E-005  0.9118800E+02  0.7818608E-02  0.1130116E+00
         25   -1    0    0    0    0  0.00000000000E+00  0.00000000000E+00  0.99999998245E-14  0.12500000000E+03  0.12500000000E+03 0.  0.
        -13    1    3    3    0    0  0.31955519678E+02 -0.29679974253E+02  0.14737188950E+02  0.46035334383E+02  0.10566000000E+00 0.  1.
         23    2    1    0    0    0  0.25400048311E+02  0.16905042900E+02  0.48842807229E+01  0.94100175925E+02  0.88882191587E+02 0.  0.
         13    1    3    3    0    0 -0.65554713665E+01  0.46585017153E+02 -0.98529082274E+01  0.48064841543E+02  0.10566000000E+00 0. -1.
         22    1    1    0    0    0 -0.25400048311E+02 -0.16905042900E+02 -0.48842807229E+01  0.30899824075E+02  0.00000000000E+00 0. -1.
</event>
<event>
 5    1  0.9034713E-005  0.9118800E+02  0.7818608E-02  0.1130116E+00
         25   -1    0    0    0    0  0.00000000000E+00  0.00000000000E+00  0.99999998245E-14  0.12500000000E+03  0.12500000000E+03 0.  0.
        -13    1    3    3    0    0  0.30936087392E+02  0.31449564198E+02 -0.12745919543E+02  0.45919344730E+02  0.10566000000E+00 0. -1.
         23    2    1    0    0    0 -0.18216145491E+02  0.16448074659E+02 -0.12820563292E+02  0.97310038648E+02  0.93287242762E+02 0.  0.
         13    1    3    3    0    0 -0.49152232882E+02 -0.15001489539E+02 -0.74643748344E-01  0.51390693919E+02  0.10566000000E+00 0.  1.
         22    1    1    0    0    0  0.18216145491E+02 -0.16448074659E+02  0.12820563292E+02  0.27689961352E+02  0.00000000000E+00 0.  1.
</event>
<event>
 5    1  0.9034713E-005  0.9118800E+02  0.7818608E-02  0.1130116E+00
         25   -1    0    0    0    0  0.00000000000E+00  0.00000000000E+00  0.99999998245E-14  0.12500000000E+03  0.12500000000E+03 0.  0.
        -13    1    3    3    0    0 -0.42914333781E+02 -0.33081580682E+02 -0.26593955455E+02  0.60359594557E+02  0.10566000000E+00 0. -1.
         23    2    1    0    0    0 -0.11945426086E+02 -0.23688487659E+02 -0.11058885475E+02  0.96257407913E+02  0.91865945694E+02 0.  0.
         13    1    3    3    0    0  0.30968907696E+02  0.93930930237E+01  0.15535069981E+02  0.35897813356E+02  0.10566000000E+00 0.  1.
         22    1    1    0    0    0  0.11945426086E+02  0.23688487659E+02  0.11058885475E+02  0.28742592087E+02  0.00000000000E+00 0. -1.
</event>
<event>
 5    1  0.9034713E-005  0.9118800E+02  0.7818608E-02  0.1130116E+00
         25   -1    0    0    0    0  0.00000000000E+00  0.00000000000E+00  0.99999998245E-14  0.12500000000E+03  0.12500000000E+03 0.  0.
        -13    1    3    3    0    0 -0.40503631543E+01  0.35480784532E+02 -0.21243603043E+02  0.41552296531E+02  0.10566000000E+00 0.  1.
         23    2    1    0    0    0 -0.21673851975E+02  0.86288545215E+01  0.20308076928E+02  0.94070548367E+02  0.88840514923E+02 0.  0.
         13    1    3    3    0    0 -0.17623488821E+02 -0.26851930010E+02  0.41551679971E+02  0.52518251837E+02  0.10566000000E+00 0. -1.
         22    1    1    0    0    0  0.21673851975E+02 -0.86288545215E+01 -0.20308076928E+02  0.30929451633E+02  0.00000000000E+00 0. -1.
</event>
<event>
 5    1  0.9034713E-005  0.9118800E+02  0.7818608E-02  0.1130116E+00
         25   -1    0    0    0    0  0.00000000000E+00  0.00000000000E+00  0.99999998245E-14  0.12500000000E+03  0.12500000000E+03 0.  0.
        -13    1    3    3    0    0 -0.12128696780E+02 -0.51974273892E+02  0.22506677045E+02  0.57922293703E+02  0.10566000000E+00 0.  1.
         23    2    1    0    0    0 -0.53306408172E+01 -0.14893864682E+02  0.24682177867E+02  0.95683573872E+02  0.91081795480E+02 0.  0.
         13    1    3    3    0    0  0.67980559627E+01  0.37080409210E+02  0.21755008220E+01  0.37761280168E+02  0.10566000000E+00 0. -1.
         22    1    1    0    0    0  0.53306408172E+01  0.14893864682E+02 -0.24682177867E+02  0.29316426128E+02  0.00000000000E+00 0.  1.
</event>
<event>
 5    1  0.9034713E-005  0.9118800E+02  0.7818608E-02  0.1130116E+00
         25   -1    0    0    0    0  0.00000000000E+00  0.00000000000E+00  0.99999998245E-14  0.12500000000E+03  0.12500000000E+03 0.  0.
        -13    1    3    3    0    0  0.26725992551E+02 -0.31223210681E+02 -0.27028538013E+02  0.49190655557E+02  0.10566000000E+00 0.  1.
         23    2    1    0    0    0  0.20495851101E+02 -0.11959494785E+02  0.15750324197E+02  0.96518740545E+02  0.92220849791E+02 0.  0.
         13    1    3    3    0    0 -0.62301414494E+01  0.19263715896E+02  0.42778862209E+02  0.47328084987E+02  0.10566000000E+00 0. -1.
         22    1    1    0    0    0 -0.20495851101E+02  0.11959494785E+02 -0.15750324197E+02  0.28481259455E+02  0.00000000000E+00 0. -1.
</event>
<event>
 5    1  0.9034713E-005  0.9118800E+02  0.7818608E-02  0.1130116E+00
         25   -1    0    0    0    0  0.00000000000E+00  0.00000000000E+00  0.99999998245E-14  0.12500000000E+03  0.12500000000E+03 0.  0.
        -13    1    3    3    0    0  0.19835327380E+02  0.55246331619E+02  0.79877261654E+01  0.59240292901E+02  0.10566000000E+00 0.  1.
         23    2    1    0    0    0  0.27233875636E+01  0.26667178148E+02  0.16371966982E+02  0.93589865758E+02  0.88161592769E+02 0.  0.
         13    1    3    3    0    0 -0.17111939816E+02 -0.28579153471E+02  0.83842408170E+01  0.34349572858E+02  0.10566000000E+00 0. -1.
         22    1    1    0    0    0 -0.27233875636E+01 -0.26667178148E+02 -0.16371966982E+02  0.31410134242E+02  0.00000000000E+00 0.  1.
</event>
<event>
 5    1  0.9034713E-005  0.9118800E+02  0.7818608E-02  0.1130116E+00
         25   -1    0    0    0    0  0.00000000000E+00  0.00000000000E+00  0.99999998245E-14  0.12500000000E+03  0.12500000000E+03 0.  0.
        -13    1    3    3    0    0  0.21516108757E+02 -0.29284791095E+02 -0.26594425734E+02  0.45031284344E+02  0.10566000000E+00 0.  1.
         23    2    1    0    0    0 -0.12431321188E+02 -0.32969169864E+02  0.21974683672E+01  0.89696561425E+02  0.82456899992E+02 0.  0.
         13    1    3    3    0    0 -0.33947429945E+02 -0.36843787689E+01  0.28791894101E+02  0.44665277081E+02  0.10566000000E+00 0. -1.
         22    1    1    0    0    0  0.12431321188E+02  0.32969169864E+02 -0.21974683672E+01  0.35303438575E+02  0.00000000000E+00 0. -1.
</event>
<event>
 5    1  0.9034713E-005  0.9118800E+02  0.7818608E-02  0.1130116E+00
         25   -1    0    0    0    0  0.00000000000E+00  0.00000000000E+00  0.99999998245E-14  0.12500000000E+03  0.12500000000E+03 0.  0.
        -13    1    3    3    0    0  0.29993104023E+02 -0.35613485413E+02  0.39712957326E+02  0.61196705596E+02  0.10566000000E+00 0. -1.
         23    2    1    0    0    0  0.61019123391E+01 -0.19778564892E+02  0.21497188579E+02  0.95157847260E+02  0.90357411511E+02 0.  0.
         13    1    3    3    0    0 -0.23891191684E+02  0.15834920521E+02 -0.18215768747E+02  0.33961141663E+02  0.10566000000E+00 0.  1.
         22    1    1    0    0    0 -0.61019123391E+01  0.19778564892E+02 -0.21497188579E+02  0.29842152740E+02  0.00000000000E+00 0. -1.
</event>
<event>
 5    1  0.9034713E-005  0.9118800E+02  0.7818608E-02  0.1130116E+00
         25   -1    0    0    0    0  0.00000000000E+00  0.00000000000E+00  0.99999998245E-14  0.12500000000E+03  0.12500000000E+03 0.  0.
        -13    1    3    3    0    0  0.26864532225E+02 -0.32630457280E+02  0.10493320986E+02  0.43549635857E+02  0.10566000000E+00 0. -1.
         23    2    1    0    0    0 -0.11454142096E+02 -0.18348226923E+01  0.27166800980E+02  0.95460212916E+02  0.90774738937E+02 0.  0.
         13    1    3    3    0    0 -0.38318674321E+02  0.30795634588E+02  0.16673479994E+02  0.51910577059E+02  0.10566000000E+00 0.  1.
         22    1    1    0    0    0  0.11454142096E+02  0.18348226923E+01 -0.27166800980E+02  0.29539787084E+02  0.00000000000E+00 0.  1.
</event>
<event>
 5    1  0.9034713E-005  0.9118800E+02  0.7818608E-02  0.1130116E+00
         25   -1    0    0    0    0  0.00000000000E+00  0.00000000000E+00  0.99999998245E-14  0.12500000000E+03  0.12500000000E+03 0.  0.
        -13    1    3    3    0    0 -0.39885465799E+02 -0.20396472362E+01 -0.16934622668E+01  0.39973610311E+02  0.10566000000E+00 0.  1.
         23    2    1    0    0    0  0.71455235207E+01  0.20667838240E+02  0.18883435936E+02  0.96107056283E+02  0.91661137189E+02 0.  0.
         13    1    3    3    0    0  0.47030989319E+02  0.22707485477E+02  0.20576898202E+02  0.56133445972E+02  0.10566000000E+00 0. -1.
         22    1    1    0    0    0 -0.71455235207E+01 -0.20667838240E+02 -0.18883435936E+02  0.28892943717E+02  0.00000000000E+00 0. -1.
</event>
<event>
 5    1  0.9034713E-005  0.9118800E+02  0.7818608E-02  0.1130116E+00
         25   -1    0    0    0    0  0.00000000000E+00  0.00000000000E+00  0.99999998245E-14  0.12500000000E+03  0.12500000000E+03 0.  0.
        -13    1    3    3    0    0  0.47353779636E+02 -0.21920580801E+02  0.18535090137E+02  0.55375563554E+02  0.10566000000E+00 0.  1.
         23    2    1    0    0    0  0.29327704039E+02 -0.40213097126E+00 -0.86171834745E+01  0.94429887397E+02  0.89344680027E+02 0.  0.
         13    1    3    3    0    0 -0.18026075597E+02  0.21518449830E+02 -0.27152273611E+02  0.39054323843E+02  0.10566000000E+00 0. -1.
         22    1    1    0    0    0 -0.29327704039E+02  0.40213097126E+00  0.86171834745E+01  0.30570112603E+02  0.00000000000E+00 0.  1.
</event>
<event>
 5    1  0.9034713E-005  0.9118800E+02  0.7818608E-02  0.1130116E+00
         25   -1    0    0    0    0  0.00000000000E+00  0.00000000000E+00  0.99999998245E-14  0.12500000000E+03  0.12500000000E+03 0.  0.
        -13    1    3    3    0    0 -0.37592469610E+02 -0.20948839788E+02  0.35781179401E+02  0.55967415727E+02  0.10566000000E+00 0.  1.
         23    2    1    0    0    0 -0.12653018257E+02 -0.26035704702E+02  0.54835758450E+01  0.95537712337E+02  0.90881395699E+02 0.  0.
         13    1    3    3    0    0  0.24939451353E+02 -0.50868649137E+01 -0.30297603556E+02  0.39570296609E+02  0.10566000000E+00 0. -1.
         22    1    1    0    0    0  0.12653018257E+02  0.26035704702E+02 -0.54835758450E+01  0.29462287663E+02  0.00000000000E+00 0.  1.
</event>
<event>
 5    1  0.9034713E-005  0.9118800E+02  0.7818608E-02  0.1130116E+00
         25   -1    0    0    0    0  0.00000000000E+00  0.00000000000E+00  0.99999998245E-14  0.12500000000E+03  0.12500000000E+03 0.  0.
        -13    1    3    3    0    0 -0.52965176215E+02  0.99119954015E+01  0.24145036680E+02  0.59047027907E+02  0.10566000000E+00 0.  1.
         23    2    1    0    0    0 -0.16022943161E+02  0.17138354952E+02  0.12301528845E+02  0.98508765036E+02  0.94879878051E+02 0.  0.
         13    1    3    3    0    0  0.36942233054E+02  0.72263595510E+01 -0.11843507835E+02  0.39461737129E+02  0.10566000000E+00 0. -1.
         22    1    1    0    0    0  0.16022943161E+02 -0.17138354952E+02 -0.12301528845E+02  0.26491234964E+02  0.00000000000E+00 0.  1.
</event>
<event>
 5    1  0.9034713E-005  0.9118800E+02  0.7818608E-02  0.1130116E+00
         25   -1    0    0    0    0  0.00000000000E+00  0.00000000000E+00  0.99999998245E-14  0.12500000000E+03  0.12500000000E+03 0.  0.
        -13    1    3    3    0    0 -0.35927909055E+02 -0.56599255338E+01 -0.46904219072E+02  0.59353739031E+02  0.10566000000E+00 0. -1.
         23    2    1    0    0    0 -0.43606872026E+01 -0.29300126999E+01 -0.28549089545E+02  0.95971547042E+02  0.91476154054E+02 0.  0.
         13    1    3    3    0    0  0.31567221852E+02  0.27299128340E+01  0.18355129528E+02  0.36617808011E+02  0.10566000000E+00 0.  1.
         22    1    1    0    0    0  0.43606872026E+01  0.29300126999E+01  0.28549089545E+02  0.29028452958E+02  0.00000000000E+00 0. -1.
</event>
<event>
 5    1  0.9034713E-005  0.9118800E+02  0.7818608E-02  0.1130116E+00
         25   -1    0    0    0    0  0.00000000000E+00  0.00000000000E+00  0.99999998245E-14  0.12500000000E+03  0.12500000000E+03 0.  0.
        -13    1    3    3    0    0 -0.30296368809E+02 -0.34946476200E+02  0.34074833961E+02  0.57447642556E+02  0.10566000000E+00 0. -1.
         23    2    1    0    0    0 -0.41413570024E+00 -0.26331805465E+02  0.97953503435E+01  0.96902235396E+02  0.92739198018E+02 0.  0.
         13    1    3    3    0    0  0.29882233108E+02  0.86146707349E+01 -0.24279483617E+02  0.39454592840E+02  0.10566000000E+00 0.  1.
         22    1    1    0    0    0  0.41413570024E+00  0.26331805465E+02 -0.97953503435E+01  0.28097764604E+02  0.00000000000E+00 0. -1.
</event>
<event>
 5    1  0.9034713E-005  0.9118800E+02  0.7818608E-02  0.1130116E+00
         25   -1    0    0    0    0  0.00000000000E+00  0.00000000000E+00  0.99999998245E-14  0.12500000000E+03  0.12500000000E+03 0.  0.
        -13    1    3    3    0    0  0.17153515567E+02  0.21567684152E+02  0.55966870820E+02  0.62383570669E+02  0.10566000000E+00 0. -1.
         23    2    1    0    0    0  0.94408027031E+01  0.79351914046E+01  0.27085574887E+02  0.95238877957E+02  0.90469439532E+02 0.  0.
         13    1    3    3    0    0 -0.77127128636E+01 -0.13632492747E+02 -0.28881295933E+02  0.32855307288E+02  0.10566000000E+00 0.  1.
         22    1    1    0    0    0 -0.94408027031E+01 -0.79351914046E+01 -0.27085574887E+02  0.29761122043E+02  0.00000000000E+00 0. -1.
</event>
<event>
 5    1  0.9034713E-005  0.9118800E+02  0.7818608E-02  0.1130116E+00
         25   -1    0    0    0    0  0.00000000000E+00  0.00000000000E+00  0.99999998245E-14  0.12500000000E+03  0.12500000000E+03 0.  0.
        -13    1    3    3    0    0  0.21422545375E+02 -0.55964454050E+02  0.11809294387E+02  0.61077132917E+02  0.10566000000E+00 0.  1.
         23    2    1    0    0    0  0.97068169130E+00 -0.28042033505E+02  0.75022531777E+01  0.95955522577E+02  0.91454254380E+02 0.  0.
         13    1    3    3    0    0 -0.20451863684E+02  0.27922420545E+02 -0.43070412089E+01  0.34878389659E+02  0.10566000000E+00 0. -1.
         22    1    1    0    0    0 -0.97068169130E+00  0.28042033505E+02 -0.75022531777E+01  0.29044477423E+02  0.00000000000E+00 0.  1.
</event>
<event>
 5    1  0.9034713E-005  0.9118800E+02  0.7818608E-02  0.1130116E+00
         25   -1    0    0    0    0  0.00000000000E+00  0.00000000000E+00  0.99999998245E-14  0.12500000000E+03  0.12500000000E+03 0.  0.
        -13    1    3    3    0    0  0.11128980813E+02  0.34872865843E+02  0.11294064801E+02  0.38308459246E+02  0.10566000000E+00 0.  1.
         23    2    1    0    0    0  0.83663906806E+01 -0.23590258924E+02 -0.58487900188E+01  0.99295814470E+02  0.95911175665E+02 0.  0.
         13    1    3    3    0    0 -0.27625901327E+01 -0.58463124767E+02 -0.17142854820E+02  0.60987355223E+02  0.10566000000E+00 0. -1.
         22    1    1    0    0    0 -0.83663906806E+01  0.23590258924E+02  0.58487900188E+01  0.25704185530E+02  0.00000000000E+00 0. -1.
</event>
<event>
 5    1  0.9034713E-005  0.9118800E+02  0.7818608E-02  0.1130116E+00
         25   -1    0    0    0    0  0.00000000000E+00  0.00000000000E+00  0.99999998245E-14  0.12500000000E+03  0.12500000000E+03 0.  0.
        -13    1    3    3    0    0 -0.34029498354E+02 -0.15220049501E+02 -0.39445904981E+02  0.54273817342E+02  0.10566000000E+00 0.  1.
         23    2    1    0    0    0 -0.30677790527E+02  0.87493456842E+01 -0.11875864513E+02  0.90960111054E+02  0.84350623966E+02 0.  0.
         13    1    3    3    0    0  0.33517078273E+01  0.23969395185E+02  0.27570040468E+02  0.36686293712E+02  0.10566000000E+00 0. -1.
         22    1    1    0    0    0  0.30677790527E+02 -0.87493456842E+01  0.11875864513E+02  0.34039888946E+02  0.00000000000E+00 0.  1.
</event>
<event>
 5    1  0.9034713E-005  0.9118800E+02  0.7818608E-02  0.1130116E+00
         25   -1    0    0    0    0  0.00000000000E+00  0.00000000000E+00  0.99999998245E-14  0.12500000000E+03  0.12500000000E+03 0.  0.
        -13    1    3    3    0    0  0.43606717405E+02 -0.16618859828E+01 -0.35483308499E+02  0.56243968689E+02  0.10566000000E+00 0. -1.
         23    2    1    0    0    0  0.21986779692E+02 -0.20332610800E+02 -0.14261632868E+02  0.91830319338E+02  0.85630484259E+02 0.  0.
         13    1    3    3    0    0 -0.21619937712E+02 -0.18670724817E+02  0.21221675631E+02  0.35586350649E+02  0.10566000000E+00 0.  1.
         22    1    1    0    0    0 -0.21986779692E+02  0.20332610800E+02  0.14261632868E+02  0.33169680662E+02  0.00000000000E+00 0. -1.
</event>
<event>
 5    1  0.9034713E-005  0.9118800E+02  0.7818608E-02  0.1130116E+00
         25   -1    0    0    0    0  0.00000000000E+00  0.00000000000E+00  0.99999998245E-14  0.12500000000E+03  0.12500000000E+03 0.  0.
        -13    1    3    3    0    0 -0.37884649298E+02 -0.10147804953E+02 -0.34441125155E+02  0.52196042607E+02  0.10566000000E+00 0.  1.
         23    2    1    0    0    0 -0.35657021697E+00  0.36268238920E+01 -0.32581186167E+02  0.92215633514E+02  0.86191115427E+02 0.  0.
         13    1    3    3    0    0  0.37528079081E+02  0.13774628845E+02  0.18599389888E+01  0.40019590907E+02  0.10566000000E+00 0. -1.
         22    1    1    0    0    0  0.35657021697E+00 -0.36268238920E+01  0.32581186167E+02  0.32784366486E+02  0.00000000000E+00 0.  1.
</event>
<event>
 5    1  0.9034713E-005  0.9118800E+02  0.7818608E-02  0.1130116E+00
         25   -1    0    0    0    0  0.00000000000E+00  0.00000000000E+00  0.99999998245E-14  0.12500000000E+03  0.12500000000E+03 0.  0.
        -13    1    3    3    0    0 -0.94352003707E+01  0.29571320660E+02 -0.17453431207E+02  0.35610664646E+02  0.10566000000E+00 0.  1.
         23    2    1    0    0    0 -0.10548815596E+02 -0.27818896534E+02 -0.13958045123E+01  0.95215494211E+02  0.90437124859E+02 0.  0.
         13    1    3    3    0    0 -0.11136152252E+01 -0.57390217194E+02  0.16057626695E+02  0.59604829565E+02  0.10566000000E+00 0. -1.
         22    1    1    0    0    0  0.10548815596E+02  0.27818896534E+02  0.13958045123E+01  0.29784505789E+02  0.00000000000E+00 0. -1.
</event>
<event>
 5    1  0.9034713E-005  0.9118800E+02  0.7818608E-02  0.1130116E+00
         25   -1    0    0    0    0  0.00000000000E+00  0.00000000000E+00  0.99999998245E-14  0.12500000000E+03  0.12500000000E+03 0.  0.
        -13    1    3    3    0    0 -0.48293480059E+02 -0.23103813376E+02 -0.97038257204E+01  0.54407920438E+02  0.10566000000E+00 0.  1.
         23    2    1    0    0    0 -0.19617896638E+02 -0.13728186433E+02 -0.26781355691E+02  0.89075551724E+02  0.81510048037E+02 0.  0.
         13    1    3    3    0    0  0.28675583420E+02  0.93756269432E+01 -0.17077529971E+02  0.34667631286E+02  0.10566000000E+00 0. -1.
         22    1    1    0    0    0  0.19617896638E+02  0.13728186433E+02  0.26781355691E+02  0.35924448276E+02  0.00000000000E+00 0.  1.
</event>
<event>
 5    1  0.9034713E-005  0.9118800E+02  0.7818608E-02  0.1130116E+00
         25   -1    0    0    0    0  0.00000000000E+00  0.00000000000E+00  0.99999998245E-14  0.12500000000E+03  0.12500000000E+03 0.  0.
        -13    1    3    3    0    0  0.96001006419E+01  0.28175345876E+02 -0.12777484370E+02  0.32392704710E+02  0.10566000000E+00 0.  1.
         23    2    1    0    0    0  0.21774531763E+02 -0.26084804196E+02 -0.14566343534E+02  0.88030747811E+02  0.79891720177E+02 0.  0.
         13    1    3    3    0    0  0.12174431121E+02 -0.54260150073E+02 -0.17888591641E+01  0.55638043101E+02  0.10566000000E+00 0. -1.
         22    1    1    0    0    0 -0.21774531763E+02  0.26084804196E+02  0.14566343534E+02  0.36969252189E+02  0.00000000000E+00 0. -1.
</event>
<event>
 5    1  0.9034713E-005  0.9118800E+02  0.7818608E-02  0.1130116E+00
         25   -1    0    0    0    0  0.00000000000E+00  0.00000000000E+00  0.99999998245E-14  0.12500000000E+03  0.12500000000E+03 0.  0.
        -13    1    3    3    0    0 -0.25355966480E+02 -0.23523716795E+02  0.20260350156E+02  0.40084700828E+02  0.10566000000E+00 0.  1.
         23    2    1    0    0    0 -0.97805695430E+01  0.18768400827E+02 -0.16435590802E+02  0.98203711913E+02  0.94477129393E+02 0.  0.
         13    1    3    3    0    0  0.15575396936E+02  0.42292117622E+02 -0.36695940959E+02  0.58119011086E+02  0.10566000000E+00 0. -1.
         22    1    1    0    0    0  0.97805695430E+01 -0.18768400827E+02  0.16435590802E+02  0.26796288087E+02  0.00000000000E+00 0. -1.
</event>
<event>
 5    1  0.9034713E-005  0.9118800E+02  0.7818608E-02  0.1130116E+00
         25   -1    0    0    0    0  0.00000000000E+00  0.00000000000E+00  0.99999998245E-14  0.12500000000E+03  0.12500000000E+03 0.  0.
        -13    1    3    3    0    0 -0.26611844251E+02  0.46599510173E+01 -0.34341319668E+02  0.43694882979E+02  0.10566000000E+00 0. -1.
         23    2    1    0    0    0 -0.12821150880E+02 -0.27691492991E+02  0.21932763689E+01  0.94405700609E+02  0.89310834462E+02 0.  0.
         13    1    3    3    0    0  0.13790693371E+02 -0.32351444009E+02  0.36534596037E+02  0.50710817630E+02  0.10566000000E+00 0.  1.
         22    1    1    0    0    0  0.12821150880E+02  0.27691492991E+02 -0.21932763689E+01  0.30594299391E+02  0.00000000000E+00 0.  1.
</event>
<event>
 5    1  0.9034713E-005  0.9118800E+02  0.7818608E-02  0.1130116E+00
         25   -1    0    0    0    0  0.00000000000E+00  0.00000000000E+00  0.99999998245E-14  0.12500000000E+03  0.12500000000E+03 0.  0.
        -13    1    3    3    0    0  0.15190647747E+02  0.32535906760E+02 -0.14550071676E+02  0.38743473740E+02  0.10566000000E+00 0. -1.
         23    2    1    0    0    0 -0.81057930822E+01 -0.23156577200E+02 -0.62679544467E+01  0.99677713333E+02  0.96407615535E+02 0.  0.
         13    1    3    3    0    0 -0.23296440829E+02 -0.55692483960E+02  0.82821172293E+01  0.60934239593E+02  0.10566000000E+00 0.  1.
         22    1    1    0    0    0  0.81057930822E+01  0.23156577200E+02  0.62679544467E+01  0.25322286667E+02  0.00000000000E+00 0.  1.
</event>
<event>
 5    1  0.9034713E-005  0.9118800E+02  0.7818608E-02  0.1130116E+00
         25   -1    0    0    0    0  0.00000000000E+00  0.00000000000E+00  0.99999998245E-14  0.12500000000E+03  0.12500000000E+03 0.  0.
        -13    1    3    3    0    0 -0.14210284729E+02  0.92243324700E+01  0.52677290447E+02  0.55334696118E+02  0.10566000000E+00 0. -1.
         23    2    1    0    0    0 -0.24486449401E+02 -0.14550304939E+00  0.13217179561E+02  0.97173731638E+02  0.93104419388E+02 0.  0.
         13    1    3    3    0    0 -0.10276164672E+02 -0.93698355194E+01 -0.39460110887E+02  0.41839035520E+02  0.10566000000E+00 0.  1.
         22    1    1    0    0    0  0.24486449401E+02  0.14550304939E+00 -0.13217179561E+02  0.27826268362E+02  0.00000000000E+00 0.  1.
</event>
<event>
 5    1  0.9034713E-005  0.9118800E+02  0.7818608E-02  0.1130116E+00
         25   -1    0    0    0    0  0.00000000000E+00  0.00000000000E+00  0.99999998245E-14  0.12500000000E+03  0.12500000000E+03 0.  0.
        -13    1    3    3    0    0 -0.51133146088E+02  0.18263368731E+02  0.23072871614E+02  0.58995913713E+02  0.10566000000E+00 0.  1.
         23    2    1    0    0    0 -0.26561040651E+02 -0.60024893196E+01  0.11785115429E+02  0.95328334995E+02  0.90592956397E+02 0.  0.
         13    1    3    3    0    0  0.24572105436E+02 -0.24265858050E+02 -0.11287756185E+02  0.36332421282E+02  0.10566000000E+00 0. -1.
         22    1    1    0    0    0  0.26561040651E+02  0.60024893196E+01 -0.11785115429E+02  0.29671665005E+02  0.00000000000E+00 0.  1.
</event>
<event>
 5    1  0.9034713E-005  0.9118800E+02  0.7818608E-02  0.1130116E+00
         25   -1    0    0    0    0  0.00000000000E+00  0.00000000000E+00  0.99999998245E-14  0.12500000000E+03  0.12500000000E+03 0.  0.
        -13    1    3    3    0    0 -0.12658032037E+02  0.34466550889E+01  0.58447115892E+02  0.59901433426E+02  0.10566000000E+00 0.  1.
         23    2    1    0    0    0 -0.90396680792E+01 -0.10535964449E+02  0.23658881019E+02  0.97568908208E+02  0.93633471857E+02 0.  0.
         13    1    3    3    0    0  0.36183639579E+01 -0.13982619538E+02 -0.34788234873E+02  0.37667474782E+02  0.10566000000E+00 0. -1.
         22    1    1    0    0    0  0.90396680792E+01  0.10535964449E+02 -0.23658881019E+02  0.27431091792E+02  0.00000000000E+00 0.  1.
</event>
<event>
 5    1  0.9034713E-005  0.9118800E+02  0.7818608E-02  0.1130116E+00
         25   -1    0    0    0    0  0.00000000000E+00  0.00000000000E+00  0.99999998245E-14  0.12500000000E+03  0.12500000000E+03 0.  0.
        -13    1    3    3    0    0 -0.26251654548E+02 -0.11774324553E+02 -0.25356049121E+02  0.38350025766E+02  0.10566000000E+00 0.  1.
         23    2    1    0    0    0  0.44129163257E+01 -0.18248217943E+02  0.22587704096E+02  0.95628659122E+02  0.91006399668E+02 0.  0.
         13    1    3    3    0    0  0.30664570874E+02 -0.64738933908E+01  0.47943753218E+02  0.57278633356E+02  0.10566000000E+00 0. -1.
         22    1    1    0    0    0 -0.44129163257E+01  0.18248217943E+02 -0.22587704096E+02  0.29371340878E+02  0.00000000000E+00 0. -1.
</event>
<event>
 5    1  0.9034713E-005  0.9118800E+02  0.7818608E-02  0.1130116E+00
         25   -1    0    0    0    0  0.00000000000E+00  0.00000000000E+00  0.99999998245E-14  0.12500000000E+03  0.12500000000E+03 0.  0.
        -13    1    3    3    0    0 -0.47281262397E+02  0.21956354341E+02 -0.26476998321E+02  0.58469153183E+02  0.10566000000E+00 0.  1.
         23    2    1    0    0    0 -0.29614357077E+02  0.79896784486E-01 -0.27562007735E+01  0.95257552702E+02  0.90495238413E+02 0.  0.
         13    1    3    3    0    0  0.17666905320E+02 -0.21876457556E+02  0.23720797548E+02  0.36788399518E+02  0.10566000000E+00 0. -1.
         22    1    1    0    0    0  0.29614357077E+02 -0.79896784486E-01  0.27562007735E+01  0.29742447298E+02  0.00000000000E+00 0.  1.
</event>
<event>
 5    1  0.9034713E-005  0.9118800E+02  0.7818608E-02  0.1130116E+00
         25   -1    0    0    0    0  0.00000000000E+00  0.00000000000E+00  0.99999998245E-14  0.12500000000E+03  0.12500000000E+03 0.  0.
        -13    1    3    3    0    0 -0.26732060084E+02 -0.52003336922E+00  0.44215901426E+02  0.51671370932E+02  0.10566000000E+00 0. -1.
         23    2    1    0    0    0  0.32828478102E+01  0.20772850147E+02  0.21531883641E+02  0.94901654429E+02  0.90002297788E+02 0.  0.
         13    1    3    3    0    0  0.30014907894E+02  0.21292883516E+02 -0.22684017784E+02  0.43230283497E+02  0.10566000000E+00 0.  1.
         22    1    1    0    0    0 -0.32828478102E+01 -0.20772850147E+02 -0.21531883641E+02  0.30098345571E+02  0.00000000000E+00 0.  1.
</event>
<event>
 5    1  0.9034713E-005  0.9118800E+02  0.7818608E-02  0.1130116E+00
         25   -1    0    0    0    0  0.00000000000E+00  0.00000000000E+00  0.99999998245E-14  0.12500000000E+03  0.12500000000E+03 0.  0.
        -13    1    3    3    0    0 -0.28659831005E+02 -0.48701094847E+02 -0.63546833606E+01  0.56864538310E+02  0.10566000000E+00 0.  1.
         23    2    1    0    0    0 -0.27319956381E+02 -0.11355139092E+02  0.26237112253E+01  0.95298096676E+02  0.90551224006E+02 0.  0.
         13    1    3    3    0    0  0.13398746240E+01  0.37345955756E+02  0.89783945858E+01  0.38433558366E+02  0.10566000000E+00 0. -1.
         22    1    1    0    0    0  0.27319956381E+02  0.11355139092E+02 -0.26237112253E+01  0.29701903324E+02  0.00000000000E+00 0.  1.
</event>
<event>
 5    1  0.9034713E-005  0.9118800E+02  0.7818608E-02  0.1130116E+00
         25   -1    0    0    0    0  0.00000000000E+00  0.00000000000E+00  0.99999998245E-14  0.12500000000E+03  0.12500000000E+03 0.  0.
        -13    1    3    3    0    0  0.26785988092E+02  0.28462073455E+02  0.22668271018E+02  0.45182302492E+02  0.10566000000E+00 0.  1.
         23    2    1    0    0    0  0.11860997282E+00  0.22263197967E+02 -0.19463346489E+02  0.95428292092E+02  0.90730772194E+02 0.  0.
         13    1    3    3    0    0 -0.26667378119E+02 -0.61988754884E+01 -0.42131617508E+02  0.50245989600E+02  0.10566000000E+00 0. -1.
         22    1    1    0    0    0 -0.11860997282E+00 -0.22263197967E+02  0.19463346489E+02  0.29571707908E+02  0.00000000000E+00 0. -1.
</event>
<event>
 5    1  0.9034713E-005  0.9118800E+02  0.7818608E-02  0.1130116E+00
         25   -1    0    0    0    0  0.00000000000E+00  0.00000000000E+00  0.99999998245E-14  0.12500000000E+03  0.12500000000E+03 0.  0.
        -13    1    3    3    0    0 -0.58449014017E+02  0.61623536920E+01  0.10814044180E+02  0.59759656610E+02  0.10566000000E+00 0.  1.
         23    2    1    0    0    0 -0.28497572380E+02  0.11018601891E+02 -0.51019630646E+01  0.94023375808E+02  0.88774117580E+02 0.  0.
         13    1    3    3    0    0  0.29951441636E+02  0.48562481989E+01 -0.15916007245E+02  0.34263719199E+02  0.10566000000E+00 0. -1.
         22    1    1    0    0    0  0.28497572380E+02 -0.11018601891E+02  0.51019630646E+01  0.30976624192E+02  0.00000000000E+00 0.  1.
</event>
<event>
 5    1  0.9034713E-005  0.9118800E+02  0.7818608E-02  0.1130116E+00
         25   -1    0    0    0    0  0.00000000000E+00  0.00000000000E+00  0.99999998245E-14  0.12500000000E+03  0.12500000000E+03 0.  0.
        -13    1    3    3    0    0  0.46910342369E+02 -0.37692027165E+01  0.11963446228E+02  0.48558442314E+02  0.10566000000E+00 0.  1.
         23    2    1    0    0    0  0.74783166190E+01 -0.28139365432E+02  0.56351311763E+01  0.95343570516E+02  0.90613975904E+02 0.  0.
         13    1    3    3    0    0 -0.39432025750E+02 -0.24370162715E+02 -0.63283150520E+01  0.46785128202E+02  0.10566000000E+00 0. -1.
         22    1    1    0    0    0 -0.74783166190E+01  0.28139365432E+02 -0.56351311763E+01  0.29656429484E+02  0.00000000000E+00 0.  1.
</event>
<event>
 5    1  0.9034713E-005  0.9118800E+02  0.7818608E-02  0.1130116E+00
         25   -1    0    0    0    0  0.00000000000E+00  0.00000000000E+00  0.99999998245E-14  0.12500000000E+03  0.12500000000E+03 0.  0.
        -13    1    3    3    0    0 -0.12415593083E+02  0.32091651531E+02 -0.49667761163E+02  0.60422832709E+02  0.10566000000E+00 0.  1.
         23    2    1    0    0    0  0.28803064112E+01  0.22495974803E+02 -0.22430894120E+02  0.93101566521E+02  0.87466517195E+02 0.  0.
         13    1    3    3    0    0  0.15295899494E+02 -0.95956767282E+01  0.27236867043E+02  0.32678733812E+02  0.10566000000E+00 0. -1.
         22    1    1    0    0    0 -0.28803064112E+01 -0.22495974803E+02  0.22430894120E+02  0.31898433479E+02  0.00000000000E+00 0.  1.
</event>
<event>
 5    1  0.9034713E-005  0.9118800E+02  0.7818608E-02  0.1130116E+00
         25   -1    0    0    0    0  0.00000000000E+00  0.00000000000E+00  0.99999998245E-14  0.12500000000E+03  0.12500000000E+03 0.  0.
        -13    1    3    3    0    0  0.23208173066E+02  0.27641664936E+02 -0.25494952373E+02  0.44189192095E+02  0.10566000000E+00 0.  1.
         23    2    1    0    0    0 -0.14342802729E+02 -0.41775191802E+01 -0.27776160302E+02  0.93461408755E+02  0.87979271358E+02 0.  0.
         13    1    3    3    0    0 -0.37550975795E+02 -0.31819184116E+02 -0.22812079288E+01  0.49272216660E+02  0.10566000000E+00 0. -1.
         22    1    1    0    0    0  0.14342802729E+02  0.41775191802E+01  0.27776160302E+02  0.31538591245E+02  0.00000000000E+00 0. -1.
</event>
<event>
 5    1  0.9034713E-005  0.9118800E+02  0.7818608E-02  0.1130116E+00
         25   -1    0    0    0    0  0.00000000000E+00  0.00000000000E+00  0.99999998245E-14  0.12500000000E+03  0.12500000000E+03 0.  0.
        -13    1    3    3    0    0 -0.13008555888E+02 -0.47066892497E+02  0.18202827071E+02  0.52113999779E+02  0.10566000000E+00 0.  1.
         23    2    1    0    0    0 -0.22815259610E+02 -0.51844661464E+01  0.18567411030E+02  0.95130893675E+02  0.90320116356E+02 0.  0.
         13    1    3    3    0    0 -0.98067037225E+01  0.41882426350E+02  0.36458395963E+00  0.43016893895E+02  0.10566000000E+00 0. -1.
         22    1    1    0    0    0  0.22815259610E+02  0.51844661464E+01 -0.18567411030E+02  0.29869106325E+02  0.00000000000E+00 0.  1.
</event>
<event>
 5    1  0.9034713E-005  0.9118800E+02  0.7818608E-02  0.1130116E+00
         25   -1    0    0    0    0  0.00000000000E+00  0.00000000000E+00  0.99999998245E-14  0.12500000000E+03  0.12500000000E+03 0.  0.
        -13    1    3    3    0    0  0.46216081112E+02 -0.36905049735E+00 -0.11223860134E+02  0.47560998223E+02  0.10566000000E+00 0.  1.
         23    2    1    0    0    0  0.31025275798E+01 -0.16418308539E+02 -0.24411397200E+02  0.95417862722E+02  0.90716402489E+02 0.  0.
         13    1    3    3    0    0 -0.43113553532E+02 -0.16049258042E+02 -0.13187537066E+02  0.47856864499E+02  0.10566000000E+00 0. -1.
         22    1    1    0    0    0 -0.31025275798E+01  0.16418308539E+02  0.24411397200E+02  0.29582137278E+02  0.00000000000E+00 0.  1.
</event>
<event>
 5    1  0.9034713E-005  0.9118800E+02  0.7818608E-02  0.1130116E+00
         25   -1    0    0    0    0  0.00000000000E+00  0.00000000000E+00  0.99999998245E-14  0.12500000000E+03  0.12500000000E+03 0.  0.
        -13    1    3    3    0    0 -0.28459723475E+02  0.25354596419E+02  0.45242062929E+02  0.59157982064E+02  0.10566000000E+00 0.  1.
         23    2    1    0    0    0 -0.14203773614E+02 -0.15775877304E+01  0.26384715895E+02  0.94993514022E+02  0.90129787004E+02 0.  0.
         13    1    3    3    0    0  0.14255949861E+02 -0.26932184149E+02 -0.18857347034E+02  0.35835531958E+02  0.10566000000E+00 0. -1.
         22    1    1    0    0    0  0.14203773614E+02  0.15775877304E+01 -0.26384715895E+02  0.30006485978E+02  0.00000000000E+00 0.  1.
</event>
<event>
 5    1  0.9034713E-005  0.9118800E+02  0.7818608E-02  0.1130116E+00
         25   -1    0    0    0    0  0.00000000000E+00  0.00000000000E+00  0.99999998245E-14  0.12500000000E+03  0.12500000000E+03 0.  0.
        -13    1    3    3    0    0  0.34382535505E+02  0.16255437568E+01 -0.40553921141E+02  0.53192413220E+02  0.10566000000E+00 0.  1.
         23    2    1    0    0    0  0.39646998775E+01  0.22104537538E+02 -0.17758787624E+02  0.96369527375E+02  0.92018377749E+02 0.  0.
         13    1    3    3    0    0 -0.30417835627E+02  0.20478993781E+02  0.22795133518E+02  0.43177114154E+02  0.10566000000E+00 0. -1.
         22    1    1    0    0    0 -0.39646998775E+01 -0.22104537538E+02  0.17758787624E+02  0.28630472625E+02  0.00000000000E+00 0.  1.
</event>
<event>
 5    1  0.9034713E-005  0.9118800E+02  0.7818608E-02  0.1130116E+00
         25   -1    0    0    0    0  0.00000000000E+00  0.00000000000E+00  0.99999998245E-14  0.12500000000E+03  0.12500000000E+03 0.  0.
        -13    1    3    3    0    0 -0.48682896014E+02  0.26492136902E+02  0.14444467778E+02  0.57275749628E+02  0.10566000000E+00 0.  1.
         23    2    1    0    0    0 -0.11491818284E+02  0.26471012724E+02  0.43187671634E+01  0.95820758201E+02  0.91269872085E+02 0.  0.
         13    1    3    3    0    0  0.37191077730E+02 -0.21124178030E-01 -0.10125700614E+02  0.38545008573E+02  0.10566000000E+00 0. -1.
         22    1    1    0    0    0  0.11491818284E+02 -0.26471012724E+02 -0.43187671634E+01  0.29179241799E+02  0.00000000000E+00 0.  1.
</event>
<event>
 5    1  0.9034713E-005  0.9118800E+02  0.7818608E-02  0.1130116E+00
         25   -1    0    0    0    0  0.00000000000E+00  0.00000000000E+00  0.99999998245E-14  0.12500000000E+03  0.12500000000E+03 0.  0.
        -13    1    3    3    0    0  0.15077440926E+02  0.32685070331E+02  0.39771996183E+01  0.36214255871E+02  0.10566000000E+00 0. -1.
         23    2    1    0    0    0 -0.19272151167E+02  0.26062614838E+02 -0.26902601588E+02  0.82876067670E+02  0.71372382035E+02 0.  0.
         13    1    3    3    0    0 -0.34349592093E+02 -0.66224554940E+01 -0.30879801206E+02  0.46661811798E+02  0.10566000000E+00 0.  1.
         22    1    1    0    0    0  0.19272151167E+02 -0.26062614838E+02  0.26902601588E+02  0.42123932330E+02  0.00000000000E+00 0.  1.
</event>
<event>
 5    1  0.9034713E-005  0.9118800E+02  0.7818608E-02  0.1130116E+00
         25   -1    0    0    0    0  0.00000000000E+00  0.00000000000E+00  0.99999998245E-14  0.12500000000E+03  0.12500000000E+03 0.  0.
        -13    1    3    3    0    0 -0.22615548744E+02  0.51524172611E+02  0.14128420030E+02  0.58015746352E+02  0.10566000000E+00 0.  1.
         23    2    1    0    0    0  0.50164770481E+01  0.26886572204E+02 -0.23540030487E-01  0.97649435820E+02  0.93740913986E+02 0.  0.
         13    1    3    3    0    0  0.27632025793E+02 -0.24637600407E+02 -0.14151960061E+02  0.39633689468E+02  0.10566000000E+00 0. -1.
         22    1    1    0    0    0 -0.50164770481E+01 -0.26886572204E+02  0.23540030487E-01  0.27350564180E+02  0.00000000000E+00 0.  1.
</event>
<event>
 5    1  0.9034713E-005  0.9118800E+02  0.7818608E-02  0.1130116E+00
         25   -1    0    0    0    0  0.00000000000E+00  0.00000000000E+00  0.99999998245E-14  0.12500000000E+03  0.12500000000E+03 0.  0.
        -13    1    3    3    0    0 -0.30166252155E+02 -0.10162034002E+02 -0.11243133037E+02  0.33759278853E+02  0.10566000000E+00 0.  1.
         23    2    1    0    0    0  0.17208954322E+02  0.25666369423E+02 -0.66769275592E+00  0.94091159164E+02  0.88869509906E+02 0.  0.
         13    1    3    3    0    0  0.47375206477E+02  0.35828403424E+02  0.10575440281E+02  0.60331880311E+02  0.10566000000E+00 0. -1.
         22    1    1    0    0    0 -0.17208954322E+02 -0.25666369423E+02  0.66769275592E+00  0.30908840836E+02  0.00000000000E+00 0. -1.
</event>
<event>
 5    1  0.9034713E-005  0.9118800E+02  0.7818608E-02  0.1130116E+00
         25   -1    0    0    0    0  0.00000000000E+00  0.00000000000E+00  0.99999998245E-14  0.12500000000E+03  0.12500000000E+03 0.  0.
        -13    1    3    3    0    0  0.21703396820E+02  0.14226216546E+02  0.25308382814E+02  0.36248421696E+02  0.10566000000E+00 0. -1.
         23    2    1    0    0    0  0.87224692813E+01  0.14342655037E+02 -0.28676071498E+02  0.91771844763E+02  0.85545082798E+02 0.  0.
         13    1    3    3    0    0 -0.12980927539E+02  0.11643849094E+00 -0.53984454312E+02  0.55523423067E+02  0.10566000000E+00 0.  1.
         22    1    1    0    0    0 -0.87224692813E+01 -0.14342655037E+02  0.28676071498E+02  0.33228155237E+02  0.00000000000E+00 0.  1.
</event>
<event>
 5    1  0.9034713E-005  0.9118800E+02  0.7818608E-02  0.1130116E+00
         25   -1    0    0    0    0  0.00000000000E+00  0.00000000000E+00  0.99999998245E-14  0.12500000000E+03  0.12500000000E+03 0.  0.
        -13    1    3    3    0    0  0.43205141764E+02 -0.28881579169E+01 -0.10289760579E+02  0.44507483279E+02  0.10566000000E+00 0.  1.
         23    2    1    0    0    0  0.71498712684E+01  0.99623890983E+01  0.25370282459E+02  0.96821620207E+02  0.92630475826E+02 0.  0.
         13    1    3    3    0    0 -0.36055270496E+02  0.12850547015E+02  0.35660043037E+02  0.52314136929E+02  0.10566000000E+00 0. -1.
         22    1    1    0    0    0 -0.71498712684E+01 -0.99623890983E+01 -0.25370282459E+02  0.28178379793E+02  0.00000000000E+00 0. -1.
</event>
<event>
 5    1  0.9034713E-005  0.9118800E+02  0.7818608E-02  0.1130116E+00
         25   -1    0    0    0    0  0.00000000000E+00  0.00000000000E+00  0.99999998245E-14  0.12500000000E+03  0.12500000000E+03 0.  0.
        -13    1    3    3    0    0 -0.43508319591E+01  0.52806962290E+02  0.19197736640E+02  0.56356625707E+02  0.10566000000E+00 0. -1.
         23    2    1    0    0    0 -0.58124215137E+01  0.13377964304E+02  0.24819945359E+02  0.96211393566E+02  0.91803313620E+02 0.  0.
         13    1    3    3    0    0 -0.14615895546E+01 -0.39428997986E+02  0.56222087190E+01  0.39854767859E+02  0.10566000000E+00 0.  1.
         22    1    1    0    0    0  0.58124215137E+01 -0.13377964304E+02 -0.24819945359E+02  0.28788606434E+02  0.00000000000E+00 0. -1.
</event>
<event>
 5    1  0.9034713E-005  0.9118800E+02  0.7818608E-02  0.1130116E+00
         25   -1    0    0    0    0  0.00000000000E+00  0.00000000000E+00  0.99999998245E-14  0.12500000000E+03  0.12500000000E+03 0.  0.
        -13    1    3    3    0    0 -0.24414561579E+02  0.34186937283E+02  0.78420807161E+01  0.42735546000E+02  0.10566000000E+00 0. -1.
         23    2    1    0    0    0  0.44078199331E+01 -0.88332818329E+01 -0.20846274051E+02  0.10193437869E+03  0.99290456102E+02 0.  0.
         13    1    3    3    0    0  0.28822381513E+02 -0.43020219116E+02 -0.28688354767E+02  0.59198832692E+02  0.10566000000E+00 0.  1.
         22    1    1    0    0    0 -0.44078199331E+01  0.88332818329E+01  0.20846274051E+02  0.23065621308E+02  0.00000000000E+00 0.  1.
</event>
<event>
 5    1  0.9034713E-005  0.9118800E+02  0.7818608E-02  0.1130116E+00
         25   -1    0    0    0    0  0.00000000000E+00  0.00000000000E+00  0.99999998245E-14  0.12500000000E+03  0.12500000000E+03 0.  0.
        -13    1    3    3    0    0  0.31704100185E+02  0.26527913375E+01  0.23585320543E+02  0.39603860665E+02  0.10566000000E+00 0.  1.
         23    2    1    0    0    0 -0.12602763394E+02 -0.20605556439E+02 -0.88935135024E+01  0.99260668545E+02  0.95865359418E+02 0.  0.
         13    1    3    3    0    0 -0.44306863579E+02 -0.23258347777E+02 -0.32478834045E+02  0.59656807880E+02  0.10566000000E+00 0. -1.
         22    1    1    0    0    0  0.12602763394E+02  0.20605556439E+02  0.88935135024E+01  0.25739331455E+02  0.00000000000E+00 0. -1.
</event>
<event>
 5    1  0.9034713E-005  0.9118800E+02  0.7818608E-02  0.1130116E+00
         25   -1    0    0    0    0  0.00000000000E+00  0.00000000000E+00  0.99999998245E-14  0.12500000000E+03  0.12500000000E+03 0.  0.
        -13    1    3    3    0    0  0.26380530838E+02  0.16059191703E+02 -0.12678985574E+02  0.33385593969E+02  0.10566000000E+00 0.  1.
         23    2    1    0    0    0 -0.21418758078E+02 -0.55186417747E+01  0.20001855110E+02  0.95178987065E+02  0.90386651482E+02 0.  0.
         13    1    3    3    0    0 -0.47799288916E+02 -0.21577833478E+02  0.32680840684E+02  0.61793393096E+02  0.10566000000E+00 0. -1.
         22    1    1    0    0    0  0.21418758078E+02  0.55186417747E+01 -0.20001855110E+02  0.29821012935E+02  0.00000000000E+00 0. -1.
</event>
<event>
 5    1  0.9034713E-005  0.9118800E+02  0.7818608E-02  0.1130116E+00
         25   -1    0    0    0    0  0.00000000000E+00  0.00000000000E+00  0.99999998245E-14  0.12500000000E+03  0.12500000000E+03 0.  0.
        -13    1    3    3    0    0  0.53646955981E+02 -0.16936037834E+02  0.20710337462E+02  0.59947931619E+02  0.10566000000E+00 0.  1.
         23    2    1    0    0    0  0.26970901236E+02  0.15309200461E+01  0.88304278982E+00  0.97971256148E+02  0.94169071552E+02 0.  0.
         13    1    3    3    0    0 -0.26676054745E+02  0.18466957880E+02 -0.19827294672E+02  0.38023324528E+02  0.10566000000E+00 0. -1.
         22    1    1    0    0    0 -0.26970901236E+02 -0.15309200461E+01 -0.88304278982E+00  0.27028743852E+02  0.00000000000E+00 0.  1.
</event>
<event>
 5    1  0.9034713E-005  0.9118800E+02  0.7818608E-02  0.1130116E+00
         25   -1    0    0    0    0  0.00000000000E+00  0.00000000000E+00  0.99999998245E-14  0.12500000000E+03  0.12500000000E+03 0.  0.
        -13    1    3    3    0    0 -0.24935118940E+02  0.64221271742E+01  0.21297031431E+02  0.33415244811E+02  0.10566000000E+00 0.  1.
         23    2    1    0    0    0  0.16739953939E+02 -0.13630484233E+02 -0.20113997278E+02  0.95494254037E+02  0.90821602658E+02 0.  0.
         13    1    3    3    0    0  0.41675072879E+02 -0.20052611407E+02 -0.41411028709E+02  0.62079009226E+02  0.10566000000E+00 0. -1.
         22    1    1    0    0    0 -0.16739953939E+02  0.13630484233E+02  0.20113997278E+02  0.29505745963E+02  0.00000000000E+00 0. -1.
</event>
<event>
 5    1  0.9034713E-005  0.9118800E+02  0.7818608E-02  0.1130116E+00
         25   -1    0    0    0    0  0.00000000000E+00  0.00000000000E+00  0.99999998245E-14  0.12500000000E+03  0.12500000000E+03 0.  0.
        -13    1    3    3    0    0  0.47694910132E+02 -0.17518135782E+02 -0.34394863481E+02  0.61357210918E+02  0.10566000000E+00 0.  1.
         23    2    1    0    0    0  0.18918737324E+02 -0.69207434346E+01 -0.23839861244E+02  0.93788555051E+02  0.88442855917E+02 0.  0.
         13    1    3    3    0    0 -0.28776172807E+02  0.10597392348E+02  0.10555002237E+02  0.32431344133E+02  0.10566000000E+00 0. -1.
         22    1    1    0    0    0 -0.18918737324E+02  0.69207434346E+01  0.23839861244E+02  0.31211444949E+02  0.00000000000E+00 0.  1.
</event>
<event>
 5    1  0.9034713E-005  0.9118800E+02  0.7818608E-02  0.1130116E+00
         25   -1    0    0    0    0  0.00000000000E+00  0.00000000000E+00  0.99999998245E-14  0.12500000000E+03  0.12500000000E+03 0.  0.
        -13    1    3    3    0    0 -0.28108259529E+02 -0.46409081457E+01  0.59773465762E+01  0.29109313257E+02  0.10566000000E+00 0. -1.
         23    2    1    0    0    0  0.23439065694E+02 -0.28104019806E+02 -0.82089732456E+01  0.87495160691E+02  0.79049289515E+02 0.  0.
         13    1    3    3    0    0  0.51547325223E+02 -0.23463111660E+02 -0.14186319822E+02  0.58385847434E+02  0.10566000000E+00 0.  1.
         22    1    1    0    0    0 -0.23439065694E+02  0.28104019806E+02  0.82089732456E+01  0.37504839309E+02  0.00000000000E+00 0.  1.
</event>
<event>
 5    1  0.9034713E-005  0.9118800E+02  0.7818608E-02  0.1130116E+00
         25   -1    0    0    0    0  0.00000000000E+00  0.00000000000E+00  0.99999998245E-14  0.12500000000E+03  0.12500000000E+03 0.  0.
        -13    1    3    3    0    0  0.30239195141E+02  0.15368293812E+02 -0.86679327064E+01  0.35010535541E+02  0.10566000000E+00 0.  1.
         23    2    1    0    0    0 -0.27512320575E+02 -0.31466397005E+01  0.41551904936E+01  0.96998308393E+02  0.92868601251E+02 0.  0.
         13    1    3    3    0    0 -0.57751515716E+02 -0.18514933513E+02  0.12823123200E+02  0.61987772851E+02  0.10566000000E+00 0. -1.
         22    1    1    0    0    0  0.27512320575E+02  0.31466397005E+01 -0.41551904936E+01  0.28001691607E+02  0.00000000000E+00 0. -1.
</event>
<event>
 5    1  0.9034713E-005  0.9118800E+02  0.7818608E-02  0.1130116E+00
         25   -1    0    0    0    0  0.00000000000E+00  0.00000000000E+00  0.99999998245E-14  0.12500000000E+03  0.12500000000E+03 0.  0.
        -13    1    3    3    0    0 -0.31379850741E+02  0.56558856644E+01 -0.23171114531E+02  0.39415679466E+02  0.10566000000E+00 0.  1.
         23    2    1    0    0    0  0.24551584622E+02  0.72331617810E+01 -0.13023682721E+02  0.96282144084E+02  0.91899597501E+02 0.  0.
         13    1    3    3    0    0  0.55931435363E+02  0.15772761166E+01  0.10147431810E+02  0.56866464617E+02  0.10566000000E+00 0. -1.
         22    1    1    0    0    0 -0.24551584622E+02 -0.72331617810E+01  0.13023682721E+02  0.28717855916E+02  0.00000000000E+00 0. -1.
</event>
<event>
 5    1  0.9034713E-005  0.9118800E+02  0.7818608E-02  0.1130116E+00
         25   -1    0    0    0    0  0.00000000000E+00  0.00000000000E+00  0.99999998245E-14  0.12500000000E+03  0.12500000000E+03 0.  0.
        -13    1    3    3    0    0 -0.18987643439E+02 -0.32561464761E+02  0.41913544866E+02  0.56369637200E+02  0.10566000000E+00 0.  1.
         23    2    1    0    0    0 -0.11257794831E+01 -0.28873121772E+02  0.77714211660E+01  0.95078109564E+02  0.90247035359E+02 0.  0.
         13    1    3    3    0    0  0.17861863956E+02  0.36883429891E+01 -0.34142123700E+02  0.38708472364E+02  0.10566000000E+00 0. -1.
         22    1    1    0    0    0  0.11257794831E+01  0.28873121772E+02 -0.77714211660E+01  0.29921890436E+02  0.00000000000E+00 0.  1.
</event>
<event>
 5    1  0.9034713E-005  0.9118800E+02  0.7818608E-02  0.1130116E+00
         25   -1    0    0    0    0  0.00000000000E+00  0.00000000000E+00  0.99999998245E-14  0.12500000000E+03  0.12500000000E+03 0.  0.
        -13    1    3    3    0    0  0.17436855030E+02 -0.27655534026E+02 -0.22256007144E+02  0.39550138983E+02  0.10566000000E+00 0. -1.
         23    2    1    0    0    0 -0.19948303389E+02  0.14426695853E+02 -0.14651550289E+02  0.96351574438E+02  0.91993986811E+02 0.  0.
         13    1    3    3    0    0 -0.37385158419E+02  0.42082229879E+02  0.76044568550E+01  0.56801435454E+02  0.10566000000E+00 0.  1.
         22    1    1    0    0    0  0.19948303389E+02 -0.14426695853E+02  0.14651550289E+02  0.28648425562E+02  0.00000000000E+00 0.  1.
</event>
<event>
 5    1  0.9034713E-005  0.9118800E+02  0.7818608E-02  0.1130116E+00
         25   -1    0    0    0    0  0.00000000000E+00  0.00000000000E+00  0.99999998245E-14  0.12500000000E+03  0.12500000000E+03 0.  0.
        -13    1    3    3    0    0 -0.17134417756E+01 -0.13971578326E+02  0.47266199921E+02  0.49317803100E+02  0.10566000000E+00 0.  1.
         23    2    1    0    0    0  0.25039609389E+02 -0.11473491199E+02  0.91022445617E+01  0.95991830552E+02  0.91503866793E+02 0.  0.
         13    1    3    3    0    0  0.26753051165E+02  0.24980871270E+01 -0.38163955359E+02  0.46674027452E+02  0.10566000000E+00 0. -1.
         22    1    1    0    0    0 -0.25039609389E+02  0.11473491199E+02 -0.91022445617E+01  0.29008169448E+02  0.00000000000E+00 0. -1.
</event>
<event>
 5    1  0.9034713E-005  0.9118800E+02  0.7818608E-02  0.1130116E+00
         25   -1    0    0    0    0  0.00000000000E+00  0.00000000000E+00  0.99999998245E-14  0.12500000000E+03  0.12500000000E+03 0.  0.
        -13    1    3    3    0    0  0.14721574195E+01  0.23847566728E+02 -0.21335898231E+02  0.32032880040E+02  0.10566000000E+00 0. -1.
         23    2    1    0    0    0  0.19452955942E+02 -0.20937793818E+02  0.15261719092E+02  0.92600481878E+02  0.86747452237E+02 0.  0.
         13    1    3    3    0    0  0.17980798523E+02 -0.44785360546E+02  0.36597617323E+02  0.60567601839E+02  0.10566000000E+00 0.  1.
         22    1    1    0    0    0 -0.19452955942E+02  0.20937793818E+02 -0.15261719092E+02  0.32399518122E+02  0.00000000000E+00 0.  1.
</event>
<event>
 5    1  0.9034713E-005  0.9118800E+02  0.7818608E-02  0.1130116E+00
         25   -1    0    0    0    0  0.00000000000E+00  0.00000000000E+00  0.99999998245E-14  0.12500000000E+03  0.12500000000E+03 0.  0.
        -13    1    3    3    0    0 -0.83799104895E+01 -0.46037004242E+02  0.50438333061E+01  0.47064637233E+02  0.10566000000E+00 0. -1.
         23    2    1    0    0    0 -0.15328173695E+01 -0.11992686060E+02 -0.27689193844E+02  0.94786335811E+02  0.89841994371E+02 0.  0.
         13    1    3    3    0    0  0.68470931200E+01  0.34044318182E+02 -0.32733027150E+02  0.47721698577E+02  0.10566000000E+00 0.  1.
         22    1    1    0    0    0  0.15328173695E+01  0.11992686060E+02  0.27689193844E+02  0.30213664189E+02  0.00000000000E+00 0.  1.
</event>
<event>
 5    1  0.9034713E-005  0.9118800E+02  0.7818608E-02  0.1130116E+00
         25   -1    0    0    0    0  0.00000000000E+00  0.00000000000E+00  0.99999998245E-14  0.12500000000E+03  0.12500000000E+03 0.  0.
        -13    1    3    3    0    0  0.45789793635E+02  0.11770833237E+02 -0.17072725460E+01  0.47309445778E+02  0.10566000000E+00 0. -1.
         23    2    1    0    0    0 -0.14229909207E+01  0.19400036106E+02 -0.18654430388E+02  0.98048672071E+02  0.94271777419E+02 0.  0.
         13    1    3    3    0    0 -0.47212784555E+02  0.76292028687E+01 -0.16947157842E+02  0.50739226293E+02  0.10566000000E+00 0.  1.
         22    1    1    0    0    0  0.14229909207E+01 -0.19400036106E+02  0.18654430388E+02  0.26951327929E+02  0.00000000000E+00 0. -1.
</event>
<event>
 5    1  0.9034713E-005  0.9118800E+02  0.7818608E-02  0.1130116E+00
         25   -1    0    0    0    0  0.00000000000E+00  0.00000000000E+00  0.99999998245E-14  0.12500000000E+03  0.12500000000E+03 0.  0.
        -13    1    3    3    0    0 -0.31052644967E+02 -0.36157806880E+02 -0.39565082729E+02  0.61944012570E+02  0.10566000000E+00 0.  1.
         23    2    1    0    0    0 -0.19138456848E+02 -0.22023725944E+02 -0.16579179275E+02  0.91441182672E+02  0.85060541193E+02 0.  0.
         13    1    3    3    0    0  0.11914188119E+02  0.14134080936E+02  0.22985903454E+02  0.29497170103E+02  0.10566000000E+00 0. -1.
         22    1    1    0    0    0  0.19138456848E+02  0.22023725944E+02  0.16579179275E+02  0.33558817328E+02  0.00000000000E+00 0.  1.
</event>
<event>
 5    1  0.9034713E-005  0.9118800E+02  0.7818608E-02  0.1130116E+00
         25   -1    0    0    0    0  0.00000000000E+00  0.00000000000E+00  0.99999998245E-14  0.12500000000E+03  0.12500000000E+03 0.  0.
        -13    1    3    3    0    0 -0.39234938390E+02  0.12401506598E+02  0.28000961607E+02  0.49771907451E+02  0.10566000000E+00 0.  1.
         23    2    1    0    0    0 -0.36712751840E+02  0.17708458940E+02 -0.55765612014E+01  0.83859828628E+02  0.73075010483E+02 0.  0.
         13    1    3    3    0    0  0.25221865507E+01  0.53069523426E+01 -0.33577522809E+02  0.34087921177E+02  0.10566000000E+00 0. -1.
         22    1    1    0    0    0  0.36712751840E+02 -0.17708458940E+02  0.55765612014E+01  0.41140171372E+02  0.00000000000E+00 0.  1.
</event>
<event>
 5    1  0.9034713E-005  0.9118800E+02  0.7818608E-02  0.1130116E+00
         25   -1    0    0    0    0  0.00000000000E+00  0.00000000000E+00  0.99999998245E-14  0.12500000000E+03  0.12500000000E+03 0.  0.
        -13    1    3    3    0    0 -0.12365043764E+01 -0.34426434138E+02 -0.55155822498E+01  0.34887549672E+02  0.10566000000E+00 0.  1.
         23    2    1    0    0    0  0.14652443619E+02  0.21152612878E+02  0.13757199662E+02  0.95821451748E+02  0.91270821936E+02 0.  0.
         13    1    3    3    0    0  0.15888947995E+02  0.55579047016E+02  0.19272781912E+02  0.60933902076E+02  0.10566000000E+00 0. -1.
         22    1    1    0    0    0 -0.14652443619E+02 -0.21152612878E+02 -0.13757199662E+02  0.29178548252E+02  0.00000000000E+00 0. -1.
</event>
<event>
 5    1  0.9034713E-005  0.9118800E+02  0.7818608E-02  0.1130116E+00
         25   -1    0    0    0    0  0.00000000000E+00  0.00000000000E+00  0.99999998245E-14  0.12500000000E+03  0.12500000000E+03 0.  0.
        -13    1    3    3    0    0  0.34209450523E+02  0.20616403970E+02  0.28272358893E+02  0.48935263963E+02  0.10566000000E+00 0.  1.
         23    2    1    0    0    0  0.18512685348E+02 -0.19576630800E+02  0.64231094483E+01  0.97301257660E+02  0.93275475956E+02 0.  0.
         13    1    3    3    0    0 -0.15696765175E+02 -0.40193034769E+02 -0.21849249445E+02  0.48365993697E+02  0.10566000000E+00 0. -1.
         22    1    1    0    0    0 -0.18512685348E+02  0.19576630800E+02 -0.64231094483E+01  0.27698742340E+02  0.00000000000E+00 0. -1.
</event>
<event>
 5    1  0.9034713E-005  0.9118800E+02  0.7818608E-02  0.1130116E+00
         25   -1    0    0    0    0  0.00000000000E+00  0.00000000000E+00  0.99999998245E-14  0.12500000000E+03  0.12500000000E+03 0.  0.
        -13    1    3    3    0    0  0.31443922249E+01  0.22634485247E+02  0.27854283946E+02  0.36028869300E+02  0.10566000000E+00 0.  1.
         23    2    1    0    0    0  0.34455422070E+01  0.46588462454E+01 -0.28880420198E+02  0.95544011131E+02  0.90890058768E+02 0.  0.
         13    1    3    3    0    0  0.30114998209E+00 -0.17975639001E+02 -0.56734704144E+02  0.59515141831E+02  0.10566000000E+00 0. -1.
         22    1    1    0    0    0 -0.34455422070E+01 -0.46588462454E+01  0.28880420198E+02  0.29455988869E+02  0.00000000000E+00 0. -1.
</event>
<event>
 5    1  0.9034713E-005  0.9118800E+02  0.7818608E-02  0.1130116E+00
         25   -1    0    0    0    0  0.00000000000E+00  0.00000000000E+00  0.99999998245E-14  0.12500000000E+03  0.12500000000E+03 0.  0.
        -13    1    3    3    0    0 -0.56123951795E+02  0.18692768181E+02  0.17738383290E+02  0.61757420227E+02  0.10566000000E+00 0.  1.
         23    2    1    0    0    0 -0.28218111926E+02  0.88967153833E+01  0.17909665508E+01  0.95358459107E+02  0.90634512063E+02 0.  0.
         13    1    3    3    0    0  0.27905839868E+02 -0.97960527973E+01 -0.15947416739E+02  0.33601038881E+02  0.10566000000E+00 0. -1.
         22    1    1    0    0    0  0.28218111926E+02 -0.88967153833E+01 -0.17909665508E+01  0.29641540893E+02  0.00000000000E+00 0.  1.
</event>
<event>
 5    1  0.9034713E-005  0.9118800E+02  0.7818608E-02  0.1130116E+00
         25   -1    0    0    0    0  0.00000000000E+00  0.00000000000E+00  0.99999998245E-14  0.12500000000E+03  0.12500000000E+03 0.  0.
        -13    1    3    3    0    0  0.27314098210E+02 -0.23488780974E+02  0.25644880413E+01  0.36116070600E+02  0.10566000000E+00 0.  1.
         23    2    1    0    0    0  0.34354330205E+00  0.29368658803E+02  0.31597128068E+01  0.95459859057E+02  0.90774251659E+02 0.  0.
         13    1    3    3    0    0 -0.26970554908E+02  0.52857439777E+02  0.59522476555E+00  0.59343788457E+02  0.10566000000E+00 0. -1.
         22    1    1    0    0    0 -0.34354330205E+00 -0.29368658803E+02 -0.31597128068E+01  0.29540140943E+02  0.00000000000E+00 0. -1.
</event>
<event>
 5    1  0.9034713E-005  0.9118800E+02  0.7818608E-02  0.1130116E+00
         25   -1    0    0    0    0  0.00000000000E+00  0.00000000000E+00  0.99999998245E-14  0.12500000000E+03  0.12500000000E+03 0.  0.
        -13    1    3    3    0    0 -0.37389596888E+02  0.37421223201E+02 -0.88881374635E+01  0.53640843141E+02  0.10566000000E+00 0. -1.
         23    2    1    0    0    0 -0.11743677399E+02  0.68128345917E+01 -0.24880240310E+02  0.96656481660E+02  0.92407361260E+02 0.  0.
         13    1    3    3    0    0  0.25645919489E+02 -0.30608388609E+02 -0.15992102846E+02  0.43015638518E+02  0.10566000000E+00 0.  1.
         22    1    1    0    0    0  0.11743677399E+02 -0.68128345917E+01  0.24880240310E+02  0.28343518340E+02  0.00000000000E+00 0. -1.
</event>
<event>
 5    1  0.9034713E-005  0.9118800E+02  0.7818608E-02  0.1130116E+00
         25   -1    0    0    0    0  0.00000000000E+00  0.00000000000E+00  0.99999998245E-14  0.12500000000E+03  0.12500000000E+03 0.  0.
        -13    1    3    3    0    0  0.13113760133E+02  0.32939054122E+02  0.11632966956E+02  0.37313390029E+02  0.10566000000E+00 0.  1.
         23    2    1    0    0    0 -0.11224493449E+02 -0.21880047757E+02  0.12743971871E+02  0.97302805881E+02  0.93277550730E+02 0.  0.
         13    1    3    3    0    0 -0.24338253582E+02 -0.54819101879E+02  0.11110049141E+01  0.59989415851E+02  0.10566000000E+00 0. -1.
         22    1    1    0    0    0  0.11224493449E+02  0.21880047757E+02 -0.12743971871E+02  0.27697194119E+02  0.00000000000E+00 0. -1.
</event>
<event>
 5    1  0.9034713E-005  0.9118800E+02  0.7818608E-02  0.1130116E+00
         25   -1    0    0    0    0  0.00000000000E+00  0.00000000000E+00  0.99999998245E-14  0.12500000000E+03  0.12500000000E+03 0.  0.
        -13    1    3    3    0    0  0.39036330924E+02 -0.29681794643E+02  0.63509635581E+01  0.49448862144E+02  0.10566000000E+00 0. -1.
         23    2    1    0    0    0 -0.26781319832E+01 -0.23218622228E+02 -0.15473797392E+02  0.96969387897E+02  0.92829666456E+02 0.  0.
         13    1    3    3    0    0 -0.41714462907E+02  0.64631724146E+01 -0.21824760951E+02  0.47520525753E+02  0.10566000000E+00 0.  1.
         22    1    1    0    0    0  0.26781319832E+01  0.23218622228E+02  0.15473797392E+02  0.28030612103E+02  0.00000000000E+00 0. -1.
</event>
<event>
 5    1  0.9034713E-005  0.9118800E+02  0.7818608E-02  0.1130116E+00
         25   -1    0    0    0    0  0.00000000000E+00  0.00000000000E+00  0.99999998245E-14  0.12500000000E+03  0.12500000000E+03 0.  0.
        -13    1    3    3    0    0  0.87188918017E+01  0.33770333639E+02 -0.49216070621E+02  0.60321532472E+02  0.10566000000E+00 0.  1.
         23    2    1    0    0    0 -0.16298888674E+00  0.23860374800E+02 -0.15558184324E+02  0.96514895990E+02  0.92215638574E+02 0.  0.
         13    1    3    3    0    0 -0.88818806885E+01 -0.99099588386E+01  0.33657886297E+02  0.36193363518E+02  0.10566000000E+00 0. -1.
         22    1    1    0    0    0  0.16298888674E+00 -0.23860374800E+02  0.15558184324E+02  0.28485104010E+02  0.00000000000E+00 0.  1.
</event>
<event>
 5    1  0.9034713E-005  0.9118800E+02  0.7818608E-02  0.1130116E+00
         25   -1    0    0    0    0  0.00000000000E+00  0.00000000000E+00  0.99999998245E-14  0.12500000000E+03  0.12500000000E+03 0.  0.
        -13    1    3    3    0    0  0.46582159019E+02  0.38052023695E+02  0.33407861502E+01  0.60241398243E+02  0.10566000000E+00 0. -1.
         23    2    1    0    0    0  0.13631199228E+02  0.26161720101E+02 -0.60627292590E+00  0.95493852202E+02  0.90821049600E+02 0.  0.
         13    1    3    3    0    0 -0.32950959791E+02 -0.11890303594E+02 -0.39470590761E+01  0.35252453959E+02  0.10566000000E+00 0.  1.
         22    1    1    0    0    0 -0.13631199228E+02 -0.26161720101E+02  0.60627292590E+00  0.29506147798E+02  0.00000000000E+00 0. -1.
</event>
<event>
 5    1  0.9034713E-005  0.9118800E+02  0.7818608E-02  0.1130116E+00
         25   -1    0    0    0    0  0.00000000000E+00  0.00000000000E+00  0.99999998245E-14  0.12500000000E+03  0.12500000000E+03 0.  0.
        -13    1    3    3    0    0  0.12573726844E+02 -0.11385290059E+02  0.44316677793E+02  0.47452107763E+02  0.10566000000E+00 0.  1.
         23    2    1    0    0    0 -0.15949158000E+02  0.16985644073E+02  0.18440458292E+02  0.95285723170E+02  0.90534141585E+02 0.  0.
         13    1    3    3    0    0 -0.28522884844E+02  0.28370934132E+02 -0.25876219501E+02  0.47833615408E+02  0.10566000000E+00 0. -1.
         22    1    1    0    0    0  0.15949158000E+02 -0.16985644073E+02 -0.18440458292E+02  0.29714276830E+02  0.00000000000E+00 0.  1.
</event>
<event>
 5    1  0.9034713E-005  0.9118800E+02  0.7818608E-02  0.1130116E+00
         25   -1    0    0    0    0  0.00000000000E+00  0.00000000000E+00  0.99999998245E-14  0.12500000000E+03  0.12500000000E+03 0.  0.
        -13    1    3    3    0    0 -0.15048752611E+02  0.65220460335E+00  0.60629564988E+02  0.62472759189E+02  0.10566000000E+00 0. -1.
         23    2    1    0    0    0 -0.77776646385E+01 -0.84172142908E+00  0.33387137196E+02  0.90708579902E+02  0.83977050290E+02 0.  0.
         13    1    3    3    0    0  0.72710879722E+01 -0.14939260324E+01 -0.27242427792E+02  0.28235820713E+02  0.10566000000E+00 0.  1.
         22    1    1    0    0    0  0.77776646385E+01  0.84172142908E+00 -0.33387137196E+02  0.34291420098E+02  0.00000000000E+00 0. -1.
</event>
<event>
 5    1  0.9034713E-005  0.9118800E+02  0.7818608E-02  0.1130116E+00
         25   -1    0    0    0    0  0.00000000000E+00  0.00000000000E+00  0.99999998245E-14  0.12500000000E+03  0.12500000000E+03 0.  0.
        -13    1    3    3    0    0  0.45841097302E+02 -0.18100390030E+02 -0.24166852839E+02  0.54891513563E+02  0.10566000000E+00 0.  1.
         23    2    1    0    0    0  0.59839042971E+01 -0.22173731871E+02 -0.18810723791E+02  0.95312884524E+02  0.90571635356E+02 0.  0.
         13    1    3    3    0    0 -0.39857193005E+02 -0.40733418413E+01  0.53561290486E+01  0.40421370961E+02  0.10566000000E+00 0. -1.
         22    1    1    0    0    0 -0.59839042971E+01  0.22173731871E+02  0.18810723791E+02  0.29687115476E+02  0.00000000000E+00 0.  1.
</event>
<event>
 5    1  0.9034713E-005  0.9118800E+02  0.7818608E-02  0.1130116E+00
         25   -1    0    0    0    0  0.00000000000E+00  0.00000000000E+00  0.99999998245E-14  0.12500000000E+03  0.12500000000E+03 0.  0.
        -13    1    3    3    0    0  0.75481156122E+01  0.85152128349E+01  0.39707961734E+02  0.41306371035E+02  0.10566000000E+00 0. -1.
         23    2    1    0    0    0 -0.20212962446E+02  0.23944732394E+02 -0.18481999094E+01  0.93610034992E+02  0.88190185100E+02 0.  0.
         13    1    3    3    0    0 -0.27761078058E+02  0.15429519559E+02 -0.41556161644E+02  0.52303663958E+02  0.10566000000E+00 0.  1.
         22    1    1    0    0    0  0.20212962446E+02 -0.23944732394E+02  0.18481999094E+01  0.31389965008E+02  0.00000000000E+00 0. -1.
</event>
<event>
 5    1  0.9034713E-005  0.9118800E+02  0.7818608E-02  0.1130116E+00
         25   -1    0    0    0    0  0.00000000000E+00  0.00000000000E+00  0.99999998245E-14  0.12500000000E+03  0.12500000000E+03 0.  0.
        -13    1    3    3    0    0  0.52244509366E+02  0.20259068711E+01  0.56755802941E+01  0.52591029970E+02  0.10566000000E+00 0.  1.
         23    2    1    0    0    0  0.17188835081E+02 -0.15957463073E+02 -0.15073182382E+02  0.97119944292E+02  0.93032177622E+02 0.  0.
         13    1    3    3    0    0 -0.35055674285E+02 -0.17983369944E+02 -0.20748762676E+02  0.44528914323E+02  0.10566000000E+00 0. -1.
         22    1    1    0    0    0 -0.17188835081E+02  0.15957463073E+02  0.15073182382E+02  0.27880055708E+02  0.00000000000E+00 0.  1.
</event>
<event>
 5    1  0.9034713E-005  0.9118800E+02  0.7818608E-02  0.1130116E+00
         25   -1    0    0    0    0  0.00000000000E+00  0.00000000000E+00  0.99999998245E-14  0.12500000000E+03  0.12500000000E+03 0.  0.
        -13    1    3    3    0    0 -0.36462151736E+02  0.34442695854E+02 -0.44671043660E+01  0.50356270636E+02  0.10566000000E+00 0.  1.
         23    2    1    0    0    0  0.68442082897E+01  0.25976498039E+02 -0.12768834893E+02  0.95256685087E+02  0.90494039980E+02 0.  0.
         13    1    3    3    0    0  0.43306360026E+02 -0.84661978154E+01 -0.83017305273E+01  0.44900414451E+02  0.10566000000E+00 0. -1.
         22    1    1    0    0    0 -0.68442082897E+01 -0.25976498039E+02  0.12768834893E+02  0.29743314913E+02  0.00000000000E+00 0.  1.
</event>
<event>
 5    1  0.9034713E-005  0.9118800E+02  0.7818608E-02  0.1130116E+00
         25   -1    0    0    0    0  0.00000000000E+00  0.00000000000E+00  0.99999998245E-14  0.12500000000E+03  0.12500000000E+03 0.  0.
        -13    1    3    3    0    0 -0.10208847075E+02  0.23055589174E+02 -0.35044383051E+02  0.43172916258E+02  0.10566000000E+00 0.  1.
         23    2    1    0    0    0  0.13015442547E+01 -0.24664155587E+02 -0.14262810983E+02  0.96479088980E+02  0.92167088730E+02 0.  0.
         13    1    3    3    0    0  0.11510391330E+02 -0.47719744761E+02  0.20781572067E+02  0.53306172722E+02  0.10566000000E+00 0. -1.
         22    1    1    0    0    0 -0.13015442547E+01  0.24664155587E+02  0.14262810983E+02  0.28520911020E+02  0.00000000000E+00 0. -1.
</event>
<event>
 5    1  0.9034713E-005  0.9118800E+02  0.7818608E-02  0.1130116E+00
         25   -1    0    0    0    0  0.00000000000E+00  0.00000000000E+00  0.99999998245E-14  0.12500000000E+03  0.12500000000E+03 0.  0.
        -13    1    3    3    0    0  0.12867102681E+02  0.10258822116E+02 -0.37634367157E+02  0.41075083906E+02  0.10566000000E+00 0. -1.
         23    2    1    0    0    0 -0.82445318567E+01  0.27453945214E+02  0.88955614476E+01  0.94986296017E+02  0.90119775877E+02 0.  0.
         13    1    3    3    0    0 -0.21111634537E+02  0.17195123098E+02  0.46529928604E+02  0.53911212110E+02  0.10566000000E+00 0.  1.
         22    1    1    0    0    0  0.82445318567E+01 -0.27453945214E+02 -0.88955614476E+01  0.30013703983E+02  0.00000000000E+00 0.  1.
</event>
<event>
 5    1  0.9034713E-005  0.9118800E+02  0.7818608E-02  0.1130116E+00
         25   -1    0    0    0    0  0.00000000000E+00  0.00000000000E+00  0.99999998245E-14  0.12500000000E+03  0.12500000000E+03 0.  0.
        -13    1    3    3    0    0  0.13542989746E+02  0.43606260348E+02  0.22855022869E+02  0.51061548617E+02  0.10566000000E+00 0. -1.
         23    2    1    0    0    0 -0.17969663978E+02  0.68002412105E+01  0.15998802263E+02  0.99997724547E+02  0.96821646013E+02 0.  0.
         13    1    3    3    0    0 -0.31512653725E+02 -0.36806019138E+02 -0.68562206062E+01  0.48936175929E+02  0.10566000000E+00 0.  1.
         22    1    1    0    0    0  0.17969663978E+02 -0.68002412105E+01 -0.15998802263E+02  0.25002275453E+02  0.00000000000E+00 0. -1.
</event>
<event>
 5    1  0.9034713E-005  0.9118800E+02  0.7818608E-02  0.1130116E+00
         25   -1    0    0    0    0  0.00000000000E+00  0.00000000000E+00  0.99999998245E-14  0.12500000000E+03  0.12500000000E+03 0.  0.
        -13    1    3    3    0    0  0.45855701100E+01 -0.57610540085E+02  0.19430465650E+02  0.60971763478E+02  0.10566000000E+00 0.  1.
         23    2    1    0    0    0 -0.28843203389E+01 -0.28610139309E+02  0.81482903017E+00  0.96233294915E+02  0.91833129799E+02 0.  0.
         13    1    3    3    0    0 -0.74698904489E+01  0.29000400776E+02 -0.18615636620E+02  0.35261531437E+02  0.10566000000E+00 0. -1.
         22    1    1    0    0    0  0.28843203389E+01  0.28610139309E+02 -0.81482903017E+00  0.28766705085E+02  0.00000000000E+00 0.  1.
</event>
<event>
 5    1  0.9034713E-005  0.9118800E+02  0.7818608E-02  0.1130116E+00
         25   -1    0    0    0    0  0.00000000000E+00  0.00000000000E+00  0.99999998245E-14  0.12500000000E+03  0.12500000000E+03 0.  0.
        -13    1    3    3    0    0 -0.77983831465E+01  0.33293291605E+02 -0.36175705927E+02  0.49779020771E+02  0.10566000000E+00 0. -1.
         23    2    1    0    0    0  0.21128758912E+02  0.19623147421E+02 -0.27751589974E+01  0.96031156818E+02  0.91557573168E+02 0.  0.
         13    1    3    3    0    0  0.28927142058E+02 -0.13670144184E+02  0.33400546929E+02  0.46252136047E+02  0.10566000000E+00 0.  1.
         22    1    1    0    0    0 -0.21128758912E+02 -0.19623147421E+02  0.27751589974E+01  0.28968843182E+02  0.00000000000E+00 0.  1.
</event>
<event>
 5    1  0.9034713E-005  0.9118800E+02  0.7818608E-02  0.1130116E+00
         25   -1    0    0    0    0  0.00000000000E+00  0.00000000000E+00  0.99999998245E-14  0.12500000000E+03  0.12500000000E+03 0.  0.
        -13    1    3    3    0    0 -0.37487173993E+02  0.20985948598E+02  0.35498083037E+01  0.43108126329E+02  0.10566000000E+00 0.  1.
         23    2    1    0    0    0 -0.92527387481E+01 -0.14476634768E+02 -0.23495441238E+02  0.95892923756E+02  0.91368654028E+02 0.  0.
         13    1    3    3    0    0  0.28234435245E+02 -0.35462583366E+02 -0.27045249541E+02  0.52784797427E+02  0.10566000000E+00 0. -1.
         22    1    1    0    0    0  0.92527387481E+01  0.14476634768E+02  0.23495441238E+02  0.29107076244E+02  0.00000000000E+00 0. -1.
</event>
<event>
 5    1  0.9034713E-005  0.9118800E+02  0.7818608E-02  0.1130116E+00
         25   -1    0    0    0    0  0.00000000000E+00  0.00000000000E+00  0.99999998245E-14  0.12500000000E+03  0.12500000000E+03 0.  0.
        -13    1    3    3    0    0 -0.23804500107E+02 -0.25646672060E+02 -0.13506614425E+02  0.37507943297E+02  0.10566000000E+00 0. -1.
         23    2    1    0    0    0  0.27664255408E+02  0.12545765660E+01 -0.95078595545E+01  0.95720580898E+02  0.91132569505E+02 0.  0.
         13    1    3    3    0    0  0.51468755515E+02  0.26901248626E+02  0.39987548708E+01  0.58212637601E+02  0.10566000000E+00 0.  1.
         22    1    1    0    0    0 -0.27664255408E+02 -0.12545765660E+01  0.95078595545E+01  0.29279419102E+02  0.00000000000E+00 0.  1.
</event>
<event>
 5    1  0.9034713E-005  0.9118800E+02  0.7818608E-02  0.1130116E+00
         25   -1    0    0    0    0  0.00000000000E+00  0.00000000000E+00  0.99999998245E-14  0.12500000000E+03  0.12500000000E+03 0.  0.
        -13    1    3    3    0    0 -0.55851040807E+01 -0.17695733902E+02 -0.29051762910E+02  0.34472430697E+02  0.10566000000E+00 0.  1.
         23    2    1    0    0    0 -0.11305708636E+02  0.24059869914E+02  0.14198907492E+02  0.94861895182E+02  0.89947061072E+02 0.  0.
         13    1    3    3    0    0 -0.57206045550E+01  0.41755603816E+02  0.43250670402E+02  0.60389464485E+02  0.10566000000E+00 0. -1.
         22    1    1    0    0    0  0.11305708636E+02 -0.24059869914E+02 -0.14198907492E+02  0.30138104818E+02  0.00000000000E+00 0. -1.
</event>
<event>
 5    1  0.9034713E-005  0.9118800E+02  0.7818608E-02  0.1130116E+00
         25   -1    0    0    0    0  0.00000000000E+00  0.00000000000E+00  0.99999998245E-14  0.12500000000E+03  0.12500000000E+03 0.  0.
        -13    1    3    3    0    0  0.75783770551E+01  0.41946921640E+02  0.22900104239E+02  0.48388035423E+02  0.10566000000E+00 0. -1.
         23    2    1    0    0    0 -0.67160222411E+01 -0.30952648973E+01  0.28112878049E+02  0.95930780339E+02  0.91420430346E+02 0.  0.
         13    1    3    3    0    0 -0.14294399296E+02 -0.45042186537E+02  0.52127738095E+01  0.47542744916E+02  0.10566000000E+00 0.  1.
         22    1    1    0    0    0  0.67160222411E+01  0.30952648973E+01 -0.28112878049E+02  0.29069219661E+02  0.00000000000E+00 0.  1.
</event>
<event>
 5    1  0.9034713E-005  0.9118800E+02  0.7818608E-02  0.1130116E+00
         25   -1    0    0    0    0  0.00000000000E+00  0.00000000000E+00  0.99999998245E-14  0.12500000000E+03  0.12500000000E+03 0.  0.
        -13    1    3    3    0    0 -0.25657951068E+02 -0.13520870969E+02  0.50067140186E+02  0.57860816579E+02  0.10566000000E+00 0.  1.
         23    2    1    0    0    0 -0.37014698799E+01 -0.20873554522E+02  0.19599412839E+02  0.96128852789E+02  0.91690856672E+02 0.  0.
         13    1    3    3    0    0  0.21956481188E+02 -0.73526835534E+01 -0.30467727347E+02  0.38268036210E+02  0.10566000000E+00 0. -1.
         22    1    1    0    0    0  0.37014698799E+01  0.20873554522E+02 -0.19599412839E+02  0.28871147211E+02  0.00000000000E+00 0.  1.
</event>
<event>
 5    1  0.9034713E-005  0.9118800E+02  0.7818608E-02  0.1130116E+00
         25   -1    0    0    0    0  0.00000000000E+00  0.00000000000E+00  0.99999998245E-14  0.12500000000E+03  0.12500000000E+03 0.  0.
        -13    1    3    3    0    0  0.27990392662E+02 -0.39310602023E+02  0.33366843346E+02  0.58669778521E+02  0.10566000000E+00 0.  1.
         23    2    1    0    0    0  0.99246759492E+01 -0.88843418671E+01  0.27371170037E+02  0.94559703150E+02  0.89526117907E+02 0.  0.
         13    1    3    3    0    0 -0.18065716713E+02  0.30426260156E+02 -0.59956733087E+01  0.35889924629E+02  0.10566000000E+00 0. -1.
         22    1    1    0    0    0 -0.99246759492E+01  0.88843418671E+01 -0.27371170037E+02  0.30440296850E+02  0.00000000000E+00 0.  1.
</event>
<event>
 5    1  0.9034713E-005  0.9118800E+02  0.7818608E-02  0.1130116E+00
         25   -1    0    0    0    0  0.00000000000E+00  0.00000000000E+00  0.99999998245E-14  0.12500000000E+03  0.12500000000E+03 0.  0.
        -13    1    3    3    0    0 -0.11437185635E+02  0.57992186299E+02 -0.28672282354E+01  0.59178839535E+02  0.10566000000E+00 0.  1.
         23    2    1    0    0    0  0.76418916175E+01  0.26215075075E+02 -0.78759903760E+01  0.96580642283E+02  0.92304715864E+02 0.  0.
         13    1    3    3    0    0  0.19079077252E+02 -0.31777111224E+02 -0.50087621406E+01  0.37401802747E+02  0.10566000000E+00 0. -1.
         22    1    1    0    0    0 -0.76418916175E+01 -0.26215075075E+02  0.78759903760E+01  0.28419357717E+02  0.00000000000E+00 0.  1.
</event>
<event>
 5    1  0.9034713E-005  0.9118800E+02  0.7818608E-02  0.1130116E+00
         25   -1    0    0    0    0  0.00000000000E+00  0.00000000000E+00  0.99999998245E-14  0.12500000000E+03  0.12500000000E+03 0.  0.
        -13    1    3    3    0    0  0.24306043927E+02  0.20239910209E+02 -0.28061486949E+02  0.42283518663E+02  0.10566000000E+00 0.  1.
         23    2    1    0    0    0 -0.24191772230E+02 -0.15624513747E+01 -0.12707559583E+02  0.97629118237E+02  0.93713817334E+02 0.  0.
         13    1    3    3    0    0 -0.48497816157E+02 -0.21802361584E+02  0.15353927367E+02  0.55345599574E+02  0.10566000000E+00 0. -1.
         22    1    1    0    0    0  0.24191772230E+02  0.15624513747E+01  0.12707559583E+02  0.27370881763E+02  0.00000000000E+00 0. -1.
</event>
<event>
 5    1  0.9034713E-005  0.9118800E+02  0.7818608E-02  0.1130116E+00
         25   -1    0    0    0    0  0.00000000000E+00  0.00000000000E+00  0.99999998245E-14  0.12500000000E+03  0.12500000000E+03 0.  0.
        -13    1    3    3    0    0  0.44530367998E+02  0.41004541172E+02  0.12543522888E+02  0.61819715312E+02  0.10566000000E+00 0. -1.
         23    2    1    0    0    0  0.16000681752E+02  0.21162683600E+02  0.99396272531E+01  0.96668441913E+02  0.92423538551E+02 0.  0.
         13    1    3    3    0    0 -0.28529686246E+02 -0.19841857572E+02 -0.26038956346E+01  0.34848726601E+02  0.10566000000E+00 0.  1.
         22    1    1    0    0    0 -0.16000681752E+02 -0.21162683600E+02 -0.99396272531E+01  0.28331558087E+02  0.00000000000E+00 0. -1.
</event>
<event>
 5    1  0.9034713E-005  0.9118800E+02  0.7818608E-02  0.1130116E+00
         25   -1    0    0    0    0  0.00000000000E+00  0.00000000000E+00  0.99999998245E-14  0.12500000000E+03  0.12500000000E+03 0.  0.
        -13    1    3    3    0    0  0.32432373608E+02 -0.29237818428E+01 -0.13378150994E+02  0.35205020185E+02  0.10566000000E+00 0.  1.
         23    2    1    0    0    0 -0.27011308323E+02 -0.14262188357E+01 -0.13723890772E+02  0.94668662156E+02  0.89678121853E+02 0.  0.
         13    1    3    3    0    0 -0.59443681931E+02  0.14975630071E+01 -0.34573977786E+00  0.59463641971E+02  0.10566000000E+00 0. -1.
         22    1    1    0    0    0  0.27011308323E+02  0.14262188357E+01  0.13723890772E+02  0.30331337844E+02  0.00000000000E+00 0. -1.
</event>
<event>
 5    1  0.9034713E-005  0.9118800E+02  0.7818608E-02  0.1130116E+00
         25   -1    0    0    0    0  0.00000000000E+00  0.00000000000E+00  0.99999998245E-14  0.12500000000E+03  0.12500000000E+03 0.  0.
        -13    1    3    3    0    0 -0.76255791358E+01 -0.16338942131E+02 -0.33930500914E+02  0.38423957936E+02  0.10566000000E+00 0. -1.
         23    2    1    0    0    0  0.25688003281E+02  0.14321624694E+02  0.94469555901E+00  0.95574247739E+02  0.90931633300E+02 0.  0.
         13    1    3    3    0    0  0.33313582417E+02  0.30660566825E+02  0.34875196473E+02  0.57150289803E+02  0.10566000000E+00 0.  1.
         22    1    1    0    0    0 -0.25688003281E+02 -0.14321624694E+02 -0.94469555901E+00  0.29425752261E+02  0.00000000000E+00 0.  1.
</event>
<event>
 5    1  0.9034713E-005  0.9118800E+02  0.7818608E-02  0.1130116E+00
         25   -1    0    0    0    0  0.00000000000E+00  0.00000000000E+00  0.99999998245E-14  0.12500000000E+03  0.12500000000E+03 0.  0.
        -13    1    3    3    0    0  0.20870730454E+02  0.71091335182E+00  0.36287722399E+02  0.41867681431E+02  0.10566000000E+00 0. -1.
         23    2    1    0    0    0  0.14957527517E+02  0.12191913792E+02 -0.18566406483E+02  0.98221616161E+02  0.94500815024E+02 0.  0.
         13    1    3    3    0    0 -0.59132029374E+01  0.11481000440E+02 -0.54854128882E+02  0.56353934730E+02  0.10566000000E+00 0.  1.
         22    1    1    0    0    0 -0.14957527517E+02 -0.12191913792E+02  0.18566406483E+02  0.26778383839E+02  0.00000000000E+00 0. -1.
</event>
<event>
 5    1  0.9034713E-005  0.9118800E+02  0.7818608E-02  0.1130116E+00
         25   -1    0    0    0    0  0.00000000000E+00  0.00000000000E+00  0.99999998245E-14  0.12500000000E+03  0.12500000000E+03 0.  0.
        -13    1    3    3    0    0 -0.15236226069E+02  0.53043798700E+02 -0.23060890308E+02  0.59813067061E+02  0.10566000000E+00 0.  1.
         23    2    1    0    0    0 -0.12227075564E+02  0.26901742507E+02  0.94808830161E+00  0.95434750158E+02  0.90739669051E+02 0.  0.
         13    1    3    3    0    0  0.30091505048E+01 -0.26142056193E+02  0.24008978610E+02  0.35621683097E+02  0.10566000000E+00 0. -1.
         22    1    1    0    0    0  0.12227075564E+02 -0.26901742507E+02 -0.94808830161E+00  0.29565249842E+02  0.00000000000E+00 0.  1.
</event>
<event>
 5    1  0.9034713E-005  0.9118800E+02  0.7818608E-02  0.1130116E+00
         25   -1    0    0    0    0  0.00000000000E+00  0.00000000000E+00  0.99999998245E-14  0.12500000000E+03  0.12500000000E+03 0.  0.
        -13    1    3    3    0    0  0.50658491914E+02  0.42138768517E+01 -0.91181644672E+01  0.51644860813E+02  0.10566000000E+00 0. -1.
         23    2    1    0    0    0  0.15937281831E+02 -0.16792458065E+02  0.13597155073E+02  0.98151047951E+02  0.94407425491E+02 0.  0.
         13    1    3    3    0    0 -0.34721210083E+02 -0.21006334917E+02  0.22715319540E+02  0.46506187138E+02  0.10566000000E+00 0.  1.
         22    1    1    0    0    0 -0.15937281831E+02  0.16792458065E+02 -0.13597155073E+02  0.26848952049E+02  0.00000000000E+00 0. -1.
</event>
<event>
 5    1  0.9034713E-005  0.9118800E+02  0.7818608E-02  0.1130116E+00
         25   -1    0    0    0    0  0.00000000000E+00  0.00000000000E+00  0.99999998245E-14  0.12500000000E+03  0.12500000000E+03 0.  0.
        -13    1    3    3    0    0  0.19664903170E+02  0.38365576627E+02 -0.11982120467E+02  0.44746041853E+02  0.10566000000E+00 0.  1.
         23    2    1    0    0    0 -0.19030192314E+02  0.10968360402E+02 -0.22761925984E+02  0.93368395173E+02  0.87847019263E+02 0.  0.
         13    1    3    3    0    0 -0.38695095484E+02 -0.27397216225E+02 -0.10779805517E+02  0.48622353320E+02  0.10566000000E+00 0. -1.
         22    1    1    0    0    0  0.19030192314E+02 -0.10968360402E+02  0.22761925984E+02  0.31631604827E+02  0.00000000000E+00 0.  1.
</event>
<event>
 5    1  0.9034713E-005  0.9118800E+02  0.7818608E-02  0.1130116E+00
         25   -1    0    0    0    0  0.00000000000E+00  0.00000000000E+00  0.99999998245E-14  0.12500000000E+03  0.12500000000E+03 0.  0.
        -13    1    3    3    0    0  0.48882345216E+02  0.12395306450E+02 -0.10007032270E+02  0.51412830643E+02  0.10566000000E+00 0. -1.
         23    2    1    0    0    0  0.16095288802E+02 -0.19610258461E+02 -0.11248576896E+02  0.97248404717E+02  0.93204619946E+02 0.  0.
         13    1    3    3    0    0 -0.32787056414E+02 -0.32005564912E+02 -0.12415446266E+01  0.45835574074E+02  0.10566000000E+00 0.  1.
         22    1    1    0    0    0 -0.16095288802E+02  0.19610258461E+02  0.11248576896E+02  0.27751595283E+02  0.00000000000E+00 0. -1.
</event>
<event>
 5    1  0.9034713E-005  0.9118800E+02  0.7818608E-02  0.1130116E+00
         25   -1    0    0    0    0  0.00000000000E+00  0.00000000000E+00  0.99999998245E-14  0.12500000000E+03  0.12500000000E+03 0.  0.
        -13    1    3    3    0    0 -0.29621073692E+02 -0.95010834167E+01 -0.17327234435E+02  0.35607903757E+02  0.10566000000E+00 0. -1.
         23    2    1    0    0    0  0.14970777042E+02  0.23996913516E+02  0.60413323353E+01  0.96078144598E+02  0.91621701302E+02 0.  0.
         13    1    3    3    0    0  0.44591850734E+02  0.33497996933E+02  0.23368566770E+02  0.60470240841E+02  0.10566000000E+00 0.  1.
         22    1    1    0    0    0 -0.14970777042E+02 -0.23996913516E+02 -0.60413323353E+01  0.28921855402E+02  0.00000000000E+00 0.  1.
</event>
<event>
 5    1  0.9034713E-005  0.9118800E+02  0.7818608E-02  0.1130116E+00
         25   -1    0    0    0    0  0.00000000000E+00  0.00000000000E+00  0.99999998245E-14  0.12500000000E+03  0.12500000000E+03 0.  0.
        -13    1    3    3    0    0  0.36729980722E+02 -0.50256092084E+01  0.45582913267E+00  0.37075155778E+02  0.10566000000E+00 0.  1.
         23    2    1    0    0    0 -0.21586333017E+02 -0.54092081915E+01 -0.15907858077E+02  0.97645123744E+02  0.93735163818E+02 0.  0.
         13    1    3    3    0    0 -0.58316313739E+02 -0.38359898311E+00 -0.16363687210E+02  0.60569967966E+02  0.10566000000E+00 0. -1.
         22    1    1    0    0    0  0.21586333017E+02  0.54092081915E+01  0.15907858077E+02  0.27354876256E+02  0.00000000000E+00 0. -1.
</event>
<event>
 5    1  0.9034713E-005  0.9118800E+02  0.7818608E-02  0.1130116E+00
         25   -1    0    0    0    0  0.00000000000E+00  0.00000000000E+00  0.99999998245E-14  0.12500000000E+03  0.12500000000E+03 0.  0.
        -13    1    3    3    0    0 -0.23811782928E+02 -0.82009684586E+01 -0.22237796788E+02  0.33597435317E+02  0.10566000000E+00 0. -1.
         23    2    1    0    0    0  0.26259812436E+02  0.10189466367E+02  0.90204089846E+01  0.95423476332E+02  0.90724137268E+02 0.  0.
         13    1    3    3    0    0  0.50071595364E+02  0.18390434826E+02  0.31258205773E+02  0.61826041015E+02  0.10566000000E+00 0.  1.
         22    1    1    0    0    0 -0.26259812436E+02 -0.10189466367E+02 -0.90204089846E+01  0.29576523668E+02  0.00000000000E+00 0.  1.
</event>
<event>
 5    1  0.9034713E-005  0.9118800E+02  0.7818608E-02  0.1130116E+00
         25   -1    0    0    0    0  0.00000000000E+00  0.00000000000E+00  0.99999998245E-14  0.12500000000E+03  0.12500000000E+03 0.  0.
        -13    1    3    3    0    0  0.30702908829E+02 -0.20361617426E+02 -0.97554307446E+00  0.36854130340E+02  0.10566000000E+00 0.  1.
         23    2    1    0    0    0 -0.13952727239E+02  0.18157181044E+02 -0.15196051288E+02  0.97517609354E+02  0.93564963199E+02 0.  0.
         13    1    3    3    0    0 -0.44655636068E+02  0.38518798470E+02 -0.14220508213E+02  0.60663479014E+02  0.10566000000E+00 0. -1.
         22    1    1    0    0    0  0.13952727239E+02 -0.18157181044E+02  0.15196051288E+02  0.27482390646E+02  0.00000000000E+00 0. -1.
</event>
<event>
 5    1  0.9034713E-005  0.9118800E+02  0.7818608E-02  0.1130116E+00
         25   -1    0    0    0    0  0.00000000000E+00  0.00000000000E+00  0.99999998245E-14  0.12500000000E+03  0.12500000000E+03 0.  0.
        -13    1    3    3    0    0 -0.27938210335E+02  0.87287214644E+01  0.52588242540E+02  0.60185285516E+02  0.10566000000E+00 0.  1.
         23    2    1    0    0    0 -0.20793272403E+02 -0.35370907681E+01  0.19151799267E+02  0.96510307065E+02  0.92209417992E+02 0.  0.
         13    1    3    3    0    0  0.71449379318E+01 -0.12265812233E+02 -0.33436443273E+02  0.36325021549E+02  0.10566000000E+00 0. -1.
         22    1    1    0    0    0  0.20793272403E+02  0.35370907681E+01 -0.19151799267E+02  0.28489692935E+02  0.00000000000E+00 0.  1.
</event>
<event>
 5    1  0.9034713E-005  0.9118800E+02  0.7818608E-02  0.1130116E+00
         25   -1    0    0    0    0  0.00000000000E+00  0.00000000000E+00  0.99999998245E-14  0.12500000000E+03  0.12500000000E+03 0.  0.
        -13    1    3    3    0    0  0.48186977591E+02  0.10106157447E+01  0.21972932467E+02  0.52970058323E+02  0.10566000000E+00 0. -1.
         23    2    1    0    0    0  0.32900934655E+02  0.12458900326E+02 -0.83831458018E+01  0.88834092960E+02  0.81138913229E+02 0.  0.
         13    1    3    3    0    0 -0.15286042936E+02  0.11448284582E+02 -0.30356078269E+02  0.35864034637E+02  0.10566000000E+00 0.  1.
         22    1    1    0    0    0 -0.32900934655E+02 -0.12458900326E+02  0.83831458018E+01  0.36165907040E+02  0.00000000000E+00 0. -1.
</event>
<event>
 5    1  0.9034713E-005  0.9118800E+02  0.7818608E-02  0.1130116E+00
         25   -1    0    0    0    0  0.00000000000E+00  0.00000000000E+00  0.99999998245E-14  0.12500000000E+03  0.12500000000E+03 0.  0.
        -13    1    3    3    0    0 -0.24435185074E+02  0.51352268294E+01  0.37706437411E+02  0.45224278993E+02  0.10566000000E+00 0.  1.
         23    2    1    0    0    0  0.20181494208E+02 -0.97450131687E+01  0.18151105861E+02  0.96160432838E+02  0.91733898911E+02 0.  0.
         13    1    3    3    0    0  0.44616679281E+02 -0.14880239998E+02 -0.19555331549E+02  0.50936153845E+02  0.10566000000E+00 0. -1.
         22    1    1    0    0    0 -0.20181494208E+02  0.97450131687E+01 -0.18151105861E+02  0.28839567162E+02  0.00000000000E+00 0. -1.
</event>
<event>
 5    1  0.9034713E-005  0.9118800E+02  0.7818608E-02  0.1130116E+00
         25   -1    0    0    0    0  0.00000000000E+00  0.00000000000E+00  0.99999998245E-14  0.12500000000E+03  0.12500000000E+03 0.  0.
        -13    1    3    3    0    0 -0.10854335375E+02 -0.22900041294E+02 -0.20652148762E+02  0.32691755845E+02  0.10566000000E+00 0. -1.
         23    2    1    0    0    0  0.76856786269E+01  0.17650024248E+02  0.22943116655E+02  0.95050382076E+02  0.90208622199E+02 0.  0.
         13    1    3    3    0    0  0.18540014002E+02  0.40550065542E+02  0.43595265417E+02  0.62358626232E+02  0.10566000000E+00 0.  1.
         22    1    1    0    0    0 -0.76856786269E+01 -0.17650024248E+02 -0.22943116655E+02  0.29949617924E+02  0.00000000000E+00 0.  1.
</event>
<event>
 5    1  0.9034713E-005  0.9118800E+02  0.7818608E-02  0.1130116E+00
         25   -1    0    0    0    0  0.00000000000E+00  0.00000000000E+00  0.99999998245E-14  0.12500000000E+03  0.12500000000E+03 0.  0.
        -13    1    3    3    0    0 -0.12832650759E+02 -0.53557295049E+02  0.92188257806E+01  0.55839579971E+02  0.10566000000E+00 0.  1.
         23    2    1    0    0    0  0.12508756623E+02 -0.26768710649E+02 -0.43536740839E+01  0.95133842897E+02  0.90324197888E+02 0.  0.
         13    1    3    3    0    0  0.25341407382E+02  0.26788584400E+02 -0.13572499864E+02  0.39294262926E+02  0.10566000000E+00 0. -1.
         22    1    1    0    0    0 -0.12508756623E+02  0.26768710649E+02  0.43536740839E+01  0.29866157103E+02  0.00000000000E+00 0.  1.
</event>
<event>
 5    1  0.9034713E-005  0.9118800E+02  0.7818608E-02  0.1130116E+00
         25   -1    0    0    0    0  0.00000000000E+00  0.00000000000E+00  0.99999998245E-14  0.12500000000E+03  0.12500000000E+03 0.  0.
        -13    1    3    3    0    0  0.53050683936E+02 -0.12998893555E+02  0.11948741241E+02  0.55911804487E+02  0.10566000000E+00 0. -1.
         23    2    1    0    0    0  0.15527009206E+02 -0.24077547364E+02  0.81076428446E+01  0.95225007566E+02  0.90450273032E+02 0.  0.
         13    1    3    3    0    0 -0.37523674730E+02 -0.11078653809E+02 -0.38410983967E+01  0.39313203079E+02  0.10566000000E+00 0.  1.
         22    1    1    0    0    0 -0.15527009206E+02  0.24077547364E+02 -0.81076428446E+01  0.29774992434E+02  0.00000000000E+00 0.  1.
</event>
<event>
 5    1  0.9034713E-005  0.9118800E+02  0.7818608E-02  0.1130116E+00
         25   -1    0    0    0    0  0.00000000000E+00  0.00000000000E+00  0.99999998245E-14  0.12500000000E+03  0.12500000000E+03 0.  0.
        -13    1    3    3    0    0  0.14563726945E+02 -0.50016017348E+02  0.23471349940E+02  0.57136849457E+02  0.10566000000E+00 0.  1.
         23    2    1    0    0    0 -0.65763921063E+01 -0.17348724840E+02  0.22198977705E+02  0.96068670998E+02  0.91608775504E+02 0.  0.
         13    1    3    3    0    0 -0.21140119052E+02  0.32667292508E+02 -0.12723722345E+01  0.38931821540E+02  0.10566000000E+00 0. -1.
         22    1    1    0    0    0  0.65763921063E+01  0.17348724840E+02 -0.22198977705E+02  0.28931329002E+02  0.00000000000E+00 0.  1.
</event>
<event>
 5    1  0.9034713E-005  0.9118800E+02  0.7818608E-02  0.1130116E+00
         25   -1    0    0    0    0  0.00000000000E+00  0.00000000000E+00  0.99999998245E-14  0.12500000000E+03  0.12500000000E+03 0.  0.
        -13    1    3    3    0    0 -0.15720632348E+02 -0.29081138181E+02 -0.58424071023E+01  0.33570757574E+02  0.10566000000E+00 0. -1.
         23    2    1    0    0    0  0.12800790713E+02  0.23157770905E+02  0.12339607339E+02  0.95803964217E+02  0.91246868737E+02 0.  0.
         13    1    3    3    0    0  0.28521423061E+02  0.52238909086E+02  0.18182014441E+02  0.62233206643E+02  0.10566000000E+00 0.  1.
         22    1    1    0    0    0 -0.12800790713E+02 -0.23157770905E+02 -0.12339607339E+02  0.29196035783E+02  0.00000000000E+00 0.  1.
</event>
<event>
 5    1  0.9034713E-005  0.9118800E+02  0.7818608E-02  0.1130116E+00
         25   -1    0    0    0    0  0.00000000000E+00  0.00000000000E+00  0.99999998245E-14  0.12500000000E+03  0.12500000000E+03 0.  0.
        -13    1    3    3    0    0  0.29130190283E+02  0.94163115188E+01  0.41445199239E+02  0.51526212869E+02  0.10566000000E+00 0.  1.
         23    2    1    0    0    0  0.23801618688E+02  0.13662791042E+02 -0.38108094387E+01  0.97292398520E+02  0.93263602922E+02 0.  0.
         13    1    3    3    0    0 -0.53285715957E+01  0.42464795230E+01 -0.45256008678E+02  0.45766185651E+02  0.10566000000E+00 0. -1.
         22    1    1    0    0    0 -0.23801618688E+02 -0.13662791042E+02  0.38108094387E+01  0.27707601480E+02  0.00000000000E+00 0.  1.
</event>
<event>
 5    1  0.9034713E-005  0.9118800E+02  0.7818608E-02  0.1130116E+00
         25   -1    0    0    0    0  0.00000000000E+00  0.00000000000E+00  0.99999998245E-14  0.12500000000E+03  0.12500000000E+03 0.  0.
        -13    1    3    3    0    0 -0.10056691761E+02  0.37358690354E+02 -0.80429087381E+01  0.39515925133E+02  0.10566000000E+00 0. -1.
         23    2    1    0    0    0  0.30768706082E+02  0.10248130532E+02  0.89019825107E+01  0.91369913084E+02  0.84955743013E+02 0.  0.
         13    1    3    3    0    0  0.40825397843E+02 -0.27110559822E+02  0.16944891249E+02  0.51853987951E+02  0.10566000000E+00 0.  1.
         22    1    1    0    0    0 -0.30768706082E+02 -0.10248130532E+02 -0.89019825107E+01  0.33630086916E+02  0.00000000000E+00 0. -1.
</event>
<event>
 5    1  0.9034713E-005  0.9118800E+02  0.7818608E-02  0.1130116E+00
         25   -1    0    0    0    0  0.00000000000E+00  0.00000000000E+00  0.99999998245E-14  0.12500000000E+03  0.12500000000E+03 0.  0.
        -13    1    3    3    0    0  0.43145907680E+02  0.79291408896E+00  0.95611667039E+01  0.44199831845E+02  0.10566000000E+00 0.  1.
         23    2    1    0    0    0 -0.20228378735E+01 -0.19457251705E+02  0.22322565234E+02  0.95318803333E+02  0.90579803672E+02 0.  0.
         13    1    3    3    0    0 -0.45168745554E+02 -0.20250165794E+02  0.12761398530E+02  0.51118971489E+02  0.10566000000E+00 0. -1.
         22    1    1    0    0    0  0.20228378735E+01  0.19457251705E+02 -0.22322565234E+02  0.29681196667E+02  0.00000000000E+00 0. -1.
</event>
<event>
 5    1  0.9034713E-005  0.9118800E+02  0.7818608E-02  0.1130116E+00
         25   -1    0    0    0    0  0.00000000000E+00  0.00000000000E+00  0.99999998245E-14  0.12500000000E+03  0.12500000000E+03 0.  0.
        -13    1    3    3    0    0  0.43123263326E+02  0.43682044289E+02  0.89391479729E+01  0.62029479795E+02  0.10566000000E+00 0.  1.
         23    2    1    0    0    0  0.23744011939E+02  0.17949045476E+02  0.76420375758E+01  0.94269769367E+02  0.89120381180E+02 0.  0.
         13    1    3    3    0    0 -0.19379251388E+02 -0.25732998813E+02 -0.12971103971E+01  0.32240289572E+02  0.10566000000E+00 0. -1.
         22    1    1    0    0    0 -0.23744011939E+02 -0.17949045476E+02 -0.76420375758E+01  0.30730230633E+02  0.00000000000E+00 0.  1.
</event>
<event>
 5    1  0.9034713E-005  0.9118800E+02  0.7818608E-02  0.1130116E+00
         25   -1    0    0    0    0  0.00000000000E+00  0.00000000000E+00  0.99999998245E-14  0.12500000000E+03  0.12500000000E+03 0.  0.
        -13    1    3    3    0    0  0.28913292532E+02  0.83448760663E+00  0.18146720296E+02  0.34146588060E+02  0.10566000000E+00 0.  1.
         23    2    1    0    0    0 -0.27018404250E+02 -0.74965828532E+01 -0.71008844763E+01  0.96075693905E+02  0.91618357747E+02 0.  0.
         13    1    3    3    0    0 -0.55931696783E+02 -0.83310704598E+01 -0.25247604772E+02  0.61929105845E+02  0.10566000000E+00 0. -1.
         22    1    1    0    0    0  0.27018404250E+02  0.74965828532E+01  0.71008844763E+01  0.28924306095E+02  0.00000000000E+00 0. -1.
</event>
<event>
 5    1  0.9034713E-005  0.9118800E+02  0.7818608E-02  0.1130116E+00
         25   -1    0    0    0    0  0.00000000000E+00  0.00000000000E+00  0.99999998245E-14  0.12500000000E+03  0.12500000000E+03 0.  0.
        -13    1    3    3    0    0 -0.50408579966E+02 -0.28120912820E+02  0.16083799749E+02  0.59920868238E+02  0.10566000000E+00 0. -1.
         23    2    1    0    0    0 -0.29781022829E+02 -0.38863148361E+01  0.14975970396E+01  0.94929157633E+02  0.90040487606E+02 0.  0.
         13    1    3    3    0    0  0.20627557137E+02  0.24234597984E+02 -0.14586202710E+02  0.35008289395E+02  0.10566000000E+00 0.  1.
         22    1    1    0    0    0  0.29781022829E+02  0.38863148361E+01 -0.14975970396E+01  0.30070842367E+02  0.00000000000E+00 0. -1.
</event>
<event>
 5    1  0.9034713E-005  0.9118800E+02  0.7818608E-02  0.1130116E+00
         25   -1    0    0    0    0  0.00000000000E+00  0.00000000000E+00  0.99999998245E-14  0.12500000000E+03  0.12500000000E+03 0.  0.
        -13    1    3    3    0    0 -0.41759124209E+02 -0.90782248173E+01  0.35507100744E+02  0.55560813420E+02  0.10566000000E+00 0.  1.
         23    2    1    0    0    0 -0.14543539149E+02  0.16676796140E+02  0.11494725619E+02  0.10006490871E+03  0.96908344213E+02 0.  0.
         13    1    3    3    0    0  0.27215585060E+02  0.25755020957E+02 -0.24012375125E+02  0.44504095293E+02  0.10566000000E+00 0. -1.
         22    1    1    0    0    0  0.14543539149E+02 -0.16676796140E+02 -0.11494725619E+02  0.24935091287E+02  0.00000000000E+00 0.  1.
</event>
<event>
 5    1  0.9034713E-005  0.9118800E+02  0.7818608E-02  0.1130116E+00
         25   -1    0    0    0    0  0.00000000000E+00  0.00000000000E+00  0.99999998245E-14  0.12500000000E+03  0.12500000000E+03 0.  0.
        -13    1    3    3    0    0  0.94823796697E+01  0.42788682333E+02  0.19728719670E+02  0.48062671626E+02  0.10566000000E+00 0. -1.
         23    2    1    0    0    0 -0.12443221812E+02  0.21824965854E+02 -0.16216743038E+02  0.95097731552E+02  0.90274209429E+02 0.  0.
         13    1    3    3    0    0 -0.21925601481E+02 -0.20963716479E+02 -0.35945462708E+02  0.47035059926E+02  0.10566000000E+00 0.  1.
         22    1    1    0    0    0  0.12443221812E+02 -0.21824965854E+02  0.16216743038E+02  0.29902268448E+02  0.00000000000E+00 0.  1.
</event>
<event>
 5    1  0.9034713E-005  0.9118800E+02  0.7818608E-02  0.1130116E+00
         25   -1    0    0    0    0  0.00000000000E+00  0.00000000000E+00  0.99999998245E-14  0.12500000000E+03  0.12500000000E+03 0.  0.
        -13    1    3    3    0    0 -0.27350773638E+02  0.27759443807E+01 -0.33947847709E+02  0.43683386017E+02  0.10566000000E+00 0. -1.
         23    2    1    0    0    0 -0.21747585272E+02 -0.13004516458E+02  0.15094245571E+02  0.95505743562E+02  0.90837414596E+02 0.  0.
         13    1    3    3    0    0  0.56031883662E+01 -0.15780460839E+02  0.49042093281E+02  0.51822357545E+02  0.10566000000E+00 0.  1.
         22    1    1    0    0    0  0.21747585272E+02  0.13004516458E+02 -0.15094245571E+02  0.29494256438E+02  0.00000000000E+00 0. -1.
</event>
<event>
 5    1  0.9034713E-005  0.9118800E+02  0.7818608E-02  0.1130116E+00
         25   -1    0    0    0    0  0.00000000000E+00  0.00000000000E+00  0.99999998245E-14  0.12500000000E+03  0.12500000000E+03 0.  0.
        -13    1    3    3    0    0  0.32155851520E+02  0.58316066123E+01  0.11089810744E+02  0.34510889427E+02  0.10566000000E+00 0.  1.
         23    2    1    0    0    0 -0.26059306686E+02 -0.68424077980E+01 -0.76932922632E+01  0.96980493307E+02  0.92844619267E+02 0.  0.
         13    1    3    3    0    0 -0.58215158207E+02 -0.12674014410E+02 -0.18783103008E+02  0.62469603880E+02  0.10566000000E+00 0. -1.
         22    1    1    0    0    0  0.26059306686E+02  0.68424077980E+01  0.76932922632E+01  0.28019506693E+02  0.00000000000E+00 0. -1.
</event>
<event>
 5    1  0.9034713E-005  0.9118800E+02  0.7818608E-02  0.1130116E+00
         25   -1    0    0    0    0  0.00000000000E+00  0.00000000000E+00  0.99999998245E-14  0.12500000000E+03  0.12500000000E+03 0.  0.
        -13    1    3    3    0    0 -0.14801331401E+02 -0.14155727946E-01 -0.55342777329E+02  0.57287989825E+02  0.10566000000E+00 0.  1.
         23    2    1    0    0    0  0.73521186728E+01  0.11301222012E+02 -0.25636852276E+02  0.96034167325E+02  0.91561683204E+02 0.  0.
         13    1    3    3    0    0  0.22153450073E+02  0.11315377740E+02  0.29705925053E+02  0.38746177500E+02  0.10566000000E+00 0. -1.
         22    1    1    0    0    0 -0.73521186728E+01 -0.11301222012E+02  0.25636852276E+02  0.28965832675E+02  0.00000000000E+00 0.  1.
</event>
<event>
 5    1  0.9034713E-005  0.9118800E+02  0.7818608E-02  0.1130116E+00
         25   -1    0    0    0    0  0.00000000000E+00  0.00000000000E+00  0.99999998245E-14  0.12500000000E+03  0.12500000000E+03 0.  0.
        -13    1    3    3    0    0  0.40296440826E+02  0.41909976213E+02  0.14887715149E+02  0.60015868533E+02  0.10566000000E+00 0.  1.
         23    2    1    0    0    0  0.10177281564E+02  0.18821754464E+02  0.16468264642E+02  0.97999273316E+02  0.94206254193E+02 0.  0.
         13    1    3    3    0    0 -0.30119159261E+02 -0.23088221750E+02  0.15805494936E+01  0.37983404783E+02  0.10566000000E+00 0. -1.
         22    1    1    0    0    0 -0.10177281564E+02 -0.18821754464E+02 -0.16468264642E+02  0.27000726684E+02  0.00000000000E+00 0.  1.
</event>
<event>
 5    1  0.9034713E-005  0.9118800E+02  0.7818608E-02  0.1130116E+00
         25   -1    0    0    0    0  0.00000000000E+00  0.00000000000E+00  0.99999998245E-14  0.12500000000E+03  0.12500000000E+03 0.  0.
        -13    1    3    3    0    0 -0.31072222209E+01 -0.20793278610E+02  0.42837495928E+02  0.47718733079E+02  0.10566000000E+00 0. -1.
         23    2    1    0    0    0 -0.25433046957E+02  0.69695627422E+01  0.82597177721E+01  0.97366006079E+02  0.93362206057E+02 0.  0.
         13    1    3    3    0    0 -0.22325824736E+02  0.27762841352E+02 -0.34577778156E+02  0.49647273000E+02  0.10566000000E+00 0.  1.
         22    1    1    0    0    0  0.25433046957E+02 -0.69695627422E+01 -0.82597177721E+01  0.27633993921E+02  0.00000000000E+00 0.  1.
</event>
<event>
 5    1  0.9034713E-005  0.9118800E+02  0.7818608E-02  0.1130116E+00
         25   -1    0    0    0    0  0.00000000000E+00  0.00000000000E+00  0.99999998245E-14  0.12500000000E+03  0.12500000000E+03 0.  0.
        -13    1    3    3    0    0 -0.16526074164E+02  0.23555349310E+02 -0.13544965265E+02  0.31803189407E+02  0.10566000000E+00 0.  1.
         23    2    1    0    0    0  0.83277512182E+01 -0.22252369734E+02  0.20136100676E+02  0.93855466779E+02  0.88537374564E+02 0.  0.
         13    1    3    3    0    0  0.24853825382E+02 -0.45807719044E+02  0.33681065940E+02  0.62052277372E+02  0.10566000000E+00 0. -1.
         22    1    1    0    0    0 -0.83277512182E+01  0.22252369734E+02 -0.20136100676E+02  0.31144533221E+02  0.00000000000E+00 0. -1.
</event>
<event>
 5    1  0.9034713E-005  0.9118800E+02  0.7818608E-02  0.1130116E+00
         25   -1    0    0    0    0  0.00000000000E+00  0.00000000000E+00  0.99999998245E-14  0.12500000000E+03  0.12500000000E+03 0.  0.
        -13    1    3    3    0    0  0.74764358671E+01  0.36002264670E+02 -0.39465449832E+02  0.53940643758E+02  0.10566000000E+00 0.  1.
         23    2    1    0    0    0 -0.25614962058E+01 -0.36162064777E+01 -0.28363880545E+02  0.96292023205E+02  0.91913033903E+02 0.  0.
         13    1    3    3    0    0 -0.10037932073E+02 -0.39618471148E+02  0.11101569287E+02  0.42351379447E+02  0.10566000000E+00 0. -1.
         22    1    1    0    0    0  0.25614962058E+01  0.36162064777E+01  0.28363880545E+02  0.28707976795E+02  0.00000000000E+00 0.  1.
</event>
<event>
 5    1  0.9034713E-005  0.9118800E+02  0.7818608E-02  0.1130116E+00
         25   -1    0    0    0    0  0.00000000000E+00  0.00000000000E+00  0.99999998245E-14  0.12500000000E+03  0.12500000000E+03 0.  0.
        -13    1    3    3    0    0 -0.33327200469E+01 -0.38017674741E+02  0.62883168713E+01  0.38678220083E+02  0.10566000000E+00 0.  1.
         23    2    1    0    0    0 -0.16096726141E+02  0.19025774271E+02  0.11865697998E+02  0.97397835809E+02  0.93404812254E+02 0.  0.
         13    1    3    3    0    0 -0.12764006094E+02  0.57043449012E+02  0.55773811267E+01  0.58719615726E+02  0.10566000000E+00 0. -1.
         22    1    1    0    0    0  0.16096726141E+02 -0.19025774271E+02 -0.11865697998E+02  0.27602164191E+02  0.00000000000E+00 0. -1.
</event>
<event>
 5    1  0.9034713E-005  0.9118800E+02  0.7818608E-02  0.1130116E+00
         25   -1    0    0    0    0  0.00000000000E+00  0.00000000000E+00  0.99999998245E-14  0.12500000000E+03  0.12500000000E+03 0.  0.
        -13    1    3    3    0    0  0.33161361169E+02 -0.18051714952E+02 -0.16737184580E+02  0.41299937034E+02  0.10566000000E+00 0. -1.
         23    2    1    0    0    0 -0.12959056824E+01  0.25316618489E+02 -0.12174797501E+02  0.96878189293E+02  0.92706781431E+02 0.  0.
         13    1    3    3    0    0 -0.34457266852E+02  0.43368333441E+02  0.45623870787E+01  0.55578252259E+02  0.10566000000E+00 0.  1.
         22    1    1    0    0    0  0.12959056824E+01 -0.25316618489E+02  0.12174797501E+02  0.28121810707E+02  0.00000000000E+00 0. -1.
</event>
<event>
 5    1  0.9034713E-005  0.9118800E+02  0.7818608E-02  0.1130116E+00
         25   -1    0    0    0    0  0.00000000000E+00  0.00000000000E+00  0.99999998245E-14  0.12500000000E+03  0.12500000000E+03 0.  0.
        -13    1    3    3    0    0  0.83007272856E+01 -0.45342746307E+02 -0.12386170300E+02  0.47731489552E+02  0.10566000000E+00 0. -1.
         23    2    1    0    0    0  0.32859441300E+02 -0.16088657025E+02  0.15237383283E+01  0.88381568221E+02  0.80438747226E+02 0.  0.
         13    1    3    3    0    0  0.24558714015E+02  0.29254089281E+02  0.13909908628E+02  0.40650078669E+02  0.10566000000E+00 0.  1.
         22    1    1    0    0    0 -0.32859441300E+02  0.16088657025E+02 -0.15237383283E+01  0.36618431779E+02  0.00000000000E+00 0. -1.
</event>
<event>
 5    1  0.9034713E-005  0.9118800E+02  0.7818608E-02  0.1130116E+00
         25   -1    0    0    0    0  0.00000000000E+00  0.00000000000E+00  0.99999998245E-14  0.12500000000E+03  0.12500000000E+03 0.  0.
        -13    1    3    3    0    0 -0.33421036388E+02  0.41714553777E+01  0.10390509512E+02  0.35246851847E+02  0.10566000000E+00 0.  1.
         23    2    1    0    0    0  0.15336473073E+02  0.20204070374E+01 -0.25047422140E+02  0.95560862670E+02  0.90913231531E+02 0.  0.
         13    1    3    3    0    0  0.48757509460E+02 -0.21510483404E+01 -0.35437931651E+02  0.60314010823E+02  0.10566000000E+00 0. -1.
         22    1    1    0    0    0 -0.15336473073E+02 -0.20204070374E+01  0.25047422140E+02  0.29439137330E+02  0.00000000000E+00 0. -1.
</event>
<event>
 5    1  0.9034713E-005  0.9118800E+02  0.7818608E-02  0.1130116E+00
         25   -1    0    0    0    0  0.00000000000E+00  0.00000000000E+00  0.99999998245E-14  0.12500000000E+03  0.12500000000E+03 0.  0.
        -13    1    3    3    0    0 -0.28602038815E+02  0.40571584629E+02 -0.87994463869E+01  0.50414001274E+02  0.10566000000E+00 0. -1.
         23    2    1    0    0    0 -0.63554511943E+01  0.16191628373E+02  0.22944926057E+02  0.96207115098E+02  0.91797487844E+02 0.  0.
         13    1    3    3    0    0  0.22246587621E+02 -0.24379956256E+02  0.31744372444E+02  0.45793113824E+02  0.10566000000E+00 0.  1.
         22    1    1    0    0    0  0.63554511943E+01 -0.16191628373E+02 -0.22944926057E+02  0.28792884902E+02  0.00000000000E+00 0. -1.
</event>
<event>
 5    1  0.9034713E-005  0.9118800E+02  0.7818608E-02  0.1130116E+00
         25   -1    0    0    0    0  0.00000000000E+00  0.00000000000E+00  0.99999998245E-14  0.12500000000E+03  0.12500000000E+03 0.  0.
        -13    1    3    3    0    0 -0.28141311530E+02  0.25719729586E+02  0.29774046488E+02  0.48372956421E+02  0.10566000000E+00 0. -1.
         23    2    1    0    0    0 -0.14116053752E+02 -0.18157544436E+02  0.17657690484E+02  0.96004251576E+02  0.91520833114E+02 0.  0.
         13    1    3    3    0    0  0.14025257778E+02 -0.43877274021E+02 -0.12116356004E+02  0.47631295155E+02  0.10566000000E+00 0.  1.
         22    1    1    0    0    0  0.14116053752E+02  0.18157544436E+02 -0.17657690484E+02  0.28995748424E+02  0.00000000000E+00 0.  1.
</event>
<event>
 4    1  0.9034713E-005  0.9118800E+02  0.7818608E-02  0.1130116E+00
         25   -1    0    0    0    0  0.00000000000E+00  0.00000000000E+00  0.99999998245E-14  0.12500000000E+03  0.12500000000E+03 0.  0.
        -13    1    1    0    0    0  0.10925951223E+02  0.12074725861E+02  0.17605710037E+02  0.23982235190E+02  0.10566000000E+00 0. -1.
         13    1    1    0    0    0  0.33357685885E+01 -0.39324935559E+02  0.26288689517E+02  0.47420293856E+02  0.10566000000E+00 0.  1.
         22    1    1    0    0    0 -0.14261719811E+02  0.27250209698E+02 -0.43894399554E+02  0.53597470955E+02  0.00000000000E+00 0.  1.
</event>
<event>
 5    1  0.9034713E-005  0.9118800E+02  0.7818608E-02  0.1130116E+00
         25   -1    0    0    0    0  0.00000000000E+00  0.00000000000E+00  0.99999998245E-14  0.12500000000E+03  0.12500000000E+03 0.  0.
        -13    1    3    3    0    0 -0.15612811144E+02  0.10332499295E+02  0.44967990177E+02  0.48709872902E+02  0.10566000000E+00 0.  1.
         23    2    1    0    0    0 -0.16448470247E+02 -0.21091339604E+02  0.83283750314E+01  0.96986456660E+02  0.92852647593E+02 0.  0.
         13    1    3    3    0    0 -0.83565910340E+00 -0.31423838900E+02 -0.36639615146E+02  0.48276583758E+02  0.10566000000E+00 0. -1.
         22    1    1    0    0    0  0.16448470247E+02  0.21091339604E+02 -0.83283750314E+01  0.28013543340E+02  0.00000000000E+00 0.  1.
</event>
<event>
 5    1  0.9034713E-005  0.9118800E+02  0.7818608E-02  0.1130116E+00
         25   -1    0    0    0    0  0.00000000000E+00  0.00000000000E+00  0.99999998245E-14  0.12500000000E+03  0.12500000000E+03 0.  0.
        -13    1    3    3    0    0  0.56743204329E+01  0.44173154520E+02 -0.31731988136E+02  0.54684510857E+02  0.10566000000E+00 0.  1.
         23    2    1    0    0    0  0.14783688820E+02  0.25777582044E+02  0.31076008578E+01  0.95121941592E+02  0.90307726125E+02 0.  0.
         13    1    3    3    0    0  0.91093683873E+01 -0.18395572476E+02  0.34839588994E+02  0.40437430735E+02  0.10566000000E+00 0. -1.
         22    1    1    0    0    0 -0.14783688820E+02 -0.25777582044E+02 -0.31076008578E+01  0.29878058408E+02  0.00000000000E+00 0.  1.
</event>
<event>
 5    1  0.9034713E-005  0.9118800E+02  0.7818608E-02  0.1130116E+00
         25   -1    0    0    0    0  0.00000000000E+00  0.00000000000E+00  0.99999998245E-14  0.12500000000E+03  0.12500000000E+03 0.  0.
        -13    1    3    3    0    0 -0.35166689195E+01  0.54221158527E+02 -0.13445601793E+02  0.55974068674E+02  0.10566000000E+00 0.  1.
         23    2    1    0    0    0  0.52038824132E+01  0.12378108781E+02 -0.21676477149E+02  0.99501615134E+02  0.96179019456E+02 0.  0.
         13    1    3    3    0    0  0.87205513327E+01 -0.41843049747E+02 -0.82308753569E+01  0.43527546460E+02  0.10566000000E+00 0. -1.
         22    1    1    0    0    0 -0.52038824132E+01 -0.12378108781E+02  0.21676477149E+02  0.25498384866E+02  0.00000000000E+00 0.  1.
</event>
<event>
 5    1  0.9034713E-005  0.9118800E+02  0.7818608E-02  0.1130116E+00
         25   -1    0    0    0    0  0.00000000000E+00  0.00000000000E+00  0.99999998245E-14  0.12500000000E+03  0.12500000000E+03 0.  0.
        -13    1    3    3    0    0 -0.76134257928E+00  0.40986962008E+02 -0.32287532437E+02  0.52182435858E+02  0.10566000000E+00 0.  1.
         23    2    1    0    0    0 -0.18246097164E+01  0.35134313382E+02  0.45751282787E+01  0.89522105809E+02  0.82192009662E+02 0.  0.
         13    1    3    3    0    0 -0.10632671371E+01 -0.58526486262E+01  0.36862660716E+02  0.37339669951E+02  0.10566000000E+00 0. -1.
         22    1    1    0    0    0  0.18246097164E+01 -0.35134313382E+02 -0.45751282787E+01  0.35477894191E+02  0.00000000000E+00 0.  1.
</event>
<event>
 5    1  0.9034713E-005  0.9118800E+02  0.7818608E-02  0.1130116E+00
         25   -1    0    0    0    0  0.00000000000E+00  0.00000000000E+00  0.99999998245E-14  0.12500000000E+03  0.12500000000E+03 0.  0.
        -13    1    3    3    0    0 -0.61601718650E+01 -0.36539870715E+02  0.45044635147E+02  0.58327868029E+02  0.10566000000E+00 0. -1.
         23    2    1    0    0    0 -0.12447465594E+02 -0.23668376119E+02  0.95505513371E+01  0.96603794995E+02  0.92336064183E+02 0.  0.
         13    1    3    3    0    0 -0.62872937294E+01  0.12871494596E+02 -0.35494083810E+02  0.38275926966E+02  0.10566000000E+00 0.  1.
         22    1    1    0    0    0  0.12447465594E+02  0.23668376119E+02 -0.95505513371E+01  0.28396205005E+02  0.00000000000E+00 0. -1.
</event>
<event>
 5    1  0.9034713E-005  0.9118800E+02  0.7818608E-02  0.1130116E+00
         25   -1    0    0    0    0  0.00000000000E+00  0.00000000000E+00  0.99999998245E-14  0.12500000000E+03  0.12500000000E+03 0.  0.
        -13    1    3    3    0    0  0.30191429161E+02  0.31987563605E+02 -0.30020372940E+02  0.53253737668E+02  0.10566000000E+00 0.  1.
         23    2    1    0    0    0  0.85711998053E+01  0.27428105985E+02  0.61254135632E+01  0.95618251322E+02  0.90992103122E+02 0.  0.
         13    1    3    3    0    0 -0.21620229356E+02 -0.45594576199E+01  0.36145786503E+02  0.42364513654E+02  0.10566000000E+00 0. -1.
         22    1    1    0    0    0 -0.85711998053E+01 -0.27428105985E+02 -0.61254135632E+01  0.29381748678E+02  0.00000000000E+00 0.  1.
</event>
<event>
 5    1  0.9034713E-005  0.9118800E+02  0.7818608E-02  0.1130116E+00
         25   -1    0    0    0    0  0.00000000000E+00  0.00000000000E+00  0.99999998245E-14  0.12500000000E+03  0.12500000000E+03 0.  0.
        -13    1    3    3    0    0  0.54007496038E+02  0.14142551394E+02 -0.22697534791E+02  0.60266164950E+02  0.10566000000E+00 0.  1.
         23    2    1    0    0    0  0.30214756706E+02  0.27626982972E+01 -0.63354987482E+00  0.94652588082E+02  0.89655713820E+02 0.  0.
         13    1    3    3    0    0 -0.23792739332E+02 -0.11379853096E+02  0.22063984916E+02  0.34386423132E+02  0.10566000000E+00 0. -1.
         22    1    1    0    0    0 -0.30214756706E+02 -0.27626982972E+01  0.63354987482E+00  0.30347411918E+02  0.00000000000E+00 0.  1.
</event>
<event>
 5    1  0.9034713E-005  0.9118800E+02  0.7818608E-02  0.1130116E+00
         25   -1    0    0    0    0  0.00000000000E+00  0.00000000000E+00  0.99999998245E-14  0.12500000000E+03  0.12500000000E+03 0.  0.
        -13    1    3    3    0    0  0.43899321914E+02  0.16031691275E+02  0.27245011350E+02  0.54096833522E+02  0.10566000000E+00 0. -1.
         23    2    1    0    0    0  0.28155737315E+02 -0.20922097242E+01 -0.69934980190E+01  0.95913372491E+02  0.91396625336E+02 0.  0.
         13    1    3    3    0    0 -0.15743584599E+02 -0.18123900999E+02 -0.34238509369E+02  0.41816538969E+02  0.10566000000E+00 0.  1.
         22    1    1    0    0    0 -0.28155737315E+02  0.20922097242E+01  0.69934980190E+01  0.29086627509E+02  0.00000000000E+00 0. -1.
</event>
<event>
 5    1  0.9034713E-005  0.9118800E+02  0.7818608E-02  0.1130116E+00
         25   -1    0    0    0    0  0.00000000000E+00  0.00000000000E+00  0.99999998245E-14  0.12500000000E+03  0.12500000000E+03 0.  0.
        -13    1    3    3    0    0 -0.16321950574E+02  0.31872108463E+02 -0.57049809309E+01  0.36260106727E+02  0.10566000000E+00 0.  1.
         23    2    1    0    0    0  0.44686441700E+01 -0.19997859869E+02  0.18718966053E+02  0.97246029651E+02  0.93201434607E+02 0.  0.
         13    1    3    3    0    0  0.20790594744E+02 -0.51869968331E+02  0.24423946984E+02  0.60985922924E+02  0.10566000000E+00 0. -1.
         22    1    1    0    0    0 -0.44686441700E+01  0.19997859869E+02 -0.18718966053E+02  0.27753970349E+02  0.00000000000E+00 0. -1.
</event>
<event>
 5    1  0.9034713E-005  0.9118800E+02  0.7818608E-02  0.1130116E+00
         25   -1    0    0    0    0  0.00000000000E+00  0.00000000000E+00  0.99999998245E-14  0.12500000000E+03  0.12500000000E+03 0.  0.
        -13    1    3    3    0    0  0.20074908329E+02 -0.36275414192E+02 -0.15291861024E+02  0.44190041828E+02  0.10566000000E+00 0.  1.
         23    2    1    0    0    0  0.19637789325E+02 -0.13647399105E+00  0.21580639485E+02  0.95821490865E+02  0.91270875510E+02 0.  0.
         13    1    3    3    0    0 -0.43711900340E+00  0.36138940201E+02  0.36872500509E+02  0.51631449037E+02  0.10566000000E+00 0. -1.
         22    1    1    0    0    0 -0.19637789325E+02  0.13647399105E+00 -0.21580639485E+02  0.29178509135E+02  0.00000000000E+00 0. -1.
</event>
<event>
 5    1  0.9034713E-005  0.9118800E+02  0.7818608E-02  0.1130116E+00
         25   -1    0    0    0    0  0.00000000000E+00  0.00000000000E+00  0.99999998245E-14  0.12500000000E+03  0.12500000000E+03 0.  0.
        -13    1    3    3    0    0 -0.15272342669E+02  0.91425045618E+01  0.31253199131E+02  0.35966699323E+02  0.10566000000E+00 0. -1.
         23    2    1    0    0    0  0.38241940163E+01 -0.27605970748E+02 -0.10913526208E+02  0.95069762195E+02  0.90235472785E+02 0.  0.
         13    1    3    3    0    0  0.19096536686E+02 -0.36748475310E+02 -0.42166725338E+02  0.59103062871E+02  0.10566000000E+00 0.  1.
         22    1    1    0    0    0 -0.38241940163E+01  0.27605970748E+02  0.10913526208E+02  0.29930237805E+02  0.00000000000E+00 0.  1.
</event>
<event>
 5    1  0.9034713E-005  0.9118800E+02  0.7818608E-02  0.1130116E+00
         25   -1    0    0    0    0  0.00000000000E+00  0.00000000000E+00  0.99999998245E-14  0.12500000000E+03  0.12500000000E+03 0.  0.
        -13    1    3    3    0    0 -0.10881777170E+02 -0.29912657797E+02  0.12079764150E+02  0.34045734488E+02  0.10566000000E+00 0. -1.
         23    2    1    0    0    0  0.12824620656E+02  0.26219784365E+02  0.28685356433E+01  0.95671234532E+02  0.91064859485E+02 0.  0.
         13    1    3    3    0    0  0.23706397826E+02  0.56132442163E+02 -0.92112285066E+01  0.61625500044E+02  0.10566000000E+00 0.  1.
         22    1    1    0    0    0 -0.12824620656E+02 -0.26219784365E+02 -0.28685356433E+01  0.29328765468E+02  0.00000000000E+00 0.  1.
</event>
<event>
 5    1  0.9034713E-005  0.9118800E+02  0.7818608E-02  0.1130116E+00
         25   -1    0    0    0    0  0.00000000000E+00  0.00000000000E+00  0.99999998245E-14  0.12500000000E+03  0.12500000000E+03 0.  0.
        -13    1    3    3    0    0 -0.25871217415E+02  0.23808546042E+02 -0.10669236282E+01  0.35175506325E+02  0.10566000000E+00 0. -1.
         23    2    1    0    0    0  0.61929358210E+01 -0.21433412172E+02  0.20526401975E+02  0.94683720719E+02  0.89699109135E+02 0.  0.
         13    1    3    3    0    0  0.32064153236E+02 -0.45241958214E+02  0.21593325603E+02  0.59508214394E+02  0.10566000000E+00 0.  1.
         22    1    1    0    0    0 -0.61929358210E+01  0.21433412172E+02 -0.20526401975E+02  0.30316279281E+02  0.00000000000E+00 0.  1.
</event>
<event>
 5    1  0.9034713E-005  0.9118800E+02  0.7818608E-02  0.1130116E+00
         25   -1    0    0    0    0  0.00000000000E+00  0.00000000000E+00  0.99999998245E-14  0.12500000000E+03  0.12500000000E+03 0.  0.
        -13    1    3    3    0    0  0.36102834117E+02 -0.22394222836E+02 -0.47384210778E+01  0.42747861304E+02  0.10566000000E+00 0. -1.
         23    2    1    0    0    0 -0.91830047069E+01 -0.18910091117E+02  0.21276223310E+02  0.95090188903E+02  0.90263764744E+02 0.  0.
         13    1    3    3    0    0 -0.45285838824E+02  0.34841317186E+01  0.26014644388E+02  0.52342327599E+02  0.10566000000E+00 0.  1.
         22    1    1    0    0    0  0.91830047069E+01  0.18910091117E+02 -0.21276223310E+02  0.29909811097E+02  0.00000000000E+00 0.  1.
</event>
<event>
 5    1  0.9034713E-005  0.9118800E+02  0.7818608E-02  0.1130116E+00
         25   -1    0    0    0    0  0.00000000000E+00  0.00000000000E+00  0.99999998245E-14  0.12500000000E+03  0.12500000000E+03 0.  0.
        -13    1    3    3    0    0 -0.11810167125E+02 -0.55584576600E+02  0.31249923914E+01  0.56911351634E+02  0.10566000000E+00 0. -1.
         23    2    1    0    0    0  0.62124854513E+01 -0.38893568191E+02 -0.94327054145E+01  0.84499622797E+02  0.74161349093E+02 0.  0.
         13    1    3    3    0    0  0.18022652576E+02  0.16691008409E+02 -0.12557697806E+02  0.27588271164E+02  0.10566000000E+00 0.  1.
         22    1    1    0    0    0 -0.62124854513E+01  0.38893568191E+02  0.94327054145E+01  0.40500377203E+02  0.00000000000E+00 0. -1.
</event>
<event>
 5    1  0.9034713E-005  0.9118800E+02  0.7818608E-02  0.1130116E+00
         25   -1    0    0    0    0  0.00000000000E+00  0.00000000000E+00  0.99999998245E-14  0.12500000000E+03  0.12500000000E+03 0.  0.
        -13    1    3    3    0    0  0.37896423707E+02  0.27814574491E+02  0.13932293995E+02  0.49029679418E+02  0.10566000000E+00 0.  1.
         23    2    1    0    0    0  0.47115272448E+00  0.23785933559E+02 -0.15321808851E+02  0.96702465714E+02  0.92469543249E+02 0.  0.
         13    1    3    3    0    0 -0.37425270982E+02 -0.40286409316E+01 -0.29254102846E+02  0.47672786296E+02  0.10566000000E+00 0. -1.
         22    1    1    0    0    0 -0.47115272448E+00 -0.23785933559E+02  0.15321808851E+02  0.28297534286E+02  0.00000000000E+00 0.  1.
</event>
<event>
 5    1  0.9034713E-005  0.9118800E+02  0.7818608E-02  0.1130116E+00
         25   -1    0    0    0    0  0.00000000000E+00  0.00000000000E+00  0.99999998245E-14  0.12500000000E+03  0.12500000000E+03 0.  0.
        -13    1    3    3    0    0 -0.15929908220E+02  0.17576236109E+02  0.22942609730E+02  0.33000917516E+02  0.10566000000E+00 0.  1.
         23    2    1    0    0    0 -0.13121214564E+01 -0.69900820522E+01 -0.30539344808E+02  0.93643429858E+02  0.88237505996E+02 0.  0.
         13    1    3    3    0    0  0.14617786763E+02 -0.24566318162E+02 -0.53481954538E+02  0.60642512341E+02  0.10566000000E+00 0. -1.
         22    1    1    0    0    0  0.13121214564E+01  0.69900820522E+01  0.30539344808E+02  0.31356570142E+02  0.00000000000E+00 0. -1.
</event>
<event>
 5    1  0.9034713E-005  0.9118800E+02  0.7818608E-02  0.1130116E+00
         25   -1    0    0    0    0  0.00000000000E+00  0.00000000000E+00  0.99999998245E-14  0.12500000000E+03  0.12500000000E+03 0.  0.
        -13    1    3    3    0    0  0.21578874297E+02  0.30791084490E+02  0.21638820367E+02  0.43381890356E+02  0.10566000000E+00 0. -1.
         23    2    1    0    0    0 -0.15010584875E+02  0.19799811932E+02 -0.14718290000E+02  0.96121318047E+02  0.91680584159E+02 0.  0.
         13    1    3    3    0    0 -0.36589459172E+02 -0.10991272558E+02 -0.36357110367E+02  0.52739427691E+02  0.10566000000E+00 0.  1.
         22    1    1    0    0    0  0.15010584875E+02 -0.19799811932E+02  0.14718290000E+02  0.28878681953E+02  0.00000000000E+00 0.  1.
</event>
<event>
 5    1  0.9034713E-005  0.9118800E+02  0.7818608E-02  0.1130116E+00
         25   -1    0    0    0    0  0.00000000000E+00  0.00000000000E+00  0.99999998245E-14  0.12500000000E+03  0.12500000000E+03 0.  0.
        -13    1    3    3    0    0 -0.43526898774E+02  0.31564162584E+02  0.27942046194E+02  0.60594194326E+02  0.10566000000E+00 0.  1.
         23    2    1    0    0    0 -0.13165568162E+02  0.19122081919E+02  0.20008227436E+02  0.94351747732E+02  0.89235289729E+02 0.  0.
         13    1    3    3    0    0  0.30361330612E+02 -0.12442080665E+02 -0.79338187585E+01  0.33757553406E+02  0.10566000000E+00 0. -1.
         22    1    1    0    0    0  0.13165568162E+02 -0.19122081919E+02 -0.20008227436E+02  0.30648252268E+02  0.00000000000E+00 0.  1.
</event>
<event>
 5    1  0.9034713E-005  0.9118800E+02  0.7818608E-02  0.1130116E+00
         25   -1    0    0    0    0  0.00000000000E+00  0.00000000000E+00  0.99999998245E-14  0.12500000000E+03  0.12500000000E+03 0.  0.
        -13    1    3    3    0    0  0.55867522546E+02 -0.10363618434E+02 -0.13549916674E+02  0.58414005756E+02  0.10566000000E+00 0. -1.
         23    2    1    0    0    0  0.22739213901E+02 -0.12558636264E+02  0.77882610537E+01  0.97880851712E+02  0.94048992169E+02 0.  0.
         13    1    3    3    0    0 -0.33128308645E+02 -0.21950178297E+01  0.21338177727E+02  0.39466845956E+02  0.10566000000E+00 0.  1.
         22    1    1    0    0    0 -0.22739213901E+02  0.12558636264E+02 -0.77882610537E+01  0.27119148288E+02  0.00000000000E+00 0. -1.
</event>
<event>
 5    1  0.9034713E-005  0.9118800E+02  0.7818608E-02  0.1130116E+00
         25   -1    0    0    0    0  0.00000000000E+00  0.00000000000E+00  0.99999998245E-14  0.12500000000E+03  0.12500000000E+03 0.  0.
        -13    1    3    3    0    0 -0.46818960846E+02  0.20722091824E+00 -0.20241356276E+02  0.51007663180E+02  0.10566000000E+00 0.  1.
         23    2    1    0    0    0 -0.62677825712E+01 -0.18138291313E+02 -0.22319986128E+02  0.95564231098E+02  0.90917862791E+02 0.  0.
         13    1    3    3    0    0  0.40551178275E+02 -0.18345512231E+02 -0.20786298522E+01  0.44556567917E+02  0.10566000000E+00 0. -1.
         22    1    1    0    0    0  0.62677825712E+01  0.18138291313E+02  0.22319986128E+02  0.29435768902E+02  0.00000000000E+00 0. -1.
</event>
<event>
 5    1  0.9034713E-005  0.9118800E+02  0.7818608E-02  0.1130116E+00
         25   -1    0    0    0    0  0.00000000000E+00  0.00000000000E+00  0.99999998245E-14  0.12500000000E+03  0.12500000000E+03 0.  0.
        -13    1    3    3    0    0 -0.20168009278E+01  0.26900502951E+02  0.19763891637E+02  0.33441398321E+02  0.10566000000E+00 0.  1.
         23    2    1    0    0    0  0.50202217334E+01 -0.16690849539E+02 -0.23820122785E+02  0.95484151137E+02  0.90807696724E+02 0.  0.
         13    1    3    3    0    0  0.70370226612E+01 -0.43591352490E+02 -0.43584014422E+02  0.62042752816E+02  0.10566000000E+00 0. -1.
         22    1    1    0    0    0 -0.50202217334E+01  0.16690849539E+02  0.23820122785E+02  0.29515848863E+02  0.00000000000E+00 0. -1.
</event>
<event>
 5    1  0.9034713E-005  0.9118800E+02  0.7818608E-02  0.1130116E+00
         25   -1    0    0    0    0  0.00000000000E+00  0.00000000000E+00  0.99999998245E-14  0.12500000000E+03  0.12500000000E+03 0.  0.
        -13    1    3    3    0    0 -0.55868934700E+02  0.90041158491E+01 -0.34667019956E+01  0.56696041780E+02  0.10566000000E+00 0.  1.
         23    2    1    0    0    0 -0.22178402997E+02  0.79926600174E+01  0.16823679423E+02  0.96037949607E+02  0.91566846630E+02 0.  0.
         13    1    3    3    0    0  0.33690531703E+02 -0.10114558317E+01  0.20290381418E+02  0.39341907827E+02  0.10566000000E+00 0. -1.
         22    1    1    0    0    0  0.22178402997E+02 -0.79926600174E+01 -0.16823679423E+02  0.28962050393E+02  0.00000000000E+00 0.  1.
</event>
<event>
 5    1  0.9034713E-005  0.9118800E+02  0.7818608E-02  0.1130116E+00
         25   -1    0    0    0    0  0.00000000000E+00  0.00000000000E+00  0.99999998245E-14  0.12500000000E+03  0.12500000000E+03 0.  0.
        -13    1    3    3    0    0  0.21453884924E+02 -0.24827034260E+02 -0.60779023366E+01  0.33370688775E+02  0.10566000000E+00 0. -1.
         23    2    1    0    0    0 -0.18441405196E+02  0.22679477396E+02  0.58031962002E+00  0.95763363883E+02  0.91191232971E+02 0.  0.
         13    1    3    3    0    0 -0.39895290120E+02  0.47506511656E+02  0.66582219567E+01  0.62392675108E+02  0.10566000000E+00 0.  1.
         22    1    1    0    0    0  0.18441405196E+02 -0.22679477396E+02 -0.58031962002E+00  0.29236636117E+02  0.00000000000E+00 0.  1.
</event>
<event>
 5    1  0.9034713E-005  0.9118800E+02  0.7818608E-02  0.1130116E+00
         25   -1    0    0    0    0  0.00000000000E+00  0.00000000000E+00  0.99999998245E-14  0.12500000000E+03  0.12500000000E+03 0.  0.
        -13    1    3    3    0    0  0.24096183883E+02  0.50633155491E+02 -0.27560018773E+02  0.62481263684E+02  0.10566000000E+00 0. -1.
         23    2    1    0    0    0  0.11170734598E+02  0.25863026797E+02 -0.13461962213E+02  0.93776516960E+02  0.88425840341E+02 0.  0.
         13    1    3    3    0    0 -0.12925449285E+02 -0.24770128695E+02  0.14098056561E+02  0.31295253276E+02  0.10566000000E+00 0.  1.
         22    1    1    0    0    0 -0.11170734598E+02 -0.25863026797E+02  0.13461962213E+02  0.31223483040E+02  0.00000000000E+00 0. -1.
</event>
<event>
 5    1  0.9034713E-005  0.9118800E+02  0.7818608E-02  0.1130116E+00
         25   -1    0    0    0    0  0.00000000000E+00  0.00000000000E+00  0.99999998245E-14  0.12500000000E+03  0.12500000000E+03 0.  0.
        -13    1    3    3    0    0 -0.47759054574E+02  0.16501687288E+01 -0.39341846674E+02  0.61898646305E+02  0.10566000000E+00 0. -1.
         23    2    1    0    0    0 -0.19045856959E+02  0.47482490794E+01 -0.21693786126E+02  0.95744045169E+02  0.91164748078E+02 0.  0.
         13    1    3    3    0    0  0.28713197615E+02  0.30980803507E+01  0.17648060548E+02  0.33845398864E+02  0.10566000000E+00 0.  1.
         22    1    1    0    0    0  0.19045856959E+02 -0.47482490794E+01  0.21693786126E+02  0.29255954831E+02  0.00000000000E+00 0. -1.
</event>
<event>
 5    1  0.9034713E-005  0.9118800E+02  0.7818608E-02  0.1130116E+00
         25   -1    0    0    0    0  0.00000000000E+00  0.00000000000E+00  0.99999998245E-14  0.12500000000E+03  0.12500000000E+03 0.  0.
        -13    1    3    3    0    0 -0.20155818554E+02  0.72449094655E+01  0.27700243928E+02  0.35015145473E+02  0.10566000000E+00 0.  1.
         23    2    1    0    0    0  0.23426871912E+02  0.13878653104E+02 -0.12829684976E+02  0.94899565516E+02  0.89999396548E+02 0.  0.
         13    1    3    3    0    0  0.43582690466E+02  0.66337436388E+01 -0.40529928904E+02  0.59884420043E+02  0.10566000000E+00 0. -1.
         22    1    1    0    0    0 -0.23426871912E+02 -0.13878653104E+02  0.12829684976E+02  0.30100434484E+02  0.00000000000E+00 0. -1.
</event>
<event>
 5    1  0.9034713E-005  0.9118800E+02  0.7818608E-02  0.1130116E+00
         25   -1    0    0    0    0  0.00000000000E+00  0.00000000000E+00  0.99999998245E-14  0.12500000000E+03  0.12500000000E+03 0.  0.
        -13    1    3    3    0    0  0.23740050854E+02  0.37503117295E+02 -0.18522138539E+02  0.48095265895E+02  0.10566000000E+00 0.  1.
         23    2    1    0    0    0  0.42301269307E+01 -0.14460283680E+02 -0.15042925668E+02  0.10370954696E+03  0.10150067360E+03 0.  0.
         13    1    3    3    0    0 -0.19509923923E+02 -0.51963400975E+02  0.34792128711E+01  0.55614281067E+02  0.10566000000E+00 0. -1.
         22    1    1    0    0    0 -0.42301269307E+01  0.14460283680E+02  0.15042925668E+02  0.21290453039E+02  0.00000000000E+00 0. -1.
</event>
<event>
 5    1  0.9034713E-005  0.9118800E+02  0.7818608E-02  0.1130116E+00
         25   -1    0    0    0    0  0.00000000000E+00  0.00000000000E+00  0.99999998245E-14  0.12500000000E+03  0.12500000000E+03 0.  0.
        -13    1    3    3    0    0  0.22084298350E+02  0.38175089501E+01  0.28933348205E+02  0.36598352566E+02  0.10566000000E+00 0. -1.
         23    2    1    0    0    0 -0.21862900359E+02  0.18694896875E+02 -0.71307237447E+01  0.95363319983E+02  0.90641215768E+02 0.  0.
         13    1    3    3    0    0 -0.43947198710E+02  0.14877387925E+02 -0.36064071949E+02  0.58764967417E+02  0.10566000000E+00 0.  1.
         22    1    1    0    0    0  0.21862900359E+02 -0.18694896875E+02  0.71307237447E+01  0.29636680017E+02  0.00000000000E+00 0.  1.
</event>
<event>
 5    1  0.9034713E-005  0.9118800E+02  0.7818608E-02  0.1130116E+00
         25   -1    0    0    0    0  0.00000000000E+00  0.00000000000E+00  0.99999998245E-14  0.12500000000E+03  0.12500000000E+03 0.  0.
        -13    1    3    3    0    0 -0.32586437747E+02 -0.11195738504E+02  0.48520112247E+02  0.59509939861E+02  0.10566000000E+00 0.  1.
         23    2    1    0    0    0 -0.43898090326E+01 -0.12794494990E+02  0.26226130631E+02  0.95491027580E+02  0.90817161897E+02 0.  0.
         13    1    3    3    0    0  0.28196628714E+02 -0.15987564860E+01 -0.22293981617E+02  0.35981087720E+02  0.10566000000E+00 0. -1.
         22    1    1    0    0    0  0.43898090326E+01  0.12794494990E+02 -0.26226130631E+02  0.29508972420E+02  0.00000000000E+00 0.  1.
</event>
<event>
 5    1  0.9034713E-005  0.9118800E+02  0.7818608E-02  0.1130116E+00
         25   -1    0    0    0    0  0.00000000000E+00  0.00000000000E+00  0.99999998245E-14  0.12500000000E+03  0.12500000000E+03 0.  0.
        -13    1    3    3    0    0 -0.73717117834E+01  0.19420164451E+02  0.25843438956E+02  0.33156891034E+02  0.10566000000E+00 0. -1.
         23    2    1    0    0    0  0.28221942254E+02 -0.13343892776E+02 -0.86898353818E+01  0.92595513614E+02  0.86740292848E+02 0.  0.
         13    1    3    3    0    0  0.35593654037E+02 -0.32764057227E+02 -0.34533274337E+02  0.59438622580E+02  0.10566000000E+00 0.  1.
         22    1    1    0    0    0 -0.28221942254E+02  0.13343892776E+02  0.86898353818E+01  0.32404486386E+02  0.00000000000E+00 0.  1.
</event>
<event>
 5    1  0.9034713E-005  0.9118800E+02  0.7818608E-02  0.1130116E+00
         25   -1    0    0    0    0  0.00000000000E+00  0.00000000000E+00  0.99999998245E-14  0.12500000000E+03  0.12500000000E+03 0.  0.
        -13    1    3    3    0    0 -0.14490323526E+02  0.29021364124E+02  0.75908009414E+01  0.33314268332E+02  0.10566000000E+00 0. -1.
         23    2    1    0    0    0  0.17520138587E+02 -0.23691962596E+02  0.55236880124E+01  0.95020415663E+02  0.90167088873E+02 0.  0.
         13    1    3    3    0    0  0.32010462113E+02 -0.52713326720E+02 -0.20671129290E+01  0.61706147331E+02  0.10566000000E+00 0.  1.
         22    1    1    0    0    0 -0.17520138587E+02  0.23691962596E+02 -0.55236880124E+01  0.29979584337E+02  0.00000000000E+00 0.  1.
</event>
<event>
 5    1  0.9034713E-005  0.9118800E+02  0.7818608E-02  0.1130116E+00
         25   -1    0    0    0    0  0.00000000000E+00  0.00000000000E+00  0.99999998245E-14  0.12500000000E+03  0.12500000000E+03 0.  0.
        -13    1    3    3    0    0 -0.43742956089E+02  0.15094415589E+02  0.21954672383E+02  0.51218223249E+02  0.10566000000E+00 0.  1.
         23    2    1    0    0    0 -0.20866912460E+02 -0.19516730946E+02  0.52128497062E+01  0.95956848923E+02  0.91456067216E+02 0.  0.
         13    1    3    3    0    0  0.22876043628E+02 -0.34611146535E+02 -0.16741822677E+02  0.44738625673E+02  0.10566000000E+00 0. -1.
         22    1    1    0    0    0  0.20866912460E+02  0.19516730946E+02 -0.52128497062E+01  0.29043151077E+02  0.00000000000E+00 0. -1.
</event>
<event>
 5    1  0.9034713E-005  0.9118800E+02  0.7818608E-02  0.1130116E+00
         25   -1    0    0    0    0  0.00000000000E+00  0.00000000000E+00  0.99999998245E-14  0.12500000000E+03  0.12500000000E+03 0.  0.
        -13    1    3    3    0    0 -0.25059650816E+02 -0.25911954779E+02  0.19693402664E+02  0.41076231230E+02  0.10566000000E+00 0.  1.
         23    2    1    0    0    0 -0.21968524617E+02  0.22207434220E+02  0.17155296659E+02  0.89361672151E+02  0.81947654253E+02 0.  0.
         13    1    3    3    0    0  0.30911261992E+01  0.48119388999E+02 -0.25381060051E+01  0.48285440921E+02  0.10566000000E+00 0. -1.
         22    1    1    0    0    0  0.21968524617E+02 -0.22207434220E+02 -0.17155296659E+02  0.35638327849E+02  0.00000000000E+00 0. -1.
</event>
<event>
 5    1  0.9034713E-005  0.9118800E+02  0.7818608E-02  0.1130116E+00
         25   -1    0    0    0    0  0.00000000000E+00  0.00000000000E+00  0.99999998245E-14  0.12500000000E+03  0.12500000000E+03 0.  0.
        -13    1    3    3    0    0  0.41675870963E+02 -0.40866674462E+01  0.23692282497E+02  0.48113558227E+02  0.10566000000E+00 0. -1.
         23    2    1    0    0    0  0.93994081053E+01  0.26622591811E+02  0.55010461328E+01  0.96235911695E+02  0.91836691598E+02 0.  0.
         13    1    3    3    0    0 -0.32276462857E+02  0.30709259258E+02 -0.18191236365E+02  0.48122353467E+02  0.10566000000E+00 0.  1.
         22    1    1    0    0    0 -0.93994081053E+01 -0.26622591811E+02 -0.55010461328E+01  0.28764088305E+02  0.00000000000E+00 0. -1.
</event>
<event>
 5    1  0.9034713E-005  0.9118800E+02  0.7818608E-02  0.1130116E+00
         25   -1    0    0    0    0  0.00000000000E+00  0.00000000000E+00  0.99999998245E-14  0.12500000000E+03  0.12500000000E+03 0.  0.
        -13    1    3    3    0    0 -0.15660945780E+02  0.41586712551E+01 -0.34975052529E+02  0.38546403630E+02  0.10566000000E+00 0.  1.
         23    2    1    0    0    0 -0.32120204911E+02 -0.15711940625E+02  0.77072828319E+01  0.88421661459E+02  0.80501027104E+02 0.  0.
         13    1    3    3    0    0 -0.16459259131E+02 -0.19870611880E+02  0.42682335361E+02  0.49875257829E+02  0.10566000000E+00 0. -1.
         22    1    1    0    0    0  0.32120204911E+02  0.15711940625E+02 -0.77072828319E+01  0.36578338541E+02  0.00000000000E+00 0. -1.
</event>
<event>
 5    1  0.9034713E-005  0.9118800E+02  0.7818608E-02  0.1130116E+00
         25   -1    0    0    0    0  0.00000000000E+00  0.00000000000E+00  0.99999998245E-14  0.12500000000E+03  0.12500000000E+03 0.  0.
        -13    1    3    3    0    0  0.38403201919E+02  0.14834820324E+02  0.18380415458E+02  0.45085792086E+02  0.10566000000E+00 0. -1.
         23    2    1    0    0    0 -0.57193752934E+01  0.22548924141E+02 -0.11620030669E+02  0.98996339750E+02  0.95520076096E+02 0.  0.
         13    1    3    3    0    0 -0.44122577212E+02  0.77141038174E+01 -0.30000446127E+02  0.53910547663E+02  0.10566000000E+00 0.  1.
         22    1    1    0    0    0  0.57193752934E+01 -0.22548924141E+02  0.11620030669E+02  0.26003660250E+02  0.00000000000E+00 0. -1.
</event>
<event>
 5    1  0.9034713E-005  0.9118800E+02  0.7818608E-02  0.1130116E+00
         25   -1    0    0    0    0  0.00000000000E+00  0.00000000000E+00  0.99999998245E-14  0.12500000000E+03  0.12500000000E+03 0.  0.
        -13    1    3    3    0    0 -0.14463112845E+02  0.35729459687E+02 -0.42519169810E+02  0.57390477329E+02  0.10566000000E+00 0.  1.
         23    2    1    0    0    0 -0.16185921965E+02  0.30014433511E+02 -0.11449359286E+02  0.89028648665E+02  0.81438087933E+02 0.  0.
         13    1    3    3    0    0 -0.17228091201E+01 -0.57150261765E+01  0.31069810524E+02  0.31638171336E+02  0.10566000000E+00 0. -1.
         22    1    1    0    0    0  0.16185921965E+02 -0.30014433511E+02  0.11449359286E+02  0.35971351335E+02  0.00000000000E+00 0.  1.
</event>
<event>
 5    1  0.9034713E-005  0.9118800E+02  0.7818608E-02  0.1130116E+00
         25   -1    0    0    0    0  0.00000000000E+00  0.00000000000E+00  0.99999998245E-14  0.12500000000E+03  0.12500000000E+03 0.  0.
        -13    1    3    3    0    0 -0.25506776635E+02 -0.21667335036E+02  0.43128937414E+02  0.54591074988E+02  0.10566000000E+00 0. -1.
         23    2    1    0    0    0  0.87336796603E+01 -0.18682115203E+02  0.21539717383E+02  0.95179570530E+02  0.90387458380E+02 0.  0.
         13    1    3    3    0    0  0.34240456295E+02  0.29852198326E+01 -0.21589220031E+02  0.40588495542E+02  0.10566000000E+00 0.  1.
         22    1    1    0    0    0 -0.87336796603E+01  0.18682115203E+02 -0.21539717383E+02  0.29820429470E+02  0.00000000000E+00 0.  1.
</event>
<event>
 5    1  0.9034713E-005  0.9118800E+02  0.7818608E-02  0.1130116E+00
         25   -1    0    0    0    0  0.00000000000E+00  0.00000000000E+00  0.99999998245E-14  0.12500000000E+03  0.12500000000E+03 0.  0.
        -13    1    3    3    0    0 -0.31077395894E+02 -0.99740077168E+01 -0.12969860476E+02  0.35121415266E+02  0.10566000000E+00 0. -1.
         23    2    1    0    0    0  0.10686936982E+02  0.17972342400E+02  0.20673510155E+02  0.95595753103E+02  0.90961191043E+02 0.  0.
         13    1    3    3    0    0  0.41764332876E+02  0.27946350117E+02  0.33643370632E+02  0.60474337838E+02  0.10566000000E+00 0.  1.
         22    1    1    0    0    0 -0.10686936982E+02 -0.17972342400E+02 -0.20673510155E+02  0.29404246897E+02  0.00000000000E+00 0.  1.
</event>
<event>
 5    1  0.9034713E-005  0.9118800E+02  0.7818608E-02  0.1130116E+00
         25   -1    0    0    0    0  0.00000000000E+00  0.00000000000E+00  0.99999998245E-14  0.12500000000E+03  0.12500000000E+03 0.  0.
        -13    1    3    3    0    0  0.65165540900E+01 -0.35611571883E+02 -0.17851511829E+01  0.36247033782E+02  0.10566000000E+00 0.  1.
         23    2    1    0    0    0 -0.18920936761E+02  0.17195520546E+02 -0.13600148890E+02  0.96040514083E+02  0.91570347388E+02 0.  0.
         13    1    3    3    0    0 -0.25437490851E+02  0.52807092429E+02 -0.11814997707E+02  0.59793480301E+02  0.10566000000E+00 0. -1.
         22    1    1    0    0    0  0.18920936761E+02 -0.17195520546E+02  0.13600148890E+02  0.28959485917E+02  0.00000000000E+00 0. -1.
</event>
<event>
 5    1  0.9034713E-005  0.9118800E+02  0.7818608E-02  0.1130116E+00
         25   -1    0    0    0    0  0.00000000000E+00  0.00000000000E+00  0.99999998245E-14  0.12500000000E+03  0.12500000000E+03 0.  0.
        -13    1    3    3    0    0 -0.25439074760E+02  0.76241958064E+01 -0.55009406181E+02  0.61084538296E+02  0.10566000000E+00 0.  1.
         23    2    1    0    0    0 -0.56685427528E+01  0.10445306356E+02 -0.27151968425E+02  0.95361069669E+02  0.90638112388E+02 0.  0.
         13    1    3    3    0    0  0.19770532008E+02  0.28211105494E+01  0.27857437756E+02  0.34276531373E+02  0.10566000000E+00 0. -1.
         22    1    1    0    0    0  0.56685427528E+01 -0.10445306356E+02  0.27151968425E+02  0.29638930331E+02  0.00000000000E+00 0.  1.
</event>
<event>
 5    1  0.9034713E-005  0.9118800E+02  0.7818608E-02  0.1130116E+00
         25   -1    0    0    0    0  0.00000000000E+00  0.00000000000E+00  0.99999998245E-14  0.12500000000E+03  0.12500000000E+03 0.  0.
        -13    1    3    3    0    0  0.39363923485E+02  0.17775789451E+02 -0.77535689285E+01  0.43881957088E+02  0.10566000000E+00 0. -1.
         23    2    1    0    0    0  0.12247264007E+02 -0.24654056789E+02  0.74485886625E+01  0.96481594279E+02  0.92170486435E+02 0.  0.
         13    1    3    3    0    0 -0.27116659478E+02 -0.42429846240E+02  0.15202157591E+02  0.52599637191E+02  0.10566000000E+00 0.  1.
         22    1    1    0    0    0 -0.12247264007E+02  0.24654056789E+02 -0.74485886625E+01  0.28518405721E+02  0.00000000000E+00 0.  1.
</event>
<event>
 5    1  0.9034713E-005  0.9118800E+02  0.7818608E-02  0.1130116E+00
         25   -1    0    0    0    0  0.00000000000E+00  0.00000000000E+00  0.99999998245E-14  0.12500000000E+03  0.12500000000E+03 0.  0.
        -13    1    3    3    0    0  0.21794665575E+02 -0.16541020027E+02 -0.21416318316E+02  0.34745973080E+02  0.10566000000E+00 0.  1.
         23    2    1    0    0    0 -0.23640856143E+02 -0.69841894724E+01  0.17039225219E+02  0.95033282165E+02  0.90184924135E+02 0.  0.
         13    1    3    3    0    0 -0.45435521718E+02  0.95568305547E+01  0.38455543535E+02  0.60287309084E+02  0.10566000000E+00 0. -1.
         22    1    1    0    0    0  0.23640856143E+02  0.69841894724E+01 -0.17039225219E+02  0.29966717835E+02  0.00000000000E+00 0. -1.
</event>
<event>
 5    1  0.9034713E-005  0.9118800E+02  0.7818608E-02  0.1130116E+00
         25   -1    0    0    0    0  0.00000000000E+00  0.00000000000E+00  0.99999998245E-14  0.12500000000E+03  0.12500000000E+03 0.  0.
        -13    1    3    3    0    0 -0.45100333519E+01  0.29747756582E+02  0.16610462697E+02  0.34368416570E+02  0.10566000000E+00 0.  1.
         23    2    1    0    0    0  0.31473043562E+02 -0.12151793002E+02  0.86688514046E+01  0.90166574545E+02  0.83166361207E+02 0.  0.
         13    1    3    3    0    0  0.35983076914E+02 -0.41899549584E+02 -0.79416112922E+01  0.55798157976E+02  0.10566000000E+00 0. -1.
         22    1    1    0    0    0 -0.31473043562E+02  0.12151793002E+02 -0.86688514046E+01  0.34833425455E+02  0.00000000000E+00 0. -1.
</event>
<event>
 5    1  0.9034713E-005  0.9118800E+02  0.7818608E-02  0.1130116E+00
         25   -1    0    0    0    0  0.00000000000E+00  0.00000000000E+00  0.99999998245E-14  0.12500000000E+03  0.12500000000E+03 0.  0.
        -13    1    3    3    0    0  0.85761128457E+01 -0.20272796109E+02 -0.42414264109E+02  0.47786158430E+02  0.10566000000E+00 0. -1.
         23    2    1    0    0    0 -0.21233555890E+02 -0.20177264966E+02 -0.55629999339E+01  0.95185022464E+02  0.90394997737E+02 0.  0.
         13    1    3    3    0    0 -0.29809668736E+02  0.95531143304E-01  0.36851264175E+02  0.47398864033E+02  0.10566000000E+00 0.  1.
         22    1    1    0    0    0  0.21233555890E+02  0.20177264966E+02  0.55629999339E+01  0.29814977536E+02  0.00000000000E+00 0. -1.
</event>
<event>
 5    1  0.9034713E-005  0.9118800E+02  0.7818608E-02  0.1130116E+00
         25   -1    0    0    0    0  0.00000000000E+00  0.00000000000E+00  0.99999998245E-14  0.12500000000E+03  0.12500000000E+03 0.  0.
        -13    1    3    3    0    0  0.44843168398E+02 -0.66503214005E+01  0.24520281871E+02  0.51540197068E+02  0.10566000000E+00 0.  1.
         23    2    1    0    0    0  0.15807127074E+02 -0.18377416090E+02 -0.10555788572E+02  0.98561025722E+02  0.94948704207E+02 0.  0.
         13    1    3    3    0    0 -0.29036041324E+02 -0.11727094689E+02 -0.35076070443E+02  0.47020828655E+02  0.10566000000E+00 0. -1.
         22    1    1    0    0    0 -0.15807127074E+02  0.18377416090E+02  0.10555788572E+02  0.26438974278E+02  0.00000000000E+00 0. -1.
</event>
<event>
 5    1  0.9034713E-005  0.9118800E+02  0.7818608E-02  0.1130116E+00
         25   -1    0    0    0    0  0.00000000000E+00  0.00000000000E+00  0.99999998245E-14  0.12500000000E+03  0.12500000000E+03 0.  0.
        -13    1    3    3    0    0 -0.45648759436E+02  0.13980543423E+02  0.34561480559E+02  0.58938713380E+02  0.10566000000E+00 0. -1.
         23    2    1    0    0    0 -0.26277020759E+02 -0.66720851801E+01  0.11126416057E+02  0.95694784169E+02  0.91097179113E+02 0.  0.
         13    1    3    3    0    0  0.19371738677E+02 -0.20652628603E+02 -0.23435064502E+02  0.36756070789E+02  0.10566000000E+00 0.  1.
         22    1    1    0    0    0  0.26277020759E+02  0.66720851801E+01 -0.11126416057E+02  0.29305215831E+02  0.00000000000E+00 0. -1.
</event>
<event>
 5    1  0.9034713E-005  0.9118800E+02  0.7818608E-02  0.1130116E+00
         25   -1    0    0    0    0  0.00000000000E+00  0.00000000000E+00  0.99999998245E-14  0.12500000000E+03  0.12500000000E+03 0.  0.
        -13    1    3    3    0    0 -0.78312527745E+01 -0.27522510044E+02 -0.32332167094E+02  0.43176350843E+02  0.10566000000E+00 0.  1.
         23    2    1    0    0    0  0.43732575158E+01  0.13605996826E+02  0.13064199249E+02  0.10563710164E+03  0.10384736593E+03 0.  0.
         13    1    3    3    0    0  0.12204510290E+02  0.41128506870E+02  0.45396366343E+02  0.62460750795E+02  0.10566000000E+00 0. -1.
         22    1    1    0    0    0 -0.43732575158E+01 -0.13605996826E+02 -0.13064199249E+02  0.19362898361E+02  0.00000000000E+00 0. -1.
</event>
<event>
 5    1  0.9034713E-005  0.9118800E+02  0.7818608E-02  0.1130116E+00
         25   -1    0    0    0    0  0.00000000000E+00  0.00000000000E+00  0.99999998245E-14  0.12500000000E+03  0.12500000000E+03 0.  0.
        -13    1    3    3    0    0  0.45457327846E+00 -0.10613248062E+02  0.31010029040E+02  0.32779272969E+02  0.10566000000E+00 0.  1.
         23    2    1    0    0    0 -0.67413261544E+01  0.26824266256E+02 -0.15798040136E+02  0.93147766002E+02  0.87532516818E+02 0.  0.
         13    1    3    3    0    0 -0.71958994328E+01  0.37437514318E+02 -0.46808069177E+02  0.60368493033E+02  0.10566000000E+00 0. -1.
         22    1    1    0    0    0  0.67413261544E+01 -0.26824266256E+02  0.15798040136E+02  0.31852233998E+02  0.00000000000E+00 0. -1.
</event>
<event>
 5    1  0.9034713E-005  0.9118800E+02  0.7818608E-02  0.1130116E+00
         25   -1    0    0    0    0  0.00000000000E+00  0.00000000000E+00  0.99999998245E-14  0.12500000000E+03  0.12500000000E+03 0.  0.
        -13    1    3    3    0    0  0.10459597073E+01  0.52073670566E+02 -0.31677406648E+02  0.60960892824E+02  0.10566000000E+00 0.  1.
         23    2    1    0    0    0 -0.43797991980E+01  0.19352908209E+02 -0.21697721398E+02  0.95597469309E+02  0.90963549443E+02 0.  0.
         13    1    3    3    0    0 -0.54257589053E+01 -0.32720762357E+02  0.99796852500E+01  0.34636576485E+02  0.10566000000E+00 0. -1.
         22    1    1    0    0    0  0.43797991980E+01 -0.19352908209E+02  0.21697721398E+02  0.29402530691E+02  0.00000000000E+00 0.  1.
</event>
<event>
 5    1  0.9034713E-005  0.9118800E+02  0.7818608E-02  0.1130116E+00
         25   -1    0    0    0    0  0.00000000000E+00  0.00000000000E+00  0.99999998245E-14  0.12500000000E+03  0.12500000000E+03 0.  0.
        -13    1    3    3    0    0 -0.39259240054E+02 -0.16594725265E+02  0.39674683026E+01  0.42806831289E+02  0.10566000000E+00 0.  1.
         23    2    1    0    0    0 -0.99947674371E+01 -0.11850539542E+02 -0.32014791668E+02  0.89429259930E+02  0.82050685448E+02 0.  0.
         13    1    3    3    0    0  0.29264472617E+02  0.47441857225E+01 -0.35982259971E+02  0.46622428641E+02  0.10566000000E+00 0. -1.
         22    1    1    0    0    0  0.99947674371E+01  0.11850539542E+02  0.32014791668E+02  0.35570740070E+02  0.00000000000E+00 0.  1.
</event>
<event>
 5    1  0.9034713E-005  0.9118800E+02  0.7818608E-02  0.1130116E+00
         25   -1    0    0    0    0  0.00000000000E+00  0.00000000000E+00  0.99999998245E-14  0.12500000000E+03  0.12500000000E+03 0.  0.
        -13    1    3    3    0    0  0.56829858971E+00 -0.54956203855E+02 -0.83630466079E+01  0.55591897053E+02  0.10566000000E+00 0.  1.
         23    2    1    0    0    0  0.93606509630E+01 -0.19530836198E+02 -0.21593824414E+02  0.94416203606E+02  0.89325533312E+02 0.  0.
         13    1    3    3    0    0  0.87923523733E+01  0.35425367657E+02 -0.13230777807E+02  0.38824306552E+02  0.10566000000E+00 0. -1.
         22    1    1    0    0    0 -0.93606509630E+01  0.19530836198E+02  0.21593824414E+02  0.30583796394E+02  0.00000000000E+00 0.  1.
</event>
<event>
 5    1  0.9034713E-005  0.9118800E+02  0.7818608E-02  0.1130116E+00
         25   -1    0    0    0    0  0.00000000000E+00  0.00000000000E+00  0.99999998245E-14  0.12500000000E+03  0.12500000000E+03 0.  0.
        -13    1    3    3    0    0 -0.52421415930E+02 -0.17712554676E+01  0.27531970986E+02  0.59238186877E+02  0.10566000000E+00 0.  1.
         23    2    1    0    0    0 -0.21932068016E+02 -0.14909978705E+02  0.12402835934E+02  0.95722817559E+02  0.91135637320E+02 0.  0.
         13    1    3    3    0    0  0.30489347914E+02 -0.13138723238E+02 -0.15129135052E+02  0.36484630682E+02  0.10566000000E+00 0. -1.
         22    1    1    0    0    0  0.21932068016E+02  0.14909978705E+02 -0.12402835934E+02  0.29277182441E+02  0.00000000000E+00 0.  1.
</event>
<event>
 5    1  0.9034713E-005  0.9118800E+02  0.7818608E-02  0.1130116E+00
         25   -1    0    0    0    0  0.00000000000E+00  0.00000000000E+00  0.99999998245E-14  0.12500000000E+03  0.12500000000E+03 0.  0.
        -13    1    3    3    0    0  0.41918393366E+02  0.40048028666E+02 -0.21306611686E+02  0.61765517629E+02  0.10566000000E+00 0. -1.
         23    2    1    0    0    0  0.18791036859E+02  0.94673455342E+01 -0.53902324537E+01  0.10327931162E+03  0.10096944045E+03 0.  0.
         13    1    3    3    0    0 -0.23127356508E+02 -0.30580683131E+02  0.15916379232E+02  0.41513793993E+02  0.10566000000E+00 0.  1.
         22    1    1    0    0    0 -0.18791036859E+02 -0.94673455342E+01  0.53902324537E+01  0.21720688378E+02  0.00000000000E+00 0. -1.
</event>
<event>
 5    1  0.9034713E-005  0.9118800E+02  0.7818608E-02  0.1130116E+00
         25   -1    0    0    0    0  0.00000000000E+00  0.00000000000E+00  0.99999998245E-14  0.12500000000E+03  0.12500000000E+03 0.  0.
        -13    1    3    3    0    0  0.39346448318E+02  0.34627009915E+02  0.21219678511E+02  0.56546076177E+02  0.10566000000E+00 0.  1.
         23    2    1    0    0    0  0.22067476535E+02 -0.10095398829E+01  0.18398380130E+02  0.96251207281E+02  0.91857508241E+02 0.  0.
         13    1    3    3    0    0 -0.17278971783E+02 -0.35636549798E+02 -0.28212983809E+01  0.39705131104E+02  0.10566000000E+00 0. -1.
         22    1    1    0    0    0 -0.22067476535E+02  0.10095398829E+01 -0.18398380130E+02  0.28748792719E+02  0.00000000000E+00 0.  1.
</event>
<event>
 5    1  0.9034713E-005  0.9118800E+02  0.7818608E-02  0.1130116E+00
         25   -1    0    0    0    0  0.00000000000E+00  0.00000000000E+00  0.99999998245E-14  0.12500000000E+03  0.12500000000E+03 0.  0.
        -13    1    3    3    0    0 -0.44706059220E+01 -0.40368760490E+02  0.33769612287E+02  0.52820649550E+02  0.10566000000E+00 0.  1.
         23    2    1    0    0    0  0.18250867624E+02 -0.57758955806E+01  0.21975260096E+02  0.95856095062E+02  0.91318255379E+02 0.  0.
         13    1    3    3    0    0  0.22721473546E+02  0.34592864909E+02 -0.11794352191E+02  0.43035445512E+02  0.10566000000E+00 0. -1.
         22    1    1    0    0    0 -0.18250867624E+02  0.57758955806E+01 -0.21975260096E+02  0.29143904938E+02  0.00000000000E+00 0.  1.
</event>
<event>
 5    1  0.9034713E-005  0.9118800E+02  0.7818608E-02  0.1130116E+00
         25   -1    0    0    0    0  0.00000000000E+00  0.00000000000E+00  0.99999998245E-14  0.12500000000E+03  0.12500000000E+03 0.  0.
        -13    1    3    3    0    0 -0.23879093207E+02  0.12899887679E+01  0.52320814590E+02  0.57526984684E+02  0.10566000000E+00 0.  1.
         23    2    1    0    0    0 -0.13633456087E+02  0.17601408648E+02  0.20434345320E+02  0.94780086367E+02  0.89833298903E+02 0.  0.
         13    1    3    3    0    0  0.10245637120E+02  0.16311419880E+02 -0.31886469270E+02  0.37253101683E+02  0.10566000000E+00 0. -1.
         22    1    1    0    0    0  0.13633456087E+02 -0.17601408648E+02 -0.20434345320E+02  0.30219913633E+02  0.00000000000E+00 0.  1.
</event>
<event>
 5    1  0.9034713E-005  0.9118800E+02  0.7818608E-02  0.1130116E+00
         25   -1    0    0    0    0  0.00000000000E+00  0.00000000000E+00  0.99999998245E-14  0.12500000000E+03  0.12500000000E+03 0.  0.
        -13    1    3    3    0    0 -0.53779523740E+02 -0.28462656550E+00 -0.36465420632E+00  0.53781616959E+02  0.10566000000E+00 0. -1.
         23    2    1    0    0    0 -0.18968045151E+02  0.10071798665E+02  0.20197989305E+02  0.95518028608E+02  0.90854318290E+02 0.  0.
         13    1    3    3    0    0  0.34811478589E+02  0.10356425231E+02  0.20562643512E+02  0.41736411649E+02  0.10566000000E+00 0.  1.
         22    1    1    0    0    0  0.18968045151E+02 -0.10071798665E+02 -0.20197989305E+02  0.29481971392E+02  0.00000000000E+00 0. -1.
</event>
<event>
 5    1  0.9034713E-005  0.9118800E+02  0.7818608E-02  0.1130116E+00
         25   -1    0    0    0    0  0.00000000000E+00  0.00000000000E+00  0.99999998245E-14  0.12500000000E+03  0.12500000000E+03 0.  0.
        -13    1    3    3    0    0  0.21311989914E+02 -0.14414280396E+02 -0.15633865529E+02  0.30106499445E+02  0.10566000000E+00 0.  1.
         23    2    1    0    0    0 -0.22501539283E+02  0.21743953974E+02  0.96051665360E+01  0.92268088526E+02  0.86267155578E+02 0.  0.
         13    1    3    3    0    0 -0.43813529197E+02  0.36158234371E+02  0.25239032065E+02  0.62161589081E+02  0.10566000000E+00 0. -1.
         22    1    1    0    0    0  0.22501539283E+02 -0.21743953974E+02 -0.96051665360E+01  0.32731911474E+02  0.00000000000E+00 0. -1.
</event>
<event>
 5    1  0.9034713E-005  0.9118800E+02  0.7818608E-02  0.1130116E+00
         25   -1    0    0    0    0  0.00000000000E+00  0.00000000000E+00  0.99999998245E-14  0.12500000000E+03  0.12500000000E+03 0.  0.
        -13    1    3    3    0    0 -0.50530907345E+02 -0.22981788612E+01 -0.34892764150E+02  0.61450552294E+02  0.10566000000E+00 0.  1.
         23    2    1    0    0    0 -0.26745058657E+02  0.34514504049E+01 -0.10331353304E+02  0.96121850240E+02  0.91681309764E+02 0.  0.
         13    1    3    3    0    0  0.23785848688E+02  0.57496292662E+01  0.24561410846E+02  0.34671297946E+02  0.10566000000E+00 0. -1.
         22    1    1    0    0    0  0.26745058657E+02 -0.34514504049E+01  0.10331353304E+02  0.28878149760E+02  0.00000000000E+00 0.  1.
</event>
<event>
 5    1  0.9034713E-005  0.9118800E+02  0.7818608E-02  0.1130116E+00
         25   -1    0    0    0    0  0.00000000000E+00  0.00000000000E+00  0.99999998245E-14  0.12500000000E+03  0.12500000000E+03 0.  0.
        -13    1    3    3    0    0 -0.32044108077E+02  0.77214601185E-01  0.19755182969E+02  0.37644511455E+02  0.10566000000E+00 0.  1.
         23    2    1    0    0    0  0.17226159070E+01  0.12220150277E+02 -0.26252551381E+02  0.95991450702E+02  0.91503347893E+02 0.  0.
         13    1    3    3    0    0  0.33766723984E+02  0.12142935676E+02 -0.46007734350E+02  0.58346939247E+02  0.10566000000E+00 0. -1.
         22    1    1    0    0    0 -0.17226159070E+01 -0.12220150277E+02  0.26252551381E+02  0.29008549298E+02  0.00000000000E+00 0. -1.
</event>
<event>
 5    1  0.9034713E-005  0.9118800E+02  0.7818608E-02  0.1130116E+00
         25   -1    0    0    0    0  0.00000000000E+00  0.00000000000E+00  0.99999998245E-14  0.12500000000E+03  0.12500000000E+03 0.  0.
        -13    1    3    3    0    0 -0.39430717429E+02  0.23462516255E+02 -0.31242215361E+02  0.55509984063E+02  0.10566000000E+00 0. -1.
         23    2    1    0    0    0 -0.15940545913E+02 -0.77193178476E+01 -0.23929942616E+02  0.95228687875E+02  0.90455358984E+02 0.  0.
         13    1    3    3    0    0  0.23490171516E+02 -0.31181834103E+02  0.73122727450E+01  0.39718703813E+02  0.10566000000E+00 0.  1.
         22    1    1    0    0    0  0.15940545913E+02  0.77193178476E+01  0.23929942616E+02  0.29771312125E+02  0.00000000000E+00 0. -1.
</event>
<event>
 5    1  0.9034713E-005  0.9118800E+02  0.7818608E-02  0.1130116E+00
         25   -1    0    0    0    0  0.00000000000E+00  0.00000000000E+00  0.99999998245E-14  0.12500000000E+03  0.12500000000E+03 0.  0.
        -13    1    3    3    0    0  0.11001418184E+02 -0.35644374159E+02 -0.15104612269E+02  0.40245659232E+02  0.10566000000E+00 0. -1.
         23    2    1    0    0    0 -0.27677879419E+02 -0.42830290963E+01  0.90178131820E+01  0.95576704774E+02  0.90935010824E+02 0.  0.
         13    1    3    3    0    0 -0.38679297602E+02  0.31361345062E+02  0.24122425451E+02  0.55331045542E+02  0.10566000000E+00 0.  1.
         22    1    1    0    0    0  0.27677879419E+02  0.42830290963E+01 -0.90178131820E+01  0.29423295226E+02  0.00000000000E+00 0.  1.
</event>
<event>
 5    1  0.9034713E-005  0.9118800E+02  0.7818608E-02  0.1130116E+00
         25   -1    0    0    0    0  0.00000000000E+00  0.00000000000E+00  0.99999998245E-14  0.12500000000E+03  0.12500000000E+03 0.  0.
        -13    1    3    3    0    0  0.45838026236E+01 -0.55679663026E+02  0.17250185344E+02  0.58470643742E+02  0.10566000000E+00 0.  1.
         23    2    1    0    0    0  0.59530420734E+01 -0.27664130653E+02 -0.73329443095E+01  0.95767913059E+02  0.91197468521E+02 0.  0.
         13    1    3    3    0    0  0.13692394498E+01  0.28015532374E+02 -0.24583129654E+02  0.37297269316E+02  0.10566000000E+00 0. -1.
         22    1    1    0    0    0 -0.59530420734E+01  0.27664130653E+02  0.73329443095E+01  0.29232086941E+02  0.00000000000E+00 0.  1.
</event>
<event>
 5    1  0.9034713E-005  0.9118800E+02  0.7818608E-02  0.1130116E+00
         25   -1    0    0    0    0  0.00000000000E+00  0.00000000000E+00  0.99999998245E-14  0.12500000000E+03  0.12500000000E+03 0.  0.
        -13    1    3    3    0    0 -0.34326126959E+02  0.77175781519E+00 -0.47613852296E+02  0.58702373858E+02  0.10566000000E+00 0.  1.
         23    2    1    0    0    0 -0.30199829939E+01  0.56968521358E+01 -0.28647977677E+02  0.95635377637E+02  0.91015627281E+02 0.  0.
         13    1    3    3    0    0  0.31306143965E+02  0.49250943206E+01  0.18965874619E+02  0.36933003779E+02  0.10566000000E+00 0. -1.
         22    1    1    0    0    0  0.30199829939E+01 -0.56968521358E+01  0.28647977677E+02  0.29364622363E+02  0.00000000000E+00 0.  1.
</event>
<event>
 5    1  0.9034713E-005  0.9118800E+02  0.7818608E-02  0.1130116E+00
         25   -1    0    0    0    0  0.00000000000E+00  0.00000000000E+00  0.99999998245E-14  0.12500000000E+03  0.12500000000E+03 0.  0.
        -13    1    3    3    0    0  0.33321823390E+01  0.12982648456E+02  0.31477411076E+02  0.34212441775E+02  0.10566000000E+00 0. -1.
         23    2    1    0    0    0 -0.99313514699E+01 -0.19690133864E+02 -0.19070671992E+02  0.95844835040E+02  0.91302840920E+02 0.  0.
         13    1    3    3    0    0 -0.13263533809E+02 -0.32672782320E+02 -0.50548083069E+02  0.61632393265E+02  0.10566000000E+00 0.  1.
         22    1    1    0    0    0  0.99313514699E+01  0.19690133864E+02  0.19070671992E+02  0.29155164960E+02  0.00000000000E+00 0.  1.
</event>
<event>
 5    1  0.9034713E-005  0.9118800E+02  0.7818608E-02  0.1130116E+00
         25   -1    0    0    0    0  0.00000000000E+00  0.00000000000E+00  0.99999998245E-14  0.12500000000E+03  0.12500000000E+03 0.  0.
        -13    1    3    3    0    0  0.99305912970E+01  0.60468323470E+02  0.42369014495E+01  0.61424728609E+02  0.10566000000E+00 0. -1.
         23    2    1    0    0    0  0.11520667777E+02  0.27424028094E+02  0.63839179112E+01  0.94577023308E+02  0.89550297749E+02 0.  0.
         13    1    3    3    0    0  0.15900764797E+01 -0.33044295376E+02  0.21470164617E+01  0.33152294699E+02  0.10566000000E+00 0.  1.
         22    1    1    0    0    0 -0.11520667777E+02 -0.27424028094E+02 -0.63839179112E+01  0.30422976692E+02  0.00000000000E+00 0. -1.
</event>
<event>
 5    1  0.9034713E-005  0.9118800E+02  0.7818608E-02  0.1130116E+00
         25   -1    0    0    0    0  0.00000000000E+00  0.00000000000E+00  0.99999998245E-14  0.12500000000E+03  0.12500000000E+03 0.  0.
        -13    1    3    3    0    0 -0.47121742096E+02  0.40538167854E+01 -0.17458972713E+02  0.50415462915E+02  0.10566000000E+00 0. -1.
         23    2    1    0    0    0 -0.27193866424E+01  0.11691775810E+02 -0.26082388977E+02  0.96287917177E+02  0.91907449612E+02 0.  0.
         13    1    3    3    0    0  0.44402355454E+02  0.76379590248E+01 -0.86234162632E+01  0.45872454262E+02  0.10566000000E+00 0.  1.
         22    1    1    0    0    0  0.27193866424E+01 -0.11691775810E+02  0.26082388977E+02  0.28712082823E+02  0.00000000000E+00 0. -1.
</event>
<event>
 5    1  0.9034713E-005  0.9118800E+02  0.7818608E-02  0.1130116E+00
         25   -1    0    0    0    0  0.00000000000E+00  0.00000000000E+00  0.99999998245E-14  0.12500000000E+03  0.12500000000E+03 0.  0.
        -13    1    3    3    0    0 -0.34080028140E+02  0.29615155307E+02 -0.28354452922E+02  0.53315025147E+02  0.10566000000E+00 0. -1.
         23    2    1    0    0    0 -0.27317769233E+02  0.12704038599E+01  0.45595759964E+01  0.97275206491E+02  0.93240557821E+02 0.  0.
         13    1    3    3    0    0  0.67622589073E+01 -0.28344751447E+02  0.32914028918E+02  0.43960181344E+02  0.10566000000E+00 0.  1.
         22    1    1    0    0    0  0.27317769233E+02 -0.12704038599E+01 -0.45595759964E+01  0.27724793509E+02  0.00000000000E+00 0. -1.
</event>
<event>
 5    1  0.9034713E-005  0.9118800E+02  0.7818608E-02  0.1130116E+00
         25   -1    0    0    0    0  0.00000000000E+00  0.00000000000E+00  0.99999998245E-14  0.12500000000E+03  0.12500000000E+03 0.  0.
        -13    1    3    3    0    0 -0.57490797241E+01  0.35921094294E+02 -0.38618003132E+02  0.53054106937E+02  0.10566000000E+00 0. -1.
         23    2    1    0    0    0 -0.23816102109E+02  0.42937399011E+01 -0.17221173666E+02  0.95297950501E+02  0.90551022220E+02 0.  0.
         13    1    3    3    0    0 -0.18067022385E+02 -0.31627354393E+02  0.21396829466E+02  0.42243843563E+02  0.10566000000E+00 0.  1.
         22    1    1    0    0    0  0.23816102109E+02 -0.42937399011E+01  0.17221173666E+02  0.29702049499E+02  0.00000000000E+00 0. -1.
</event>
<event>
 5    1  0.9034713E-005  0.9118800E+02  0.7818608E-02  0.1130116E+00
         25   -1    0    0    0    0  0.00000000000E+00  0.00000000000E+00  0.99999998245E-14  0.12500000000E+03  0.12500000000E+03 0.  0.
        -13    1    3    3    0    0  0.20601581528E+02  0.35551817659E+02 -0.45236021137E+00  0.41092246156E+02  0.10566000000E+00 0.  1.
         23    2    1    0    0    0 -0.26489764351E+02  0.44594587817E+01 -0.48884731120E+01  0.97696308723E+02  0.93803396424E+02 0.  0.
         13    1    3    3    0    0 -0.47091345880E+02 -0.31092358878E+02 -0.44361129006E+01  0.56604062567E+02  0.10566000000E+00 0. -1.
         22    1    1    0    0    0  0.26489764351E+02 -0.44594587817E+01  0.48884731120E+01  0.27303691277E+02  0.00000000000E+00 0. -1.
</event>
<event>
 5    1  0.9034713E-005  0.9118800E+02  0.7818608E-02  0.1130116E+00
         25   -1    0    0    0    0  0.00000000000E+00  0.00000000000E+00  0.99999998245E-14  0.12500000000E+03  0.12500000000E+03 0.  0.
        -13    1    3    3    0    0  0.19378931812E+02 -0.46564743678E+02  0.26878924258E+02  0.57151606148E+02  0.10566000000E+00 0.  1.
         23    2    1    0    0    0  0.25125901080E+02 -0.13632519902E+02  0.91900128347E+01  0.94973131368E+02  0.90101514094E+02 0.  0.
         13    1    3    3    0    0  0.57469692676E+01  0.32932223776E+02 -0.17688911424E+02  0.37821525220E+02  0.10566000000E+00 0. -1.
         22    1    1    0    0    0 -0.25125901080E+02  0.13632519902E+02 -0.91900128347E+01  0.30026868632E+02  0.00000000000E+00 0.  1.
</event>
<event>
 5    1  0.9034713E-005  0.9118800E+02  0.7818608E-02  0.1130116E+00
         25   -1    0    0    0    0  0.00000000000E+00  0.00000000000E+00  0.99999998245E-14  0.12500000000E+03  0.12500000000E+03 0.  0.
        -13    1    3    3    0    0  0.27688629167E+02  0.51300395554E+02 -0.20182075766E+02  0.61690502635E+02  0.10566000000E+00 0.  1.
         23    2    1    0    0    0  0.19591490409E+02  0.21755782900E+02 -0.80809602810E+01  0.94628261408E+02  0.89621790609E+02 0.  0.
         13    1    3    3    0    0 -0.80971387577E+01 -0.29544612654E+02  0.12101115485E+02  0.32937758773E+02  0.10566000000E+00 0. -1.
         22    1    1    0    0    0 -0.19591490409E+02 -0.21755782900E+02  0.80809602810E+01  0.30371738592E+02  0.00000000000E+00 0.  1.
</event>
<event>
 5    1  0.9034713E-005  0.9118800E+02  0.7818608E-02  0.1130116E+00
         25   -1    0    0    0    0  0.00000000000E+00  0.00000000000E+00  0.99999998245E-14  0.12500000000E+03  0.12500000000E+03 0.  0.
        -13    1    3    3    0    0  0.40592312745E+01  0.29388372587E+01  0.29375909260E+02  0.29800492141E+02  0.10566000000E+00 0. -1.
         23    2    1    0    0    0 -0.43438236477E+00 -0.43572439728E+02  0.10636347194E+02  0.80146036145E+02  0.66419191776E+02 0.  0.
         13    1    3    3    0    0 -0.44936136393E+01 -0.46511276987E+02 -0.18739562066E+02  0.50345544003E+02  0.10566000000E+00 0.  1.
         22    1    1    0    0    0  0.43438236477E+00  0.43572439728E+02 -0.10636347194E+02  0.44853963855E+02  0.00000000000E+00 0.  1.
</event>
<event>
 5    1  0.9034713E-005  0.9118800E+02  0.7818608E-02  0.1130116E+00
         25   -1    0    0    0    0  0.00000000000E+00  0.00000000000E+00  0.99999998245E-14  0.12500000000E+03  0.12500000000E+03 0.  0.
        -13    1    3    3    0    0  0.37396255887E+02 -0.26872149675E+02 -0.25716248833E+02  0.52743994925E+02  0.10566000000E+00 0. -1.
         23    2    1    0    0    0  0.11171316553E+02 -0.28269396702E+02  0.60981341312E+01  0.93997671970E+02  0.88737917445E+02 0.  0.
         13    1    3    3    0    0 -0.26224939334E+02 -0.13972470267E+01  0.31814382965E+02  0.41253677045E+02  0.10566000000E+00 0.  1.
         22    1    1    0    0    0 -0.11171316553E+02  0.28269396702E+02 -0.60981341312E+01  0.31002328030E+02  0.00000000000E+00 0. -1.
</event>
<event>
 5    1  0.9034713E-005  0.9118800E+02  0.7818608E-02  0.1130116E+00
         25   -1    0    0    0    0  0.00000000000E+00  0.00000000000E+00  0.99999998245E-14  0.12500000000E+03  0.12500000000E+03 0.  0.
        -13    1    3    3    0    0 -0.35161931613E+02  0.67635492684E+00  0.49136031580E+01  0.35510189394E+02  0.10566000000E+00 0.  1.
         23    2    1    0    0    0  0.20588393823E+02 -0.18944017267E+02  0.11026636380E+02  0.94927679500E+02  0.90038435542E+02 0.  0.
         13    1    3    3    0    0  0.55750325436E+02 -0.19620372193E+02  0.61130332218E+01  0.59417490106E+02  0.10566000000E+00 0. -1.
         22    1    1    0    0    0 -0.20588393823E+02  0.18944017267E+02 -0.11026636380E+02  0.30072320500E+02  0.00000000000E+00 0. -1.
</event>
<event>
 5    1  0.9034713E-005  0.9118800E+02  0.7818608E-02  0.1130116E+00
         25   -1    0    0    0    0  0.00000000000E+00  0.00000000000E+00  0.99999998245E-14  0.12500000000E+03  0.12500000000E+03 0.  0.
        -13    1    3    3    0    0  0.15005980535E+02  0.92575556081E+01  0.38809528115E+02  0.42627132489E+02  0.10566000000E+00 0.  1.
         23    2    1    0    0    0 -0.18518182519E+02  0.23024375547E+02  0.37941460750E+00  0.95450229974E+02  0.90760991034E+02 0.  0.
         13    1    3    3    0    0 -0.33524163054E+02  0.13766819939E+02 -0.38430113508E+02  0.52823097485E+02  0.10566000000E+00 0. -1.
         22    1    1    0    0    0  0.18518182519E+02 -0.23024375547E+02 -0.37941460750E+00  0.29549770026E+02  0.00000000000E+00 0. -1.
</event>
<event>
 5    1  0.9034713E-005  0.9118800E+02  0.7818608E-02  0.1130116E+00
         25   -1    0    0    0    0  0.00000000000E+00  0.00000000000E+00  0.99999998245E-14  0.12500000000E+03  0.12500000000E+03 0.  0.
        -13    1    3    3    0    0  0.93518919870E+01  0.42295161491E+02 -0.32230041589E+02  0.53991900450E+02  0.10566000000E+00 0.  1.
         23    2    1    0    0    0  0.11017543446E+02  0.27262617596E+02  0.58973797832E+01  0.95009740413E+02  0.90152288398E+02 0.  0.
         13    1    3    3    0    0  0.16656514586E+01 -0.15032543895E+02  0.38127421372E+02  0.41017839964E+02  0.10566000000E+00 0. -1.
         22    1    1    0    0    0 -0.11017543446E+02 -0.27262617596E+02 -0.58973797832E+01  0.29990259587E+02  0.00000000000E+00 0. -1.
</event>
<event>
 5    1  0.9034713E-005  0.9118800E+02  0.7818608E-02  0.1130116E+00
         25   -1    0    0    0    0  0.00000000000E+00  0.00000000000E+00  0.99999998245E-14  0.12500000000E+03  0.12500000000E+03 0.  0.
        -13    1    3    3    0    0  0.89629770931E+01 -0.51308883015E+02 -0.28905753349E+02  0.59569204925E+02  0.10566000000E+00 0.  1.
         23    2    1    0    0    0  0.17765816913E+02 -0.23092594547E+02 -0.13876110950E+02  0.92728671726E+02  0.86931973010E+02 0.  0.
         13    1    3    3    0    0  0.88028398197E+01  0.28216288468E+02  0.15029642400E+02  0.33159466801E+02  0.10566000000E+00 0. -1.
         22    1    1    0    0    0 -0.17765816913E+02  0.23092594547E+02  0.13876110950E+02  0.32271328274E+02  0.00000000000E+00 0.  1.
</event>
<event>
 5    1  0.9034713E-005  0.9118800E+02  0.7818608E-02  0.1130116E+00
         25   -1    0    0    0    0  0.00000000000E+00  0.00000000000E+00  0.99999998245E-14  0.12500000000E+03  0.12500000000E+03 0.  0.
        -13    1    3    3    0    0  0.29751533033E+01  0.16614368009E+01  0.24954426178E+02  0.25186235513E+02  0.10566000000E+00 0.  1.
         23    2    1    0    0    0 -0.38106306697E+02  0.24971043525E+02 -0.16759370828E+01  0.79409952951E+02  0.65019137473E+02 0.  0.
         13    1    3    3    0    0 -0.41081460000E+02  0.23309606724E+02 -0.26630363260E+02  0.54223717438E+02  0.10566000000E+00 0. -1.
         22    1    1    0    0    0  0.38106306697E+02 -0.24971043525E+02  0.16759370828E+01  0.45590047049E+02  0.00000000000E+00 0. -1.
</event>
<event>
 5    1  0.9034713E-005  0.9118800E+02  0.7818608E-02  0.1130116E+00
         25   -1    0    0    0    0  0.00000000000E+00  0.00000000000E+00  0.99999998245E-14  0.12500000000E+03  0.12500000000E+03 0.  0.
        -13    1    3    3    0    0 -0.21997760154E+01 -0.44123304304E+02  0.11070700261E+02  0.45544226478E+02  0.10566000000E+00 0.  1.
         23    2    1    0    0    0 -0.24379706668E+02 -0.40398553292E+01 -0.12765598916E+02  0.97185416703E+02  0.93120106185E+02 0.  0.
         13    1    3    3    0    0 -0.22179930652E+02  0.40083448974E+02 -0.23836299177E+02  0.51641190225E+02  0.10566000000E+00 0. -1.
         22    1    1    0    0    0  0.24379706668E+02  0.40398553292E+01  0.12765598916E+02  0.27814583297E+02  0.00000000000E+00 0.  1.
</event>
<event>
 5    1  0.9034713E-005  0.9118800E+02  0.7818608E-02  0.1130116E+00
         25   -1    0    0    0    0  0.00000000000E+00  0.00000000000E+00  0.99999998245E-14  0.12500000000E+03  0.12500000000E+03 0.  0.
        -13    1    3    3    0    0  0.33458769865E+02  0.10159508048E+02  0.10788808216E+02  0.36593912491E+02  0.10566000000E+00 0.  1.
         23    2    1    0    0    0 -0.22645435577E+02  0.20510905824E+02  0.13833161291E+01  0.94415255866E+02  0.89324207058E+02 0.  0.
         13    1    3    3    0    0 -0.56104205442E+02  0.10351397776E+02 -0.94054920871E+01  0.57821343375E+02  0.10566000000E+00 0. -1.
         22    1    1    0    0    0  0.22645435577E+02 -0.20510905824E+02 -0.13833161291E+01  0.30584744134E+02  0.00000000000E+00 0. -1.
</event>
<event>
 5    1  0.9034713E-005  0.9118800E+02  0.7818608E-02  0.1130116E+00
         25   -1    0    0    0    0  0.00000000000E+00  0.00000000000E+00  0.99999998245E-14  0.12500000000E+03  0.12500000000E+03 0.  0.
        -13    1    3    3    0    0  0.20513631239E+02  0.20096923851E+02  0.54230680256E+02  0.61365081764E+02  0.10566000000E+00 0. -1.
         23    2    1    0    0    0  0.80777162739E+01  0.17567016972E+01  0.28514831649E+02  0.95311094244E+02  0.90569164515E+02 0.  0.
         13    1    3    3    0    0 -0.12435914965E+02 -0.18340222154E+02 -0.25715848607E+02  0.33946012480E+02  0.10566000000E+00 0.  1.
         22    1    1    0    0    0 -0.80777162739E+01 -0.17567016972E+01 -0.28514831649E+02  0.29688905756E+02  0.00000000000E+00 0. -1.
</event>
<event>
 5    1  0.9034713E-005  0.9118800E+02  0.7818608E-02  0.1130116E+00
         25   -1    0    0    0    0  0.00000000000E+00  0.00000000000E+00  0.99999998245E-14  0.12500000000E+03  0.12500000000E+03 0.  0.
        -13    1    3    3    0    0  0.47161677421E+02 -0.91885496831E+01  0.39725462605E+02  0.62344019807E+02  0.10566000000E+00 0. -1.
         23    2    1    0    0    0  0.20737069994E+02 -0.51729272808E+01  0.21429056701E+02  0.94734677935E+02  0.89770092368E+02 0.  0.
         13    1    3    3    0    0 -0.26424607427E+02  0.40156224024E+01 -0.18296405904E+02  0.32390658129E+02  0.10566000000E+00 0.  1.
         22    1    1    0    0    0 -0.20737069994E+02  0.51729272808E+01 -0.21429056701E+02  0.30265322065E+02  0.00000000000E+00 0. -1.
</event>
<event>
 5    1  0.9034713E-005  0.9118800E+02  0.7818608E-02  0.1130116E+00
         25   -1    0    0    0    0  0.00000000000E+00  0.00000000000E+00  0.99999998245E-14  0.12500000000E+03  0.12500000000E+03 0.  0.
        -13    1    3    3    0    0  0.46240284944E+02  0.12004934307E+02 -0.13956729144E+02  0.49770310948E+02  0.10566000000E+00 0.  1.
         23    2    1    0    0    0  0.32683990980E+01 -0.34820975888E+01 -0.27243480985E+02  0.97341101026E+02  0.93328855433E+02 0.  0.
         13    1    3    3    0    0 -0.42971885846E+02 -0.15487031896E+02 -0.13286751841E+02  0.47570790078E+02  0.10566000000E+00 0. -1.
         22    1    1    0    0    0 -0.32683990980E+01  0.34820975888E+01  0.27243480985E+02  0.27658898974E+02  0.00000000000E+00 0.  1.
</event>
<event>
 5    1  0.9034713E-005  0.9118800E+02  0.7818608E-02  0.1130116E+00
         25   -1    0    0    0    0  0.00000000000E+00  0.00000000000E+00  0.99999998245E-14  0.12500000000E+03  0.12500000000E+03 0.  0.
        -13    1    3    3    0    0  0.28696740864E+02 -0.36981133903E+02  0.11716837204E+02  0.48253524629E+02  0.10566000000E+00 0.  1.
         23    2    1    0    0    0  0.99789297650E+01  0.34784567335E+01  0.27495801876E+02  0.95543289028E+02  0.90889065663E+02 0.  0.
         13    1    3    3    0    0 -0.18717811099E+02  0.40459590637E+02  0.15778964671E+02  0.47289764399E+02  0.10566000000E+00 0. -1.
         22    1    1    0    0    0 -0.99789297650E+01 -0.34784567335E+01 -0.27495801876E+02  0.29456710972E+02  0.00000000000E+00 0.  1.
</event>
<event>
 5    1  0.9034713E-005  0.9118800E+02  0.7818608E-02  0.1130116E+00
         25   -1    0    0    0    0  0.00000000000E+00  0.00000000000E+00  0.99999998245E-14  0.12500000000E+03  0.12500000000E+03 0.  0.
        -13    1    3    3    0    0  0.44751154999E+01  0.12155356514E+02 -0.30737126252E+02  0.33355081247E+02  0.10566000000E+00 0.  1.
         23    2    1    0    0    0 -0.38557265638E+02 -0.57462849334E+01 -0.20010255170E+02  0.81181136072E+02  0.68339476278E+02 0.  0.
         13    1    3    3    0    0 -0.43032381138E+02 -0.17901641447E+02  0.10726871082E+02  0.47826054825E+02  0.10566000000E+00 0. -1.
         22    1    1    0    0    0  0.38557265638E+02  0.57462849334E+01  0.20010255170E+02  0.43818863928E+02  0.00000000000E+00 0. -1.
</event>
<event>
 5    1  0.9034713E-005  0.9118800E+02  0.7818608E-02  0.1130116E+00
         25   -1    0    0    0    0  0.00000000000E+00  0.00000000000E+00  0.99999998245E-14  0.12500000000E+03  0.12500000000E+03 0.  0.
        -13    1    3    3    0    0 -0.19275215245E+02  0.40151565682E+02  0.32809147908E+02  0.55318473406E+02  0.10566000000E+00 0.  1.
         23    2    1    0    0    0 -0.13682646717E+02  0.10941275001E+01  0.26335565041E+02  0.95301954236E+02  0.90556548957E+02 0.  0.
         13    1    3    3    0    0  0.55925685278E+01 -0.39057438182E+02 -0.64735828671E+01  0.39983480830E+02  0.10566000000E+00 0. -1.
         22    1    1    0    0    0  0.13682646717E+02 -0.10941275001E+01 -0.26335565041E+02  0.29698045764E+02  0.00000000000E+00 0.  1.
</event>
<event>
 5    1  0.9034713E-005  0.9118800E+02  0.7818608E-02  0.1130116E+00
         25   -1    0    0    0    0  0.00000000000E+00  0.00000000000E+00  0.99999998245E-14  0.12500000000E+03  0.12500000000E+03 0.  0.
        -13    1    3    3    0    0  0.86782377055E+00  0.99194122955E+00  0.33501877411E+02  0.33527958775E+02  0.10566000000E+00 0.  1.
         23    2    1    0    0    0  0.26433473507E+01  0.85325474200E+00 -0.28905759173E+02  0.95961090892E+02  0.91461864856E+02 0.  0.
         13    1    3    3    0    0  0.17755235802E+01 -0.13868648755E+00 -0.62407636584E+02  0.62433132117E+02  0.10566000000E+00 0. -1.
         22    1    1    0    0    0 -0.26433473507E+01 -0.85325474200E+00  0.28905759173E+02  0.29038909108E+02  0.00000000000E+00 0. -1.
</event>
<event>
 5    1  0.9034713E-005  0.9118800E+02  0.7818608E-02  0.1130116E+00
         25   -1    0    0    0    0  0.00000000000E+00  0.00000000000E+00  0.99999998245E-14  0.12500000000E+03  0.12500000000E+03 0.  0.
        -13    1    3    3    0    0  0.17099508588E+01 -0.53139182199E+01 -0.47675899924E+02  0.48001710973E+02  0.10566000000E+00 0.  1.
         23    2    1    0    0    0  0.27198239182E+02 -0.57727580266E+01 -0.64744841535E+01  0.96452007165E+02  0.92130352172E+02 0.  0.
         13    1    3    3    0    0  0.25488288323E+02 -0.45883980671E+00  0.41201415770E+02  0.48450296192E+02  0.10566000000E+00 0. -1.
         22    1    1    0    0    0 -0.27198239182E+02  0.57727580266E+01  0.64744841535E+01  0.28547992835E+02  0.00000000000E+00 0.  1.
</event>
<event>
 5    1  0.9034713E-005  0.9118800E+02  0.7818608E-02  0.1130116E+00
         25   -1    0    0    0    0  0.00000000000E+00  0.00000000000E+00  0.99999998245E-14  0.12500000000E+03  0.12500000000E+03 0.  0.
        -13    1    3    3    0    0  0.23470744408E+02 -0.46626551285E+02  0.17599109374E+02  0.55087665975E+02  0.10566000000E+00 0. -1.
         23    2    1    0    0    0  0.63691799909E+01 -0.27759141843E+02 -0.11966330262E+02  0.94107776552E+02  0.88892880131E+02 0.  0.
         13    1    3    3    0    0 -0.17101564417E+02  0.18867409441E+02 -0.29565439636E+02  0.39020110577E+02  0.10566000000E+00 0.  1.
         22    1    1    0    0    0 -0.63691799909E+01  0.27759141843E+02  0.11966330262E+02  0.30892223448E+02  0.00000000000E+00 0. -1.
</event>
<event>
 5    1  0.9034713E-005  0.9118800E+02  0.7818608E-02  0.1130116E+00
         25   -1    0    0    0    0  0.00000000000E+00  0.00000000000E+00  0.99999998245E-14  0.12500000000E+03  0.12500000000E+03 0.  0.
        -13    1    3    3    0    0 -0.94125542294E+01 -0.22901444943E+02 -0.42461324956E+02  0.49153307505E+02  0.10566000000E+00 0. -1.
         23    2    1    0    0    0 -0.28323116360E+02 -0.89024939921E+01 -0.29172059261E+01  0.95167745475E+02  0.90371103616E+02 0.  0.
         13    1    3    3    0    0 -0.18910562131E+02  0.13998950951E+02  0.39544119030E+02  0.46014437970E+02  0.10566000000E+00 0.  1.
         22    1    1    0    0    0  0.28323116360E+02  0.89024939921E+01  0.29172059261E+01  0.29832254525E+02  0.00000000000E+00 0.  1.
</event>
<event>
 5    1  0.9034713E-005  0.9118800E+02  0.7818608E-02  0.1130116E+00
         25   -1    0    0    0    0  0.00000000000E+00  0.00000000000E+00  0.99999998245E-14  0.12500000000E+03  0.12500000000E+03 0.  0.
        -13    1    3    3    0    0 -0.55161043561E+02 -0.81862792993E+01 -0.26246644694E+02  0.61633216833E+02  0.10566000000E+00 0.  1.
         23    2    1    0    0    0 -0.25300035238E+02 -0.10610804265E+02 -0.94309550574E+01  0.95989245727E+02  0.91500335692E+02 0.  0.
         13    1    3    3    0    0  0.29861008322E+02 -0.24245249661E+01  0.16815689637E+02  0.34356028894E+02  0.10566000000E+00 0. -1.
         22    1    1    0    0    0  0.25300035238E+02  0.10610804265E+02  0.94309550574E+01  0.29010754273E+02  0.00000000000E+00 0.  1.
</event>
<event>
 5    1  0.9034713E-005  0.9118800E+02  0.7818608E-02  0.1130116E+00
         25   -1    0    0    0    0  0.00000000000E+00  0.00000000000E+00  0.99999998245E-14  0.12500000000E+03  0.12500000000E+03 0.  0.
        -13    1    3    3    0    0 -0.33760518920E+02  0.39852838767E+02 -0.34155276973E+02  0.62406854629E+02  0.10566000000E+00 0. -1.
         23    2    1    0    0    0 -0.13816232968E+02  0.20011136972E+02 -0.15535210726E+02  0.96143862548E+02  0.91711316843E+02 0.  0.
         13    1    3    3    0    0  0.19944285952E+02 -0.19841701795E+02  0.18620066247E+02  0.33737007919E+02  0.10566000000E+00 0.  1.
         22    1    1    0    0    0  0.13816232968E+02 -0.20011136972E+02  0.15535210726E+02  0.28856137452E+02  0.00000000000E+00 0. -1.
</event>
<event>
 5    1  0.9034713E-005  0.9118800E+02  0.7818608E-02  0.1130116E+00
         25   -1    0    0    0    0  0.00000000000E+00  0.00000000000E+00  0.99999998245E-14  0.12500000000E+03  0.12500000000E+03 0.  0.
        -13    1    3    3    0    0 -0.36961186612E+01  0.38264005443E+02 -0.64611512549E+01  0.38981444885E+02  0.10566000000E+00 0.  1.
         23    2    1    0    0    0 -0.18203590865E+02 -0.10909372893E+02  0.19260412215E+02  0.96340819691E+02  0.91979372267E+02 0.  0.
         13    1    3    3    0    0 -0.14507472204E+02 -0.49173378337E+02  0.25721563470E+02  0.57359374806E+02  0.10566000000E+00 0. -1.
         22    1    1    0    0    0  0.18203590865E+02  0.10909372893E+02 -0.19260412215E+02  0.28659180309E+02  0.00000000000E+00 0. -1.
</event>
<event>
 5    1  0.9034713E-005  0.9118800E+02  0.7818608E-02  0.1130116E+00
         25   -1    0    0    0    0  0.00000000000E+00  0.00000000000E+00  0.99999998245E-14  0.12500000000E+03  0.12500000000E+03 0.  0.
        -13    1    3    3    0    0  0.41602995581E+02  0.30034745131E+02  0.31787716627E+02  0.60360295301E+02  0.10566000000E+00 0.  1.
         23    2    1    0    0    0  0.11552059956E+02  0.22475620499E+02  0.15250558163E+02  0.95484188469E+02  0.90807748113E+02 0.  0.
         13    1    3    3    0    0 -0.30050935626E+02 -0.75591246321E+01 -0.16537158464E+02  0.35123893168E+02  0.10566000000E+00 0. -1.
         22    1    1    0    0    0 -0.11552059956E+02 -0.22475620499E+02 -0.15250558163E+02  0.29515811531E+02  0.00000000000E+00 0.  1.
</event>
<event>
 5    1  0.9034713E-005  0.9118800E+02  0.7818608E-02  0.1130116E+00
         25   -1    0    0    0    0  0.00000000000E+00  0.00000000000E+00  0.99999998245E-14  0.12500000000E+03  0.12500000000E+03 0.  0.
        -13    1    3    3    0    0  0.36057660552E+02  0.26524159369E+02  0.43513488682E+02  0.62426923487E+02  0.10566000000E+00 0.  1.
         23    2    1    0    0    0  0.16640711198E+02  0.11995737959E+02  0.17006552630E+02  0.98353539996E+02  0.94675155131E+02 0.  0.
         13    1    3    3    0    0 -0.19416949354E+02 -0.14528421410E+02 -0.26506936052E+02  0.35926616509E+02  0.10566000000E+00 0. -1.
         22    1    1    0    0    0 -0.16640711198E+02 -0.11995737959E+02 -0.17006552630E+02  0.26646460004E+02  0.00000000000E+00 0.  1.
</event>
<event>
 5    1  0.9034713E-005  0.9118800E+02  0.7818608E-02  0.1130116E+00
         25   -1    0    0    0    0  0.00000000000E+00  0.00000000000E+00  0.99999998245E-14  0.12500000000E+03  0.12500000000E+03 0.  0.
        -13    1    3    3    0    0  0.15300688815E+02 -0.33108545723E+02  0.11859740112E+02  0.38352985251E+02  0.10566000000E+00 0. -1.
         23    2    1    0    0    0  0.19129849277E+02  0.21730619297E+02 -0.44834254959E+01  0.95703719476E+02  0.91109438967E+02 0.  0.
         13    1    3    3    0    0  0.38291604621E+01  0.54839165020E+02 -0.16343165608E+02  0.57350734224E+02  0.10566000000E+00 0.  1.
         22    1    1    0    0    0 -0.19129849277E+02 -0.21730619297E+02  0.44834254959E+01  0.29296280524E+02  0.00000000000E+00 0.  1.
</event>
<event>
 5    1  0.9034713E-005  0.9118800E+02  0.7818608E-02  0.1130116E+00
         25   -1    0    0    0    0  0.00000000000E+00  0.00000000000E+00  0.99999998245E-14  0.12500000000E+03  0.12500000000E+03 0.  0.
        -13    1    3    3    0    0  0.70982060424E+01 -0.53875589831E+02  0.12067609895E+02  0.55665088532E+02  0.10566000000E+00 0. -1.
         23    2    1    0    0    0 -0.45486962036E+01 -0.16717583555E+02  0.23087258794E+02  0.96134973486E+02  0.91699200495E+02 0.  0.
         13    1    3    3    0    0 -0.11646902246E+02  0.37158006276E+02  0.11019648898E+02  0.40469884954E+02  0.10566000000E+00 0.  1.
         22    1    1    0    0    0  0.45486962036E+01  0.16717583555E+02 -0.23087258794E+02  0.28865026514E+02  0.00000000000E+00 0. -1.
</event>
<event>
 5    1  0.9034713E-005  0.9118800E+02  0.7818608E-02  0.1130116E+00
         25   -1    0    0    0    0  0.00000000000E+00  0.00000000000E+00  0.99999998245E-14  0.12500000000E+03  0.12500000000E+03 0.  0.
        -13    1    3    3    0    0  0.15241746355E+02 -0.21283166363E+02 -0.21905945497E+01  0.26269637815E+02  0.10566000000E+00 0. -1.
         23    2    1    0    0    0 -0.12074011888E+02  0.78213495581E+01  0.38881639043E+02  0.83542345379E+02  0.72529899661E+02 0.  0.
         13    1    3    3    0    0 -0.27315758243E+02  0.29104515922E+02  0.41072233593E+02  0.57272707564E+02  0.10566000000E+00 0.  1.
         22    1    1    0    0    0  0.12074011888E+02 -0.78213495581E+01 -0.38881639043E+02  0.41457654621E+02  0.00000000000E+00 0.  1.
</event>
<event>
 5    1  0.9034713E-005  0.9118800E+02  0.7818608E-02  0.1130116E+00
         25   -1    0    0    0    0  0.00000000000E+00  0.00000000000E+00  0.99999998245E-14  0.12500000000E+03  0.12500000000E+03 0.  0.
        -13    1    3    3    0    0  0.20396223209E+02  0.59040363001E+00 -0.48911305480E+02  0.52996994872E+02  0.10566000000E+00 0.  1.
         23    2    1    0    0    0 -0.54825089444E+01  0.19777557125E+02 -0.21225817648E+02  0.95474671805E+02  0.90794647151E+02 0.  0.
         13    1    3    3    0    0 -0.25878732153E+02  0.19187153495E+02  0.27685487832E+02  0.42477676933E+02  0.10566000000E+00 0. -1.
         22    1    1    0    0    0  0.54825089444E+01 -0.19777557125E+02  0.21225817648E+02  0.29525328195E+02  0.00000000000E+00 0.  1.
</event>
<event>
 5    1  0.9034713E-005  0.9118800E+02  0.7818608E-02  0.1130116E+00
         25   -1    0    0    0    0  0.00000000000E+00  0.00000000000E+00  0.99999998245E-14  0.12500000000E+03  0.12500000000E+03 0.  0.
        -13    1    3    3    0    0  0.17867604556E+02 -0.34280136574E+02 -0.17914634377E+02  0.42606623252E+02  0.10566000000E+00 0. -1.
         23    2    1    0    0    0  0.17071005310E+02 -0.43773635811E+00  0.23408111828E+02  0.96025001557E+02  0.91549169244E+02 0.  0.
         13    1    3    3    0    0 -0.79659924550E+00  0.33842400216E+02  0.41322746205E+02  0.53418378304E+02  0.10566000000E+00 0.  1.
         22    1    1    0    0    0 -0.17071005310E+02  0.43773635811E+00 -0.23408111828E+02  0.28974998443E+02  0.00000000000E+00 0.  1.
</event>
<event>
 5    1  0.9034713E-005  0.9118800E+02  0.7818608E-02  0.1130116E+00
         25   -1    0    0    0    0  0.00000000000E+00  0.00000000000E+00  0.99999998245E-14  0.12500000000E+03  0.12500000000E+03 0.  0.
        -13    1    3    3    0    0 -0.34378210784E+02 -0.40677849250E+02 -0.12835030202E+02  0.54784103174E+02  0.10566000000E+00 0.  1.
         23    2    1    0    0    0 -0.21684347526E+00 -0.20678043691E+02 -0.21352331874E+02  0.95275421140E+02  0.90519916510E+02 0.  0.
         13    1    3    3    0    0  0.34161367308E+02  0.19999805559E+02 -0.85173016711E+01  0.40491317965E+02  0.10566000000E+00 0. -1.
         22    1    1    0    0    0  0.21684347526E+00  0.20678043691E+02  0.21352331874E+02  0.29724578860E+02  0.00000000000E+00 0.  1.
</event>
<event>
 5    1  0.9034713E-005  0.9118800E+02  0.7818608E-02  0.1130116E+00
         25   -1    0    0    0    0  0.00000000000E+00  0.00000000000E+00  0.99999998245E-14  0.12500000000E+03  0.12500000000E+03 0.  0.
        -13    1    3    3    0    0 -0.75140748934E+01 -0.53710565693E+02 -0.10705557314E+02  0.55280252442E+02  0.10566000000E+00 0.  1.
         23    2    1    0    0    0 -0.23314790382E+02 -0.19790131457E+02  0.73316023865E+00  0.94409702885E+02  0.89316435896E+02 0.  0.
         13    1    3    3    0    0 -0.15800715489E+02  0.33920434236E+02  0.11438717553E+02  0.39129450443E+02  0.10566000000E+00 0. -1.
         22    1    1    0    0    0  0.23314790382E+02  0.19790131457E+02 -0.73316023865E+00  0.30590297115E+02  0.00000000000E+00 0.  1.
</event>
<event>
 5    1  0.9034713E-005  0.9118800E+02  0.7818608E-02  0.1130116E+00
         25   -1    0    0    0    0  0.00000000000E+00  0.00000000000E+00  0.99999998245E-14  0.12500000000E+03  0.12500000000E+03 0.  0.
        -13    1    3    3    0    0  0.22392761110E+02 -0.96512207201E+00  0.23578365083E+02  0.32531794828E+02  0.10566000000E+00 0. -1.
         23    2    1    0    0    0 -0.23955805024E+02 -0.11531487940E+02 -0.15635655365E+02  0.94156369748E+02  0.88961185002E+02 0.  0.
         13    1    3    3    0    0 -0.46348566134E+02 -0.10566365868E+02 -0.39214020448E+02  0.61624574920E+02  0.10566000000E+00 0.  1.
         22    1    1    0    0    0  0.23955805024E+02  0.11531487940E+02  0.15635655365E+02  0.30843630252E+02  0.00000000000E+00 0.  1.
</event>
<event>
 5    1  0.9034713E-005  0.9118800E+02  0.7818608E-02  0.1130116E+00
         25   -1    0    0    0    0  0.00000000000E+00  0.00000000000E+00  0.99999998245E-14  0.12500000000E+03  0.12500000000E+03 0.  0.
        -13    1    3    3    0    0  0.22881969983E+02 -0.29036584616E+02  0.21288543577E+02  0.42660532676E+02  0.10566000000E+00 0. -1.
         23    2    1    0    0    0  0.23176068695E+02  0.10240684122E+02 -0.14507141287E+02  0.95803100854E+02  0.91245685999E+02 0.  0.
         13    1    3    3    0    0  0.29409871188E+00  0.39277268738E+02 -0.35795684864E+02  0.53142568178E+02  0.10566000000E+00 0.  1.
         22    1    1    0    0    0 -0.23176068695E+02 -0.10240684122E+02  0.14507141287E+02  0.29196899146E+02  0.00000000000E+00 0.  1.
</event>
<event>
 5    1  0.9034713E-005  0.9118800E+02  0.7818608E-02  0.1130116E+00
         25   -1    0    0    0    0  0.00000000000E+00  0.00000000000E+00  0.99999998245E-14  0.12500000000E+03  0.12500000000E+03 0.  0.
        -13    1    3    3    0    0  0.23338044391E+02  0.52481488368E+01 -0.24474163140E+02  0.34222846282E+02  0.10566000000E+00 0.  1.
         23    2    1    0    0    0 -0.91944824443E+01 -0.22451812684E+01  0.27456077935E+02  0.95958382243E+02  0.91458162899E+02 0.  0.
         13    1    3    3    0    0 -0.32532526835E+02 -0.74933301052E+01  0.51930241075E+02  0.61735535962E+02  0.10566000000E+00 0. -1.
         22    1    1    0    0    0  0.91944824443E+01  0.22451812684E+01 -0.27456077935E+02  0.29041617757E+02  0.00000000000E+00 0. -1.
</event>
<event>
 5    1  0.9034713E-005  0.9118800E+02  0.7818608E-02  0.1130116E+00
         25   -1    0    0    0    0  0.00000000000E+00  0.00000000000E+00  0.99999998245E-14  0.12500000000E+03  0.12500000000E+03 0.  0.
        -13    1    3    3    0    0  0.26658207884E+02 -0.47089215068E+02  0.46500652950E+01  0.54311034740E+02  0.10566000000E+00 0. -1.
         23    2    1    0    0    0  0.30049880968E+02 -0.87622538314E+01 -0.30486617377E+01  0.93550567942E+02  0.88105856703E+02 0.  0.
         13    1    3    3    0    0  0.33916730836E+01  0.38326961236E+02 -0.76987270326E+01  0.39239533201E+02  0.10566000000E+00 0.  1.
         22    1    1    0    0    0 -0.30049880968E+02  0.87622538314E+01  0.30486617377E+01  0.31449432058E+02  0.00000000000E+00 0. -1.
</event>
<event>
 5    1  0.9034713E-005  0.9118800E+02  0.7818608E-02  0.1130116E+00
         25   -1    0    0    0    0  0.00000000000E+00  0.00000000000E+00  0.99999998245E-14  0.12500000000E+03  0.12500000000E+03 0.  0.
        -13    1    3    3    0    0 -0.31138082506E+02  0.36346829942E+02  0.16923229497E+02  0.50764939571E+02  0.10566000000E+00 0.  1.
         23    2    1    0    0    0 -0.28850859495E+01  0.23317598560E+02 -0.16393967221E+02  0.96350457512E+02  0.91992469137E+02 0.  0.
         13    1    3    3    0    0  0.28252996556E+02 -0.13029231381E+02 -0.33317196718E+02  0.45585517941E+02  0.10566000000E+00 0. -1.
         22    1    1    0    0    0  0.28850859495E+01 -0.23317598560E+02  0.16393967221E+02  0.28649542488E+02  0.00000000000E+00 0.  1.
</event>
<event>
 5    1  0.9034713E-005  0.9118800E+02  0.7818608E-02  0.1130116E+00
         25   -1    0    0    0    0  0.00000000000E+00  0.00000000000E+00  0.99999998245E-14  0.12500000000E+03  0.12500000000E+03 0.  0.
        -13    1    3    3    0    0  0.35273483148E+02 -0.26343028472E+02 -0.31363069043E+02  0.54053927020E+02  0.10566000000E+00 0. -1.
         23    2    1    0    0    0  0.23341996652E+02 -0.12589761457E+02  0.78951520082E+01  0.97328998455E+02  0.93312644448E+02 0.  0.
         13    1    3    3    0    0 -0.11931486496E+02  0.13753267015E+02  0.39258221051E+02  0.43275071435E+02  0.10566000000E+00 0.  1.
         22    1    1    0    0    0 -0.23341996652E+02  0.12589761457E+02 -0.78951520082E+01  0.27671001545E+02  0.00000000000E+00 0. -1.
</event>
<event>
 5    1  0.9034713E-005  0.9118800E+02  0.7818608E-02  0.1130116E+00
         25   -1    0    0    0    0  0.00000000000E+00  0.00000000000E+00  0.99999998245E-14  0.12500000000E+03  0.12500000000E+03 0.  0.
        -13    1    3    3    0    0  0.36231568166E+02 -0.14321093876E+01 -0.39764238780E+02  0.53814341200E+02  0.10566000000E+00 0.  1.
         23    2    1    0    0    0  0.11535112707E+02 -0.23102427606E+02 -0.13600559517E+02  0.95815137389E+02  0.91262173693E+02 0.  0.
         13    1    3    3    0    0 -0.24696455458E+02 -0.21670318218E+02  0.26163679263E+02  0.42000796189E+02  0.10566000000E+00 0. -1.
         22    1    1    0    0    0 -0.11535112707E+02  0.23102427606E+02  0.13600559517E+02  0.29184862611E+02  0.00000000000E+00 0.  1.
</event>
<event>
 5    1  0.9034713E-005  0.9118800E+02  0.7818608E-02  0.1130116E+00
         25   -1    0    0    0    0  0.00000000000E+00  0.00000000000E+00  0.99999998245E-14  0.12500000000E+03  0.12500000000E+03 0.  0.
        -13    1    3    3    0    0 -0.21062395559E+02 -0.26541658371E+00  0.28188691038E+02  0.35189606691E+02  0.10566000000E+00 0.  1.
         23    2    1    0    0    0 -0.14724272074E+02 -0.15727647660E+02 -0.25615280255E+02  0.91529032408E+02  0.85189542210E+02 0.  0.
         13    1    3    3    0    0  0.63381234845E+01 -0.15462231076E+02 -0.53803971293E+02  0.56339425716E+02  0.10566000000E+00 0. -1.
         22    1    1    0    0    0  0.14724272074E+02  0.15727647660E+02  0.25615280255E+02  0.33470967592E+02  0.00000000000E+00 0.  1.
</event>
<event>
 5    1  0.9034713E-005  0.9118800E+02  0.7818608E-02  0.1130116E+00
         25   -1    0    0    0    0  0.00000000000E+00  0.00000000000E+00  0.99999998245E-14  0.12500000000E+03  0.12500000000E+03 0.  0.
        -13    1    3    3    0    0 -0.80393740255E+01  0.38814941168E+02  0.16606178172E+02  0.42976825268E+02  0.10566000000E+00 0. -1.
         23    2    1    0    0    0 -0.25887774898E+02 -0.97804932734E+00 -0.13320508141E+02  0.95869785328E+02  0.91336993229E+02 0.  0.
         13    1    3    3    0    0 -0.17848400873E+02 -0.39792990495E+02 -0.29926686313E+02  0.52892960061E+02  0.10566000000E+00 0.  1.
         22    1    1    0    0    0  0.25887774898E+02  0.97804932734E+00  0.13320508141E+02  0.29130214672E+02  0.00000000000E+00 0. -1.
</event>
<event>
 5    1  0.9034713E-005  0.9118800E+02  0.7818608E-02  0.1130116E+00
         25   -1    0    0    0    0  0.00000000000E+00  0.00000000000E+00  0.99999998245E-14  0.12500000000E+03  0.12500000000E+03 0.  0.
        -13    1    3    3    0    0 -0.71892657668E+01  0.41140829481E+02  0.45719316035E+02  0.61923504547E+02  0.10566000000E+00 0. -1.
         23    2    1    0    0    0 -0.76109548515E+01  0.15289644680E+02  0.23069800639E+02  0.96296070483E+02  0.91918537960E+02 0.  0.
         13    1    3    3    0    0 -0.42168908468E+00 -0.25851184801E+02 -0.22649515396E+02  0.34372565936E+02  0.10566000000E+00 0.  1.
         22    1    1    0    0    0  0.76109548515E+01 -0.15289644680E+02 -0.23069800639E+02  0.28703929517E+02  0.00000000000E+00 0. -1.
</event>
<event>
 5    1  0.9034713E-005  0.9118800E+02  0.7818608E-02  0.1130116E+00
         25   -1    0    0    0    0  0.00000000000E+00  0.00000000000E+00  0.99999998245E-14  0.12500000000E+03  0.12500000000E+03 0.  0.
        -13    1    3    3    0    0  0.14817291791E+02 -0.73313806959E+01 -0.31395126949E+02  0.35481917071E+02  0.10566000000E+00 0. -1.
         23    2    1    0    0    0 -0.28465023192E+02 -0.29019678155E+01  0.91563545614E+01  0.94958066118E+02  0.90080611285E+02 0.  0.
         13    1    3    3    0    0 -0.43282314983E+02  0.44294128804E+01  0.40551481510E+02  0.59476149046E+02  0.10566000000E+00 0.  1.
         22    1    1    0    0    0  0.28465023192E+02  0.29019678155E+01 -0.91563545614E+01  0.30041933882E+02  0.00000000000E+00 0.  1.
</event>
<event>
 5    1  0.9034713E-005  0.9118800E+02  0.7818608E-02  0.1130116E+00
         25   -1    0    0    0    0  0.00000000000E+00  0.00000000000E+00  0.99999998245E-14  0.12500000000E+03  0.12500000000E+03 0.  0.
        -13    1    3    3    0    0 -0.42741245488E+02  0.35322166221E+02  0.20859548190E+02  0.59241888956E+02  0.10566000000E+00 0.  1.
         23    2    1    0    0    0 -0.26698866472E+02  0.37948666721E+01  0.98579038381E+01  0.96287480918E+02  0.91906856270E+02 0.  0.
         13    1    3    3    0    0  0.16042379016E+02 -0.31527299548E+02 -0.11001644352E+02  0.37045591962E+02  0.10566000000E+00 0. -1.
         22    1    1    0    0    0  0.26698866472E+02 -0.37948666721E+01 -0.98579038381E+01  0.28712519082E+02  0.00000000000E+00 0.  1.
</event>
<event>
 5    1  0.9034713E-005  0.9118800E+02  0.7818608E-02  0.1130116E+00
         25   -1    0    0    0    0  0.00000000000E+00  0.00000000000E+00  0.99999998245E-14  0.12500000000E+03  0.12500000000E+03 0.  0.
        -13    1    3    3    0    0  0.16446542169E+02 -0.43371300403E+02 -0.35392300270E+02  0.58345389967E+02  0.10566000000E+00 0.  1.
         23    2    1    0    0    0  0.20648358149E+02 -0.11071173269E+02 -0.19136298830E+02  0.94748991674E+02  0.89790021264E+02 0.  0.
         13    1    3    3    0    0  0.42018159804E+01  0.32300127134E+02  0.16256001439E+02  0.36403601707E+02  0.10566000000E+00 0. -1.
         22    1    1    0    0    0 -0.20648358149E+02  0.11071173269E+02  0.19136298830E+02  0.30251008326E+02  0.00000000000E+00 0. -1.
</event>
<event>
 5    1  0.9034713E-005  0.9118800E+02  0.7818608E-02  0.1130116E+00
         25   -1    0    0    0    0  0.00000000000E+00  0.00000000000E+00  0.99999998245E-14  0.12500000000E+03  0.12500000000E+03 0.  0.
        -13    1    3    3    0    0  0.17540666005E+02  0.26997869227E+02 -0.20071629167E+02  0.37939970587E+02  0.10566000000E+00 0.  1.
         23    2    1    0    0    0  0.12651495804E+02 -0.71371269617E+01  0.25838593814E+02  0.95358275057E+02  0.90634258226E+02 0.  0.
         13    1    3    3    0    0 -0.48891702007E+01 -0.34134996188E+02  0.45910222981E+02  0.57418304470E+02  0.10566000000E+00 0. -1.
         22    1    1    0    0    0 -0.12651495804E+02  0.71371269617E+01 -0.25838593814E+02  0.29641724943E+02  0.00000000000E+00 0. -1.
</event>
<event>
 5    1  0.9034713E-005  0.9118800E+02  0.7818608E-02  0.1130116E+00
         25   -1    0    0    0    0  0.00000000000E+00  0.00000000000E+00  0.99999998245E-14  0.12500000000E+03  0.12500000000E+03 0.  0.
        -13    1    3    3    0    0 -0.13741319961E+02  0.23719660707E+02  0.32302176758E+02  0.42366118133E+02  0.10566000000E+00 0.  1.
         23    2    1    0    0    0 -0.12636673129E+02 -0.24550242715E+02  0.91576576128E+01  0.95909406708E+02  0.91391201311E+02 0.  0.
         13    1    3    3    0    0  0.11046468316E+01 -0.48269903422E+02 -0.23144519145E+02  0.53543288575E+02  0.10566000000E+00 0. -1.
         22    1    1    0    0    0  0.12636673129E+02  0.24550242715E+02 -0.91576576128E+01  0.29090593292E+02  0.00000000000E+00 0. -1.
</event>
<event>
 5    1  0.9034713E-005  0.9118800E+02  0.7818608E-02  0.1130116E+00
         25   -1    0    0    0    0  0.00000000000E+00  0.00000000000E+00  0.99999998245E-14  0.12500000000E+03  0.12500000000E+03 0.  0.
        -13    1    3    3    0    0 -0.12188035475E+02 -0.14708680994E+02 -0.52221261494E+02  0.55605438775E+02  0.10566000000E+00 0. -1.
         23    2    1    0    0    0  0.39691169748E+01 -0.24552047031E+02 -0.19526847163E+02  0.93379521460E+02  0.87862849744E+02 0.  0.
         13    1    3    3    0    0  0.16157152450E+02 -0.98433660371E+01  0.32694414331E+02  0.37774082685E+02  0.10566000000E+00 0.  1.
         22    1    1    0    0    0 -0.39691169748E+01  0.24552047031E+02  0.19526847163E+02  0.31620478540E+02  0.00000000000E+00 0. -1.
</event>
<event>
 5    1  0.9034713E-005  0.9118800E+02  0.7818608E-02  0.1130116E+00
         25   -1    0    0    0    0  0.00000000000E+00  0.00000000000E+00  0.99999998245E-14  0.12500000000E+03  0.12500000000E+03 0.  0.
        -13    1    3    3    0    0 -0.16606434280E+02  0.14032657816E+02 -0.19100453162E+02  0.28940069452E+02  0.10566000000E+00 0. -1.
         23    2    1    0    0    0  0.46131673346E+01 -0.11938045566E+02  0.32267609430E+02  0.90286935268E+02  0.83347068436E+02 0.  0.
         13    1    3    3    0    0  0.21219601615E+02 -0.25970703381E+02  0.51368062592E+02  0.61346865815E+02  0.10566000000E+00 0.  1.
         22    1    1    0    0    0 -0.46131673346E+01  0.11938045566E+02 -0.32267609430E+02  0.34713064732E+02  0.00000000000E+00 0.  1.
</event>
<event>
 5    1  0.9034713E-005  0.9118800E+02  0.7818608E-02  0.1130116E+00
         25   -1    0    0    0    0  0.00000000000E+00  0.00000000000E+00  0.99999998245E-14  0.12500000000E+03  0.12500000000E+03 0.  0.
        -13    1    3    3    0    0 -0.28703883406E+01  0.43826835560E+02  0.43828640775E+02  0.62048300224E+02  0.10566000000E+00 0. -1.
         23    2    1    0    0    0 -0.43328243218E+01  0.23055250846E+02  0.16906236733E+02  0.96083935284E+02  0.91629601227E+02 0.  0.
         13    1    3    3    0    0 -0.14624359812E+01 -0.20771584714E+02 -0.26922404042E+02  0.34035635060E+02  0.10566000000E+00 0.  1.
         22    1    1    0    0    0  0.43328243218E+01 -0.23055250846E+02 -0.16906236733E+02  0.28916064716E+02  0.00000000000E+00 0. -1.
</event>
<event>
 5    1  0.9034713E-005  0.9118800E+02  0.7818608E-02  0.1130116E+00
         25   -1    0    0    0    0  0.00000000000E+00  0.00000000000E+00  0.99999998245E-14  0.12500000000E+03  0.12500000000E+03 0.  0.
        -13    1    3    3    0    0  0.66626843510E+01  0.37001122503E+02  0.49511830909E+02  0.62168376151E+02  0.10566000000E+00 0. -1.
         23    2    1    0    0    0  0.51754024940E+01  0.20451795907E+02  0.20605596550E+02  0.95510148254E+02  0.90843475625E+02 0.  0.
         13    1    3    3    0    0 -0.14872818570E+01 -0.16549326596E+02 -0.28906234359E+02  0.33341772103E+02  0.10566000000E+00 0.  1.
         22    1    1    0    0    0 -0.51754024940E+01 -0.20451795907E+02 -0.20605596550E+02  0.29489851746E+02  0.00000000000E+00 0. -1.
</event>
<event>
 5    1  0.9034713E-005  0.9118800E+02  0.7818608E-02  0.1130116E+00
         25   -1    0    0    0    0  0.00000000000E+00  0.00000000000E+00  0.99999998245E-14  0.12500000000E+03  0.12500000000E+03 0.  0.
        -13    1    3    3    0    0 -0.51215659839E+01 -0.46497171441E+02  0.24951179423E+02  0.53016883243E+02  0.10566000000E+00 0. -1.
         23    2    1    0    0    0 -0.14774150295E+02 -0.25585257273E+02 -0.90639627591E+01  0.94096337958E+02  0.88876793876E+02 0.  0.
         13    1    3    3    0    0 -0.96525843109E+01  0.20911914167E+02 -0.34015142182E+02  0.41079454716E+02  0.10566000000E+00 0.  1.
         22    1    1    0    0    0  0.14774150295E+02  0.25585257273E+02  0.90639627591E+01  0.30903662042E+02  0.00000000000E+00 0. -1.
</event>
<event>
 5    1  0.9034713E-005  0.9118800E+02  0.7818608E-02  0.1130116E+00
         25   -1    0    0    0    0  0.00000000000E+00  0.00000000000E+00  0.99999998245E-14  0.12500000000E+03  0.12500000000E+03 0.  0.
        -13    1    3    3    0    0  0.89163878461E+01 -0.41414528887E+01  0.44388012868E+02  0.45463836779E+02  0.10566000000E+00 0.  1.
         23    2    1    0    0    0  0.84270276343E+01  0.18889008499E+02 -0.81020125711E+01  0.10278621949E+03  0.10035713663E+03 0.  0.
         13    1    3    3    0    0 -0.48936021183E+00  0.23030461387E+02 -0.52490025439E+02  0.57322382712E+02  0.10566000000E+00 0. -1.
         22    1    1    0    0    0 -0.84270276343E+01 -0.18889008499E+02  0.81020125711E+01  0.22213780509E+02  0.00000000000E+00 0. -1.
</event>
<event>
 5    1  0.9034713E-005  0.9118800E+02  0.7818608E-02  0.1130116E+00
         25   -1    0    0    0    0  0.00000000000E+00  0.00000000000E+00  0.99999998245E-14  0.12500000000E+03  0.12500000000E+03 0.  0.
        -13    1    3    3    0    0  0.35745378670E+02 -0.31755400633E+02  0.34985714251E+02  0.59246509866E+02  0.10566000000E+00 0. -1.
         23    2    1    0    0    0  0.22668028495E+02 -0.16282536003E+02  0.32443666394E+01  0.96902199206E+02  0.92739149239E+02 0.  0.
         13    1    3    3    0    0 -0.13077350174E+02  0.15472864630E+02 -0.31741347611E+02  0.37655689340E+02  0.10566000000E+00 0.  1.
         22    1    1    0    0    0 -0.22668028495E+02  0.16282536003E+02 -0.32443666394E+01  0.28097800794E+02  0.00000000000E+00 0. -1.
</event>
<event>
 5    1  0.9034713E-005  0.9118800E+02  0.7818608E-02  0.1130116E+00
         25   -1    0    0    0    0  0.00000000000E+00  0.00000000000E+00  0.99999998245E-14  0.12500000000E+03  0.12500000000E+03 0.  0.
        -13    1    3    3    0    0  0.43458928955E+02 -0.23340379084E+02 -0.16852207551E+02  0.52129261122E+02  0.10566000000E+00 0.  1.
         23    2    1    0    0    0 -0.72719260118E+00 -0.22550282855E+02 -0.17688884685E+02  0.96330491680E+02  0.91965335426E+02 0.  0.
         13    1    3    3    0    0 -0.44186121556E+02  0.79009622883E+00 -0.83667713355E+00  0.44201230559E+02  0.10566000000E+00 0. -1.
         22    1    1    0    0    0  0.72719260118E+00  0.22550282855E+02  0.17688884685E+02  0.28669508320E+02  0.00000000000E+00 0.  1.
</event>
<event>
 5    1  0.9034713E-005  0.9118800E+02  0.7818608E-02  0.1130116E+00
         25   -1    0    0    0    0  0.00000000000E+00  0.00000000000E+00  0.99999998245E-14  0.12500000000E+03  0.12500000000E+03 0.  0.
        -13    1    3    3    0    0 -0.53629288246E+02  0.19938427157E+02 -0.15107422687E+02  0.59176742218E+02  0.10566000000E+00 0.  1.
         23    2    1    0    0    0 -0.28243305414E+02  0.12142382872E+02  0.66952991368E+01  0.93536548297E+02  0.88085964116E+02 0.  0.
         13    1    3    3    0    0  0.25385982832E+02 -0.77960442843E+01  0.21802721824E+02  0.34359806079E+02  0.10566000000E+00 0. -1.
         22    1    1    0    0    0  0.28243305414E+02 -0.12142382872E+02 -0.66952991368E+01  0.31463451703E+02  0.00000000000E+00 0.  1.
</event>
<event>
 5    1  0.9034713E-005  0.9118800E+02  0.7818608E-02  0.1130116E+00
         25   -1    0    0    0    0  0.00000000000E+00  0.00000000000E+00  0.99999998245E-14  0.12500000000E+03  0.12500000000E+03 0.  0.
        -13    1    3    3    0    0 -0.53409814305E+02 -0.10223318893E+02  0.51701020372E+01  0.54624771235E+02  0.10566000000E+00 0.  1.
         23    2    1    0    0    0 -0.17284978643E+02 -0.22400593516E+02 -0.90209531126E+01  0.95302615071E+02  0.90557461138E+02 0.  0.
         13    1    3    3    0    0  0.36124835662E+02 -0.12177274623E+02 -0.14191055150E+02  0.40677843836E+02  0.10566000000E+00 0. -1.
         22    1    1    0    0    0  0.17284978643E+02  0.22400593516E+02  0.90209531126E+01  0.29697384929E+02  0.00000000000E+00 0.  1.
</event>
<event>
 5    1  0.9034713E-005  0.9118800E+02  0.7818608E-02  0.1130116E+00
         25   -1    0    0    0    0  0.00000000000E+00  0.00000000000E+00  0.99999998245E-14  0.12500000000E+03  0.12500000000E+03 0.  0.
        -13    1    3    3    0    0 -0.36578716856E+02  0.22894098608E+02  0.18182424513E+01  0.43190964883E+02  0.10566000000E+00 0.  1.
         23    2    1    0    0    0  0.83758894281E+01  0.17382007827E+02  0.24475674789E+02  0.93833537637E+02  0.88506408860E+02 0.  0.
         13    1    3    3    0    0  0.44954606284E+02 -0.55120907804E+01  0.22657432338E+02  0.50642572754E+02  0.10566000000E+00 0. -1.
         22    1    1    0    0    0 -0.83758894281E+01 -0.17382007827E+02 -0.24475674789E+02  0.31166462363E+02  0.00000000000E+00 0. -1.
</event>
<event>
 5    1  0.9034713E-005  0.9118800E+02  0.7818608E-02  0.1130116E+00
         25   -1    0    0    0    0  0.00000000000E+00  0.00000000000E+00  0.99999998245E-14  0.12500000000E+03  0.12500000000E+03 0.  0.
        -13    1    3    3    0    0  0.53326451344E+01 -0.22637634288E+02  0.32031165332E+02  0.39584167376E+02  0.10566000000E+00 0. -1.
         23    2    1    0    0    0 -0.17062179517E+02  0.21004964228E+02  0.43038494810E+00  0.97935046216E+02  0.94120994226E+02 0.  0.
         13    1    3    3    0    0 -0.22394824652E+02  0.43642598517E+02 -0.31600780384E+02  0.58350878840E+02  0.10566000000E+00 0.  1.
         22    1    1    0    0    0  0.17062179517E+02 -0.21004964228E+02 -0.43038494810E+00  0.27064953784E+02  0.00000000000E+00 0.  1.
</event>
<event>
 5    1  0.9034713E-005  0.9118800E+02  0.7818608E-02  0.1130116E+00
         25   -1    0    0    0    0  0.00000000000E+00  0.00000000000E+00  0.99999998245E-14  0.12500000000E+03  0.12500000000E+03 0.  0.
        -13    1    3    3    0    0  0.26770980638E+02 -0.34825814520E+01 -0.41374445919E+02  0.49403134688E+02  0.10566000000E+00 0. -1.
         23    2    1    0    0    0  0.25615990024E+01 -0.26850146781E+02 -0.78314336411E+01  0.96913997713E+02  0.92755050688E+02 0.  0.
         13    1    3    3    0    0 -0.24209381635E+02 -0.23367565329E+02  0.33543012278E+02  0.47510863024E+02  0.10566000000E+00 0.  1.
         22    1    1    0    0    0 -0.25615990024E+01  0.26850146781E+02  0.78314336411E+01  0.28086002287E+02  0.00000000000E+00 0. -1.
</event>
<event>
 5    1  0.9034713E-005  0.9118800E+02  0.7818608E-02  0.1130116E+00
         25   -1    0    0    0    0  0.00000000000E+00  0.00000000000E+00  0.99999998245E-14  0.12500000000E+03  0.12500000000E+03 0.  0.
        -13    1    3    3    0    0 -0.36346507822E+02  0.13433285676E+02  0.19727697708E+02  0.43482352923E+02  0.10566000000E+00 0.  1.
         23    2    1    0    0    0  0.17235494045E+02  0.38323087341E+01  0.20527471128E+02  0.97923701949E+02  0.94105926951E+02 0.  0.
         13    1    3    3    0    0  0.53582001866E+02 -0.96009769415E+01  0.79977342064E+00  0.54441349026E+02  0.10566000000E+00 0. -1.
         22    1    1    0    0    0 -0.17235494045E+02 -0.38323087341E+01 -0.20527471128E+02  0.27076298051E+02  0.00000000000E+00 0. -1.
</event>
<event>
 5    1  0.9034713E-005  0.9118800E+02  0.7818608E-02  0.1130116E+00
         25   -1    0    0    0    0  0.00000000000E+00  0.00000000000E+00  0.99999998245E-14  0.12500000000E+03  0.12500000000E+03 0.  0.
        -13    1    3    3    0    0 -0.67846162051E+01  0.37465420005E+02 -0.79335505099E+01  0.38892686985E+02  0.10566000000E+00 0. -1.
         23    2    1    0    0    0 -0.18771635085E+02 -0.19164624403E+02  0.36535646018E+01  0.97925922978E+02  0.94108877076E+02 0.  0.
         13    1    3    3    0    0 -0.11987018880E+02 -0.56630044408E+02  0.11587115112E+02  0.59033235994E+02  0.10566000000E+00 0.  1.
         22    1    1    0    0    0  0.18771635085E+02  0.19164624403E+02 -0.36535646018E+01  0.27074077022E+02  0.00000000000E+00 0.  1.
</event>
<event>
 5    1  0.9034713E-005  0.9118800E+02  0.7818608E-02  0.1130116E+00
         25   -1    0    0    0    0  0.00000000000E+00  0.00000000000E+00  0.99999998245E-14  0.12500000000E+03  0.12500000000E+03 0.  0.
        -13    1    3    3    0    0  0.30848892435E+02 -0.25619921612E+02 -0.71302751599E+01  0.40729430830E+02  0.10566000000E+00 0. -1.
         23    2    1    0    0    0  0.19126490961E+01  0.12875301211E+02 -0.28691530170E+02  0.93493881367E+02  0.88025396004E+02 0.  0.
         13    1    3    3    0    0 -0.28936243339E+02  0.38495222823E+02 -0.21561255010E+02  0.52764450536E+02  0.10566000000E+00 0.  1.
         22    1    1    0    0    0 -0.19126490961E+01 -0.12875301211E+02  0.28691530170E+02  0.31506118633E+02  0.00000000000E+00 0.  1.
</event>
<event>
 5    1  0.9034713E-005  0.9118800E+02  0.7818608E-02  0.1130116E+00
         25   -1    0    0    0    0  0.00000000000E+00  0.00000000000E+00  0.99999998245E-14  0.12500000000E+03  0.12500000000E+03 0.  0.
        -13    1    3    3    0    0  0.84940116377E+00 -0.23630995562E+01  0.51702006406E+02  0.51763059726E+02  0.10566000000E+00 0. -1.
         23    2    1    0    0    0  0.45378493160E+01 -0.25387881852E+02  0.15241425646E+02  0.95042735821E+02  0.90198026338E+02 0.  0.
         13    1    3    3    0    0  0.36884481522E+01 -0.23024782296E+02 -0.36460580759E+02  0.43279676095E+02  0.10566000000E+00 0.  1.
         22    1    1    0    0    0 -0.45378493160E+01  0.25387881852E+02 -0.15241425646E+02  0.29957264179E+02  0.00000000000E+00 0. -1.
</event>
<event>
 5    1  0.9034713E-005  0.9118800E+02  0.7818608E-02  0.1130116E+00
         25   -1    0    0    0    0  0.00000000000E+00  0.00000000000E+00  0.99999998245E-14  0.12500000000E+03  0.12500000000E+03 0.  0.
        -13    1    3    3    0    0  0.46053291687E+02 -0.38608454669E+02 -0.74775146946E+01  0.60559415760E+02  0.10566000000E+00 0. -1.
         23    2    1    0    0    0  0.21380058436E+02 -0.20417385532E+02  0.72391825226E+01  0.94563471054E+02  0.89531378653E+02 0.  0.
         13    1    3    3    0    0 -0.24673233251E+02  0.18191069137E+02  0.14716697217E+02  0.34004055294E+02  0.10566000000E+00 0.  1.
         22    1    1    0    0    0 -0.21380058436E+02  0.20417385532E+02 -0.72391825226E+01  0.30436528946E+02  0.00000000000E+00 0. -1.
</event>
<event>
 5    1  0.9034713E-005  0.9118800E+02  0.7818608E-02  0.1130116E+00
         25   -1    0    0    0    0  0.00000000000E+00  0.00000000000E+00  0.99999998245E-14  0.12500000000E+03  0.12500000000E+03 0.  0.
        -13    1    3    3    0    0  0.33737264721E+01  0.77918170015E+01  0.33825919874E+02  0.34875470776E+02  0.10566000000E+00 0.  1.
         23    2    1    0    0    0 -0.12731412941E+02 -0.43322092081E+01 -0.24755005490E+02  0.96827900168E+02  0.92638949919E+02 0.  0.
         13    1    3    3    0    0 -0.16105139413E+02 -0.12124026210E+02 -0.58580925364E+02  0.61952429392E+02  0.10566000000E+00 0. -1.
         22    1    1    0    0    0  0.12731412941E+02  0.43322092081E+01  0.24755005490E+02  0.28172099832E+02  0.00000000000E+00 0. -1.
</event>
<event>
 5    1  0.9034713E-005  0.9118800E+02  0.7818608E-02  0.1130116E+00
         25   -1    0    0    0    0  0.00000000000E+00  0.00000000000E+00  0.99999998245E-14  0.12500000000E+03  0.12500000000E+03 0.  0.
        -13    1    3    3    0    0  0.44808378883E+01  0.36928027880E+02  0.24497820881E+02  0.44541121935E+02  0.10566000000E+00 0. -1.
         23    2    1    0    0    0 -0.25027970903E+02  0.11545124278E+02 -0.91147902787E+01  0.95969522499E+02  0.91473387522E+02 0.  0.
         13    1    3    3    0    0 -0.29508808791E+02 -0.25382903602E+02 -0.33612611159E+02  0.51428400564E+02  0.10566000000E+00 0.  1.
         22    1    1    0    0    0  0.25027970903E+02 -0.11545124278E+02  0.91147902787E+01  0.29030477501E+02  0.00000000000E+00 0.  1.
</event>
<event>
 5    1  0.9034713E-005  0.9118800E+02  0.7818608E-02  0.1130116E+00
         25   -1    0    0    0    0  0.00000000000E+00  0.00000000000E+00  0.99999998245E-14  0.12500000000E+03  0.12500000000E+03 0.  0.
        -13    1    3    3    0    0 -0.10755018806E+02  0.41729305202E+02 -0.29890891025E+02  0.52445036681E+02  0.10566000000E+00 0. -1.
         23    2    1    0    0    0 -0.11604640071E+02  0.59362150485E+01 -0.34098744831E+02  0.88494785039E+02  0.80614491624E+02 0.  0.
         13    1    3    3    0    0 -0.84962126520E+00 -0.35793090154E+02 -0.42078538062E+01  0.36049748359E+02  0.10566000000E+00 0.  1.
         22    1    1    0    0    0  0.11604640071E+02 -0.59362150485E+01  0.34098744831E+02  0.36505214961E+02  0.00000000000E+00 0. -1.
</event>
<event>
 5    1  0.9034713E-005  0.9118800E+02  0.7818608E-02  0.1130116E+00
         25   -1    0    0    0    0  0.00000000000E+00  0.00000000000E+00  0.99999998245E-14  0.12500000000E+03  0.12500000000E+03 0.  0.
        -13    1    3    3    0    0 -0.14387080390E+02 -0.39717813010E+02 -0.31483787811E+01  0.42360550108E+02  0.10566000000E+00 0.  1.
         23    2    1    0    0    0  0.26678044261E+02 -0.20196320697E+02 -0.13374529109E+02  0.88965468725E+02  0.81341054710E+02 0.  0.
         13    1    3    3    0    0  0.41065124651E+02  0.19521492313E+02 -0.10226150328E+02  0.46604918617E+02  0.10566000000E+00 0. -1.
         22    1    1    0    0    0 -0.26678044261E+02  0.20196320697E+02  0.13374529109E+02  0.36034531275E+02  0.00000000000E+00 0.  1.
</event>
<event>
 5    1  0.9034713E-005  0.9118800E+02  0.7818608E-02  0.1130116E+00
         25   -1    0    0    0    0  0.00000000000E+00  0.00000000000E+00  0.99999998245E-14  0.12500000000E+03  0.12500000000E+03 0.  0.
        -13    1    3    3    0    0  0.26503757670E+02 -0.45112185759E+02  0.19298741091E+02  0.55767473013E+02  0.10566000000E+00 0. -1.
         23    2    1    0    0    0  0.19556641590E+02 -0.21079278179E+02 -0.10240389684E+02  0.94476832082E+02  0.89410335088E+02 0.  0.
         13    1    3    3    0    0 -0.69471160801E+01  0.24032907579E+02 -0.29539130775E+02  0.38709359069E+02  0.10566000000E+00 0.  1.
         22    1    1    0    0    0 -0.19556641590E+02  0.21079278179E+02  0.10240389684E+02  0.30523167918E+02  0.00000000000E+00 0. -1.
</event>
<event>
 5    1  0.9034713E-005  0.9118800E+02  0.7818608E-02  0.1130116E+00
         25   -1    0    0    0    0  0.00000000000E+00  0.00000000000E+00  0.99999998245E-14  0.12500000000E+03  0.12500000000E+03 0.  0.
        -13    1    3    3    0    0 -0.42807716714E+02 -0.53818876783E+00 -0.27999244444E+02  0.51154267768E+02  0.10566000000E+00 0. -1.
         23    2    1    0    0    0 -0.18650028530E+01 -0.76438676946E+01 -0.31191363045E+02  0.92831567064E+02  0.87079801136E+02 0.  0.
         13    1    3    3    0    0  0.40942713861E+02 -0.71056789268E+01 -0.31921186008E+01  0.41677299295E+02  0.10566000000E+00 0.  1.
         22    1    1    0    0    0  0.18650028530E+01  0.76438676946E+01  0.31191363045E+02  0.32168432936E+02  0.00000000000E+00 0. -1.
</event>
<event>
 5    1  0.9034713E-005  0.9118800E+02  0.7818608E-02  0.1130116E+00
         25   -1    0    0    0    0  0.00000000000E+00  0.00000000000E+00  0.99999998245E-14  0.12500000000E+03  0.12500000000E+03 0.  0.
        -13    1    3    3    0    0  0.15966995989E+02 -0.13192595726E+02 -0.55204603171E+02  0.58962266902E+02  0.10566000000E+00 0.  1.
         23    2    1    0    0    0  0.37450336342E+01 -0.19129451806E+02 -0.18401242960E+02  0.98193900959E+02  0.94464147907E+02 0.  0.
         13    1    3    3    0    0 -0.12221962355E+02 -0.59368560800E+01  0.36803360211E+02  0.39231634057E+02  0.10566000000E+00 0. -1.
         22    1    1    0    0    0 -0.37450336342E+01  0.19129451806E+02  0.18401242960E+02  0.26806099041E+02  0.00000000000E+00 0.  1.
</event>
<event>
 5    1  0.9034713E-005  0.9118800E+02  0.7818608E-02  0.1130116E+00
         25   -1    0    0    0    0  0.00000000000E+00  0.00000000000E+00  0.99999998245E-14  0.12500000000E+03  0.12500000000E+03 0.  0.
        -13    1    3    3    0    0 -0.46929275401E+02 -0.20712482588E+02 -0.25656552976E+02  0.57355328430E+02  0.10566000000E+00 0.  1.
         23    2    1    0    0    0 -0.12094497816E+02 -0.44825596913E+01 -0.26208421160E+02  0.95789529985E+02  0.91227092994E+02 0.  0.
         13    1    3    3    0    0  0.34834777585E+02  0.16229922896E+02 -0.55186818395E+00  0.38434201555E+02  0.10566000000E+00 0. -1.
         22    1    1    0    0    0  0.12094497816E+02  0.44825596913E+01  0.26208421160E+02  0.29210470015E+02  0.00000000000E+00 0.  1.
</event>
<event>
 5    1  0.9034713E-005  0.9118800E+02  0.7818608E-02  0.1130116E+00
         25   -1    0    0    0    0  0.00000000000E+00  0.00000000000E+00  0.99999998245E-14  0.12500000000E+03  0.12500000000E+03 0.  0.
        -13    1    3    3    0    0 -0.35249146101E+01  0.25115026243E+02 -0.32744150597E+02  0.41417147760E+02  0.10566000000E+00 0. -1.
         23    2    1    0    0    0 -0.27248365326E+02  0.62355718438E+01  0.11267939221E+02  0.94861615448E+02  0.89946672323E+02 0.  0.
         13    1    3    3    0    0 -0.23723450716E+02 -0.18879454399E+02  0.44012089818E+02  0.53444467688E+02  0.10566000000E+00 0.  1.
         22    1    1    0    0    0  0.27248365326E+02 -0.62355718438E+01 -0.11267939221E+02  0.30138384552E+02  0.00000000000E+00 0.  1.
</event>
<event>
 5    1  0.9034713E-005  0.9118800E+02  0.7818608E-02  0.1130116E+00
         25   -1    0    0    0    0  0.00000000000E+00  0.00000000000E+00  0.99999998245E-14  0.12500000000E+03  0.12500000000E+03 0.  0.
        -13    1    3    3    0    0  0.30160448255E+02  0.31638068716E+01 -0.26567542065E+02  0.40317586340E+02  0.10566000000E+00 0.  1.
         23    2    1    0    0    0  0.82863956328E+01 -0.25625026158E+02  0.13989898776E+02  0.94651629600E+02  0.89654377472E+02 0.  0.
         13    1    3    3    0    0 -0.21874052622E+02 -0.28788833030E+02  0.40557440841E+02  0.54334043260E+02  0.10566000000E+00 0. -1.
         22    1    1    0    0    0 -0.82863956328E+01  0.25625026158E+02 -0.13989898776E+02  0.30348370400E+02  0.00000000000E+00 0. -1.
</event>
<event>
 5    1  0.9034713E-005  0.9118800E+02  0.7818608E-02  0.1130116E+00
         25   -1    0    0    0    0  0.00000000000E+00  0.00000000000E+00  0.99999998245E-14  0.12500000000E+03  0.12500000000E+03 0.  0.
        -13    1    3    3    0    0 -0.30671293958E+02  0.10974149699E+02 -0.33544035010E+02  0.46758674954E+02  0.10566000000E+00 0.  1.
         23    2    1    0    0    0 -0.25034197669E+01  0.29444975781E+02  0.15575782486E+01  0.95407775358E+02  0.90702501837E+02 0.  0.
         13    1    3    3    0    0  0.28167874191E+02  0.18470826083E+02  0.35101613259E+02  0.48649100403E+02  0.10566000000E+00 0. -1.
         22    1    1    0    0    0  0.25034197669E+01 -0.29444975781E+02 -0.15575782486E+01  0.29592224642E+02  0.00000000000E+00 0.  1.
</event>
<event>
 5    1  0.9034713E-005  0.9118800E+02  0.7818608E-02  0.1130116E+00
         25   -1    0    0    0    0  0.00000000000E+00  0.00000000000E+00  0.99999998245E-14  0.12500000000E+03  0.12500000000E+03 0.  0.
        -13    1    3    3    0    0 -0.36282939959E+02 -0.13206962025E+02 -0.77243114330E+01  0.39377045713E+02  0.10566000000E+00 0. -1.
         23    2    1    0    0    0 -0.24746381397E+01  0.29956122932E+02  0.11584005855E+01  0.94919524157E+02  0.90027112801E+02 0.  0.
         13    1    3    3    0    0  0.33808301819E+02  0.43163084956E+02  0.88827120185E+01  0.55542478444E+02  0.10566000000E+00 0.  1.
         22    1    1    0    0    0  0.24746381397E+01 -0.29956122932E+02 -0.11584005855E+01  0.30080475843E+02  0.00000000000E+00 0.  1.
</event>
<event>
 5    1  0.9034713E-005  0.9118800E+02  0.7818608E-02  0.1130116E+00
         25   -1    0    0    0    0  0.00000000000E+00  0.00000000000E+00  0.99999998245E-14  0.12500000000E+03  0.12500000000E+03 0.  0.
        -13    1    3    3    0    0  0.24815193700E+02  0.30461756091E+02 -0.26910813563E+02  0.47622636143E+02  0.10566000000E+00 0. -1.
         23    2    1    0    0    0  0.22873982988E+02 -0.14787260778E+02 -0.92569996945E+01  0.96232410209E+02  0.91831925561E+02 0.  0.
         13    1    3    3    0    0 -0.19412107123E+01 -0.45249016869E+02  0.17653813868E+02  0.48609774066E+02  0.10566000000E+00 0.  1.
         22    1    1    0    0    0 -0.22873982988E+02  0.14787260778E+02  0.92569996945E+01  0.28767589791E+02  0.00000000000E+00 0.  1.
</event>
<event>
 5    1  0.9034713E-005  0.9118800E+02  0.7818608E-02  0.1130116E+00
         25   -1    0    0    0    0  0.00000000000E+00  0.00000000000E+00  0.99999998245E-14  0.12500000000E+03  0.12500000000E+03 0.  0.
        -13    1    3    3    0    0 -0.33168792881E+02  0.12881520183E+02 -0.15220560572E+02  0.38701150003E+02  0.10566000000E+00 0. -1.
         23    2    1    0    0    0  0.56559852788E+01  0.15852771484E+02  0.25115946634E+02  0.94765726261E+02  0.89813315078E+02 0.  0.
         13    1    3    3    0    0  0.38824778159E+02  0.29712513016E+01  0.40336507206E+02  0.56064576258E+02  0.10566000000E+00 0.  1.
         22    1    1    0    0    0 -0.56559852788E+01 -0.15852771484E+02 -0.25115946634E+02  0.30234273739E+02  0.00000000000E+00 0.  1.
</event>
<event>
 5    1  0.9034713E-005  0.9118800E+02  0.7818608E-02  0.1130116E+00
         25   -1    0    0    0    0  0.00000000000E+00  0.00000000000E+00  0.99999998245E-14  0.12500000000E+03  0.12500000000E+03 0.  0.
        -13    1    3    3    0    0  0.24217651439E+02  0.29001680156E+02  0.19206636808E+02  0.42385117136E+02  0.10566000000E+00 0. -1.
         23    2    1    0    0    0  0.74479675898E+01  0.91269461894E+01 -0.27075639128E+02  0.95472663477E+02  0.90791882177E+02 0.  0.
         13    1    3    3    0    0 -0.16769683849E+02 -0.19874733967E+02 -0.46282275936E+02  0.53087546341E+02  0.10566000000E+00 0.  1.
         22    1    1    0    0    0 -0.74479675898E+01 -0.91269461894E+01  0.27075639128E+02  0.29527336523E+02  0.00000000000E+00 0.  1.
</event>
<event>
 5    1  0.9034713E-005  0.9118800E+02  0.7818608E-02  0.1130116E+00
         25   -1    0    0    0    0  0.00000000000E+00  0.00000000000E+00  0.99999998245E-14  0.12500000000E+03  0.12500000000E+03 0.  0.
        -13    1    3    3    0    0 -0.24296888897E+02 -0.10731310987E+02  0.23050713848E+02  0.35168827369E+02  0.10566000000E+00 0. -1.
         23    2    1    0    0    0  0.19728891871E+02 -0.15036342615E+02 -0.17069644185E+02  0.94888647883E+02  0.89984231790E+02 0.  0.
         13    1    3    3    0    0  0.44025780768E+02 -0.43050316275E+01 -0.40120358033E+02  0.59719820514E+02  0.10566000000E+00 0.  1.
         22    1    1    0    0    0 -0.19728891871E+02  0.15036342615E+02  0.17069644185E+02  0.30111352117E+02  0.00000000000E+00 0.  1.
</event>
<event>
 5    1  0.9034713E-005  0.9118800E+02  0.7818608E-02  0.1130116E+00
         25   -1    0    0    0    0  0.00000000000E+00  0.00000000000E+00  0.99999998245E-14  0.12500000000E+03  0.12500000000E+03 0.  0.
        -13    1    3    3    0    0 -0.10110630814E+02  0.48618864116E+02  0.31895852089E+02  0.59020126634E+02  0.10566000000E+00 0. -1.
         23    2    1    0    0    0  0.59841595851E+01  0.27126924349E+02  0.54819186040E+01  0.96685134255E+02  0.92446111675E+02 0.  0.
         13    1    3    3    0    0  0.16094790399E+02 -0.21491939767E+02 -0.26413933485E+02  0.37665007621E+02  0.10566000000E+00 0.  1.
         22    1    1    0    0    0 -0.59841595851E+01 -0.27126924349E+02 -0.54819186040E+01  0.28314865745E+02  0.00000000000E+00 0. -1.
</event>
<event>
 5    1  0.9034713E-005  0.9118800E+02  0.7818608E-02  0.1130116E+00
         25   -1    0    0    0    0  0.00000000000E+00  0.00000000000E+00  0.99999998245E-14  0.12500000000E+03  0.12500000000E+03 0.  0.
        -13    1    3    3    0    0 -0.13011379608E+02 -0.87487467109E+01 -0.33757931732E+02  0.37221575560E+02  0.10566000000E+00 0. -1.
         23    2    1    0    0    0 -0.19124714928E+02  0.50985764020E+01  0.22239258400E+02  0.95228624208E+02  0.90455271002E+02 0.  0.
         13    1    3    3    0    0 -0.61133353199E+01  0.13847323113E+02  0.55997190132E+02  0.58007048648E+02  0.10566000000E+00 0.  1.
         22    1    1    0    0    0  0.19124714928E+02 -0.50985764020E+01 -0.22239258400E+02  0.29771375792E+02  0.00000000000E+00 0.  1.
</event>
<event>
 5    1  0.9034713E-005  0.9118800E+02  0.7818608E-02  0.1130116E+00
         25   -1    0    0    0    0  0.00000000000E+00  0.00000000000E+00  0.99999998245E-14  0.12500000000E+03  0.12500000000E+03 0.  0.
        -13    1    3    3    0    0 -0.21467403033E+02  0.34998590594E+02 -0.46794192118E+02  0.62253179168E+02  0.10566000000E+00 0. -1.
         23    2    1    0    0    0 -0.77722506480E+01  0.15084699575E+02 -0.24920588136E+02  0.94850509881E+02  0.89931237455E+02 0.  0.
         13    1    3    3    0    0  0.13695152385E+02 -0.19913891020E+02  0.21873603981E+02  0.32597330713E+02  0.10566000000E+00 0.  1.
         22    1    1    0    0    0  0.77722506480E+01 -0.15084699575E+02  0.24920588136E+02  0.30149490119E+02  0.00000000000E+00 0. -1.
</event>
<event>
 5    1  0.9034713E-005  0.9118800E+02  0.7818608E-02  0.1130116E+00
         25   -1    0    0    0    0  0.00000000000E+00  0.00000000000E+00  0.99999998245E-14  0.12500000000E+03  0.12500000000E+03 0.  0.
        -13    1    3    3    0    0  0.31034743505E+02 -0.76671603244E+01  0.38492263749E+01  0.32198887552E+02  0.10566000000E+00 0.  1.
         23    2    1    0    0    0 -0.18835926005E+02 -0.15702617524E+02 -0.24676444744E+02  0.90210759842E+02  0.83232745723E+02 0.  0.
         13    1    3    3    0    0 -0.49870669510E+02 -0.80354571995E+01 -0.28525671118E+02  0.58011872290E+02  0.10566000000E+00 0. -1.
         22    1    1    0    0    0  0.18835926005E+02  0.15702617524E+02  0.24676444744E+02  0.34789240158E+02  0.00000000000E+00 0. -1.
</event>
<event>
 5    1  0.9034713E-005  0.9118800E+02  0.7818608E-02  0.1130116E+00
         25   -1    0    0    0    0  0.00000000000E+00  0.00000000000E+00  0.99999998245E-14  0.12500000000E+03  0.12500000000E+03 0.  0.
        -13    1    3    3    0    0 -0.36897855060E+02  0.17392904252E+01 -0.14545634778E+02  0.39699666174E+02  0.10566000000E+00 0. -1.
         23    2    1    0    0    0 -0.15234599520E+02  0.84926812182E+01 -0.44456729237E+02  0.77244168615E+02  0.60712784104E+02 0.  0.
         13    1    3    3    0    0  0.21663255539E+02  0.67533907930E+01 -0.29911094459E+02  0.37544502441E+02  0.10566000000E+00 0.  1.
         22    1    1    0    0    0  0.15234599520E+02 -0.84926812182E+01  0.44456729237E+02  0.47755831385E+02  0.00000000000E+00 0. -1.
</event>
<event>
 5    1  0.9034713E-005  0.9118800E+02  0.7818608E-02  0.1130116E+00
         25   -1    0    0    0    0  0.00000000000E+00  0.00000000000E+00  0.99999998245E-14  0.12500000000E+03  0.12500000000E+03 0.  0.
        -13    1    3    3    0    0  0.22724169940E+02  0.16801062162E+02 -0.21967822285E+02  0.35794691914E+02  0.10566000000E+00 0.  1.
         23    2    1    0    0    0  0.75412840988E+01 -0.24079886944E+02  0.17241418491E+02  0.94438939274E+02  0.89357343395E+02 0.  0.
         13    1    3    3    0    0 -0.15182885841E+02 -0.40880949106E+02  0.39209240776E+02  0.58644247361E+02  0.10566000000E+00 0. -1.
         22    1    1    0    0    0 -0.75412840988E+01  0.24079886944E+02 -0.17241418491E+02  0.30561060726E+02  0.00000000000E+00 0. -1.
</event>
<event>
 5    1  0.9034713E-005  0.9118800E+02  0.7818608E-02  0.1130116E+00
         25   -1    0    0    0    0  0.00000000000E+00  0.00000000000E+00  0.99999998245E-14  0.12500000000E+03  0.12500000000E+03 0.  0.
        -13    1    3    3    0    0 -0.18732507523E+02  0.18349657901E+02  0.19613259183E+02  0.32746112487E+02  0.10566000000E+00 0. -1.
         23    2    1    0    0    0  0.54049839791E+01 -0.86592367848E+01 -0.29506491861E+02  0.93777743588E+02  0.88427574302E+02 0.  0.
         13    1    3    3    0    0  0.24137491502E+02 -0.27008894686E+02 -0.49119751044E+02  0.61031631101E+02  0.10566000000E+00 0.  1.
         22    1    1    0    0    0 -0.54049839791E+01  0.86592367848E+01  0.29506491861E+02  0.31222256412E+02  0.00000000000E+00 0.  1.
</event>
<event>
 5    1  0.9034713E-005  0.9118800E+02  0.7818608E-02  0.1130116E+00
         25   -1    0    0    0    0  0.00000000000E+00  0.00000000000E+00  0.99999998245E-14  0.12500000000E+03  0.12500000000E+03 0.  0.
        -13    1    3    3    0    0  0.32693144188E+01  0.46224130825E+00  0.51044010875E+02  0.51150799544E+02  0.10566000000E+00 0.  1.
         23    2    1    0    0    0 -0.10334500720E+01 -0.25554528704E+02  0.16683495045E+02  0.94464103693E+02  0.89392538409E+02 0.  0.
         13    1    3    3    0    0 -0.43027644907E+01 -0.26016770013E+02 -0.34360515830E+02  0.43313304149E+02  0.10566000000E+00 0. -1.
         22    1    1    0    0    0  0.10334500720E+01  0.25554528704E+02 -0.16683495045E+02  0.30535896307E+02  0.00000000000E+00 0.  1.
</event>
<event>
 5    1  0.9034713E-005  0.9118800E+02  0.7818608E-02  0.1130116E+00
         25   -1    0    0    0    0  0.00000000000E+00  0.00000000000E+00  0.99999998245E-14  0.12500000000E+03  0.12500000000E+03 0.  0.
        -13    1    3    3    0    0 -0.34319218621E+01 -0.40000302655E+02 -0.46184444359E+02  0.61194904731E+02  0.10566000000E+00 0. -1.
         23    2    1    0    0    0 -0.27862267782E+01 -0.13779340013E+02 -0.29610556289E+02  0.92221679198E+02  0.86199882828E+02 0.  0.
         13    1    3    3    0    0  0.64569508384E+00  0.26220962643E+02  0.16573888071E+02  0.31026774467E+02  0.10566000000E+00 0.  1.
         22    1    1    0    0    0  0.27862267782E+01  0.13779340013E+02  0.29610556289E+02  0.32778320802E+02  0.00000000000E+00 0. -1.
</event>
<event>
 5    1  0.9034713E-005  0.9118800E+02  0.7818608E-02  0.1130116E+00
         25   -1    0    0    0    0  0.00000000000E+00  0.00000000000E+00  0.99999998245E-14  0.12500000000E+03  0.12500000000E+03 0.  0.
        -13    1    3    3    0    0  0.13447698710E+01  0.56549615374E+02  0.84533411460E+01  0.57193859334E+02  0.10566000000E+00 0. -1.
         23    2    1    0    0    0  0.12304844090E+02  0.20725271859E+02 -0.99386112392E+01  0.98928519891E+02  0.95431284036E+02 0.  0.
         13    1    3    3    0    0  0.10960074219E+02 -0.35824343515E+02 -0.18391952385E+02  0.41734660556E+02  0.10566000000E+00 0.  1.
         22    1    1    0    0    0 -0.12304844090E+02 -0.20725271859E+02  0.99386112392E+01  0.26071480109E+02  0.00000000000E+00 0. -1.
</event>
<event>
 5    1  0.9034713E-005  0.9118800E+02  0.7818608E-02  0.1130116E+00
         25   -1    0    0    0    0  0.00000000000E+00  0.00000000000E+00  0.99999998245E-14  0.12500000000E+03  0.12500000000E+03 0.  0.
        -13    1    3    3    0    0  0.22008914645E+02  0.26380393944E+02 -0.49851181646E+02  0.60543116735E+02  0.10566000000E+00 0.  1.
         23    2    1    0    0    0  0.19784886942E+02  0.19120800196E+02 -0.20971251516E+02  0.90404622540E+02  0.83523383762E+02 0.  0.
         13    1    3    3    0    0 -0.22240277029E+01 -0.72595937479E+01  0.28879930130E+02  0.29861505805E+02  0.10566000000E+00 0. -1.
         22    1    1    0    0    0 -0.19784886942E+02 -0.19120800196E+02  0.20971251516E+02  0.34595377460E+02  0.00000000000E+00 0.  1.
</event>
<event>
 5    1  0.9034713E-005  0.9118800E+02  0.7818608E-02  0.1130116E+00
         25   -1    0    0    0    0  0.00000000000E+00  0.00000000000E+00  0.99999998245E-14  0.12500000000E+03  0.12500000000E+03 0.  0.
        -13    1    3    3    0    0  0.47576487835E+01  0.25889961395E+02 -0.26110117303E+02  0.37076606001E+02  0.10566000000E+00 0. -1.
         23    2    1    0    0    0 -0.15598519250E+02 -0.54069838875E+01  0.21698014993E+02  0.97735496847E+02  0.93855602985E+02 0.  0.
         13    1    3    3    0    0 -0.20356168033E+02 -0.31296945283E+02  0.47808132295E+02  0.60658890846E+02  0.10566000000E+00 0.  1.
         22    1    1    0    0    0  0.15598519250E+02  0.54069838875E+01 -0.21698014993E+02  0.27264503153E+02  0.00000000000E+00 0.  1.
</event>
<event>
 5    1  0.9034713E-005  0.9118800E+02  0.7818608E-02  0.1130116E+00
         25   -1    0    0    0    0  0.00000000000E+00  0.00000000000E+00  0.99999998245E-14  0.12500000000E+03  0.12500000000E+03 0.  0.
        -13    1    3    3    0    0  0.35057980634E+02 -0.13147006892E+02 -0.25908648280E+02  0.45532131689E+02  0.10566000000E+00 0. -1.
         23    2    1    0    0    0 -0.15343451452E+02 -0.14080759932E+01 -0.22937510980E+02  0.97367888419E+02  0.93364726235E+02 0.  0.
         13    1    3    3    0    0 -0.50401432086E+02  0.11738930899E+02  0.29711373002E+01  0.51835756731E+02  0.10566000000E+00 0.  1.
         22    1    1    0    0    0  0.15343451452E+02  0.14080759932E+01  0.22937510980E+02  0.27632111581E+02  0.00000000000E+00 0. -1.
</event>
<event>
 5    1  0.9034713E-005  0.9118800E+02  0.7818608E-02  0.1130116E+00
         25   -1    0    0    0    0  0.00000000000E+00  0.00000000000E+00  0.99999998245E-14  0.12500000000E+03  0.12500000000E+03 0.  0.
        -13    1    3    3    0    0  0.31150722727E+02  0.31320229935E+01 -0.23934749304E+02  0.39408888372E+02  0.10566000000E+00 0.  1.
         23    2    1    0    0    0 -0.65720740476E+00 -0.21692453860E+02 -0.37242553461E+02  0.81895449610E+02  0.69633773433E+02 0.  0.
         13    1    3    3    0    0 -0.31807930132E+02 -0.24824476853E+02 -0.13307804157E+02  0.42486561238E+02  0.10566000000E+00 0. -1.
         22    1    1    0    0    0  0.65720740476E+00  0.21692453860E+02  0.37242553461E+02  0.43104550390E+02  0.00000000000E+00 0.  1.
</event>
<event>
 5    1  0.9034713E-005  0.9118800E+02  0.7818608E-02  0.1130116E+00
         25   -1    0    0    0    0  0.00000000000E+00  0.00000000000E+00  0.99999998245E-14  0.12500000000E+03  0.12500000000E+03 0.  0.
        -13    1    3    3    0    0 -0.28834813450E+01  0.28985619319E+02  0.23093457037E+02  0.37172563994E+02  0.10566000000E+00 0.  1.
         23    2    1    0    0    0 -0.46072308875E+01  0.43325431362E+01 -0.29259146216E+02  0.95065151683E+02  0.90229085780E+02 0.  0.
         13    1    3    3    0    0 -0.17237495425E+01 -0.24653076182E+02 -0.52352603254E+02  0.57892587688E+02  0.10566000000E+00 0. -1.
         22    1    1    0    0    0  0.46072308875E+01 -0.43325431362E+01  0.29259146216E+02  0.29934848317E+02  0.00000000000E+00 0. -1.
</event>
<event>
 5    1  0.9034713E-005  0.9118800E+02  0.7818608E-02  0.1130116E+00
         25   -1    0    0    0    0  0.00000000000E+00  0.00000000000E+00  0.99999998245E-14  0.12500000000E+03  0.12500000000E+03 0.  0.
        -13    1    3    3    0    0 -0.32303894147E+02 -0.46799314952E+02  0.54706782737E+01  0.57128424990E+02  0.10566000000E+00 0.  1.
         23    2    1    0    0    0 -0.21046080356E+02 -0.13099012004E+02  0.17516890970E+02  0.94646036781E+02  0.89646579384E+02 0.  0.
         13    1    3    3    0    0  0.11257813791E+02  0.33700302948E+02  0.12046212696E+02  0.37517611791E+02  0.10566000000E+00 0. -1.
         22    1    1    0    0    0  0.21046080356E+02  0.13099012004E+02 -0.17516890970E+02  0.30353963219E+02  0.00000000000E+00 0.  1.
</event>
<event>
 5    1  0.9034713E-005  0.9118800E+02  0.7818608E-02  0.1130116E+00
         25   -1    0    0    0    0  0.00000000000E+00  0.00000000000E+00  0.99999998245E-14  0.12500000000E+03  0.12500000000E+03 0.  0.
        -13    1    3    3    0    0 -0.94978760419E+01 -0.12179874779E+02  0.43505797360E+02  0.46166270879E+02  0.10566000000E+00 0.  1.
         23    2    1    0    0    0 -0.44403910711E+01  0.25955616655E+02  0.11267872403E+02  0.96357792381E+02  0.92002435268E+02 0.  0.
         13    1    3    3    0    0  0.50574849708E+01  0.38135491434E+02 -0.32237924957E+02  0.50191521502E+02  0.10566000000E+00 0. -1.
         22    1    1    0    0    0  0.44403910711E+01 -0.25955616655E+02 -0.11267872403E+02  0.28642207619E+02  0.00000000000E+00 0.  1.
</event>
<event>
 5    1  0.9034713E-005  0.9118800E+02  0.7818608E-02  0.1130116E+00
         25   -1    0    0    0    0  0.00000000000E+00  0.00000000000E+00  0.99999998245E-14  0.12500000000E+03  0.12500000000E+03 0.  0.
        -13    1    3    3    0    0  0.34080398559E+02 -0.58150352972E+01  0.50146565433E+02  0.60909583731E+02  0.10566000000E+00 0.  1.
         23    2    1    0    0    0  0.79742876970E+01 -0.10491828825E+01  0.29184019148E+02  0.94727949811E+02  0.89760723330E+02 0.  0.
         13    1    3    3    0    0 -0.26106110862E+02  0.47658524147E+01 -0.20962546285E+02  0.33818366081E+02  0.10566000000E+00 0. -1.
         22    1    1    0    0    0 -0.79742876970E+01  0.10491828825E+01 -0.29184019148E+02  0.30272050189E+02  0.00000000000E+00 0.  1.
</event>
<event>
 5    1  0.9034713E-005  0.9118800E+02  0.7818608E-02  0.1130116E+00
         25   -1    0    0    0    0  0.00000000000E+00  0.00000000000E+00  0.99999998245E-14  0.12500000000E+03  0.12500000000E+03 0.  0.
        -13    1    3    3    0    0  0.39452935856E+02  0.42261173888E+02 -0.62045993068E-01  0.57814842210E+02  0.10566000000E+00 0.  1.
         23    2    1    0    0    0  0.51094664633E+01  0.28947113025E+02  0.55857509922E+01  0.95079394823E+02  0.90248815536E+02 0.  0.
         13    1    3    3    0    0 -0.34343469393E+02 -0.13314060863E+02  0.56477969852E+01  0.37264552613E+02  0.10566000000E+00 0. -1.
         22    1    1    0    0    0 -0.51094664633E+01 -0.28947113025E+02 -0.55857509922E+01  0.29920605177E+02  0.00000000000E+00 0.  1.
</event>
<event>
 5    1  0.9034713E-005  0.9118800E+02  0.7818608E-02  0.1130116E+00
         25   -1    0    0    0    0  0.00000000000E+00  0.00000000000E+00  0.99999998245E-14  0.12500000000E+03  0.12500000000E+03 0.  0.
        -13    1    3    3    0    0  0.23518859499E+02  0.48330932648E+02 -0.27362415721E+00  0.53750365924E+02  0.10566000000E+00 0.  1.
         23    2    1    0    0    0  0.28508593515E+02  0.67211727492E+01 -0.14381339907E+01  0.95674545243E+02  0.91069403812E+02 0.  0.
         13    1    3    3    0    0  0.49897340163E+01 -0.41609759899E+02 -0.11645098335E+01  0.41924179319E+02  0.10566000000E+00 0. -1.
         22    1    1    0    0    0 -0.28508593515E+02 -0.67211727492E+01  0.14381339907E+01  0.29325454757E+02  0.00000000000E+00 0.  1.
</event>
<event>
 5    1  0.9034713E-005  0.9118800E+02  0.7818608E-02  0.1130116E+00
         25   -1    0    0    0    0  0.00000000000E+00  0.00000000000E+00  0.99999998245E-14  0.12500000000E+03  0.12500000000E+03 0.  0.
        -13    1    3    3    0    0 -0.45606666431E+02  0.45831709688E+01 -0.98946188760E+01  0.46892303481E+02  0.10566000000E+00 0.  1.
         23    2    1    0    0    0 -0.15972189773E+01  0.86809232167E+00 -0.29663487190E+02  0.95280861973E+02  0.90527429508E+02 0.  0.
         13    1    3    3    0    0  0.44009447453E+02 -0.37150786471E+01 -0.19768868314E+02  0.48388558492E+02  0.10566000000E+00 0. -1.
         22    1    1    0    0    0  0.15972189773E+01 -0.86809232167E+00  0.29663487190E+02  0.29719138027E+02  0.00000000000E+00 0.  1.
</event>
<event>
 5    1  0.9034713E-005  0.9118800E+02  0.7818608E-02  0.1130116E+00
         25   -1    0    0    0    0  0.00000000000E+00  0.00000000000E+00  0.99999998245E-14  0.12500000000E+03  0.12500000000E+03 0.  0.
        -13    1    3    3    0    0  0.18354240457E+02 -0.26169731265E+02 -0.24606417591E+02  0.40338814161E+02  0.10566000000E+00 0.  1.
         23    2    1    0    0    0  0.22946513564E+02  0.21565138744E+02 -0.17521538220E+01  0.93461646574E+02  0.87979609248E+02 0.  0.
         13    1    3    3    0    0  0.45922731071E+01  0.47734870009E+02  0.22854263769E+02  0.53122832413E+02  0.10566000000E+00 0. -1.
         22    1    1    0    0    0 -0.22946513564E+02 -0.21565138744E+02  0.17521538220E+01  0.31538353426E+02  0.00000000000E+00 0. -1.
</event>
<event>
 5    1  0.9034713E-005  0.9118800E+02  0.7818608E-02  0.1130116E+00
         25   -1    0    0    0    0  0.00000000000E+00  0.00000000000E+00  0.99999998245E-14  0.12500000000E+03  0.12500000000E+03 0.  0.
        -13    1    3    3    0    0  0.11577192197E+02  0.33625109238E+02  0.28507410299E+01  0.35676564281E+02  0.10566000000E+00 0.  1.
         23    2    1    0    0    0 -0.17895282552E+02 -0.14347073446E+02 -0.18132340709E+02  0.95761986496E+02  0.91189344903E+02 0.  0.
         13    1    3    3    0    0 -0.29472474750E+02 -0.47972182684E+02 -0.20983081739E+02  0.60085422214E+02  0.10566000000E+00 0. -1.
         22    1    1    0    0    0  0.17895282552E+02  0.14347073446E+02  0.18132340709E+02  0.29238013504E+02  0.00000000000E+00 0. -1.
</event>
<event>
 5    1  0.9034713E-005  0.9118800E+02  0.7818608E-02  0.1130116E+00
         25   -1    0    0    0    0  0.00000000000E+00  0.00000000000E+00  0.99999998245E-14  0.12500000000E+03  0.12500000000E+03 0.  0.
        -13    1    3    3    0    0 -0.40715733182E+02 -0.17410900270E+02 -0.65918200897E+01  0.44770231549E+02  0.10566000000E+00 0. -1.
         23    2    1    0    0    0  0.12151416035E+01  0.44518327555E+01  0.23651419099E+02  0.10090259331E+03  0.97982898132E+02 0.  0.
         13    1    3    3    0    0  0.41930874786E+02  0.21862733026E+02  0.30243239189E+02  0.56132361756E+02  0.10566000000E+00 0.  1.
         22    1    1    0    0    0 -0.12151416035E+01 -0.44518327555E+01 -0.23651419099E+02  0.24097406695E+02  0.00000000000E+00 0.  1.
</event>
<event>
 5    1  0.9034713E-005  0.9118800E+02  0.7818608E-02  0.1130116E+00
         25   -1    0    0    0    0  0.00000000000E+00  0.00000000000E+00  0.99999998245E-14  0.12500000000E+03  0.12500000000E+03 0.  0.
        -13    1    3    3    0    0  0.39327703325E+02  0.15744036266E+02  0.10445716318E+02  0.43631033453E+02  0.10566000000E+00 0. -1.
         23    2    1    0    0    0  0.19088050110E+01 -0.86709594655E+01 -0.23587852065E+02  0.99796511359E+02  0.96561523599E+02 0.  0.
         13    1    3    3    0    0 -0.37418898314E+02 -0.24414995731E+02 -0.34033568383E+02  0.56165477907E+02  0.10566000000E+00 0.  1.
         22    1    1    0    0    0 -0.19088050110E+01  0.86709594655E+01  0.23587852065E+02  0.25203488641E+02  0.00000000000E+00 0.  1.
</event>
<event>
 5    1  0.9034713E-005  0.9118800E+02  0.7818608E-02  0.1130116E+00
         25   -1    0    0    0    0  0.00000000000E+00  0.00000000000E+00  0.99999998245E-14  0.12500000000E+03  0.12500000000E+03 0.  0.
        -13    1    3    3    0    0  0.36139026919E+02  0.13522546135E+02  0.51521111759E+01  0.38928703218E+02  0.10566000000E+00 0.  1.
         23    2    1    0    0    0 -0.16610441024E+02  0.21685065537E+01  0.23693257767E+02  0.95983114652E+02  0.91491959554E+02 0.  0.
         13    1    3    3    0    0 -0.52749467943E+02 -0.11354039581E+02  0.18541146591E+02  0.57054411434E+02  0.10566000000E+00 0. -1.
         22    1    1    0    0    0  0.16610441024E+02 -0.21685065537E+01 -0.23693257767E+02  0.29016885348E+02  0.00000000000E+00 0.  1.
</event>
<event>
 5    1  0.9034713E-005  0.9118800E+02  0.7818608E-02  0.1130116E+00
         25   -1    0    0    0    0  0.00000000000E+00  0.00000000000E+00  0.99999998245E-14  0.12500000000E+03  0.12500000000E+03 0.  0.
        -13    1    3    3    0    0 -0.33578192119E+02 -0.32662510800E+01  0.32538402219E+01  0.33893392015E+02  0.10566000000E+00 0. -1.
         23    2    1    0    0    0  0.26628520866E+02 -0.53771256193E+01  0.12937697198E+02  0.94910539848E+02  0.90014637488E+02 0.  0.
         13    1    3    3    0    0  0.60206712984E+02 -0.21108745393E+01  0.96838569765E+01  0.61017147833E+02  0.10566000000E+00 0.  1.
         22    1    1    0    0    0 -0.26628520866E+02  0.53771256193E+01 -0.12937697198E+02  0.30089460152E+02  0.00000000000E+00 0.  1.
</event>
<event>
 5    1  0.9034713E-005  0.9118800E+02  0.7818608E-02  0.1130116E+00
         25   -1    0    0    0    0  0.00000000000E+00  0.00000000000E+00  0.99999998245E-14  0.12500000000E+03  0.12500000000E+03 0.  0.
        -13    1    3    3    0    0 -0.30045495554E+02 -0.28423706374E+02  0.10957037361E+01  0.41374516527E+02  0.10566000000E+00 0. -1.
         23    2    1    0    0    0  0.19688324020E+02 -0.15378182754E+02  0.16513908244E+02  0.95052917120E+02  0.90212134883E+02 0.  0.
         13    1    3    3    0    0  0.49733819575E+02  0.13045523620E+02  0.15418204508E+02  0.53678400593E+02  0.10566000000E+00 0.  1.
         22    1    1    0    0    0 -0.19688324020E+02  0.15378182754E+02 -0.16513908244E+02  0.29947082880E+02  0.00000000000E+00 0.  1.
</event>
<event>
 5    1  0.9034713E-005  0.9118800E+02  0.7818608E-02  0.1130116E+00
         25   -1    0    0    0    0  0.00000000000E+00  0.00000000000E+00  0.99999998245E-14  0.12500000000E+03  0.12500000000E+03 0.  0.
        -13    1    3    3    0    0  0.11812002409E+02 -0.24343302427E+02 -0.29963434578E+02  0.40372494965E+02  0.10566000000E+00 0.  1.
         23    2    1    0    0    0  0.32572175138E+02 -0.24816100835E+01  0.10368702292E+02  0.90727343712E+02  0.84004975615E+02 0.  0.
         13    1    3    3    0    0  0.20760172728E+02  0.21861692343E+02  0.40332136870E+02  0.50354848747E+02  0.10566000000E+00 0. -1.
         22    1    1    0    0    0 -0.32572175138E+02  0.24816100835E+01 -0.10368702292E+02  0.34272656288E+02  0.00000000000E+00 0.  1.
</event>
<event>
 5    1  0.9034713E-005  0.9118800E+02  0.7818608E-02  0.1130116E+00
         25   -1    0    0    0    0  0.00000000000E+00  0.00000000000E+00  0.99999998245E-14  0.12500000000E+03  0.12500000000E+03 0.  0.
        -13    1    3    3    0    0  0.23191521387E+02 -0.52442995908E+02 -0.47935236406E+01  0.57542189018E+02  0.10566000000E+00 0.  1.
         23    2    1    0    0    0  0.15282330695E+02 -0.17530089366E+02 -0.17888364748E+02  0.95659801330E+02  0.91049164370E+02 0.  0.
         13    1    3    3    0    0 -0.79091906918E+01  0.34912906543E+02 -0.13094841107E+02  0.38117612311E+02  0.10566000000E+00 0. -1.
         22    1    1    0    0    0 -0.15282330695E+02  0.17530089366E+02  0.17888364748E+02  0.29340198670E+02  0.00000000000E+00 0.  1.
</event>
<event>
 5    1  0.9034713E-005  0.9118800E+02  0.7818608E-02  0.1130116E+00
         25   -1    0    0    0    0  0.00000000000E+00  0.00000000000E+00  0.99999998245E-14  0.12500000000E+03  0.12500000000E+03 0.  0.
        -13    1    3    3    0    0 -0.56936670842E+02 -0.25813957161E+01 -0.20971415145E+02  0.60731042372E+02  0.10566000000E+00 0.  1.
         23    2    1    0    0    0 -0.22443576331E+02  0.37028256372E+01 -0.18138842514E+02  0.95906312644E+02  0.91386969317E+02 0.  0.
         13    1    3    3    0    0  0.34493094511E+02  0.62842213533E+01  0.28325726309E+01  0.35175270272E+02  0.10566000000E+00 0. -1.
         22    1    1    0    0    0  0.22443576331E+02 -0.37028256372E+01  0.18138842514E+02  0.29093687356E+02  0.00000000000E+00 0.  1.
</event>
<event>
 5    1  0.9034713E-005  0.9118800E+02  0.7818608E-02  0.1130116E+00
         25   -1    0    0    0    0  0.00000000000E+00  0.00000000000E+00  0.99999998245E-14  0.12500000000E+03  0.12500000000E+03 0.  0.
        -13    1    3    3    0    0 -0.27564991642E+02 -0.39119319614E+02  0.24811767567E+02  0.53905332808E+02  0.10566000000E+00 0.  1.
         23    2    1    0    0    0  0.99101482548E+01 -0.19800672082E+02  0.17678413661E+02  0.96666204580E+02  0.92420512577E+02 0.  0.
         13    1    3    3    0    0  0.37475139897E+02  0.19318647533E+02 -0.71333539059E+01  0.42760871772E+02  0.10566000000E+00 0. -1.
         22    1    1    0    0    0 -0.99101482548E+01  0.19800672082E+02 -0.17678413661E+02  0.28333795420E+02  0.00000000000E+00 0.  1.
</event>
<event>
 5    1  0.9034713E-005  0.9118800E+02  0.7818608E-02  0.1130116E+00
         25   -1    0    0    0    0  0.00000000000E+00  0.00000000000E+00  0.99999998245E-14  0.12500000000E+03  0.12500000000E+03 0.  0.
        -13    1    3    3    0    0 -0.11583149458E+02  0.29315299316E+02  0.30184158596E+02  0.43642304242E+02  0.10566000000E+00 0.  1.
         23    2    1    0    0    0 -0.26010438202E+02 -0.11508307521E+02 -0.23256879263E+00  0.96556404487E+02  0.92271886952E+02 0.  0.
         13    1    3    3    0    0 -0.14427288744E+02 -0.40823606837E+02 -0.30416727388E+02  0.52914100245E+02  0.10566000000E+00 0. -1.
         22    1    1    0    0    0  0.26010438202E+02  0.11508307521E+02  0.23256879263E+00  0.28443595513E+02  0.00000000000E+00 0. -1.
</event>
<event>
 5    1  0.9034713E-005  0.9118800E+02  0.7818608E-02  0.1130116E+00
         25   -1    0    0    0    0  0.00000000000E+00  0.00000000000E+00  0.99999998245E-14  0.12500000000E+03  0.12500000000E+03 0.  0.
        -13    1    3    3    0    0  0.50201529332E+02 -0.23848886936E+02 -0.20611146561E+02  0.59277259400E+02  0.10566000000E+00 0.  1.
         23    2    1    0    0    0  0.16863758425E+02 -0.21053950507E+02 -0.17431322960E+02  0.92882929768E+02  0.87153499311E+02 0.  0.
         13    1    3    3    0    0 -0.33337770908E+02  0.27949364290E+01  0.31798236019E+01  0.33605670368E+02  0.10566000000E+00 0. -1.
         22    1    1    0    0    0 -0.16863758425E+02  0.21053950507E+02  0.17431322960E+02  0.32117070232E+02  0.00000000000E+00 0.  1.
</event>
<event>
 5    1  0.9034713E-005  0.9118800E+02  0.7818608E-02  0.1130116E+00
         25   -1    0    0    0    0  0.00000000000E+00  0.00000000000E+00  0.99999998245E-14  0.12500000000E+03  0.12500000000E+03 0.  0.
        -13    1    3    3    0    0  0.23944427329E+02  0.19886146207E+02 -0.32153494391E+02  0.44751008667E+02  0.10566000000E+00 0.  1.
         23    2    1    0    0    0 -0.10429302505E+02  0.26774830202E+02  0.50006571602E+01  0.95833778868E+02  0.91287702989E+02 0.  0.
         13    1    3    3    0    0 -0.34373729835E+02  0.68886839947E+01  0.37154151551E+02  0.51082770202E+02  0.10566000000E+00 0. -1.
         22    1    1    0    0    0  0.10429302505E+02 -0.26774830202E+02 -0.50006571602E+01  0.29166221132E+02  0.00000000000E+00 0. -1.
</event>
<event>
 5    1  0.9034713E-005  0.9118800E+02  0.7818608E-02  0.1130116E+00
         25   -1    0    0    0    0  0.00000000000E+00  0.00000000000E+00  0.99999998245E-14  0.12500000000E+03  0.12500000000E+03 0.  0.
        -13    1    3    3    0    0  0.18738549991E+02  0.12483335956E+02 -0.50011670294E+02  0.54846561077E+02  0.10566000000E+00 0.  1.
         23    2    1    0    0    0 -0.13479026131E+02  0.47790898716E+01 -0.24395372148E+02  0.96721774672E+02  0.92495641346E+02 0.  0.
         13    1    3    3    0    0 -0.32217576122E+02 -0.77042460849E+01  0.25616298146E+02  0.41875213595E+02  0.10566000000E+00 0. -1.
         22    1    1    0    0    0  0.13479026131E+02 -0.47790898716E+01  0.24395372148E+02  0.28278225328E+02  0.00000000000E+00 0.  1.
</event>
<event>
 5    1  0.9034713E-005  0.9118800E+02  0.7818608E-02  0.1130116E+00
         25   -1    0    0    0    0  0.00000000000E+00  0.00000000000E+00  0.99999998245E-14  0.12500000000E+03  0.12500000000E+03 0.  0.
        -13    1    3    3    0    0  0.33842940984E+01  0.20874287589E+02 -0.55351455324E+02  0.59253557694E+02  0.10566000000E+00 0.  1.
         23    2    1    0    0    0 -0.11951409200E+02  0.13962441261E+02 -0.24769656557E+02  0.94156494463E+02  0.88961360240E+02 0.  0.
         13    1    3    3    0    0 -0.15335703298E+02 -0.69118463279E+01  0.30581798766E+02  0.34902936769E+02  0.10566000000E+00 0. -1.
         22    1    1    0    0    0  0.11951409200E+02 -0.13962441261E+02  0.24769656557E+02  0.30843505537E+02  0.00000000000E+00 0.  1.
</event>
<event>
 5    1  0.9034713E-005  0.9118800E+02  0.7818608E-02  0.1130116E+00
         25   -1    0    0    0    0  0.00000000000E+00  0.00000000000E+00  0.99999998245E-14  0.12500000000E+03  0.12500000000E+03 0.  0.
        -13    1    3    3    0    0  0.17907924317E+02  0.14851584894E+02  0.50908100250E+02  0.55972396432E+02  0.10566000000E+00 0.  1.
         23    2    1    0    0    0 -0.91249938086E+01  0.17183343570E+02  0.22442205433E+02  0.95298394101E+02  0.90551634581E+02 0.  0.
         13    1    3    3    0    0 -0.27032918126E+02  0.23317586759E+01 -0.28465894817E+02  0.39325997669E+02  0.10566000000E+00 0. -1.
         22    1    1    0    0    0  0.91249938086E+01 -0.17183343570E+02 -0.22442205433E+02  0.29701605899E+02  0.00000000000E+00 0.  1.
</event>
<event>
 5    1  0.9034713E-005  0.9118800E+02  0.7818608E-02  0.1130116E+00
         25   -1    0    0    0    0  0.00000000000E+00  0.00000000000E+00  0.99999998245E-14  0.12500000000E+03  0.12500000000E+03 0.  0.
        -13    1    3    3    0    0  0.75923268536E+01  0.89405143638E+01  0.37638190389E+02  0.39423606684E+02  0.10566000000E+00 0. -1.
         23    2    1    0    0    0 -0.94835249520E+01 -0.26301072608E+02 -0.41975981722E+01  0.96728043996E+02  0.92504113417E+02 0.  0.
         13    1    3    3    0    0 -0.17075851806E+02 -0.35241586972E+02 -0.41835788561E+02  0.57304437313E+02  0.10566000000E+00 0.  1.
         22    1    1    0    0    0  0.94835249520E+01  0.26301072608E+02  0.41975981722E+01  0.28271956004E+02  0.00000000000E+00 0.  1.
</event>
<event>
 5    1  0.9034713E-005  0.9118800E+02  0.7818608E-02  0.1130116E+00
         25   -1    0    0    0    0  0.00000000000E+00  0.00000000000E+00  0.99999998245E-14  0.12500000000E+03  0.12500000000E+03 0.  0.
        -13    1    3    3    0    0  0.19399156183E+02  0.62014481550E+00  0.10527620961E+02  0.22080620628E+02  0.10566000000E+00 0.  1.
         23    2    1    0    0    0 -0.35698244232E+02  0.11504745877E+02 -0.16037410450E+02  0.84208795643E+02  0.73669524980E+02 0.  0.
         13    1    3    3    0    0 -0.55097400415E+02  0.10884601061E+02 -0.26565031411E+02  0.62128175015E+02  0.10566000000E+00 0. -1.
         22    1    1    0    0    0  0.35698244232E+02 -0.11504745877E+02  0.16037410450E+02  0.40791204357E+02  0.00000000000E+00 0. -1.
</event>
<event>
 5    1  0.9034713E-005  0.9118800E+02  0.7818608E-02  0.1130116E+00
         25   -1    0    0    0    0  0.00000000000E+00  0.00000000000E+00  0.99999998245E-14  0.12500000000E+03  0.12500000000E+03 0.  0.
        -13    1    3    3    0    0 -0.39370362020E+02  0.26738865162E+02  0.25138402917E+02  0.53823255021E+02  0.10566000000E+00 0.  1.
         23    2    1    0    0    0  0.27716370935E+01  0.19843300672E+02  0.19753361323E+02  0.96864011706E+02  0.92687663291E+02 0.  0.
         13    1    3    3    0    0  0.42141999114E+02 -0.68955644904E+01 -0.53850415940E+01  0.43040756684E+02  0.10566000000E+00 0. -1.
         22    1    1    0    0    0 -0.27716370935E+01 -0.19843300672E+02 -0.19753361323E+02  0.28135988294E+02  0.00000000000E+00 0.  1.
</event>
<event>
 5    1  0.9034713E-005  0.9118800E+02  0.7818608E-02  0.1130116E+00
         25   -1    0    0    0    0  0.00000000000E+00  0.00000000000E+00  0.99999998245E-14  0.12500000000E+03  0.12500000000E+03 0.  0.
        -13    1    3    3    0    0 -0.31350740650E+02 -0.24722433155E+02  0.40867531220E+02  0.57133474535E+02  0.10566000000E+00 0. -1.
         23    2    1    0    0    0 -0.22313322961E+02  0.35507120256E+01  0.26697860831E+02  0.90024755749E+02  0.82952932060E+02 0.  0.
         13    1    3    3    0    0  0.90374176890E+01  0.28273145181E+02 -0.14169670389E+02  0.32891281214E+02  0.10566000000E+00 0.  1.
         22    1    1    0    0    0  0.22313322961E+02 -0.35507120256E+01 -0.26697860831E+02  0.34975244251E+02  0.00000000000E+00 0. -1.
</event>
<event>
 5    1  0.9034713E-005  0.9118800E+02  0.7818608E-02  0.1130116E+00
         25   -1    0    0    0    0  0.00000000000E+00  0.00000000000E+00  0.99999998245E-14  0.12500000000E+03  0.12500000000E+03 0.  0.
        -13    1    3    3    0    0  0.34979479452E+02 -0.35731533546E+02  0.27565376861E+02  0.57097877699E+02  0.10566000000E+00 0. -1.
         23    2    1    0    0    0  0.83180662118E+01 -0.73473366761E+01  0.26739275432E+02  0.96048964918E+02  0.91581882648E+02 0.  0.
         13    1    3    3    0    0 -0.26661413240E+02  0.28384196870E+02 -0.82610142897E+00  0.38951087218E+02  0.10566000000E+00 0.  1.
         22    1    1    0    0    0 -0.83180662118E+01  0.73473366761E+01 -0.26739275432E+02  0.28951035082E+02  0.00000000000E+00 0. -1.
</event>
<event>
 5    1  0.9034713E-005  0.9118800E+02  0.7818608E-02  0.1130116E+00
         25   -1    0    0    0    0  0.00000000000E+00  0.00000000000E+00  0.99999998245E-14  0.12500000000E+03  0.12500000000E+03 0.  0.
        -13    1    3    3    0    0  0.14066122371E+01  0.10749730499E+02  0.52225594821E+02  0.53339096188E+02  0.10566000000E+00 0. -1.
         23    2    1    0    0    0 -0.13020978085E+02  0.22466023186E+02  0.14834692959E+02  0.95094545928E+02  0.90269798282E+02 0.  0.
         13    1    3    3    0    0 -0.14427590322E+02  0.11716292687E+02 -0.37390901862E+02  0.41755449739E+02  0.10566000000E+00 0.  1.
         22    1    1    0    0    0  0.13020978085E+02 -0.22466023186E+02 -0.14834692959E+02  0.29905454072E+02  0.00000000000E+00 0. -1.
</event>
<event>
 5    1  0.9034713E-005  0.9118800E+02  0.7818608E-02  0.1130116E+00
         25   -1    0    0    0    0  0.00000000000E+00  0.00000000000E+00  0.99999998245E-14  0.12500000000E+03  0.12500000000E+03 0.  0.
        -13    1    3    3    0    0  0.52423162683E+02  0.14282479867E+01  0.84461974701E+01  0.53118521193E+02  0.10566000000E+00 0. -1.
         23    2    1    0    0    0  0.18876569566E+02  0.18055104070E+02 -0.12523425191E+02  0.96031951393E+02  0.91558657965E+02 0.  0.
         13    1    3    3    0    0 -0.33546593117E+02  0.16626856083E+02 -0.20969622661E+02  0.42913430200E+02  0.10566000000E+00 0.  1.
         22    1    1    0    0    0 -0.18876569566E+02 -0.18055104070E+02  0.12523425191E+02  0.28968048607E+02  0.00000000000E+00 0. -1.
</event>
<event>
 5    1  0.9034713E-005  0.9118800E+02  0.7818608E-02  0.1130116E+00
         25   -1    0    0    0    0  0.00000000000E+00  0.00000000000E+00  0.99999998245E-14  0.12500000000E+03  0.12500000000E+03 0.  0.
        -13    1    3    3    0    0  0.11567120271E+02  0.38458089115E+02  0.31516004794E+02  0.51049903153E+02  0.10566000000E+00 0.  1.
         23    2    1    0    0    0 -0.79837015176E+01  0.60910709283E+01  0.34583820357E+02  0.88987762282E+02  0.81375306884E+02 0.  0.
         13    1    3    3    0    0 -0.19550821789E+02 -0.32367018187E+02  0.30678155632E+01  0.37937859129E+02  0.10566000000E+00 0. -1.
         22    1    1    0    0    0  0.79837015176E+01 -0.60910709283E+01 -0.34583820357E+02  0.36012237718E+02  0.00000000000E+00 0.  1.
</event>
<event>
 5    1  0.9034713E-005  0.9118800E+02  0.7818608E-02  0.1130116E+00
         25   -1    0    0    0    0  0.00000000000E+00  0.00000000000E+00  0.99999998245E-14  0.12500000000E+03  0.12500000000E+03 0.  0.
        -13    1    3    3    0    0  0.64828151006E+01  0.39252891417E+02 -0.24485620000E+02  0.46715876606E+02  0.10566000000E+00 0.  1.
         23    2    1    0    0    0 -0.27198812919E+02  0.82215942298E+01 -0.11758562680E+02  0.94248840149E+02  0.89091021082E+02 0.  0.
         13    1    3    3    0    0 -0.33681628019E+02 -0.31031297187E+02  0.12727057321E+02  0.47532963544E+02  0.10566000000E+00 0. -1.
         22    1    1    0    0    0  0.27198812919E+02 -0.82215942298E+01  0.11758562680E+02  0.30751159851E+02  0.00000000000E+00 0.  1.
</event>
<event>
 5    1  0.9034713E-005  0.9118800E+02  0.7818608E-02  0.1130116E+00
         25   -1    0    0    0    0  0.00000000000E+00  0.00000000000E+00  0.99999998245E-14  0.12500000000E+03  0.12500000000E+03 0.  0.
        -13    1    3    3    0    0  0.21946853613E+02  0.43789697815E+02 -0.12146880500E+02  0.50465432607E+02  0.10566000000E+00 0.  1.
         23    2    1    0    0    0 -0.15446583872E+02  0.24634606800E+02 -0.14425580563E+02  0.92541439033E+02  0.86662331830E+02 0.  0.
         13    1    3    3    0    0 -0.37393437485E+02 -0.19155091015E+02 -0.22787000625E+01  0.42076006426E+02  0.10566000000E+00 0. -1.
         22    1    1    0    0    0  0.15446583872E+02 -0.24634606800E+02  0.14425580563E+02  0.32458560967E+02  0.00000000000E+00 0.  1.
</event>
<event>
 5    1  0.9034713E-005  0.9118800E+02  0.7818608E-02  0.1130116E+00
         25   -1    0    0    0    0  0.00000000000E+00  0.00000000000E+00  0.99999998245E-14  0.12500000000E+03  0.12500000000E+03 0.  0.
        -13    1    3    3    0    0 -0.10585351561E+00 -0.28822165191E+02 -0.26523707157E+02  0.39169460255E+02  0.10566000000E+00 0. -1.
         23    2    1    0    0    0 -0.14119443825E+02  0.22770512610E+02 -0.16414110647E+02  0.93579020276E+02  0.88146214150E+02 0.  0.
         13    1    3    3    0    0 -0.14013590310E+02  0.51592677801E+02  0.10109596510E+02  0.54409560021E+02  0.10566000000E+00 0.  1.
         22    1    1    0    0    0  0.14119443825E+02 -0.22770512610E+02  0.16414110647E+02  0.31420979724E+02  0.00000000000E+00 0.  1.
</event>
<event>
 5    1  0.9034713E-005  0.9118800E+02  0.7818608E-02  0.1130116E+00
         25   -1    0    0    0    0  0.00000000000E+00  0.00000000000E+00  0.99999998245E-14  0.12500000000E+03  0.12500000000E+03 0.  0.
        -13    1    3    3    0    0  0.28893062064E+02  0.30059579089E+02  0.37582731654E+01  0.41863147417E+02  0.10566000000E+00 0.  1.
         23    2    1    0    0    0  0.75608118013E+01 -0.11131700298E+01 -0.30925302038E+02  0.93144398785E+02  0.87527708163E+02 0.  0.
         13    1    3    3    0    0 -0.21332250263E+02 -0.31172749119E+02 -0.34683575204E+02  0.51281251368E+02  0.10566000000E+00 0. -1.
         22    1    1    0    0    0 -0.75608118013E+01  0.11131700298E+01  0.30925302038E+02  0.31855601215E+02  0.00000000000E+00 0. -1.
</event>
<event>
 5    1  0.9034713E-005  0.9118800E+02  0.7818608E-02  0.1130116E+00
         25   -1    0    0    0    0  0.00000000000E+00  0.00000000000E+00  0.99999998245E-14  0.12500000000E+03  0.12500000000E+03 0.  0.
        -13    1    3    3    0    0  0.12464479859E+01  0.42364808270E+01  0.52043632897E+02  0.52230760013E+02  0.10566000000E+00 0.  1.
         23    2    1    0    0    0  0.24346342370E+02  0.69514911011E+01  0.16260206309E+02  0.94909105621E+02  0.90012645807E+02 0.  0.
         13    1    3    3    0    0  0.23099894384E+02  0.27150102741E+01 -0.35783426588E+02  0.42678345607E+02  0.10566000000E+00 0. -1.
         22    1    1    0    0    0 -0.24346342370E+02 -0.69514911011E+01 -0.16260206309E+02  0.30090894379E+02  0.00000000000E+00 0. -1.
</event>
<event>
 5    1  0.9034713E-005  0.9118800E+02  0.7818608E-02  0.1130116E+00
         25   -1    0    0    0    0  0.00000000000E+00  0.00000000000E+00  0.99999998245E-14  0.12500000000E+03  0.12500000000E+03 0.  0.
        -13    1    3    3    0    0  0.59234355665E+01  0.25480469454E+02  0.23976158641E+02  0.35485331614E+02  0.10566000000E+00 0.  1.
         23    2    1    0    0    0  0.59935791559E+01 -0.29996013364E+02  0.57810625254E+01  0.93869556818E+02  0.88557265114E+02 0.  0.
         13    1    3    3    0    0  0.70143589431E-01 -0.55476482818E+02 -0.18195096116E+02  0.58384225204E+02  0.10566000000E+00 0. -1.
         22    1    1    0    0    0 -0.59935791559E+01  0.29996013364E+02 -0.57810625254E+01  0.31130443182E+02  0.00000000000E+00 0. -1.
</event>
<event>
 5    1  0.9034713E-005  0.9118800E+02  0.7818608E-02  0.1130116E+00
         25   -1    0    0    0    0  0.00000000000E+00  0.00000000000E+00  0.99999998245E-14  0.12500000000E+03  0.12500000000E+03 0.  0.
        -13    1    3    3    0    0  0.37353231011E+02 -0.15285422857E+02 -0.20347092142E+02  0.45198709512E+02  0.10566000000E+00 0.  1.
         23    2    1    0    0    0  0.18057031362E+02  0.12301475192E+02  0.18333459833E+02  0.96478106252E+02  0.92165755913E+02 0.  0.
         13    1    3    3    0    0 -0.19296199650E+02  0.27586898050E+02  0.38680551975E+02  0.51279396740E+02  0.10566000000E+00 0. -1.
         22    1    1    0    0    0 -0.18057031362E+02 -0.12301475192E+02 -0.18333459833E+02  0.28521893748E+02  0.00000000000E+00 0. -1.
</event>
<event>
 5    1  0.9034713E-005  0.9118800E+02  0.7818608E-02  0.1130116E+00
         25   -1    0    0    0    0  0.00000000000E+00  0.00000000000E+00  0.99999998245E-14  0.12500000000E+03  0.12500000000E+03 0.  0.
        -13    1    3    3    0    0  0.14971415790E+02  0.32594770138E+02  0.50679517865E+01  0.36225096694E+02  0.10566000000E+00 0.  1.
         23    2    1    0    0    0 -0.78603972035E+01 -0.15826021188E+02 -0.22460044919E+02  0.96421994321E+02  0.92089622543E+02 0.  0.
         13    1    3    3    0    0 -0.22831812994E+02 -0.48420791327E+02 -0.27527996705E+02  0.60196897627E+02  0.10566000000E+00 0. -1.
         22    1    1    0    0    0  0.78603972035E+01  0.15826021188E+02  0.22460044919E+02  0.28578005679E+02  0.00000000000E+00 0. -1.
</event>
<event>
 5    1  0.9034713E-005  0.9118800E+02  0.7818608E-02  0.1130116E+00
         25   -1    0    0    0    0  0.00000000000E+00  0.00000000000E+00  0.99999998245E-14  0.12500000000E+03  0.12500000000E+03 0.  0.
        -13    1    3    3    0    0 -0.16236430387E+02  0.49376212838E+02 -0.12822784098E+02  0.53535661218E+02  0.10566000000E+00 0.  1.
         23    2    1    0    0    0 -0.72620157937E+01  0.20870993844E+02  0.18022968195E+02  0.96483993267E+02  0.92173739843E+02 0.  0.
         13    1    3    3    0    0  0.89744145930E+01 -0.28505218994E+02  0.30845752294E+02  0.42948332049E+02  0.10566000000E+00 0. -1.
         22    1    1    0    0    0  0.72620157937E+01 -0.20870993844E+02 -0.18022968195E+02  0.28516006733E+02  0.00000000000E+00 0.  1.
</event>
<event>
 5    1  0.9034713E-005  0.9118800E+02  0.7818608E-02  0.1130116E+00
         25   -1    0    0    0    0  0.00000000000E+00  0.00000000000E+00  0.99999998245E-14  0.12500000000E+03  0.12500000000E+03 0.  0.
        -13    1    3    3    0    0 -0.98202660999E+01 -0.43149123728E+02 -0.37390591498E+02  0.57934031461E+02  0.10566000000E+00 0. -1.
         23    2    1    0    0    0  0.11249365888E+02 -0.15419104327E+02 -0.21606437466E+02  0.96170585314E+02  0.91747732008E+02 0.  0.
         13    1    3    3    0    0  0.21069631988E+02  0.27730019401E+02  0.15784154031E+02  0.38236553853E+02  0.10566000000E+00 0.  1.
         22    1    1    0    0    0 -0.11249365888E+02  0.15419104327E+02  0.21606437466E+02  0.28829414686E+02  0.00000000000E+00 0. -1.
</event>
<event>
 5    1  0.9034713E-005  0.9118800E+02  0.7818608E-02  0.1130116E+00
         25   -1    0    0    0    0  0.00000000000E+00  0.00000000000E+00  0.99999998245E-14  0.12500000000E+03  0.12500000000E+03 0.  0.
        -13    1    3    3    0    0  0.25535367931E+02  0.11591942787E+02 -0.52612900911E+02  0.59620102812E+02  0.10566000000E+00 0.  1.
         23    2    1    0    0    0  0.74079557144E+01  0.17623574612E+02 -0.20634180934E+02  0.96871053827E+02  0.92697159918E+02 0.  0.
         13    1    3    3    0    0 -0.18127412217E+02  0.60316318245E+01  0.31978719977E+02  0.37250951015E+02  0.10566000000E+00 0. -1.
         22    1    1    0    0    0 -0.74079557144E+01 -0.17623574612E+02  0.20634180934E+02  0.28128946173E+02  0.00000000000E+00 0.  1.
</event>
<event>
 5    1  0.9034713E-005  0.9118800E+02  0.7818608E-02  0.1130116E+00
         25   -1    0    0    0    0  0.00000000000E+00  0.00000000000E+00  0.99999998245E-14  0.12500000000E+03  0.12500000000E+03 0.  0.
        -13    1    3    3    0    0 -0.77312943328E+01 -0.59224835066E+01  0.41236806431E+02  0.42371382933E+02  0.10566000000E+00 0.  1.
         23    2    1    0    0    0  0.28550871408E+02 -0.40565885629E+00  0.15818489098E+01  0.96402464036E+02  0.92063108838E+02 0.  0.
         13    1    3    3    0    0  0.36282165741E+02  0.55168246503E+01 -0.39654957522E+02  0.54031081103E+02  0.10566000000E+00 0. -1.
         22    1    1    0    0    0 -0.28550871408E+02  0.40565885629E+00 -0.15818489098E+01  0.28597535964E+02  0.00000000000E+00 0. -1.
</event>
<event>
 5    1  0.9034713E-005  0.9118800E+02  0.7818608E-02  0.1130116E+00
         25   -1    0    0    0    0  0.00000000000E+00  0.00000000000E+00  0.99999998245E-14  0.12500000000E+03  0.12500000000E+03 0.  0.
        -13    1    3    3    0    0 -0.22011968439E+01 -0.48596791613E+02  0.70706017313E+01  0.49157888436E+02  0.10566000000E+00 0. -1.
         23    2    1    0    0    0  0.15224280091E+02 -0.14899399825E+02 -0.20014333528E+02  0.95770830220E+02  0.91201466847E+02 0.  0.
         13    1    3    3    0    0  0.17425476935E+02  0.33697391788E+02 -0.27084935259E+02  0.46612941784E+02  0.10566000000E+00 0.  1.
         22    1    1    0    0    0 -0.15224280091E+02  0.14899399825E+02  0.20014333528E+02  0.29229169780E+02  0.00000000000E+00 0. -1.
</event>
<event>
 5    1  0.9034713E-005  0.9118800E+02  0.7818608E-02  0.1130116E+00
         25   -1    0    0    0    0  0.00000000000E+00  0.00000000000E+00  0.99999998245E-14  0.12500000000E+03  0.12500000000E+03 0.  0.
        -13    1    3    3    0    0  0.41933243106E+02 -0.21176275119E+02 -0.21719911138E+02  0.51755166014E+02  0.10566000000E+00 0.  1.
         23    2    1    0    0    0  0.11041469666E+02  0.12442206923E+02 -0.22007817265E+02  0.97412564703E+02  0.93424521276E+02 0.  0.
         13    1    3    3    0    0 -0.30891773440E+02  0.33618482042E+02 -0.28790612695E+00  0.45657398689E+02  0.10566000000E+00 0. -1.
         22    1    1    0    0    0 -0.11041469666E+02 -0.12442206923E+02  0.22007817265E+02  0.27587435297E+02  0.00000000000E+00 0.  1.
</event>
<event>
 5    1  0.9034713E-005  0.9118800E+02  0.7818608E-02  0.1130116E+00
         25   -1    0    0    0    0  0.00000000000E+00  0.00000000000E+00  0.99999998245E-14  0.12500000000E+03  0.12500000000E+03 0.  0.
        -13    1    3    3    0    0  0.26577990977E+02  0.41036107989E+02  0.29307089646E+02  0.57002354607E+02  0.10566000000E+00 0.  1.
         23    2    1    0    0    0 -0.34328892352E+01  0.18246395509E+02  0.23373140520E+02  0.95150052339E+02  0.90346627413E+02 0.  0.
         13    1    3    3    0    0 -0.30010880212E+02 -0.22789712479E+02 -0.59339491262E+01  0.38147697732E+02  0.10566000000E+00 0. -1.
         22    1    1    0    0    0  0.34328892352E+01 -0.18246395509E+02 -0.23373140520E+02  0.29849947661E+02  0.00000000000E+00 0.  1.
</event>
<event>
 5    1  0.9034713E-005  0.9118800E+02  0.7818608E-02  0.1130116E+00
         25   -1    0    0    0    0  0.00000000000E+00  0.00000000000E+00  0.99999998245E-14  0.12500000000E+03  0.12500000000E+03 0.  0.
        -13    1    3    3    0    0  0.49963420899E+02  0.22456262352E+02  0.29639070369E+02  0.62282524059E+02  0.10566000000E+00 0. -1.
         23    2    1    0    0    0  0.25589475571E+02  0.13255546902E+02  0.19318286529E+02  0.90305231258E+02  0.83374503384E+02 0.  0.
         13    1    3    3    0    0 -0.24373945329E+02 -0.92007154503E+01 -0.10320783840E+02  0.28022707199E+02  0.10566000000E+00 0.  1.
         22    1    1    0    0    0 -0.25589475571E+02 -0.13255546902E+02 -0.19318286529E+02  0.34694768742E+02  0.00000000000E+00 0. -1.
</event>
<event>
 5    1  0.9034713E-005  0.9118800E+02  0.7818608E-02  0.1130116E+00
         25   -1    0    0    0    0  0.00000000000E+00  0.00000000000E+00  0.99999998245E-14  0.12500000000E+03  0.12500000000E+03 0.  0.
        -13    1    3    3    0    0 -0.24338965398E+02  0.17442801517E+02 -0.29011771132E+02  0.41693291902E+02  0.10566000000E+00 0.  1.
         23    2    1    0    0    0  0.25805841740E+02  0.50168820532E+01 -0.12169496438E+02  0.96030926542E+02  0.91557258781E+02 0.  0.
         13    1    3    3    0    0  0.50144807138E+02 -0.12425919463E+02  0.16842274694E+02  0.54337634640E+02  0.10566000000E+00 0. -1.
         22    1    1    0    0    0 -0.25805841740E+02 -0.50168820532E+01  0.12169496438E+02  0.28969073458E+02  0.00000000000E+00 0. -1.
</event>
<event>
 5    1  0.9034713E-005  0.9118800E+02  0.7818608E-02  0.1130116E+00
         25   -1    0    0    0    0  0.00000000000E+00  0.00000000000E+00  0.99999998245E-14  0.12500000000E+03  0.12500000000E+03 0.  0.
        -13    1    3    3    0    0 -0.12760801903E+02  0.91503505507E+01  0.47361367104E+02  0.49896665604E+02  0.10566000000E+00 0.  1.
         23    2    1    0    0    0  0.20134748132E+02 -0.69487849695E+01  0.21532823159E+02  0.94712111858E+02  0.89738664825E+02 0.  0.
         13    1    3    3    0    0  0.32895550034E+02 -0.16099135520E+02 -0.25828543945E+02  0.44815446254E+02  0.10566000000E+00 0. -1.
         22    1    1    0    0    0 -0.20134748132E+02  0.69487849695E+01 -0.21532823159E+02  0.30287888142E+02  0.00000000000E+00 0. -1.
</event>
<event>
 5    1  0.9034713E-005  0.9118800E+02  0.7818608E-02  0.1130116E+00
         25   -1    0    0    0    0  0.00000000000E+00  0.00000000000E+00  0.99999998245E-14  0.12500000000E+03  0.12500000000E+03 0.  0.
        -13    1    3    3    0    0  0.13840287882E+02  0.23665062837E+02 -0.19899955276E+02  0.33876365681E+02  0.10566000000E+00 0.  1.
         23    2    1    0    0    0 -0.47246991117E+01 -0.29666401809E+02  0.29934529091E+01  0.94810946714E+02  0.89876229775E+02 0.  0.
         13    1    3    3    0    0 -0.18564986994E+02 -0.53331464646E+02  0.22893408185E+02  0.60934581033E+02  0.10566000000E+00 0. -1.
         22    1    1    0    0    0  0.47246991117E+01  0.29666401809E+02 -0.29934529091E+01  0.30189053286E+02  0.00000000000E+00 0. -1.
</event>
<event>
 5    1  0.9034713E-005  0.9118800E+02  0.7818608E-02  0.1130116E+00
         25   -1    0    0    0    0  0.00000000000E+00  0.00000000000E+00  0.99999998245E-14  0.12500000000E+03  0.12500000000E+03 0.  0.
        -13    1    3    3    0    0  0.44834173654E+01  0.33889270860E+02  0.19693985977E+02  0.39451843536E+02  0.10566000000E+00 0. -1.
         23    2    1    0    0    0  0.25591621566E+02 -0.14871731461E+02  0.25123137819E+01  0.95294592890E+02  0.90546387131E+02 0.  0.
         13    1    3    3    0    0  0.21108204201E+02 -0.48761002321E+02 -0.17181672195E+02  0.55842749354E+02  0.10566000000E+00 0.  1.
         22    1    1    0    0    0 -0.25591621566E+02  0.14871731461E+02 -0.25123137819E+01  0.29705407110E+02  0.00000000000E+00 0.  1.
</event>
<event>
 5    1  0.9034713E-005  0.9118800E+02  0.7818608E-02  0.1130116E+00
         25   -1    0    0    0    0  0.00000000000E+00  0.00000000000E+00  0.99999998245E-14  0.12500000000E+03  0.12500000000E+03 0.  0.
        -13    1    3    3    0    0  0.31280600178E+02  0.41991339848E+02 -0.16626393968E+02  0.54938117096E+02  0.10566000000E+00 0. -1.
         23    2    1    0    0    0  0.33259240758E+02  0.91763541800E+01 -0.13461839637E+02  0.87964831603E+02  0.79788519855E+02 0.  0.
         13    1    3    3    0    0  0.19786405799E+01 -0.32814985668E+02  0.31645543308E+01  0.33026714506E+02  0.10566000000E+00 0.  1.
         22    1    1    0    0    0 -0.33259240758E+02 -0.91763541800E+01  0.13461839637E+02  0.37035168397E+02  0.00000000000E+00 0.  1.
</event>
<event>
 5    1  0.9034713E-005  0.9118800E+02  0.7818608E-02  0.1130116E+00
         25   -1    0    0    0    0  0.00000000000E+00  0.00000000000E+00  0.99999998245E-14  0.12500000000E+03  0.12500000000E+03 0.  0.
        -13    1    3    3    0    0 -0.38328660247E+02 -0.16405669690E+02 -0.19724121732E+02  0.46122492739E+02  0.10566000000E+00 0.  1.
         23    2    1    0    0    0  0.41958572549E+01  0.82917267423E+01 -0.27556633868E+02  0.95918631039E+02  0.91403816987E+02 0.  0.
         13    1    3    3    0    0  0.42524517502E+02  0.24697396432E+02 -0.78325121362E+01  0.49796138301E+02  0.10566000000E+00 0. -1.
         22    1    1    0    0    0 -0.41958572549E+01 -0.82917267423E+01  0.27556633868E+02  0.29081368961E+02  0.00000000000E+00 0. -1.
</event>
<event>
 5    1  0.9034713E-005  0.9118800E+02  0.7818608E-02  0.1130116E+00
         25   -1    0    0    0    0  0.00000000000E+00  0.00000000000E+00  0.99999998245E-14  0.12500000000E+03  0.12500000000E+03 0.  0.
        -13    1    3    3    0    0 -0.25073306922E+02 -0.14205931524E+02  0.31018520165E+02  0.42339567401E+02  0.10566000000E+00 0.  1.
         23    2    1    0    0    0 -0.28227861055E+02  0.19923279361E+02 -0.26025295459E+01  0.90351445048E+02  0.83443761072E+02 0.  0.
         13    1    3    3    0    0 -0.31545541327E+01  0.34129210886E+02 -0.33621049710E+02  0.48011877646E+02  0.10566000000E+00 0. -1.
         22    1    1    0    0    0  0.28227861055E+02 -0.19923279361E+02  0.26025295459E+01  0.34648554952E+02  0.00000000000E+00 0.  1.
</event>
<event>
 5    1  0.9034713E-005  0.9118800E+02  0.7818608E-02  0.1130116E+00
         25   -1    0    0    0    0  0.00000000000E+00  0.00000000000E+00  0.99999998245E-14  0.12500000000E+03  0.12500000000E+03 0.  0.
        -13    1    3    3    0    0 -0.20096380774E+02 -0.36174596793E+02 -0.37069291422E+02  0.55557263287E+02  0.10566000000E+00 0. -1.
         23    2    1    0    0    0  0.90489643023E+01 -0.12029653312E+02 -0.25942429242E+02  0.95006568240E+02  0.90147889936E+02 0.  0.
         13    1    3    3    0    0  0.29145345076E+02  0.24144943481E+02  0.11126862179E+02  0.39449304953E+02  0.10566000000E+00 0.  1.
         22    1    1    0    0    0 -0.90489643023E+01  0.12029653312E+02  0.25942429242E+02  0.29993431760E+02  0.00000000000E+00 0. -1.
</event>
<event>
 5    1  0.9034713E-005  0.9118800E+02  0.7818608E-02  0.1130116E+00
         25   -1    0    0    0    0  0.00000000000E+00  0.00000000000E+00  0.99999998245E-14  0.12500000000E+03  0.12500000000E+03 0.  0.
        -13    1    3    3    0    0  0.15891522175E+02 -0.46502329209E+02 -0.22437622688E+02  0.54022820871E+02  0.10566000000E+00 0.  1.
         23    2    1    0    0    0 -0.95355968207E+01 -0.14207461224E+02 -0.24428912572E+02  0.95174652884E+02  0.90380657339E+02 0.  0.
         13    1    3    3    0    0 -0.25427118995E+02  0.32294867985E+02 -0.19912898835E+01  0.41151832013E+02  0.10566000000E+00 0. -1.
         22    1    1    0    0    0  0.95355968207E+01  0.14207461224E+02  0.24428912572E+02  0.29825347116E+02  0.00000000000E+00 0.  1.
</event>
<event>
 5    1  0.9034713E-005  0.9118800E+02  0.7818608E-02  0.1130116E+00
         25   -1    0    0    0    0  0.00000000000E+00  0.00000000000E+00  0.99999998245E-14  0.12500000000E+03  0.12500000000E+03 0.  0.
        -13    1    3    3    0    0  0.21588188643E+02 -0.21745673161E+02  0.17064728926E+02  0.35073356376E+02  0.10566000000E+00 0. -1.
         23    2    1    0    0    0 -0.28199696955E+02  0.77000604352E+01 -0.12323790374E+01  0.95741965254E+02  0.91161896172E+02 0.  0.
         13    1    3    3    0    0 -0.49787885598E+02  0.29445733597E+02 -0.18297107963E+02  0.60668608878E+02  0.10566000000E+00 0.  1.
         22    1    1    0    0    0  0.28199696955E+02 -0.77000604352E+01  0.12323790374E+01  0.29258034746E+02  0.00000000000E+00 0.  1.
</event>
<event>
 5    1  0.9034713E-005  0.9118800E+02  0.7818608E-02  0.1130116E+00
         25   -1    0    0    0    0  0.00000000000E+00  0.00000000000E+00  0.99999998245E-14  0.12500000000E+03  0.12500000000E+03 0.  0.
        -13    1    3    3    0    0  0.21602527789E+02 -0.13450903810E+02 -0.28401312015E+02  0.38134521217E+02  0.10566000000E+00 0.  1.
         23    2    1    0    0    0  0.14869610232E+02  0.20941407156E+02  0.16030702355E+02  0.94724081185E+02  0.89755335753E+02 0.  0.
         13    1    3    3    0    0 -0.67329175568E+01  0.34392310966E+02  0.44432014370E+02  0.56589559968E+02  0.10566000000E+00 0. -1.
         22    1    1    0    0    0 -0.14869610232E+02 -0.20941407156E+02 -0.16030702355E+02  0.30275918815E+02  0.00000000000E+00 0. -1.
</event>
<event>
 5    1  0.9034713E-005  0.9118800E+02  0.7818608E-02  0.1130116E+00
         25   -1    0    0    0    0  0.00000000000E+00  0.00000000000E+00  0.99999998245E-14  0.12500000000E+03  0.12500000000E+03 0.  0.
        -13    1    3    3    0    0  0.26987257775E+02 -0.45091955992E+02 -0.25808559228E+02  0.58546472745E+02  0.10566000000E+00 0.  1.
         23    2    1    0    0    0  0.13163494415E+02 -0.24598460236E+02  0.34933054897E+01  0.96883011996E+02  0.92713283832E+02 0.  0.
         13    1    3    3    0    0 -0.13823763360E+02  0.20493495757E+02  0.29301864718E+02  0.38336539251E+02  0.10566000000E+00 0. -1.
         22    1    1    0    0    0 -0.13163494415E+02  0.24598460236E+02 -0.34933054897E+01  0.28116988004E+02  0.00000000000E+00 0. -1.
</event>
<event>
 5    1  0.9034713E-005  0.9118800E+02  0.7818608E-02  0.1130116E+00
         25   -1    0    0    0    0  0.00000000000E+00  0.00000000000E+00  0.99999998245E-14  0.12500000000E+03  0.12500000000E+03 0.  0.
        -13    1    3    3    0    0 -0.54268086479E+02  0.28757284789E+02 -0.65945944356E+00  0.61420295419E+02  0.10566000000E+00 0. -1.
         23    2    1    0    0    0 -0.22892971232E+02  0.16913073563E+02 -0.73179022594E+01  0.95611364737E+02  0.90982642213E+02 0.  0.
         13    1    3    3    0    0  0.31375115247E+02 -0.11844211227E+02 -0.66584428158E+01  0.34191069318E+02  0.10566000000E+00 0.  1.
         22    1    1    0    0    0  0.22892971232E+02 -0.16913073563E+02  0.73179022594E+01  0.29388635263E+02  0.00000000000E+00 0. -1.
</event>
<event>
 5    1  0.9034713E-005  0.9118800E+02  0.7818608E-02  0.1130116E+00
         25   -1    0    0    0    0  0.00000000000E+00  0.00000000000E+00  0.99999998245E-14  0.12500000000E+03  0.12500000000E+03 0.  0.
        -13    1    3    3    0    0 -0.35907258183E+02 -0.68251088612E+01  0.20204090408E+02  0.41762779295E+02  0.10566000000E+00 0.  1.
         23    2    1    0    0    0  0.11086733148E+02  0.17969703460E+02  0.21436279624E+02  0.94911131985E+02  0.90015459762E+02 0.  0.
         13    1    3    3    0    0  0.46993991332E+02  0.24794812321E+02  0.12321892160E+01  0.53148352690E+02  0.10566000000E+00 0. -1.
         22    1    1    0    0    0 -0.11086733148E+02 -0.17969703460E+02 -0.21436279624E+02  0.30088868015E+02  0.00000000000E+00 0. -1.
</event>
<event>
 5    1  0.9034713E-005  0.9118800E+02  0.7818608E-02  0.1130116E+00
         25   -1    0    0    0    0  0.00000000000E+00  0.00000000000E+00  0.99999998245E-14  0.12500000000E+03  0.12500000000E+03 0.  0.
        -13    1    3    3    0    0 -0.53395440152E+02 -0.68860345014E+01 -0.21937900898E+02  0.58135816499E+02  0.10566000000E+00 0. -1.
         23    2    1    0    0    0 -0.16202338152E+02 -0.13725559999E+02 -0.19725248733E+02  0.96017381132E+02  0.91538763827E+02 0.  0.
         13    1    3    3    0    0  0.37193102000E+02 -0.68395254977E+01  0.22126521652E+01  0.37881564633E+02  0.10566000000E+00 0.  1.
         22    1    1    0    0    0  0.16202338152E+02  0.13725559999E+02  0.19725248733E+02  0.28982618868E+02  0.00000000000E+00 0. -1.
</event>
<event>
 5    1  0.9034713E-005  0.9118800E+02  0.7818608E-02  0.1130116E+00
         25   -1    0    0    0    0  0.00000000000E+00  0.00000000000E+00  0.99999998245E-14  0.12500000000E+03  0.12500000000E+03 0.  0.
        -13    1    3    3    0    0  0.24749452434E+02  0.68615329642E+01  0.42340625719E+02  0.49521265944E+02  0.10566000000E+00 0.  1.
         23    2    1    0    0    0 -0.62430929317E+01  0.25423932403E+02  0.14992310897E+02  0.94831772770E+02  0.89905190020E+02 0.  0.
         13    1    3    3    0    0 -0.30992545365E+02  0.18562399439E+02 -0.27348314823E+02  0.45310506826E+02  0.10566000000E+00 0. -1.
         22    1    1    0    0    0  0.62430929317E+01 -0.25423932403E+02 -0.14992310897E+02  0.30168227230E+02  0.00000000000E+00 0. -1.
</event>
<event>
 5    1  0.9034713E-005  0.9118800E+02  0.7818608E-02  0.1130116E+00
         25   -1    0    0    0    0  0.00000000000E+00  0.00000000000E+00  0.99999998245E-14  0.12500000000E+03  0.12500000000E+03 0.  0.
        -13    1    3    3    0    0 -0.29768565450E+02  0.30933708693E+02 -0.26617781380E+02  0.50513159395E+02  0.10566000000E+00 0.  1.
         23    2    1    0    0    0  0.81584303417E+01  0.27094390486E+02 -0.54288311056E+00  0.96698750849E+02  0.92464521370E+02 0.  0.
         13    1    3    3    0    0  0.37926995792E+02 -0.38393182072E+01  0.26074898270E+02  0.46185591453E+02  0.10566000000E+00 0. -1.
         22    1    1    0    0    0 -0.81584303417E+01 -0.27094390486E+02  0.54288311056E+00  0.28301249151E+02  0.00000000000E+00 0.  1.
</event>
<event>
 5    1  0.9034713E-005  0.9118800E+02  0.7818608E-02  0.1130116E+00
         25   -1    0    0    0    0  0.00000000000E+00  0.00000000000E+00  0.99999998245E-14  0.12500000000E+03  0.12500000000E+03 0.  0.
        -13    1    3    3    0    0 -0.26282741076E+02  0.16797168506E+02  0.13035680214E+02  0.33806322943E+02  0.10566000000E+00 0. -1.
         23    2    1    0    0    0  0.33624833729E+01 -0.32513984587E+02  0.35323677363E+01  0.92122300720E+02  0.86055651644E+02 0.  0.
         13    1    3    3    0    0  0.29645224449E+02 -0.49311153093E+02 -0.95033124779E+01  0.58315977776E+02  0.10566000000E+00 0.  1.
         22    1    1    0    0    0 -0.33624833729E+01  0.32513984587E+02 -0.35323677363E+01  0.32877699280E+02  0.00000000000E+00 0.  1.
</event>
<event>
 5    1  0.9034713E-005  0.9118800E+02  0.7818608E-02  0.1130116E+00
         25   -1    0    0    0    0  0.00000000000E+00  0.00000000000E+00  0.99999998245E-14  0.12500000000E+03  0.12500000000E+03 0.  0.
        -13    1    3    3    0    0 -0.37073937224E+02 -0.12532080350E+02 -0.41236505039E+02  0.56850596928E+02  0.10566000000E+00 0.  1.
         23    2    1    0    0    0 -0.87620630299E+01  0.10856580771E+02 -0.23589020647E+02  0.97594143150E+02  0.93667154262E+02 0.  0.
         13    1    3    3    0    0  0.28311874194E+02  0.23388661121E+02  0.17647484392E+02  0.40743546222E+02  0.10566000000E+00 0. -1.
         22    1    1    0    0    0  0.87620630299E+01 -0.10856580771E+02  0.23589020647E+02  0.27405856850E+02  0.00000000000E+00 0.  1.
</event>
<event>
 5    1  0.9034713E-005  0.9118800E+02  0.7818608E-02  0.1130116E+00
         25   -1    0    0    0    0  0.00000000000E+00  0.00000000000E+00  0.99999998245E-14  0.12500000000E+03  0.12500000000E+03 0.  0.
        -13    1    3    3    0    0 -0.22674834212E+02 -0.57559726629E+02 -0.60634619902E+01  0.62161458891E+02  0.10566000000E+00 0.  1.
         23    2    1    0    0    0 -0.61466075787E+01 -0.26918139816E+02 -0.46082606484E+01  0.97007088360E+02  0.92880418227E+02 0.  0.
         13    1    3    3    0    0  0.16528226634E+02  0.30641586813E+02  0.14552013419E+01  0.34845629469E+02  0.10566000000E+00 0. -1.
         22    1    1    0    0    0  0.61466075787E+01  0.26918139816E+02  0.46082606484E+01  0.27992911640E+02  0.00000000000E+00 0.  1.
</event>
<event>
 5    1  0.9034713E-005  0.9118800E+02  0.7818608E-02  0.1130116E+00
         25   -1    0    0    0    0  0.00000000000E+00  0.00000000000E+00  0.99999998245E-14  0.12500000000E+03  0.12500000000E+03 0.  0.
        -13    1    3    3    0    0 -0.11696432940E+01  0.29877391472E+02 -0.53299458940E+02  0.61113583384E+02  0.10566000000E+00 0.  1.
         23    2    1    0    0    0 -0.54433598056E+00  0.20422288180E+02 -0.17646758731E+02  0.98004180881E+02  0.94212765697E+02 0.  0.
         13    1    3    3    0    0  0.62530731345E+00 -0.94551032919E+01  0.35652700209E+02  0.36890597497E+02  0.10566000000E+00 0. -1.
         22    1    1    0    0    0  0.54433598056E+00 -0.20422288180E+02  0.17646758731E+02  0.26995819119E+02  0.00000000000E+00 0.  1.
</event>
<event>
 5    1  0.9034713E-005  0.9118800E+02  0.7818608E-02  0.1130116E+00
         25   -1    0    0    0    0  0.00000000000E+00  0.00000000000E+00  0.99999998245E-14  0.12500000000E+03  0.12500000000E+03 0.  0.
        -13    1    3    3    0    0 -0.13188112701E+02  0.28813484993E+02  0.44088054205E+02  0.54294667525E+02  0.10566000000E+00 0.  1.
         23    2    1    0    0    0 -0.26163105846E+02  0.85709939378E+01  0.10648361136E+02  0.95481232420E+02  0.90803678917E+02 0.  0.
         13    1    3    3    0    0 -0.12974993145E+02 -0.20242491056E+02 -0.33439693069E+02  0.41186564895E+02  0.10566000000E+00 0. -1.
         22    1    1    0    0    0  0.26163105846E+02 -0.85709939378E+01 -0.10648361136E+02  0.29518767580E+02  0.00000000000E+00 0.  1.
</event>
<event>
 5    1  0.9034713E-005  0.9118800E+02  0.7818608E-02  0.1130116E+00
         25   -1    0    0    0    0  0.00000000000E+00  0.00000000000E+00  0.99999998245E-14  0.12500000000E+03  0.12500000000E+03 0.  0.
        -13    1    3    3    0    0 -0.30064316852E+02  0.69688664326E+00  0.18318541848E+02  0.35212624699E+02  0.10566000000E+00 0.  1.
         23    2    1    0    0    0 -0.27585115793E+02 -0.39020827209E+02  0.61953147205E+01  0.76813430359E+02  0.59819374701E+02 0.  0.
         13    1    3    3    0    0  0.24792010591E+01 -0.39717713852E+02 -0.12123227127E+02  0.41600805659E+02  0.10566000000E+00 0. -1.
         22    1    1    0    0    0  0.27585115793E+02  0.39020827209E+02 -0.61953147205E+01  0.48186569641E+02  0.00000000000E+00 0.  1.
</event>
<event>
 5    1  0.9034713E-005  0.9118800E+02  0.7818608E-02  0.1130116E+00
         25   -1    0    0    0    0  0.00000000000E+00  0.00000000000E+00  0.99999998245E-14  0.12500000000E+03  0.12500000000E+03 0.  0.
        -13    1    3    3    0    0  0.12043119789E+02 -0.29506784790E+02  0.46946195319E+02  0.56741902522E+02  0.10566000000E+00 0. -1.
         23    2    1    0    0    0 -0.68383942099E+01 -0.29375833850E+01  0.31169089641E+02  0.92954638704E+02  0.87256287316E+02 0.  0.
         13    1    3    3    0    0 -0.18881513999E+02  0.26569201405E+02 -0.15777105678E+02  0.36212736182E+02  0.10566000000E+00 0.  1.
         22    1    1    0    0    0  0.68383942099E+01  0.29375833850E+01 -0.31169089641E+02  0.32045361296E+02  0.00000000000E+00 0. -1.
</event>
<event>
 5    1  0.9034713E-005  0.9118800E+02  0.7818608E-02  0.1130116E+00
         25   -1    0    0    0    0  0.00000000000E+00  0.00000000000E+00  0.99999998245E-14  0.12500000000E+03  0.12500000000E+03 0.  0.
        -13    1    3    3    0    0  0.40041572264E+02 -0.20065018774E+00 -0.27070088088E+02  0.48333928074E+02  0.10566000000E+00 0.  1.
         23    2    1    0    0    0  0.21209772318E+02  0.29618189458E+02 -0.12628075658E+02  0.86444068117E+02  0.77369354587E+02 0.  0.
         13    1    3    3    0    0 -0.18831799946E+02  0.29818839646E+02  0.14442012431E+02  0.38110140043E+02  0.10566000000E+00 0. -1.
         22    1    1    0    0    0 -0.21209772318E+02 -0.29618189458E+02  0.12628075658E+02  0.38555931883E+02  0.00000000000E+00 0.  1.
</event>
<event>
 5    1  0.9034713E-005  0.9118800E+02  0.7818608E-02  0.1130116E+00
         25   -1    0    0    0    0  0.00000000000E+00  0.00000000000E+00  0.99999998245E-14  0.12500000000E+03  0.12500000000E+03 0.  0.
        -13    1    3    3    0    0 -0.34631237587E+02 -0.23131555374E+01  0.53450282088E+01  0.35117713421E+02  0.10566000000E+00 0. -1.
         23    2    1    0    0    0  0.23705444876E+02  0.14462248165E+02 -0.52584172916E+01  0.96737733793E+02  0.92517206228E+02 0.  0.
         13    1    3    3    0    0  0.58336682463E+02  0.16775403702E+02 -0.10603445500E+02  0.61620020372E+02  0.10566000000E+00 0.  1.
         22    1    1    0    0    0 -0.23705444876E+02 -0.14462248165E+02  0.52584172916E+01  0.28262266207E+02  0.00000000000E+00 0.  1.
</event>
<event>
 5    1  0.9034713E-005  0.9118800E+02  0.7818608E-02  0.1130116E+00
         25   -1    0    0    0    0  0.00000000000E+00  0.00000000000E+00  0.99999998245E-14  0.12500000000E+03  0.12500000000E+03 0.  0.
        -13    1    3    3    0    0  0.35084265159E+02  0.87541855824E+00  0.29869809338E+02  0.46085666897E+02  0.10566000000E+00 0.  1.
         23    2    1    0    0    0  0.21804355937E+02 -0.67258518208E+01 -0.17741968112E+02  0.96095944004E+02  0.91645981914E+02 0.  0.
         13    1    3    3    0    0 -0.13279909222E+02 -0.76012703791E+01 -0.47611777450E+02  0.50010277107E+02  0.10566000000E+00 0. -1.
         22    1    1    0    0    0 -0.21804355937E+02  0.67258518208E+01  0.17741968112E+02  0.28904055996E+02  0.00000000000E+00 0. -1.
</event>
<event>
 5    1  0.9034713E-005  0.9118800E+02  0.7818608E-02  0.1130116E+00
         25   -1    0    0    0    0  0.00000000000E+00  0.00000000000E+00  0.99999998245E-14  0.12500000000E+03  0.12500000000E+03 0.  0.
        -13    1    3    3    0    0 -0.35102411426E+02  0.28667300358E+02  0.21192658476E+01  0.45370649648E+02  0.10566000000E+00 0. -1.
         23    2    1    0    0    0  0.10250184992E+02  0.19350998301E+02  0.20326809857E+02  0.95121803492E+02  0.90307534974E+02 0.  0.
         13    1    3    3    0    0  0.45352596418E+02 -0.93163020577E+01  0.18207544010E+02  0.49751153844E+02  0.10566000000E+00 0.  1.
         22    1    1    0    0    0 -0.10250184992E+02 -0.19350998301E+02 -0.20326809857E+02  0.29878196508E+02  0.00000000000E+00 0. -1.
</event>
<event>
 5    1  0.9034713E-005  0.9118800E+02  0.7818608E-02  0.1130116E+00
         25   -1    0    0    0    0  0.00000000000E+00  0.00000000000E+00  0.99999998245E-14  0.12500000000E+03  0.12500000000E+03 0.  0.
        -13    1    3    3    0    0 -0.15311945402E+02 -0.19443260722E+01 -0.31064697389E+02  0.34688076681E+02  0.10566000000E+00 0. -1.
         23    2    1    0    0    0 -0.39319616230E+01  0.30039804767E+01  0.28775839489E+02  0.95801829523E+02  0.91243944351E+02 0.  0.
         13    1    3    3    0    0  0.11379983779E+02  0.49483065489E+01  0.59840536878E+02  0.61113752842E+02  0.10566000000E+00 0.  1.
         22    1    1    0    0    0  0.39319616230E+01 -0.30039804767E+01 -0.28775839489E+02  0.29198170477E+02  0.00000000000E+00 0.  1.
</event>
<event>
 5    1  0.9034713E-005  0.9118800E+02  0.7818608E-02  0.1130116E+00
         25   -1    0    0    0    0  0.00000000000E+00  0.00000000000E+00  0.99999998245E-14  0.12500000000E+03  0.12500000000E+03 0.  0.
        -13    1    3    3    0    0 -0.17057049904E+02  0.20369710883E+02 -0.42875310067E+02  0.50439780435E+02  0.10566000000E+00 0. -1.
         23    2    1    0    0    0  0.16022671165E+02  0.20983416099E+02 -0.10946050855E+02  0.96419486153E+02  0.92086217961E+02 0.  0.
         13    1    3    3    0    0  0.33079721069E+02  0.61370521559E+00  0.31929259213E+02  0.45979705719E+02  0.10566000000E+00 0.  1.
         22    1    1    0    0    0 -0.16022671165E+02 -0.20983416099E+02  0.10946050855E+02  0.28580513847E+02  0.00000000000E+00 0.  1.
</event>
<event>
 5    1  0.9034713E-005  0.9118800E+02  0.7818608E-02  0.1130116E+00
         25   -1    0    0    0    0  0.00000000000E+00  0.00000000000E+00  0.99999998245E-14  0.12500000000E+03  0.12500000000E+03 0.  0.
        -13    1    3    3    0    0 -0.34347709409E+02 -0.21675111453E+02 -0.35710928784E+02  0.54081948900E+02  0.10566000000E+00 0.  1.
         23    2    1    0    0    0 -0.76302396027E+01 -0.27687619800E+02 -0.39651791330E+01  0.96007802909E+02  0.91525683430E+02 0.  0.
         13    1    3    3    0    0  0.26717469807E+02 -0.60125083471E+01  0.31745749651E+02  0.41925854009E+02  0.10566000000E+00 0. -1.
         22    1    1    0    0    0  0.76302396027E+01  0.27687619800E+02  0.39651791330E+01  0.28992197091E+02  0.00000000000E+00 0.  1.
</event>
<event>
 5    1  0.9034713E-005  0.9118800E+02  0.7818608E-02  0.1130116E+00
         25   -1    0    0    0    0  0.00000000000E+00  0.00000000000E+00  0.99999998245E-14  0.12500000000E+03  0.12500000000E+03 0.  0.
        -13    1    3    3    0    0 -0.36885365209E+02 -0.24612894906E+02  0.30201547475E+02  0.53651369006E+02  0.10566000000E+00 0.  1.
         23    2    1    0    0    0 -0.31041541109E+01 -0.23383772848E+01  0.30636773798E+02  0.94117712361E+02  0.88906850637E+02 0.  0.
         13    1    3    3    0    0  0.33781211098E+02  0.22274517621E+02  0.43522632275E+00  0.40466343355E+02  0.10566000000E+00 0. -1.
         22    1    1    0    0    0  0.31041541109E+01  0.23383772848E+01 -0.30636773798E+02  0.30882287639E+02  0.00000000000E+00 0.  1.
</event>
<event>
 5    1  0.9034713E-005  0.9118800E+02  0.7818608E-02  0.1130116E+00
         25   -1    0    0    0    0  0.00000000000E+00  0.00000000000E+00  0.99999998245E-14  0.12500000000E+03  0.12500000000E+03 0.  0.
        -13    1    3    3    0    0  0.53612226408E+01 -0.37099647827E+02  0.14901435571E+02  0.40338449688E+02  0.10566000000E+00 0.  1.
         23    2    1    0    0    0  0.18912487941E+02  0.76690615833E+01 -0.18211383879E+02  0.97647647113E+02  0.93738528782E+02 0.  0.
         13    1    3    3    0    0  0.13551265300E+02  0.44768709410E+02 -0.33112819450E+02  0.57309197425E+02  0.10566000000E+00 0. -1.
         22    1    1    0    0    0 -0.18912487941E+02 -0.76690615833E+01  0.18211383879E+02  0.27352352887E+02  0.00000000000E+00 0. -1.
</event>
<event>
 5    1  0.9034713E-005  0.9118800E+02  0.7818608E-02  0.1130116E+00
         25   -1    0    0    0    0  0.00000000000E+00  0.00000000000E+00  0.99999998245E-14  0.12500000000E+03  0.12500000000E+03 0.  0.
        -13    1    3    3    0    0 -0.33756389168E+02 -0.17991539075E+02  0.67764002672E+01  0.38847394412E+02  0.10566000000E+00 0.  1.
         23    2    1    0    0    0  0.13393451142E+01  0.20192017188E+02  0.24103742849E+02  0.93527761078E+02  0.88073493569E+02 0.  0.
         13    1    3    3    0    0  0.35095734282E+02  0.38183556263E+02  0.17327342582E+02  0.54680366666E+02  0.10566000000E+00 0. -1.
         22    1    1    0    0    0 -0.13393451142E+01 -0.20192017188E+02 -0.24103742849E+02  0.31472238922E+02  0.00000000000E+00 0. -1.
</event>
<event>
 5    1  0.9034713E-005  0.9118800E+02  0.7818608E-02  0.1130116E+00
         25   -1    0    0    0    0  0.00000000000E+00  0.00000000000E+00  0.99999998245E-14  0.12500000000E+03  0.12500000000E+03 0.  0.
        -13    1    3    3    0    0 -0.27505726370E+02 -0.23497725942E+02 -0.11168275904E+02  0.37860925217E+02  0.10566000000E+00 0. -1.
         23    2    1    0    0    0  0.95838343500E+01  0.20885577538E+02 -0.17595820686E+02  0.96057468398E+02  0.91593488303E+02 0.  0.
         13    1    3    3    0    0  0.37089560720E+02  0.44383303480E+02 -0.64275447821E+01  0.58196543181E+02  0.10566000000E+00 0.  1.
         22    1    1    0    0    0 -0.95838343500E+01 -0.20885577538E+02  0.17595820686E+02  0.28942531602E+02  0.00000000000E+00 0.  1.
</event>
<event>
 5    1  0.9034713E-005  0.9118800E+02  0.7818608E-02  0.1130116E+00
         25   -1    0    0    0    0  0.00000000000E+00  0.00000000000E+00  0.99999998245E-14  0.12500000000E+03  0.12500000000E+03 0.  0.
        -13    1    3    3    0    0 -0.15955878725E+02  0.96198007725E+01  0.41905393471E+02  0.45860699938E+02  0.10566000000E+00 0.  1.
         23    2    1    0    0    0  0.69989570360E+01 -0.24566635526E+02  0.11848866570E+02  0.96841508925E+02  0.92657310727E+02 0.  0.
         13    1    3    3    0    0  0.22954835761E+02 -0.34186436298E+02 -0.30056526901E+02  0.50980808987E+02  0.10566000000E+00 0. -1.
         22    1    1    0    0    0 -0.69989570360E+01  0.24566635526E+02 -0.11848866570E+02  0.28158491075E+02  0.00000000000E+00 0. -1.
</event>
<event>
 5    1  0.9034713E-005  0.9118800E+02  0.7818608E-02  0.1130116E+00
         25   -1    0    0    0    0  0.00000000000E+00  0.00000000000E+00  0.99999998245E-14  0.12500000000E+03  0.12500000000E+03 0.  0.
        -13    1    3    3    0    0  0.37936622335E+02 -0.17242374747E+02 -0.45535780011E+02  0.61725239784E+02  0.10566000000E+00 0.  1.
         23    2    1    0    0    0  0.25846690542E+02 -0.99335921897E+01 -0.20230685043E+02  0.90707022831E+02  0.83974732556E+02 0.  0.
         13    1    3    3    0    0 -0.12089931793E+02  0.73087825570E+01  0.25305094968E+02  0.28981783047E+02  0.10566000000E+00 0. -1.
         22    1    1    0    0    0 -0.25846690542E+02  0.99335921897E+01  0.20230685043E+02  0.34292977169E+02  0.00000000000E+00 0.  1.
</event>
<event>
 5    1  0.9034713E-005  0.9118800E+02  0.7818608E-02  0.1130116E+00
         25   -1    0    0    0    0  0.00000000000E+00  0.00000000000E+00  0.99999998245E-14  0.12500000000E+03  0.12500000000E+03 0.  0.
        -13    1    3    3    0    0 -0.45103275493E+02 -0.18279074878E+02 -0.15129298264E+02  0.50964074294E+02  0.10566000000E+00 0. -1.
         23    2    1    0    0    0 -0.16018249722E+02  0.15942694542E+02 -0.18202928305E+02  0.95981033232E+02  0.91489115790E+02 0.  0.
         13    1    3    3    0    0  0.29085025771E+02  0.34221769421E+02 -0.30736300403E+01  0.45016958938E+02  0.10566000000E+00 0.  1.
         22    1    1    0    0    0  0.16018249722E+02 -0.15942694542E+02  0.18202928305E+02  0.29018966768E+02  0.00000000000E+00 0. -1.
</event>
<event>
 5    1  0.9034713E-005  0.9118800E+02  0.7818608E-02  0.1130116E+00
         25   -1    0    0    0    0  0.00000000000E+00  0.00000000000E+00  0.99999998245E-14  0.12500000000E+03  0.12500000000E+03 0.  0.
        -13    1    3    3    0    0  0.36784389806E+02  0.33126187282E+02  0.63716141714E+01  0.49910362135E+02  0.10566000000E+00 0. -1.
         23    2    1    0    0    0  0.25563152181E+02 -0.11626444316E+02 -0.21735399854E+01  0.96833118154E+02  0.92645990407E+02 0.  0.
         13    1    3    3    0    0 -0.11221237625E+02 -0.44752631599E+02 -0.85451541569E+01  0.46922756019E+02  0.10566000000E+00 0.  1.
         22    1    1    0    0    0 -0.25563152181E+02  0.11626444316E+02  0.21735399854E+01  0.28166881846E+02  0.00000000000E+00 0. -1.
</event>
<event>
 5    1  0.9034713E-005  0.9118800E+02  0.7818608E-02  0.1130116E+00
         25   -1    0    0    0    0  0.00000000000E+00  0.00000000000E+00  0.99999998245E-14  0.12500000000E+03  0.12500000000E+03 0.  0.
        -13    1    3    3    0    0  0.18954453181E+02 -0.54887655991E+02 -0.12729605060E+02  0.59447288286E+02  0.10566000000E+00 0.  1.
         23    2    1    0    0    0 -0.18141058094E+01 -0.26450725354E+02 -0.14641720222E+02  0.94712843932E+02  0.89739684549E+02 0.  0.
         13    1    3    3    0    0 -0.20768558990E+02  0.28436930637E+02 -0.19121151624E+01  0.35265555646E+02  0.10566000000E+00 0. -1.
         22    1    1    0    0    0  0.18141058094E+01  0.26450725354E+02  0.14641720222E+02  0.30287156068E+02  0.00000000000E+00 0.  1.
</event>
<event>
 5    1  0.9034713E-005  0.9118800E+02  0.7818608E-02  0.1130116E+00
         25   -1    0    0    0    0  0.00000000000E+00  0.00000000000E+00  0.99999998245E-14  0.12500000000E+03  0.12500000000E+03 0.  0.
        -13    1    3    3    0    0  0.47135594002E+02  0.56529290148E+01  0.29246303709E+02  0.55759100361E+02  0.10566000000E+00 0. -1.
         23    2    1    0    0    0  0.23023294935E+02 -0.16793302065E+02  0.20656675897E+02  0.89803617189E+02  0.82619031084E+02 0.  0.
         13    1    3    3    0    0 -0.24112299068E+02 -0.22446231080E+02 -0.85896278127E+01  0.34044516828E+02  0.10566000000E+00 0.  1.
         22    1    1    0    0    0 -0.23023294935E+02  0.16793302065E+02 -0.20656675897E+02  0.35196382811E+02  0.00000000000E+00 0. -1.
</event>
<event>
 5    1  0.9034713E-005  0.9118800E+02  0.7818608E-02  0.1130116E+00
         25   -1    0    0    0    0  0.00000000000E+00  0.00000000000E+00  0.99999998245E-14  0.12500000000E+03  0.12500000000E+03 0.  0.
        -13    1    3    3    0    0 -0.32017042350E+02  0.19009057398E+02 -0.44867732173E+00  0.37237719309E+02  0.10566000000E+00 0. -1.
         23    2    1    0    0    0  0.16063917545E+02 -0.58588246547E+01 -0.23387212855E+02  0.96028686631E+02  0.91554200656E+02 0.  0.
         13    1    3    3    0    0  0.48080959894E+02 -0.24867882053E+02 -0.22938535533E+02  0.58790967322E+02  0.10566000000E+00 0.  1.
         22    1    1    0    0    0 -0.16063917545E+02  0.58588246547E+01  0.23387212855E+02  0.28971313369E+02  0.00000000000E+00 0.  1.
</event>
<event>
 5    1  0.9034713E-005  0.9118800E+02  0.7818608E-02  0.1130116E+00
         25   -1    0    0    0    0  0.00000000000E+00  0.00000000000E+00  0.99999998245E-14  0.12500000000E+03  0.12500000000E+03 0.  0.
        -13    1    3    3    0    0 -0.27844616090E+02  0.24557115737E+02 -0.32648880400E+02  0.49440217777E+02  0.10566000000E+00 0.  1.
         23    2    1    0    0    0 -0.11646142477E+02 -0.16610731635E+02 -0.22257620809E+02  0.94884377408E+02  0.89978299339E+02 0.  0.
         13    1    3    3    0    0  0.16198473612E+02 -0.41167847372E+02  0.10391259590E+02  0.45444159630E+02  0.10566000000E+00 0. -1.
         22    1    1    0    0    0  0.11646142477E+02  0.16610731635E+02  0.22257620809E+02  0.30115622592E+02  0.00000000000E+00 0.  1.
</event>
<event>
 5    1  0.9034713E-005  0.9118800E+02  0.7818608E-02  0.1130116E+00
         25   -1    0    0    0    0  0.00000000000E+00  0.00000000000E+00  0.99999998245E-14  0.12500000000E+03  0.12500000000E+03 0.  0.
        -13    1    3    3    0    0  0.29733051069E+02 -0.25447751539E+02 -0.34164797413E+02  0.51950812607E+02  0.10566000000E+00 0. -1.
         23    2    1    0    0    0  0.92682572361E+01 -0.27490903279E+02  0.43999526162E+01  0.95657029150E+02  0.91045358407E+02 0.  0.
         13    1    3    3    0    0 -0.20464793833E+02 -0.20431517400E+01  0.38564750029E+02  0.43706216543E+02  0.10566000000E+00 0.  1.
         22    1    1    0    0    0 -0.92682572361E+01  0.27490903279E+02 -0.43999526162E+01  0.29342970850E+02  0.00000000000E+00 0.  1.
</event>
<event>
 5    1  0.9034713E-005  0.9118800E+02  0.7818608E-02  0.1130116E+00
         25   -1    0    0    0    0  0.00000000000E+00  0.00000000000E+00  0.99999998245E-14  0.12500000000E+03  0.12500000000E+03 0.  0.
        -13    1    3    3    0    0  0.28136115830E+02  0.20158547956E+02 -0.18484339407E+02  0.39238884248E+02  0.10566000000E+00 0. -1.
         23    2    1    0    0    0  0.75646690208E+01 -0.28467653465E+02  0.10247201572E+01  0.95526595674E+02  0.90866104343E+02 0.  0.
         13    1    3    3    0    0 -0.20571446809E+02 -0.48626201421E+02  0.19509059564E+02  0.56287711426E+02  0.10566000000E+00 0.  1.
         22    1    1    0    0    0 -0.75646690208E+01  0.28467653465E+02 -0.10247201572E+01  0.29473404326E+02  0.00000000000E+00 0.  1.
</event>
<event>
 5    1  0.9034713E-005  0.9118800E+02  0.7818608E-02  0.1130116E+00
         25   -1    0    0    0    0  0.00000000000E+00  0.00000000000E+00  0.99999998245E-14  0.12500000000E+03  0.12500000000E+03 0.  0.
        -13    1    3    3    0    0  0.51264664339E+02 -0.98719070369E+01  0.47330520281E+01  0.52420733531E+02  0.10566000000E+00 0.  1.
         23    2    1    0    0    0  0.17064512672E+02  0.40357046780E+01  0.24942857176E+02  0.94510155312E+02  0.89456910454E+02 0.  0.
         13    1    3    3    0    0 -0.34200151667E+02  0.13907611715E+02  0.20209805148E+02  0.42089421781E+02  0.10566000000E+00 0. -1.
         22    1    1    0    0    0 -0.17064512672E+02 -0.40357046780E+01 -0.24942857176E+02  0.30489844688E+02  0.00000000000E+00 0.  1.
</event>
<event>
 5    1  0.9034713E-005  0.9118800E+02  0.7818608E-02  0.1130116E+00
         25   -1    0    0    0    0  0.00000000000E+00  0.00000000000E+00  0.99999998245E-14  0.12500000000E+03  0.12500000000E+03 0.  0.
        -13    1    3    3    0    0  0.11328632924E+02 -0.26915013354E+02  0.25135522425E+02  0.38530008038E+02  0.10566000000E+00 0. -1.
         23    2    1    0    0    0  0.12724488801E+01  0.26811161768E+02  0.15415644891E+02  0.94046815529E+02  0.88807116169E+02 0.  0.
         13    1    3    3    0    0 -0.10056184044E+02  0.53726175122E+02 -0.97198775339E+01  0.55516807492E+02  0.10566000000E+00 0.  1.
         22    1    1    0    0    0 -0.12724488801E+01 -0.26811161768E+02 -0.15415644891E+02  0.30953184471E+02  0.00000000000E+00 0.  1.
</event>
<event>
 5    1  0.9034713E-005  0.9118800E+02  0.7818608E-02  0.1130116E+00
         25   -1    0    0    0    0  0.00000000000E+00  0.00000000000E+00  0.99999998245E-14  0.12500000000E+03  0.12500000000E+03 0.  0.
        -13    1    3    3    0    0  0.17710357698E+02  0.29449194078E+02 -0.43206365679E+02  0.55206095686E+02  0.10566000000E+00 0. -1.
         23    2    1    0    0    0  0.11259813027E+02  0.28523945534E+02 -0.50427464914E+01  0.93922224172E+02  0.88631574752E+02 0.  0.
         13    1    3    3    0    0 -0.64505446705E+01 -0.92524854342E+00  0.38163619188E+02  0.38716128486E+02  0.10566000000E+00 0.  1.
         22    1    1    0    0    0 -0.11259813027E+02 -0.28523945534E+02  0.50427464914E+01  0.31077775828E+02  0.00000000000E+00 0.  1.
</event>
<event>
 5    1  0.9034713E-005  0.9118800E+02  0.7818608E-02  0.1130116E+00
         25   -1    0    0    0    0  0.00000000000E+00  0.00000000000E+00  0.99999998245E-14  0.12500000000E+03  0.12500000000E+03 0.  0.
        -13    1    3    3    0    0 -0.35320216060E+02  0.20673524437E+02 -0.39833736565E+02  0.57110857181E+02  0.10566000000E+00 0. -1.
         23    2    1    0    0    0 -0.24142670106E+02  0.17870891015E+02 -0.40665468644E+01  0.94688713836E+02  0.89706067013E+02 0.  0.
         13    1    3    3    0    0  0.11177545954E+02 -0.28026334214E+01  0.35767189701E+02  0.37577856655E+02  0.10566000000E+00 0.  1.
         22    1    1    0    0    0  0.24142670106E+02 -0.17870891015E+02  0.40665468644E+01  0.30311286164E+02  0.00000000000E+00 0. -1.
</event>
<event>
 5    1  0.9034713E-005  0.9118800E+02  0.7818608E-02  0.1130116E+00
         25   -1    0    0    0    0  0.00000000000E+00  0.00000000000E+00  0.99999998245E-14  0.12500000000E+03  0.12500000000E+03 0.  0.
        -13    1    3    3    0    0 -0.22266004157E+02 -0.22621192087E+02  0.14519038830E+02  0.34904253683E+02  0.10566000000E+00 0. -1.
         23    2    1    0    0    0  0.29718452824E+02  0.18401051728E+01 -0.32655468901E+01  0.95046098388E+02  0.90202686195E+02 0.  0.
         13    1    3    3    0    0  0.51984456981E+02  0.24461297260E+02 -0.17784585720E+02  0.60141844705E+02  0.10566000000E+00 0.  1.
         22    1    1    0    0    0 -0.29718452824E+02 -0.18401051728E+01  0.32655468901E+01  0.29953901612E+02  0.00000000000E+00 0.  1.
</event>
<event>
 5    1  0.9034713E-005  0.9118800E+02  0.7818608E-02  0.1130116E+00
         25   -1    0    0    0    0  0.00000000000E+00  0.00000000000E+00  0.99999998245E-14  0.12500000000E+03  0.12500000000E+03 0.  0.
        -13    1    3    3    0    0 -0.44703221597E+01  0.22878894173E+02  0.31020029388E+00  0.23313836387E+02  0.10566000000E+00 0.  1.
         23    2    1    0    0    0  0.88439742951E+00 -0.33678469192E+02 -0.22451351200E+02  0.84514390005E+02  0.74186235254E+02 0.  0.
         13    1    3    3    0    0  0.53547195892E+01 -0.56557363366E+02 -0.22761551494E+02  0.61200553618E+02  0.10566000000E+00 0. -1.
         22    1    1    0    0    0 -0.88439742951E+00  0.33678469192E+02  0.22451351200E+02  0.40485609995E+02  0.00000000000E+00 0. -1.
</event>
<event>
 5    1  0.9034713E-005  0.9118800E+02  0.7818608E-02  0.1130116E+00
         25   -1    0    0    0    0  0.00000000000E+00  0.00000000000E+00  0.99999998245E-14  0.12500000000E+03  0.12500000000E+03 0.  0.
        -13    1    3    3    0    0 -0.16519526467E+02 -0.98756274396E+01 -0.42042316652E+02  0.46238407471E+02  0.10566000000E+00 0.  1.
         23    2    1    0    0    0  0.11672067967E+02 -0.27705780633E+02 -0.80211380814E+01  0.93884310915E+02  0.88578088311E+02 0.  0.
         13    1    3    3    0    0  0.28191594434E+02 -0.17830153193E+02  0.34021178570E+02  0.47645903444E+02  0.10566000000E+00 0. -1.
         22    1    1    0    0    0 -0.11672067967E+02  0.27705780633E+02  0.80211380814E+01  0.31115689085E+02  0.00000000000E+00 0.  1.
</event>
<event>
 5    1  0.9034713E-005  0.9118800E+02  0.7818608E-02  0.1130116E+00
         25   -1    0    0    0    0  0.00000000000E+00  0.00000000000E+00  0.99999998245E-14  0.12500000000E+03  0.12500000000E+03 0.  0.
        -13    1    3    3    0    0 -0.24989904149E+00 -0.36488776080E+02 -0.41194154289E+02  0.55031470460E+02  0.10566000000E+00 0.  1.
         23    2    1    0    0    0 -0.19518103536E+01 -0.28855235364E+02 -0.91360256627E+00  0.96064401834E+02  0.91602950054E+02 0.  0.
         13    1    3    3    0    0 -0.17019113121E+01  0.76335407164E+01  0.40280551723E+02  0.41032931374E+02  0.10566000000E+00 0. -1.
         22    1    1    0    0    0  0.19518103536E+01  0.28855235364E+02  0.91360256627E+00  0.28935598166E+02  0.00000000000E+00 0.  1.
</event>
<event>
 5    1  0.9034713E-005  0.9118800E+02  0.7818608E-02  0.1130116E+00
         25   -1    0    0    0    0  0.00000000000E+00  0.00000000000E+00  0.99999998245E-14  0.12500000000E+03  0.12500000000E+03 0.  0.
        -13    1    3    3    0    0  0.57301655924E+02  0.21183090555E+02 -0.12362611676E+02  0.62330156655E+02  0.10566000000E+00 0. -1.
         23    2    1    0    0    0  0.28596365040E+02  0.71647891952E+01 -0.65667106475E+01  0.94797218896E+02  0.89857135075E+02 0.  0.
         13    1    3    3    0    0 -0.28705290884E+02 -0.14018301360E+02  0.57959010290E+01  0.32467062241E+02  0.10566000000E+00 0.  1.
         22    1    1    0    0    0 -0.28596365040E+02 -0.71647891952E+01  0.65667106475E+01  0.30202781104E+02  0.00000000000E+00 0. -1.
</event>
<event>
 5    1  0.9034713E-005  0.9118800E+02  0.7818608E-02  0.1130116E+00
         25   -1    0    0    0    0  0.00000000000E+00  0.00000000000E+00  0.99999998245E-14  0.12500000000E+03  0.12500000000E+03 0.  0.
        -13    1    3    3    0    0  0.17347407168E+02  0.56836635442E+02  0.35731160486E+01  0.59532461617E+02  0.10566000000E+00 0. -1.
         23    2    1    0    0    0  0.12455223289E+02  0.30975482390E+02 -0.11287140737E+02  0.89757800260E+02  0.82549682404E+02 0.  0.
         13    1    3    3    0    0 -0.48921838791E+01 -0.25861153052E+02 -0.14860256786E+02  0.30225338643E+02  0.10566000000E+00 0.  1.
         22    1    1    0    0    0 -0.12455223289E+02 -0.30975482390E+02  0.11287140737E+02  0.35242199740E+02  0.00000000000E+00 0. -1.
</event>
<event>
 5    1  0.9034713E-005  0.9118800E+02  0.7818608E-02  0.1130116E+00
         25   -1    0    0    0    0  0.00000000000E+00  0.00000000000E+00  0.99999998245E-14  0.12500000000E+03  0.12500000000E+03 0.  0.
        -13    1    3    3    0    0 -0.15787443213E+02 -0.50723369171E+02 -0.20841175263E+02  0.57065482506E+02  0.10566000000E+00 0. -1.
         23    2    1    0    0    0  0.46921032412E+01 -0.27334518468E+02  0.41549637926E+01  0.96956186835E+02  0.92811888833E+02 0.  0.
         13    1    3    3    0    0  0.20479546454E+02  0.23388850703E+02  0.24996139055E+02  0.39890704329E+02  0.10566000000E+00 0.  1.
         22    1    1    0    0    0 -0.46921032412E+01  0.27334518468E+02 -0.41549637926E+01  0.28043813165E+02  0.00000000000E+00 0. -1.
</event>
<event>
 5    1  0.9034713E-005  0.9118800E+02  0.7818608E-02  0.1130116E+00
         25   -1    0    0    0    0  0.00000000000E+00  0.00000000000E+00  0.99999998245E-14  0.12500000000E+03  0.12500000000E+03 0.  0.
        -13    1    3    3    0    0 -0.24116912048E+02  0.32189362769E+02 -0.31462050827E+02  0.51065177259E+02  0.10566000000E+00 0.  1.
         23    2    1    0    0    0  0.14632379385E+02  0.12703555252E+02 -0.22412535806E+02  0.95372165051E+02  0.90653412858E+02 0.  0.
         13    1    3    3    0    0  0.38749291432E+02 -0.19485807518E+02  0.90495150205E+01  0.44306987793E+02  0.10566000000E+00 0. -1.
         22    1    1    0    0    0 -0.14632379385E+02 -0.12703555252E+02  0.22412535806E+02  0.29627834949E+02  0.00000000000E+00 0.  1.
</event>
<event>
 5    1  0.9034713E-005  0.9118800E+02  0.7818608E-02  0.1130116E+00
         25   -1    0    0    0    0  0.00000000000E+00  0.00000000000E+00  0.99999998245E-14  0.12500000000E+03  0.12500000000E+03 0.  0.
        -13    1    3    3    0    0  0.44779518794E+02  0.26492712403E+02 -0.19197793429E+02  0.55458412802E+02  0.10566000000E+00 0. -1.
         23    2    1    0    0    0  0.27802141247E+02 -0.53737461306E+01  0.67944675448E+00  0.96675137189E+02  0.92432593263E+02 0.  0.
         13    1    3    3    0    0 -0.16977377548E+02 -0.31866458533E+02  0.19877240184E+02  0.41216724387E+02  0.10566000000E+00 0.  1.
         22    1    1    0    0    0 -0.27802141247E+02  0.53737461306E+01 -0.67944675448E+00  0.28324862811E+02  0.00000000000E+00 0. -1.
</event>
<event>
 5    1  0.9034713E-005  0.9118800E+02  0.7818608E-02  0.1130116E+00
         25   -1    0    0    0    0  0.00000000000E+00  0.00000000000E+00  0.99999998245E-14  0.12500000000E+03  0.12500000000E+03 0.  0.
        -13    1    3    3    0    0  0.33578285261E+02 -0.53959097805E+01  0.48490840773E+02  0.59228286201E+02  0.10566000000E+00 0.  1.
         23    2    1    0    0    0  0.30279740591E+02 -0.14950777076E+02  0.32597526213E+02  0.78064010177E+02  0.62377901089E+02 0.  0.
         13    1    3    3    0    0 -0.32985446697E+01 -0.95548672954E+01 -0.15893314560E+02  0.18835723976E+02  0.10566000000E+00 0. -1.
         22    1    1    0    0    0 -0.30279740591E+02  0.14950777076E+02 -0.32597526213E+02  0.46935989823E+02  0.00000000000E+00 0.  1.
</event>
<event>
 5    1  0.9034713E-005  0.9118800E+02  0.7818608E-02  0.1130116E+00
         25   -1    0    0    0    0  0.00000000000E+00  0.00000000000E+00  0.99999998245E-14  0.12500000000E+03  0.12500000000E+03 0.  0.
        -13    1    3    3    0    0 -0.97341807112E+01 -0.39608302634E+02  0.11442843393E+02  0.42361795767E+02  0.10566000000E+00 0. -1.
         23    2    1    0    0    0  0.17047773011E+02 -0.45676107140E+01 -0.21334409719E+02  0.97311614884E+02  0.93289354811E+02 0.  0.
         13    1    3    3    0    0  0.26781953722E+02  0.35040691920E+02 -0.32777253112E+02  0.54949819117E+02  0.10566000000E+00 0.  1.
         22    1    1    0    0    0 -0.17047773011E+02  0.45676107140E+01  0.21334409719E+02  0.27688385116E+02  0.00000000000E+00 0.  1.
</event>
<event>
 5    1  0.9034713E-005  0.9118800E+02  0.7818608E-02  0.1130116E+00
         25   -1    0    0    0    0  0.00000000000E+00  0.00000000000E+00  0.99999998245E-14  0.12500000000E+03  0.12500000000E+03 0.  0.
        -13    1    3    3    0    0 -0.35917913769E+02 -0.53385146243E+01  0.26655229688E+01  0.36410334311E+02  0.10566000000E+00 0.  1.
         23    2    1    0    0    0  0.18214746861E+02  0.11910952791E+02  0.19617379846E+02  0.95700010382E+02  0.91104350036E+02 0.  0.
         13    1    3    3    0    0  0.54132660630E+02  0.17249467415E+02  0.16951856877E+02  0.59289676071E+02  0.10566000000E+00 0. -1.
         22    1    1    0    0    0 -0.18214746861E+02 -0.11910952791E+02 -0.19617379846E+02  0.29299989618E+02  0.00000000000E+00 0. -1.
</event>
<event>
 5    1  0.9034713E-005  0.9118800E+02  0.7818608E-02  0.1130116E+00
         25   -1    0    0    0    0  0.00000000000E+00  0.00000000000E+00  0.99999998245E-14  0.12500000000E+03  0.12500000000E+03 0.  0.
        -13    1    3    3    0    0  0.18572664700E+02  0.13011120267E+02 -0.34533025779E+02  0.41313123317E+02  0.10566000000E+00 0. -1.
         23    2    1    0    0    0  0.16972978706E+02 -0.12413384669E+02  0.16447105384E+02  0.98303906641E+02  0.94609601312E+02 0.  0.
         13    1    3    3    0    0 -0.15996859944E+01 -0.25424504937E+02  0.50980131163E+02  0.56990783325E+02  0.10566000000E+00 0.  1.
         22    1    1    0    0    0 -0.16972978706E+02  0.12413384669E+02 -0.16447105384E+02  0.26696093359E+02  0.00000000000E+00 0.  1.
</event>
<event>
 5    1  0.9034713E-005  0.9118800E+02  0.7818608E-02  0.1130116E+00
         25   -1    0    0    0    0  0.00000000000E+00  0.00000000000E+00  0.99999998245E-14  0.12500000000E+03  0.12500000000E+03 0.  0.
        -13    1    3    3    0    0  0.18249758405E+02  0.23243383865E+02 -0.51322060163E+02  0.59222239055E+02  0.10566000000E+00 0.  1.
         23    2    1    0    0    0 -0.67773701996E+00  0.21428000328E+02 -0.21160788086E+02  0.94876961011E+02  0.89967995714E+02 0.  0.
         13    1    3    3    0    0 -0.18927495425E+02 -0.18153835377E+01  0.30161272076E+02  0.35654721956E+02  0.10566000000E+00 0. -1.
         22    1    1    0    0    0  0.67773701996E+00 -0.21428000328E+02  0.21160788086E+02  0.30123038989E+02  0.00000000000E+00 0.  1.
</event>
<event>
 5    1  0.9034713E-005  0.9118800E+02  0.7818608E-02  0.1130116E+00
         25   -1    0    0    0    0  0.00000000000E+00  0.00000000000E+00  0.99999998245E-14  0.12500000000E+03  0.12500000000E+03 0.  0.
        -13    1    3    3    0    0 -0.45810134968E+02  0.55294444042E-01  0.63573868427E+01  0.46249314100E+02  0.10566000000E+00 0.  1.
         23    2    1    0    0    0 -0.11632613554E+01  0.88430726415E+01  0.27255388088E+02  0.96322320691E+02  0.91954228684E+02 0.  0.
         13    1    3    3    0    0  0.44646873612E+02  0.87877781974E+01  0.20898001245E+02  0.50073006591E+02  0.10566000000E+00 0. -1.
         22    1    1    0    0    0  0.11632613554E+01 -0.88430726415E+01 -0.27255388088E+02  0.28677679309E+02  0.00000000000E+00 0.  1.
</event>
<event>
 5    1  0.9034713E-005  0.9118800E+02  0.7818608E-02  0.1130116E+00
         25   -1    0    0    0    0  0.00000000000E+00  0.00000000000E+00  0.99999998245E-14  0.12500000000E+03  0.12500000000E+03 0.  0.
        -13    1    3    3    0    0 -0.16814013326E+02 -0.49620450290E+02  0.72975337574E+00  0.52396983072E+02  0.10566000000E+00 0. -1.
         23    2    1    0    0    0  0.93655949322E+01 -0.21584751827E+02 -0.18276971618E+02  0.95206316585E+02  0.90424438878E+02 0.  0.
         13    1    3    3    0    0  0.26179608258E+02  0.28035698462E+02 -0.19006724994E+02  0.42809333513E+02  0.10566000000E+00 0.  1.
         22    1    1    0    0    0 -0.93655949322E+01  0.21584751827E+02  0.18276971618E+02  0.29793683415E+02  0.00000000000E+00 0. -1.
</event>
<event>
 5    1  0.9034713E-005  0.9118800E+02  0.7818608E-02  0.1130116E+00
         25   -1    0    0    0    0  0.00000000000E+00  0.00000000000E+00  0.99999998245E-14  0.12500000000E+03  0.12500000000E+03 0.  0.
        -13    1    3    3    0    0 -0.34705852871E+02 -0.11525427427E+02  0.10821384682E+02  0.38137189610E+02  0.10566000000E+00 0. -1.
         23    2    1    0    0    0  0.41339548535E+01 -0.64352486733E+01 -0.29601516782E+02  0.94426289005E+02  0.89339645461E+02 0.  0.
         13    1    3    3    0    0  0.38839807725E+02  0.50901787538E+01 -0.40422901464E+02  0.56289099394E+02  0.10566000000E+00 0.  1.
         22    1    1    0    0    0 -0.41339548535E+01  0.64352486733E+01  0.29601516782E+02  0.30573710995E+02  0.00000000000E+00 0.  1.
</event>
<event>
 5    1  0.9034713E-005  0.9118800E+02  0.7818608E-02  0.1130116E+00
         25   -1    0    0    0    0  0.00000000000E+00  0.00000000000E+00  0.99999998245E-14  0.12500000000E+03  0.12500000000E+03 0.  0.
        -13    1    3    3    0    0 -0.55733095520E+02  0.17519376728E+02 -0.12154740967E+02  0.59672903308E+02  0.10566000000E+00 0. -1.
         23    2    1    0    0    0 -0.25107430378E+02  0.16312413507E+02  0.47640549669E+01  0.94682115602E+02  0.89696872301E+02 0.  0.
         13    1    3    3    0    0  0.30625665142E+02 -0.12069632213E+01  0.16918795934E+02  0.35009212294E+02  0.10566000000E+00 0.  1.
         22    1    1    0    0    0  0.25107430378E+02 -0.16312413507E+02 -0.47640549669E+01  0.30317884398E+02  0.00000000000E+00 0. -1.
</event>
<event>
 5    1  0.9034713E-005  0.9118800E+02  0.7818608E-02  0.1130116E+00
         25   -1    0    0    0    0  0.00000000000E+00  0.00000000000E+00  0.99999998245E-14  0.12500000000E+03  0.12500000000E+03 0.  0.
        -13    1    3    3    0    0  0.41725113461E+02  0.37389748369E+02 -0.10117883191E+02  0.56932952679E+02  0.10566000000E+00 0.  1.
         23    2    1    0    0    0  0.23531570812E+02  0.24017706013E+02 -0.24225962376E+02  0.83557482219E+02  0.72555982212E+02 0.  0.
         13    1    3    3    0    0 -0.18193542649E+02 -0.13372042356E+02 -0.14108079185E+02  0.26624529540E+02  0.10566000000E+00 0. -1.
         22    1    1    0    0    0 -0.23531570812E+02 -0.24017706013E+02  0.24225962376E+02  0.41442517781E+02  0.00000000000E+00 0.  1.
</event>
<event>
 5    1  0.9034713E-005  0.9118800E+02  0.7818608E-02  0.1130116E+00
         25   -1    0    0    0    0  0.00000000000E+00  0.00000000000E+00  0.99999998245E-14  0.12500000000E+03  0.12500000000E+03 0.  0.
        -13    1    3    3    0    0  0.45862910617E+00  0.16332701906E+02  0.29988071479E+02  0.34150594245E+02  0.10566000000E+00 0. -1.
         23    2    1    0    0    0  0.20263171874E+01 -0.12942493418E+02 -0.25175097922E+02  0.96620436005E+02  0.92358589211E+02 0.  0.
         13    1    3    3    0    0  0.15676880812E+01 -0.29275195323E+02 -0.55163169401E+02  0.62469841760E+02  0.10566000000E+00 0.  1.
         22    1    1    0    0    0 -0.20263171874E+01  0.12942493418E+02  0.25175097922E+02  0.28379563995E+02  0.00000000000E+00 0.  1.
</event>
<event>
 5    1  0.9034713E-005  0.9118800E+02  0.7818608E-02  0.1130116E+00
         25   -1    0    0    0    0  0.00000000000E+00  0.00000000000E+00  0.99999998245E-14  0.12500000000E+03  0.12500000000E+03 0.  0.
        -13    1    3    3    0    0  0.27567866751E+02 -0.18284622652E+02  0.13012226680E+02  0.35547769409E+02  0.10566000000E+00 0.  1.
         23    2    1    0    0    0 -0.28835722407E+02  0.92881322200E+00  0.26567255074E+01  0.96027258135E+02  0.91552250293E+02 0.  0.
         13    1    3    3    0    0 -0.56403589158E+02  0.19213435874E+02 -0.10355501173E+02  0.60479488726E+02  0.10566000000E+00 0. -1.
         22    1    1    0    0    0  0.28835722407E+02 -0.92881322200E+00 -0.26567255074E+01  0.28972741865E+02  0.00000000000E+00 0. -1.
</event>
<event>
 5    1  0.9034713E-005  0.9118800E+02  0.7818608E-02  0.1130116E+00
         25   -1    0    0    0    0  0.00000000000E+00  0.00000000000E+00  0.99999998245E-14  0.12500000000E+03  0.12500000000E+03 0.  0.
        -13    1    3    3    0    0  0.24596997776E+02  0.46470205517E+02 -0.11033850324E+02  0.53723824486E+02  0.10566000000E+00 0. -1.
         23    2    1    0    0    0  0.73968335335E+01  0.13166164443E+02 -0.26680562238E+02  0.94341992338E+02  0.89221623413E+02 0.  0.
         13    1    3    3    0    0 -0.17200164242E+02 -0.33304041075E+02 -0.15646711914E+02  0.40618167852E+02  0.10566000000E+00 0.  1.
         22    1    1    0    0    0 -0.73968335335E+01 -0.13166164443E+02  0.26680562238E+02  0.30658007662E+02  0.00000000000E+00 0. -1.
</event>
<event>
 5    1  0.9034713E-005  0.9118800E+02  0.7818608E-02  0.1130116E+00
         25   -1    0    0    0    0  0.00000000000E+00  0.00000000000E+00  0.99999998245E-14  0.12500000000E+03  0.12500000000E+03 0.  0.
        -13    1    3    3    0    0 -0.50800826348E+02  0.40970842763E+01 -0.28735190398E+02  0.58508395880E+02  0.10566000000E+00 0. -1.
         23    2    1    0    0    0 -0.16471797189E+02  0.16507778461E+02 -0.13415520970E+02  0.98096411852E+02  0.94335056915E+02 0.  0.
         13    1    3    3    0    0  0.34329029160E+02  0.12410694184E+02  0.15319669428E+02  0.39588015972E+02  0.10566000000E+00 0.  1.
         22    1    1    0    0    0  0.16471797189E+02 -0.16507778461E+02  0.13415520970E+02  0.26903588148E+02  0.00000000000E+00 0. -1.
</event>
<event>
 5    1  0.9034713E-005  0.9118800E+02  0.7818608E-02  0.1130116E+00
         25   -1    0    0    0    0  0.00000000000E+00  0.00000000000E+00  0.99999998245E-14  0.12500000000E+03  0.12500000000E+03 0.  0.
        -13    1    3    3    0    0 -0.18342489400E+02  0.31614604032E+02 -0.22966250402E+00  0.36551251885E+02  0.10566000000E+00 0.  1.
         23    2    1    0    0    0  0.20960188914E+02 -0.94930489220E+01  0.17464246874E+02  0.96113196507E+02  0.91669510345E+02 0.  0.
         13    1    3    3    0    0  0.39302678314E+02 -0.41107652954E+02  0.17693909378E+02  0.59561944622E+02  0.10566000000E+00 0. -1.
         22    1    1    0    0    0 -0.20960188914E+02  0.94930489220E+01 -0.17464246874E+02  0.28886803493E+02  0.00000000000E+00 0. -1.
</event>
<event>
 5    1  0.9034713E-005  0.9118800E+02  0.7818608E-02  0.1130116E+00
         25   -1    0    0    0    0  0.00000000000E+00  0.00000000000E+00  0.99999998245E-14  0.12500000000E+03  0.12500000000E+03 0.  0.
        -13    1    3    3    0    0 -0.68200044177E+01 -0.25720341417E+02 -0.41378444139E+02  0.49195886274E+02  0.10566000000E+00 0.  1.
         23    2    1    0    0    0  0.86865788430E+01 -0.28528706819E+02  0.17634907126E+01  0.95126037018E+02  0.90313394657E+02 0.  0.
         13    1    3    3    0    0  0.15506583261E+02 -0.28083654021E+01  0.43141934851E+02  0.45930150745E+02  0.10566000000E+00 0. -1.
         22    1    1    0    0    0 -0.86865788430E+01  0.28528706819E+02 -0.17634907126E+01  0.29873962982E+02  0.00000000000E+00 0. -1.
</event>
<event>
 5    1  0.9034713E-005  0.9118800E+02  0.7818608E-02  0.1130116E+00
         25   -1    0    0    0    0  0.00000000000E+00  0.00000000000E+00  0.99999998245E-14  0.12500000000E+03  0.12500000000E+03 0.  0.
        -13    1    3    3    0    0 -0.41947475104E+00  0.56706322479E+02 -0.92519630266E+01  0.57457749278E+02  0.10566000000E+00 0.  1.
         23    2    1    0    0    0 -0.16760133315E+02  0.21237554084E+02  0.13136185279E+01  0.97913815960E+02  0.94092794570E+02 0.  0.
         13    1    3    3    0    0 -0.16340658564E+02 -0.35468768396E+02  0.10565581554E+02  0.40456066683E+02  0.10566000000E+00 0. -1.
         22    1    1    0    0    0  0.16760133315E+02 -0.21237554084E+02 -0.13136185279E+01  0.27086184040E+02  0.00000000000E+00 0.  1.
</event>
<event>
 5    1  0.9034713E-005  0.9118800E+02  0.7818608E-02  0.1130116E+00
         25   -1    0    0    0    0  0.00000000000E+00  0.00000000000E+00  0.99999998245E-14  0.12500000000E+03  0.12500000000E+03 0.  0.
        -13    1    3    3    0    0  0.94771105893E+01 -0.25281078702E+02  0.99797199752E+01  0.28784623331E+02  0.10566000000E+00 0.  1.
         23    2    1    0    0    0  0.24258087801E+02  0.15160651399E+02 -0.27090508203E+02  0.85602083694E+02  0.75996848115E+02 0.  0.
         13    1    3    3    0    0  0.14780977212E+02  0.40441730101E+02 -0.37070228178E+02  0.56817460363E+02  0.10566000000E+00 0. -1.
         22    1    1    0    0    0 -0.24258087801E+02 -0.15160651399E+02  0.27090508203E+02  0.39397916306E+02  0.00000000000E+00 0. -1.
</event>
<event>
 5    1  0.9034713E-005  0.9118800E+02  0.7818608E-02  0.1130116E+00
         25   -1    0    0    0    0  0.00000000000E+00  0.00000000000E+00  0.99999998245E-14  0.12500000000E+03  0.12500000000E+03 0.  0.
        -13    1    3    3    0    0  0.72544252241E+01  0.25442794447E+01  0.31911937661E+02  0.32825035759E+02  0.10566000000E+00 0. -1.
         23    2    1    0    0    0  0.30461429512E+02 -0.29341383071E+02  0.14084696552E+01  0.82682164101E+02  0.71031971852E+02 0.  0.
         13    1    3    3    0    0  0.23207004288E+02 -0.31885662515E+02 -0.30503468006E+02  0.49857128342E+02  0.10566000000E+00 0.  1.
         22    1    1    0    0    0 -0.30461429512E+02  0.29341383071E+02 -0.14084696552E+01  0.42317835899E+02  0.00000000000E+00 0.  1.
</event>
<event>
 5    1  0.9034713E-005  0.9118800E+02  0.7818608E-02  0.1130116E+00
         25   -1    0    0    0    0  0.00000000000E+00  0.00000000000E+00  0.99999998245E-14  0.12500000000E+03  0.12500000000E+03 0.  0.
        -13    1    3    3    0    0 -0.68851240277E+01 -0.32315639858E+02  0.87361199023E+01  0.34176548499E+02  0.10566000000E+00 0.  1.
         23    2    1    0    0    0 -0.12225065899E+02  0.20459959098E+02 -0.19442484237E+02  0.94241710778E+02  0.89081017588E+02 0.  0.
         13    1    3    3    0    0 -0.53399418711E+01  0.52775598956E+02 -0.28178604140E+02  0.60065162279E+02  0.10566000000E+00 0. -1.
         22    1    1    0    0    0  0.12225065899E+02 -0.20459959098E+02  0.19442484237E+02  0.30758289222E+02  0.00000000000E+00 0. -1.
</event>
<event>
 5    1  0.9034713E-005  0.9118800E+02  0.7818608E-02  0.1130116E+00
         25   -1    0    0    0    0  0.00000000000E+00  0.00000000000E+00  0.99999998245E-14  0.12500000000E+03  0.12500000000E+03 0.  0.
        -13    1    3    3    0    0 -0.36657465149E+02  0.64186009430E+01  0.31152470197E+02  0.48533037744E+02  0.10566000000E+00 0. -1.
         23    2    1    0    0    0 -0.79336739985E+00 -0.21646153243E+02  0.20223658970E+02  0.95365868256E+02  0.90644729930E+02 0.  0.
         13    1    3    3    0    0  0.35864097750E+02 -0.28064754186E+02 -0.10928811226E+02  0.46832830512E+02  0.10566000000E+00 0.  1.
         22    1    1    0    0    0  0.79336739985E+00  0.21646153243E+02 -0.20223658970E+02  0.29634131744E+02  0.00000000000E+00 0.  1.
</event>
<event>
 5    1  0.9034713E-005  0.9118800E+02  0.7818608E-02  0.1130116E+00
         25   -1    0    0    0    0  0.00000000000E+00  0.00000000000E+00  0.99999998245E-14  0.12500000000E+03  0.12500000000E+03 0.  0.
        -13    1    3    3    0    0 -0.37216247412E+02  0.15606144252E+02 -0.18457781880E+02  0.44376814733E+02  0.10566000000E+00 0.  1.
         23    2    1    0    0    0 -0.14606373902E+02 -0.21770056640E+02  0.10470909012E+02  0.96770202618E+02  0.92561064463E+02 0.  0.
         13    1    3    3    0    0  0.22609873510E+02 -0.37376200892E+02  0.28928690892E+02  0.52393387885E+02  0.10566000000E+00 0. -1.
         22    1    1    0    0    0  0.14606373902E+02  0.21770056640E+02 -0.10470909012E+02  0.28229797382E+02  0.00000000000E+00 0.  1.
</event>
<event>
 5    1  0.9034713E-005  0.9118800E+02  0.7818608E-02  0.1130116E+00
         25   -1    0    0    0    0  0.00000000000E+00  0.00000000000E+00  0.99999998245E-14  0.12500000000E+03  0.12500000000E+03 0.  0.
        -13    1    3    3    0    0  0.35897923139E+02 -0.85214070423E+01 -0.24584832517E+02  0.44336220154E+02  0.10566000000E+00 0. -1.
         23    2    1    0    0    0 -0.13749426407E+02 -0.46013246583E+01 -0.27168062146E+02  0.94205154394E+02  0.89029706269E+02 0.  0.
         13    1    3    3    0    0 -0.49647349546E+02  0.39200823840E+01 -0.25832296295E+01  0.49868934240E+02  0.10566000000E+00 0.  1.
         22    1    1    0    0    0  0.13749426407E+02  0.46013246583E+01  0.27168062146E+02  0.30794845606E+02  0.00000000000E+00 0.  1.
</event>
<event>
 5    1  0.9034713E-005  0.9118800E+02  0.7818608E-02  0.1130116E+00
         25   -1    0    0    0    0  0.00000000000E+00  0.00000000000E+00  0.99999998245E-14  0.12500000000E+03  0.12500000000E+03 0.  0.
        -13    1    3    3    0    0 -0.22130299738E+02  0.32469074024E+02  0.43746576554E+02  0.58802764039E+02  0.10566000000E+00 0. -1.
         23    2    1    0    0    0 -0.54649102440E+01  0.57694929357E+01  0.31396990482E+02  0.92612914548E+02  0.86765365424E+02 0.  0.
         13    1    3    3    0    0  0.16665389494E+02 -0.26699581088E+02 -0.12349586072E+02  0.33810150509E+02  0.10566000000E+00 0.  1.
         22    1    1    0    0    0  0.54649102440E+01 -0.57694929357E+01 -0.31396990482E+02  0.32387085452E+02  0.00000000000E+00 0. -1.
</event>
<event>
 5    1  0.9034713E-005  0.9118800E+02  0.7818608E-02  0.1130116E+00
         25   -1    0    0    0    0  0.00000000000E+00  0.00000000000E+00  0.99999998245E-14  0.12500000000E+03  0.12500000000E+03 0.  0.
        -13    1    3    3    0    0 -0.14265390293E+02  0.10263603139E+02 -0.41219266321E+02  0.44809396221E+02  0.10566000000E+00 0.  1.
         23    2    1    0    0    0 -0.63759892113E+01  0.25327812202E+02  0.86408569942E+01  0.97489716124E+02  0.93527691252E+02 0.  0.
         13    1    3    3    0    0  0.78894010812E+01  0.15064209063E+02  0.49860123315E+02  0.52680319903E+02  0.10566000000E+00 0. -1.
         22    1    1    0    0    0  0.63759892113E+01 -0.25327812202E+02 -0.86408569942E+01  0.27510283876E+02  0.00000000000E+00 0. -1.
</event>
<event>
 5    1  0.9034713E-005  0.9118800E+02  0.7818608E-02  0.1130116E+00
         25   -1    0    0    0    0  0.00000000000E+00  0.00000000000E+00  0.99999998245E-14  0.12500000000E+03  0.12500000000E+03 0.  0.
        -13    1    3    3    0    0 -0.45997787327E+02  0.94300564178E+01  0.39854253227E+02  0.61588108165E+02  0.10566000000E+00 0.  1.
         23    2    1    0    0    0 -0.26098691013E+02  0.39921000990E+01  0.12665614207E+02  0.95716961923E+02  0.91127605481E+02 0.  0.
         13    1    3    3    0    0  0.19899096315E+02 -0.54379563188E+01 -0.27188639020E+02  0.34128853758E+02  0.10566000000E+00 0. -1.
         22    1    1    0    0    0  0.26098691013E+02 -0.39921000990E+01 -0.12665614207E+02  0.29283038077E+02  0.00000000000E+00 0.  1.
</event>
<event>
 5    1  0.9034713E-005  0.9118800E+02  0.7818608E-02  0.1130116E+00
         25   -1    0    0    0    0  0.00000000000E+00  0.00000000000E+00  0.99999998245E-14  0.12500000000E+03  0.12500000000E+03 0.  0.
        -13    1    3    3    0    0  0.20704321413E+02 -0.50655221791E+02  0.12551413521E+02  0.56144185498E+02  0.10566000000E+00 0.  1.
         23    2    1    0    0    0  0.18019330945E+01 -0.24130339193E+02 -0.12990600419E+02  0.97535915604E+02  0.93589416608E+02 0.  0.
         13    1    3    3    0    0 -0.18902388318E+02  0.26524882598E+02 -0.25542013940E+02  0.41391730106E+02  0.10566000000E+00 0. -1.
         22    1    1    0    0    0 -0.18019330945E+01  0.24130339193E+02  0.12990600419E+02  0.27464084396E+02  0.00000000000E+00 0.  1.
</event>
<event>
 5    1  0.9034713E-005  0.9118800E+02  0.7818608E-02  0.1130116E+00
         25   -1    0    0    0    0  0.00000000000E+00  0.00000000000E+00  0.99999998245E-14  0.12500000000E+03  0.12500000000E+03 0.  0.
        -13    1    3    3    0    0  0.23457402386E+02 -0.26105722291E+01  0.24183367228E+02  0.33792177032E+02  0.10566000000E+00 0.  1.
         23    2    1    0    0    0 -0.20877530571E+02 -0.70318409057E+01 -0.19050619301E+02  0.95875368414E+02  0.91344633688E+02 0.  0.
         13    1    3    3    0    0 -0.44334932957E+02 -0.44212686766E+01 -0.43233986528E+02  0.62083191382E+02  0.10566000000E+00 0. -1.
         22    1    1    0    0    0  0.20877530571E+02  0.70318409057E+01  0.19050619301E+02  0.29124631586E+02  0.00000000000E+00 0. -1.
</event>
<event>
 5    1  0.9034713E-005  0.9118800E+02  0.7818608E-02  0.1130116E+00
         25   -1    0    0    0    0  0.00000000000E+00  0.00000000000E+00  0.99999998245E-14  0.12500000000E+03  0.12500000000E+03 0.  0.
        -13    1    3    3    0    0 -0.39054346116E+02 -0.11839937087E+02 -0.68558606488E+01  0.41381639045E+02  0.10566000000E+00 0. -1.
         23    2    1    0    0    0  0.73965478765E+01 -0.26393957108E+01 -0.29929408122E+02  0.94057395056E+02  0.88822006079E+02 0.  0.
         13    1    3    3    0    0  0.46450893992E+02  0.92005413759E+01 -0.23073547473E+02  0.52675756011E+02  0.10566000000E+00 0.  1.
         22    1    1    0    0    0 -0.73965478765E+01  0.26393957108E+01  0.29929408122E+02  0.30942604944E+02  0.00000000000E+00 0.  1.
</event>
<event>
 5    1  0.9034713E-005  0.9118800E+02  0.7818608E-02  0.1130116E+00
         25   -1    0    0    0    0  0.00000000000E+00  0.00000000000E+00  0.99999998245E-14  0.12500000000E+03  0.12500000000E+03 0.  0.
        -13    1    3    3    0    0 -0.40063383618E+02  0.86196558367E+00  0.42606118103E+02  0.58490256927E+02  0.10566000000E+00 0.  1.
         23    2    1    0    0    0 -0.57359948205E+01  0.16311720644E+01  0.28949610026E+02  0.95442559658E+02  0.90750426526E+02 0.  0.
         13    1    3    3    0    0  0.34327388797E+02  0.76920648074E+00 -0.13656508077E+02  0.36952302731E+02  0.10566000000E+00 0. -1.
         22    1    1    0    0    0  0.57359948205E+01 -0.16311720644E+01 -0.28949610026E+02  0.29557440342E+02  0.00000000000E+00 0.  1.
</event>
<event>
 5    1  0.9034713E-005  0.9118800E+02  0.7818608E-02  0.1130116E+00
         25   -1    0    0    0    0  0.00000000000E+00  0.00000000000E+00  0.99999998245E-14  0.12500000000E+03  0.12500000000E+03 0.  0.
        -13    1    3    3    0    0 -0.15072701458E+02 -0.31466252750E+02  0.13338451898E+02  0.37352869427E+02  0.10566000000E+00 0.  1.
         23    2    1    0    0    0  0.49310379598E+01  0.23155364500E+02  0.17331928650E+02  0.95659212840E+02  0.91048356437E+02 0.  0.
         13    1    3    3    0    0  0.20003739417E+02  0.54621617249E+02  0.39934767519E+01  0.58306343413E+02  0.10566000000E+00 0. -1.
         22    1    1    0    0    0 -0.49310379598E+01 -0.23155364500E+02 -0.17331928650E+02  0.29340787160E+02  0.00000000000E+00 0. -1.
</event>
<event>
 5    1  0.9034713E-005  0.9118800E+02  0.7818608E-02  0.1130116E+00
         25   -1    0    0    0    0  0.00000000000E+00  0.00000000000E+00  0.99999998245E-14  0.12500000000E+03  0.12500000000E+03 0.  0.
        -13    1    3    3    0    0 -0.40293080426E+02  0.45871374445E+02 -0.13175316140E+02  0.62460511070E+02  0.10566000000E+00 0.  1.
         23    2    1    0    0    0 -0.20109334981E+02  0.21082682510E+02 -0.52433474524E+01  0.95396663233E+02  0.90687186572E+02 0.  0.
         13    1    3    3    0    0  0.20183745445E+02 -0.24788691935E+02  0.79319686877E+01  0.32936152163E+02  0.10566000000E+00 0. -1.
         22    1    1    0    0    0  0.20109334981E+02 -0.21082682510E+02  0.52433474524E+01  0.29603336767E+02  0.00000000000E+00 0.  1.
</event>
<event>
 5    1  0.9034713E-005  0.9118800E+02  0.7818608E-02  0.1130116E+00
         25   -1    0    0    0    0  0.00000000000E+00  0.00000000000E+00  0.99999998245E-14  0.12500000000E+03  0.12500000000E+03 0.  0.
        -13    1    3    3    0    0  0.50331093467E+02  0.29598916509E+02  0.12136238644E+02  0.59637356418E+02  0.10566000000E+00 0.  1.
         23    2    1    0    0    0  0.23944037906E+02  0.53745753776E+01  0.16059982578E+02  0.95672094310E+02  0.91066039650E+02 0.  0.
         13    1    3    3    0    0 -0.26387055561E+02 -0.24224341131E+02  0.39237439343E+01  0.36034737892E+02  0.10566000000E+00 0. -1.
         22    1    1    0    0    0 -0.23944037906E+02 -0.53745753776E+01 -0.16059982578E+02  0.29327905690E+02  0.00000000000E+00 0.  1.
</event>
<event>
 5    1  0.9034713E-005  0.9118800E+02  0.7818608E-02  0.1130116E+00
         25   -1    0    0    0    0  0.00000000000E+00  0.00000000000E+00  0.99999998245E-14  0.12500000000E+03  0.12500000000E+03 0.  0.
        -13    1    3    3    0    0 -0.18705886895E+02 -0.21803743954E+02  0.21287721852E+02  0.35756002582E+02  0.10566000000E+00 0.  1.
         23    2    1    0    0    0 -0.84499222030E+01  0.25719727358E+02 -0.12721111123E+02  0.95087925033E+02  0.90260629614E+02 0.  0.
         13    1    3    3    0    0  0.10255964692E+02  0.47523471313E+02 -0.34008832975E+02  0.59331922451E+02  0.10566000000E+00 0. -1.
         22    1    1    0    0    0  0.84499222030E+01 -0.25719727358E+02  0.12721111123E+02  0.29912074967E+02  0.00000000000E+00 0. -1.
</event>
<event>
 5    1  0.9034713E-005  0.9118800E+02  0.7818608E-02  0.1130116E+00
         25   -1    0    0    0    0  0.00000000000E+00  0.00000000000E+00  0.99999998245E-14  0.12500000000E+03  0.12500000000E+03 0.  0.
        -13    1    3    3    0    0 -0.48817909609E+01 -0.11506551275E+02  0.30967761641E+02  0.33395299524E+02  0.10566000000E+00 0.  1.
         23    2    1    0    0    0  0.43410793693E+01  0.57747593521E+01 -0.28287540973E+02  0.95804490243E+02  0.91247589342E+02 0.  0.
         13    1    3    3    0    0  0.92228703302E+01  0.17281310627E+02 -0.59255302615E+02  0.62409190718E+02  0.10566000000E+00 0. -1.
         22    1    1    0    0    0 -0.43410793693E+01 -0.57747593521E+01  0.28287540973E+02  0.29195509757E+02  0.00000000000E+00 0. -1.
</event>
<event>
 5    1  0.9034713E-005  0.9118800E+02  0.7818608E-02  0.1130116E+00
         25   -1    0    0    0    0  0.00000000000E+00  0.00000000000E+00  0.99999998245E-14  0.12500000000E+03  0.12500000000E+03 0.  0.
        -13    1    3    3    0    0 -0.23482716050E+02  0.11447392029E+02  0.36456833937E+02  0.44850781956E+02  0.10566000000E+00 0. -1.
         23    2    1    0    0    0 -0.14752568119E+02  0.20722687163E+02 -0.13357980825E+02  0.96268420143E+02  0.91880928574E+02 0.  0.
         13    1    3    3    0    0  0.87301479305E+01  0.92752951345E+01 -0.49814814763E+02  0.51417638186E+02  0.10566000000E+00 0.  1.
         22    1    1    0    0    0  0.14752568119E+02 -0.20722687163E+02  0.13357980825E+02  0.28731579857E+02  0.00000000000E+00 0.  1.
</event>
<event>
 5    1  0.9034713E-005  0.9118800E+02  0.7818608E-02  0.1130116E+00
         25   -1    0    0    0    0  0.00000000000E+00  0.00000000000E+00  0.99999998245E-14  0.12500000000E+03  0.12500000000E+03 0.  0.
        -13    1    3    3    0    0  0.18484213623E+02  0.28095745855E+01  0.56083665334E+02  0.59118089820E+02  0.10566000000E+00 0. -1.
         23    2    1    0    0    0  0.21433363703E+02 -0.14337679020E+01  0.19744063272E+02  0.95823420274E+02  0.91273517892E+02 0.  0.
         13    1    3    3    0    0  0.29491500808E+01 -0.42433424875E+01 -0.36339602062E+02  0.36705330454E+02  0.10566000000E+00 0.  1.
         22    1    1    0    0    0 -0.21433363703E+02  0.14337679020E+01 -0.19744063272E+02  0.29176579726E+02  0.00000000000E+00 0. -1.
</event>
<event>
 5    1  0.9034713E-005  0.9118800E+02  0.7818608E-02  0.1130116E+00
         25   -1    0    0    0    0  0.00000000000E+00  0.00000000000E+00  0.99999998245E-14  0.12500000000E+03  0.12500000000E+03 0.  0.
        -13    1    3    3    0    0 -0.22347143201E+02 -0.25746085877E+02  0.71736550773E+01  0.34838602705E+02  0.10566000000E+00 0.  1.
         23    2    1    0    0    0  0.23328468467E+02  0.59864957556E+01  0.21981145801E+02  0.92392848282E+02  0.86447741847E+02 0.  0.
         13    1    3    3    0    0  0.45675611668E+02  0.31732581633E+02  0.14807490724E+02  0.57554245577E+02  0.10566000000E+00 0. -1.
         22    1    1    0    0    0 -0.23328468467E+02 -0.59864957556E+01 -0.21981145801E+02  0.32607151718E+02  0.00000000000E+00 0. -1.
</event>
<event>
 5    1  0.9034713E-005  0.9118800E+02  0.7818608E-02  0.1130116E+00
         25   -1    0    0    0    0  0.00000000000E+00  0.00000000000E+00  0.99999998245E-14  0.12500000000E+03  0.12500000000E+03 0.  0.
        -13    1    3    3    0    0  0.58673772330E+01  0.17932818106E+02 -0.41442593635E+02  0.45535829981E+02  0.10566000000E+00 0.  1.
         23    2    1    0    0    0  0.30095366752E+02  0.80647080993E+01 -0.84618912395E+00  0.93831319362E+02  0.88503275875E+02 0.  0.
         13    1    3    3    0    0  0.24227989519E+02 -0.98681100066E+01  0.40596404511E+02  0.48295489381E+02  0.10566000000E+00 0. -1.
         22    1    1    0    0    0 -0.30095366752E+02 -0.80647080993E+01  0.84618912395E+00  0.31168680638E+02  0.00000000000E+00 0. -1.
</event>
<event>
 5    1  0.9034713E-005  0.9118800E+02  0.7818608E-02  0.1130116E+00
         25   -1    0    0    0    0  0.00000000000E+00  0.00000000000E+00  0.99999998245E-14  0.12500000000E+03  0.12500000000E+03 0.  0.
        -13    1    3    3    0    0  0.24829276257E+02 -0.24250594544E+02  0.26401965817E+02  0.43608018279E+02  0.10566000000E+00 0.  1.
         23    2    1    0    0    0  0.18745248540E+02  0.20671512499E+02 -0.18672793647E+01  0.97032474117E+02  0.92914576516E+02 0.  0.
         13    1    3    3    0    0 -0.60840277173E+01  0.44922107042E+02 -0.28269245182E+02  0.53424455838E+02  0.10566000000E+00 0. -1.
         22    1    1    0    0    0 -0.18745248540E+02 -0.20671512499E+02  0.18672793647E+01  0.27967525883E+02  0.00000000000E+00 0.  1.
</event>
<event>
 5    1  0.9034713E-005  0.9118800E+02  0.7818608E-02  0.1130116E+00
         25   -1    0    0    0    0  0.00000000000E+00  0.00000000000E+00  0.99999998245E-14  0.12500000000E+03  0.12500000000E+03 0.  0.
        -13    1    3    3    0    0 -0.93695798409E+01 -0.30851188936E+02  0.12174466227E+02  0.34464672886E+02  0.10566000000E+00 0.  1.
         23    2    1    0    0    0  0.20024536548E+02  0.14841928162E+02 -0.15713293423E+02  0.95535233147E+02  0.90877985711E+02 0.  0.
         13    1    3    3    0    0  0.29394116389E+02  0.45693117098E+02 -0.27887759650E+02  0.61070560262E+02  0.10566000000E+00 0. -1.
         22    1    1    0    0    0 -0.20024536548E+02 -0.14841928162E+02  0.15713293423E+02  0.29464766853E+02  0.00000000000E+00 0. -1.
</event>
<event>
 5    1  0.9034713E-005  0.9118800E+02  0.7818608E-02  0.1130116E+00
         25   -1    0    0    0    0  0.00000000000E+00  0.00000000000E+00  0.99999998245E-14  0.12500000000E+03  0.12500000000E+03 0.  0.
        -13    1    3    3    0    0  0.25591156734E+02 -0.14553285400E+02  0.17671604760E+02  0.34336601430E+02  0.10566000000E+00 0.  1.
         23    2    1    0    0    0 -0.26424158065E+02  0.12186020657E+02 -0.14395252735E+01  0.95865699564E+02  0.91331401451E+02 0.  0.
         13    1    3    3    0    0 -0.52015314799E+02  0.26739306057E+02 -0.19111130033E+02  0.61529098134E+02  0.10566000000E+00 0. -1.
         22    1    1    0    0    0  0.26424158065E+02 -0.12186020657E+02  0.14395252735E+01  0.29134300436E+02  0.00000000000E+00 0. -1.
</event>
<event>
 5    1  0.9034713E-005  0.9118800E+02  0.7818608E-02  0.1130116E+00
         25   -1    0    0    0    0  0.00000000000E+00  0.00000000000E+00  0.99999998245E-14  0.12500000000E+03  0.12500000000E+03 0.  0.
        -13    1    3    3    0    0  0.37107120231E+02  0.10391082733E+02 -0.36129495508E+02  0.52822955066E+02  0.10566000000E+00 0. -1.
         23    2    1    0    0    0 -0.23468329463E+01 -0.34972510266E+01 -0.29534335465E+02  0.95166874771E+02  0.90369899262E+02 0.  0.
         13    1    3    3    0    0 -0.39453953177E+02 -0.13888333760E+02  0.65951600439E+01  0.42343919705E+02  0.10566000000E+00 0.  1.
         22    1    1    0    0    0  0.23468329463E+01  0.34972510266E+01  0.29534335465E+02  0.29833125229E+02  0.00000000000E+00 0.  1.
</event>
<event>
 5    1  0.9034713E-005  0.9118800E+02  0.7818608E-02  0.1130116E+00
         25   -1    0    0    0    0  0.00000000000E+00  0.00000000000E+00  0.99999998245E-14  0.12500000000E+03  0.12500000000E+03 0.  0.
        -13    1    3    3    0    0 -0.18130383440E+02 -0.32191394509E+02 -0.19958274229E+02  0.41992148771E+02  0.10566000000E+00 0.  1.
         23    2    1    0    0    0 -0.23946137246E+02  0.15889310989E+02  0.39298500961E+01  0.95994286520E+02  0.91507221736E+02 0.  0.
         13    1    3    3    0    0 -0.58157538056E+01  0.48080705499E+02  0.23888124326E+02  0.54002137749E+02  0.10566000000E+00 0. -1.
         22    1    1    0    0    0  0.23946137246E+02 -0.15889310989E+02 -0.39298500961E+01  0.29005713480E+02  0.00000000000E+00 0. -1.
</event>
<event>
 5    1  0.9034713E-005  0.9118800E+02  0.7818608E-02  0.1130116E+00
         25   -1    0    0    0    0  0.00000000000E+00  0.00000000000E+00  0.99999998245E-14  0.12500000000E+03  0.12500000000E+03 0.  0.
        -13    1    3    3    0    0  0.23823209814E+02  0.22225994642E+02 -0.25365482451E+02  0.41291149508E+02  0.10566000000E+00 0.  1.
         23    2    1    0    0    0 -0.46622287847E+01  0.15526442187E+02  0.22424939271E+02  0.97328991968E+02  0.93312635757E+02 0.  0.
         13    1    3    3    0    0 -0.28485438598E+02 -0.66995524552E+01  0.47790421721E+02  0.56037842460E+02  0.10566000000E+00 0. -1.
         22    1    1    0    0    0  0.46622287847E+01 -0.15526442187E+02 -0.22424939271E+02  0.27671008032E+02  0.00000000000E+00 0. -1.
</event>
<event>
 5    1  0.9034713E-005  0.9118800E+02  0.7818608E-02  0.1130116E+00
         25   -1    0    0    0    0  0.00000000000E+00  0.00000000000E+00  0.99999998245E-14  0.12500000000E+03  0.12500000000E+03 0.  0.
        -13    1    3    3    0    0  0.29424815326E+02  0.32343410471E+02  0.43480315993E+01  0.43941239180E+02  0.10566000000E+00 0.  1.
         23    2    1    0    0    0 -0.17272349766E+02  0.18265697702E+02  0.17395265185E+02  0.94429343647E+02  0.89343919277E+02 0.  0.
         13    1    3    3    0    0 -0.46697165092E+02 -0.14077712768E+02  0.13047233586E+02  0.50488104467E+02  0.10566000000E+00 0. -1.
         22    1    1    0    0    0  0.17272349766E+02 -0.18265697702E+02 -0.17395265185E+02  0.30570656353E+02  0.00000000000E+00 0. -1.
</event>
<event>
 5    1  0.9034713E-005  0.9118800E+02  0.7818608E-02  0.1130116E+00
         25   -1    0    0    0    0  0.00000000000E+00  0.00000000000E+00  0.99999998245E-14  0.12500000000E+03  0.12500000000E+03 0.  0.
        -13    1    3    3    0    0 -0.31873410646E+02  0.68637683383E+00 -0.47227691592E+02  0.56981149835E+02  0.10566000000E+00 0.  1.
         23    2    1    0    0    0 -0.23630779720E+02 -0.11758854389E+02 -0.10559665462E+02  0.96571300744E+02  0.92292064588E+02 0.  0.
         13    1    3    3    0    0  0.82426309262E+01 -0.12445231223E+02  0.36668026129E+02  0.39590150909E+02  0.10566000000E+00 0. -1.
         22    1    1    0    0    0  0.23630779720E+02  0.11758854389E+02  0.10559665462E+02  0.28428699256E+02  0.00000000000E+00 0.  1.
</event>
<event>
 5    1  0.9034713E-005  0.9118800E+02  0.7818608E-02  0.1130116E+00
         25   -1    0    0    0    0  0.00000000000E+00  0.00000000000E+00  0.99999998245E-14  0.12500000000E+03  0.12500000000E+03 0.  0.
        -13    1    3    3    0    0 -0.92981239407E+01 -0.28985521490E+02  0.22738761258E+02  0.37995762822E+02  0.10566000000E+00 0. -1.
         23    2    1    0    0    0 -0.17490315328E+02  0.38422920941E+01 -0.23601736732E+02  0.95373722549E+02  0.90655560433E+02 0.  0.
         13    1    3    3    0    0 -0.81921913870E+01  0.32827813585E+02 -0.46340497990E+02  0.57377959727E+02  0.10566000000E+00 0.  1.
         22    1    1    0    0    0  0.17490315328E+02 -0.38422920941E+01  0.23601736732E+02  0.29626277451E+02  0.00000000000E+00 0.  1.
</event>
<event>
 5    1  0.9034713E-005  0.9118800E+02  0.7818608E-02  0.1130116E+00
         25   -1    0    0    0    0  0.00000000000E+00  0.00000000000E+00  0.99999998245E-14  0.12500000000E+03  0.12500000000E+03 0.  0.
        -13    1    3    3    0    0  0.34507175210E+02 -0.30337706342E+02 -0.10431424512E+02  0.47116317221E+02  0.10566000000E+00 0.  1.
         23    2    1    0    0    0  0.33599332064E+02  0.50561889162E+01  0.11925998345E+02  0.88990145821E+02  0.81378968138E+02 0.  0.
         13    1    3    3    0    0 -0.90784314663E+00  0.35393895258E+02  0.22357422857E+02  0.41873828600E+02  0.10566000000E+00 0. -1.
         22    1    1    0    0    0 -0.33599332064E+02 -0.50561889162E+01 -0.11925998345E+02  0.36009854179E+02  0.00000000000E+00 0.  1.
</event>
<event>
 5    1  0.9034713E-005  0.9118800E+02  0.7818608E-02  0.1130116E+00
         25   -1    0    0    0    0  0.00000000000E+00  0.00000000000E+00  0.99999998245E-14  0.12500000000E+03  0.12500000000E+03 0.  0.
        -13    1    3    3    0    0 -0.15187123253E+02 -0.55911290630E+02  0.16738332324E+02  0.60306749751E+02  0.10566000000E+00 0. -1.
         23    2    1    0    0    0 -0.60257949807E+01 -0.27659626734E+02 -0.38300377424E+01  0.96433685129E+02  0.92105489968E+02 0.  0.
         13    1    3    3    0    0  0.91613282719E+01  0.28251663896E+02 -0.20568370066E+02  0.36126935378E+02  0.10566000000E+00 0.  1.
         22    1    1    0    0    0  0.60257949807E+01  0.27659626734E+02  0.38300377424E+01  0.28566314871E+02  0.00000000000E+00 0. -1.
</event>
<event>
 5    1  0.9034713E-005  0.9118800E+02  0.7818608E-02  0.1130116E+00
         25   -1    0    0    0    0  0.00000000000E+00  0.00000000000E+00  0.99999998245E-14  0.12500000000E+03  0.12500000000E+03 0.  0.
        -13    1    3    3    0    0 -0.26632524851E+02  0.33756556245E+02 -0.89751795389E+01  0.43924497507E+02  0.10566000000E+00 0.  1.
         23    2    1    0    0    0  0.22469817978E+02  0.17258911529E+02  0.87892450040E+00  0.96653302566E+02  0.92403060780E+02 0.  0.
         13    1    3    3    0    0  0.49102342829E+02 -0.16497644715E+02  0.98541040393E+01  0.52728805059E+02  0.10566000000E+00 0. -1.
         22    1    1    0    0    0 -0.22469817978E+02 -0.17258911529E+02 -0.87892450040E+00  0.28346697434E+02  0.00000000000E+00 0.  1.
</event>
<event>
 5    1  0.9034713E-005  0.9118800E+02  0.7818608E-02  0.1130116E+00
         25   -1    0    0    0    0  0.00000000000E+00  0.00000000000E+00  0.99999998245E-14  0.12500000000E+03  0.12500000000E+03 0.  0.
        -13    1    3    3    0    0  0.16368882910E+02  0.19599113005E+02  0.25642683142E+02  0.36188726436E+02  0.10566000000E+00 0. -1.
         23    2    1    0    0    0 -0.25194942836E+01 -0.30410559506E+02  0.26864617109E+01  0.94367222499E+02  0.89256964013E+02 0.  0.
         13    1    3    3    0    0 -0.18888377194E+02 -0.50009672511E+02 -0.22956221431E+02  0.58178496063E+02  0.10566000000E+00 0.  1.
         22    1    1    0    0    0  0.25194942836E+01  0.30410559506E+02 -0.26864617109E+01  0.30632777501E+02  0.00000000000E+00 0.  1.
</event>
<event>
 5    1  0.9034713E-005  0.9118800E+02  0.7818608E-02  0.1130116E+00
         25   -1    0    0    0    0  0.00000000000E+00  0.00000000000E+00  0.99999998245E-14  0.12500000000E+03  0.12500000000E+03 0.  0.
        -13    1    3    3    0    0  0.69573264670E+01  0.18547576633E+02  0.56635570311E+02  0.60000133158E+02  0.10566000000E+00 0.  1.
         23    2    1    0    0    0  0.11621054373E+02  0.17946395524E+02  0.24480306352E+02  0.92497578303E+02  0.86599044890E+02 0.  0.
         13    1    3    3    0    0  0.46637279057E+01 -0.60118110858E+00 -0.32155263959E+02  0.32497445146E+02  0.10566000000E+00 0. -1.
         22    1    1    0    0    0 -0.11621054373E+02 -0.17946395524E+02 -0.24480306352E+02  0.32502421697E+02  0.00000000000E+00 0.  1.
</event>
<event>
 5    1  0.9034713E-005  0.9118800E+02  0.7818608E-02  0.1130116E+00
         25   -1    0    0    0    0  0.00000000000E+00  0.00000000000E+00  0.99999998245E-14  0.12500000000E+03  0.12500000000E+03 0.  0.
        -13    1    3    3    0    0  0.49958495851E+01 -0.33826160819E+02 -0.37514885889E+02  0.50759683767E+02  0.10566000000E+00 0. -1.
         23    2    1    0    0    0 -0.62636393140E+01  0.95922848187E+01 -0.25267894698E+02  0.97256323099E+02  0.93215238963E+02 0.  0.
         13    1    3    3    0    0 -0.11259488899E+02  0.43418445638E+02  0.12246991191E+02  0.46496639332E+02  0.10566000000E+00 0.  1.
         22    1    1    0    0    0  0.62636393140E+01 -0.95922848187E+01  0.25267894698E+02  0.27743676901E+02  0.00000000000E+00 0. -1.
</event>
<event>
 5    1  0.9034713E-005  0.9118800E+02  0.7818608E-02  0.1130116E+00
         25   -1    0    0    0    0  0.00000000000E+00  0.00000000000E+00  0.99999998245E-14  0.12500000000E+03  0.12500000000E+03 0.  0.
        -13    1    3    3    0    0 -0.37261401892E+01 -0.22422535161E+02  0.25224836335E+02  0.33955231348E+02  0.10566000000E+00 0.  1.
         23    2    1    0    0    0 -0.12032091049E+01  0.18483524595E+02 -0.21839772483E+02  0.96363239434E+02  0.92009835661E+02 0.  0.
         13    1    3    3    0    0  0.25229310843E+01  0.40906059756E+02 -0.47064608818E+02  0.62408008086E+02  0.10566000000E+00 0. -1.
         22    1    1    0    0    0  0.12032091049E+01 -0.18483524595E+02  0.21839772483E+02  0.28636760566E+02  0.00000000000E+00 0. -1.
</event>
<event>
 5    1  0.9034713E-005  0.9118800E+02  0.7818608E-02  0.1130116E+00
         25   -1    0    0    0    0  0.00000000000E+00  0.00000000000E+00  0.99999998245E-14  0.12500000000E+03  0.12500000000E+03 0.  0.
        -13    1    3    3    0    0 -0.34215540898E+02  0.16841500226E+02 -0.35980353040E+02  0.52430299806E+02  0.10566000000E+00 0.  1.
         23    2    1    0    0    0 -0.27194725999E+02  0.95864630653E+01  0.59487117285E+01  0.95557843702E+02  0.90909080545E+02 0.  0.
         13    1    3    3    0    0  0.70208148995E+01 -0.72550371612E+01  0.41929064769E+02  0.43127543896E+02  0.10566000000E+00 0. -1.
         22    1    1    0    0    0  0.27194725999E+02 -0.95864630653E+01 -0.59487117285E+01  0.29442156298E+02  0.00000000000E+00 0.  1.
</event>
<event>
 5    1  0.9034713E-005  0.9118800E+02  0.7818608E-02  0.1130116E+00
         25   -1    0    0    0    0  0.00000000000E+00  0.00000000000E+00  0.99999998245E-14  0.12500000000E+03  0.12500000000E+03 0.  0.
        -13    1    3    3    0    0 -0.40711408486E+02 -0.45466413060E+02 -0.31876379335E+01  0.61112893051E+02  0.10566000000E+00 0. -1.
         23    2    1    0    0    0 -0.23734217016E+02 -0.12763282535E+02 -0.74058035551E+00  0.98041459652E+02  0.94262213601E+02 0.  0.
         13    1    3    3    0    0  0.16977191470E+02  0.32703130525E+02  0.24470575780E+01  0.36928566601E+02  0.10566000000E+00 0.  1.
         22    1    1    0    0    0  0.23734217016E+02  0.12763282535E+02  0.74058035551E+00  0.26958540348E+02  0.00000000000E+00 0. -1.
</event>
<event>
 5    1  0.9034713E-005  0.9118800E+02  0.7818608E-02  0.1130116E+00
         25   -1    0    0    0    0  0.00000000000E+00  0.00000000000E+00  0.99999998245E-14  0.12500000000E+03  0.12500000000E+03 0.  0.
        -13    1    3    3    0    0 -0.38637204946E+02 -0.25434565508E+02 -0.24461738415E+02  0.52327225599E+02  0.10566000000E+00 0.  1.
         23    2    1    0    0    0  0.13549926095E+01 -0.11242409871E+02 -0.27887492452E+02  0.94901162482E+02  0.90001614543E+02 0.  0.
         13    1    3    3    0    0  0.39992197555E+02  0.14192155636E+02 -0.34257540370E+01  0.42573936882E+02  0.10566000000E+00 0. -1.
         22    1    1    0    0    0 -0.13549926095E+01  0.11242409871E+02  0.27887492452E+02  0.30098837518E+02  0.00000000000E+00 0.  1.
</event>
<event>
 5    1  0.9034713E-005  0.9118800E+02  0.7818608E-02  0.1130116E+00
         25   -1    0    0    0    0  0.00000000000E+00  0.00000000000E+00  0.99999998245E-14  0.12500000000E+03  0.12500000000E+03 0.  0.
        -13    1    3    3    0    0 -0.30348713221E+02  0.71255598902E+01 -0.40307221291E+02  0.50955875521E+02  0.10566000000E+00 0.  1.
         23    2    1    0    0    0 -0.16259595857E+02 -0.14789304996E+02  0.42902060910E+01  0.10260571796E+03  0.10013206025E+03 0.  0.
         13    1    3    3    0    0  0.14089117364E+02 -0.21914864886E+02  0.44597427382E+02  0.51649842441E+02  0.10566000000E+00 0. -1.
         22    1    1    0    0    0  0.16259595857E+02  0.14789304996E+02 -0.42902060910E+01  0.22394282038E+02  0.00000000000E+00 0. -1.
</event>
<event>
 5    1  0.9034713E-005  0.9118800E+02  0.7818608E-02  0.1130116E+00
         25   -1    0    0    0    0  0.00000000000E+00  0.00000000000E+00  0.99999998245E-14  0.12500000000E+03  0.12500000000E+03 0.  0.
        -13    1    3    3    0    0 -0.38092660956E+02 -0.12075893120E+02  0.11839447228E+02  0.41678072029E+02  0.10566000000E+00 0.  1.
         23    2    1    0    0    0  0.18066239855E+02 -0.16572096014E+02  0.11265588256E+02  0.98019694821E+02  0.94233347098E+02 0.  0.
         13    1    3    3    0    0  0.56158900811E+02 -0.44962028938E+01 -0.57385897200E+00  0.56341622792E+02  0.10566000000E+00 0. -1.
         22    1    1    0    0    0 -0.18066239855E+02  0.16572096014E+02 -0.11265588256E+02  0.26980305179E+02  0.00000000000E+00 0. -1.
</event>
<event>
 5    1  0.9034713E-005  0.9118800E+02  0.7818608E-02  0.1130116E+00
         25   -1    0    0    0    0  0.00000000000E+00  0.00000000000E+00  0.99999998245E-14  0.12500000000E+03  0.12500000000E+03 0.  0.
        -13    1    3    3    0    0  0.19436691679E+02 -0.11052251303E+02  0.20771267537E+02  0.30518747704E+02  0.10566000000E+00 0. -1.
         23    2    1    0    0    0  0.87227682399E+01  0.39185194763E+02  0.35367632954E+01  0.84700187730E+02  0.74498637118E+02 0.  0.
         13    1    3    3    0    0 -0.10713923439E+02  0.50237446066E+02 -0.17234504242E+02  0.54181440025E+02  0.10566000000E+00 0.  1.
         22    1    1    0    0    0 -0.87227682399E+01 -0.39185194763E+02 -0.35367632954E+01  0.40299812270E+02  0.00000000000E+00 0.  1.
</event>
<event>
 5    1  0.9034713E-005  0.9118800E+02  0.7818608E-02  0.1130116E+00
         25   -1    0    0    0    0  0.00000000000E+00  0.00000000000E+00  0.99999998245E-14  0.12500000000E+03  0.12500000000E+03 0.  0.
        -13    1    3    3    0    0 -0.14892223619E-01  0.40913385571E+02  0.16473651456E+02  0.44105529097E+02  0.10566000000E+00 0. -1.
         23    2    1    0    0    0  0.21756559419E+02  0.63338173799E+01 -0.16791868198E+02  0.96796596697E+02  0.92596701745E+02 0.  0.
         13    1    3    3    0    0  0.21771451642E+02 -0.34579568191E+02 -0.33265519654E+02  0.52691067599E+02  0.10566000000E+00 0.  1.
         22    1    1    0    0    0 -0.21756559419E+02 -0.63338173799E+01  0.16791868198E+02  0.28203403303E+02  0.00000000000E+00 0.  1.
</event>
<event>
 5    1  0.9034713E-005  0.9118800E+02  0.7818608E-02  0.1130116E+00
         25   -1    0    0    0    0  0.00000000000E+00  0.00000000000E+00  0.99999998245E-14  0.12500000000E+03  0.12500000000E+03 0.  0.
        -13    1    3    3    0    0 -0.27488313159E+02 -0.24834227853E+02 -0.19195864967E+02  0.41723358317E+02  0.10566000000E+00 0.  1.
         23    2    1    0    0    0 -0.10868039604E+02  0.25616039102E+02 -0.47383424392E+01  0.96773281573E+02  0.92565222375E+02 0.  0.
         13    1    3    3    0    0  0.16620273555E+02  0.50450266954E+02  0.14457522528E+02  0.55049923256E+02  0.10566000000E+00 0. -1.
         22    1    1    0    0    0  0.10868039604E+02 -0.25616039102E+02  0.47383424392E+01  0.28226718427E+02  0.00000000000E+00 0. -1.
</event>
<event>
 5    1  0.9034713E-005  0.9118800E+02  0.7818608E-02  0.1130116E+00
         25   -1    0    0    0    0  0.00000000000E+00  0.00000000000E+00  0.99999998245E-14  0.12500000000E+03  0.12500000000E+03 0.  0.
        -13    1    3    3    0    0  0.15992913877E+02 -0.24286809687E+02 -0.47729573204E+02  0.55890479881E+02  0.10566000000E+00 0.  1.
         23    2    1    0    0    0  0.24565698001E+02 -0.43352190829E+01 -0.12947898843E+02  0.96894560540E+02  0.92728852764E+02 0.  0.
         13    1    3    3    0    0  0.85727841244E+01  0.19951590604E+02  0.34781674361E+02  0.41004080659E+02  0.10566000000E+00 0. -1.
         22    1    1    0    0    0 -0.24565698001E+02  0.43352190829E+01  0.12947898843E+02  0.28105439460E+02  0.00000000000E+00 0.  1.
</event>
<event>
 5    1  0.9034713E-005  0.9118800E+02  0.7818608E-02  0.1130116E+00
         25   -1    0    0    0    0  0.00000000000E+00  0.00000000000E+00  0.99999998245E-14  0.12500000000E+03  0.12500000000E+03 0.  0.
        -13    1    3    3    0    0 -0.44608596069E+02 -0.17883598465E+02  0.33659891305E+02  0.58674946817E+02  0.10566000000E+00 0.  1.
         23    2    1    0    0    0 -0.16416265482E+02 -0.21887337848E+02  0.94395637403E+01  0.96057735160E+02  0.91593852359E+02 0.  0.
         13    1    3    3    0    0  0.28192330587E+02 -0.40037393835E+01 -0.24220327565E+02  0.37382788343E+02  0.10566000000E+00 0. -1.
         22    1    1    0    0    0  0.16416265482E+02  0.21887337848E+02 -0.94395637403E+01  0.28942264840E+02  0.00000000000E+00 0.  1.
</event>
<event>
 5    1  0.9034713E-005  0.9118800E+02  0.7818608E-02  0.1130116E+00
         25   -1    0    0    0    0  0.00000000000E+00  0.00000000000E+00  0.99999998245E-14  0.12500000000E+03  0.12500000000E+03 0.  0.
        -13    1    3    3    0    0  0.17810148048E+02  0.72174184714E+01 -0.30693306177E+02  0.36213018530E+02  0.10566000000E+00 0.  1.
         23    2    1    0    0    0 -0.19288614707E+02  0.13478118260E+02  0.16272588053E+02  0.96390430777E+02  0.92046769059E+02 0.  0.
         13    1    3    3    0    0 -0.37098762756E+02  0.62606997885E+01  0.46965894231E+02  0.60177412247E+02  0.10566000000E+00 0. -1.
         22    1    1    0    0    0  0.19288614707E+02 -0.13478118260E+02 -0.16272588053E+02  0.28609569223E+02  0.00000000000E+00 0. -1.
</event>
<event>
 5    1  0.9034713E-005  0.9118800E+02  0.7818608E-02  0.1130116E+00
         25   -1    0    0    0    0  0.00000000000E+00  0.00000000000E+00  0.99999998245E-14  0.12500000000E+03  0.12500000000E+03 0.  0.
        -13    1    3    3    0    0 -0.42901465486E+02 -0.13273362658E+02 -0.37770623038E+02  0.58680056457E+02  0.10566000000E+00 0.  1.
         23    2    1    0    0    0 -0.82656343074E+01 -0.15496158939E+02 -0.22127491168E+02  0.96749734200E+02  0.92533418557E+02 0.  0.
         13    1    3    3    0    0  0.34635831178E+02 -0.22227962815E+01  0.15643131869E+02  0.38069677743E+02  0.10566000000E+00 0. -1.
         22    1    1    0    0    0  0.82656343074E+01  0.15496158939E+02  0.22127491168E+02  0.28250265800E+02  0.00000000000E+00 0.  1.
</event>
<event>
 5    1  0.9034713E-005  0.9118800E+02  0.7818608E-02  0.1130116E+00
         25   -1    0    0    0    0  0.00000000000E+00  0.00000000000E+00  0.99999998245E-14  0.12500000000E+03  0.12500000000E+03 0.  0.
        -13    1    3    3    0    0 -0.36754908904E+02 -0.11476000921E+02 -0.10292381455E+02  0.39856821320E+02  0.10566000000E+00 0. -1.
         23    2    1    0    0    0 -0.26347388815E+01  0.16443278342E+00  0.30551055607E+02  0.94335103362E+02  0.89211971397E+02 0.  0.
         13    1    3    3    0    0  0.34120170022E+02  0.11640433704E+02  0.40843437063E+02  0.54478282042E+02  0.10566000000E+00 0.  1.
         22    1    1    0    0    0  0.26347388815E+01 -0.16443278342E+00 -0.30551055607E+02  0.30664896638E+02  0.00000000000E+00 0. -1.
</event>
<event>
 5    1  0.9034713E-005  0.9118800E+02  0.7818608E-02  0.1130116E+00
         25   -1    0    0    0    0  0.00000000000E+00  0.00000000000E+00  0.99999998245E-14  0.12500000000E+03  0.12500000000E+03 0.  0.
        -13    1    3    3    0    0  0.15516591626E+02 -0.24389864852E+02  0.15704504022E+00  0.28907887339E+02  0.10566000000E+00 0. -1.
         23    2    1    0    0    0 -0.38364682633E+01  0.38973118789E+01 -0.41663621734E+02  0.82978994484E+02  0.71552418694E+02 0.  0.
         13    1    3    3    0    0 -0.19353059889E+02  0.28287176731E+02 -0.41820666774E+02  0.54071107145E+02  0.10566000000E+00 0.  1.
         22    1    1    0    0    0  0.38364682633E+01 -0.38973118789E+01  0.41663621734E+02  0.42021005516E+02  0.00000000000E+00 0.  1.
</event>
<event>
 5    1  0.9034713E-005  0.9118800E+02  0.7818608E-02  0.1130116E+00
         25   -1    0    0    0    0  0.00000000000E+00  0.00000000000E+00  0.99999998245E-14  0.12500000000E+03  0.12500000000E+03 0.  0.
        -13    1    3    3    0    0 -0.54742128958E+01 -0.31211596058E+02  0.16802395317E+02  0.35867288547E+02  0.10566000000E+00 0.  1.
         23    2    1    0    0    0  0.22877799308E+02  0.14362050310E+02 -0.10418077422E+02  0.96048341542E+02  0.91581031799E+02 0.  0.
         13    1    3    3    0    0  0.28352012204E+02  0.45573646368E+02 -0.27220472740E+02  0.60181052994E+02  0.10566000000E+00 0. -1.
         22    1    1    0    0    0 -0.22877799308E+02 -0.14362050310E+02  0.10418077422E+02  0.28951658458E+02  0.00000000000E+00 0. -1.
</event>
<event>
 5    1  0.9034713E-005  0.9118800E+02  0.7818608E-02  0.1130116E+00
         25   -1    0    0    0    0  0.00000000000E+00  0.00000000000E+00  0.99999998245E-14  0.12500000000E+03  0.12500000000E+03 0.  0.
        -13    1    3    3    0    0  0.43923138506E+02  0.29060688893E+02  0.30349686338E+02  0.60785527554E+02  0.10566000000E+00 0. -1.
         23    2    1    0    0    0  0.15352097293E+02  0.10669666069E+02  0.22659413822E+02  0.95623517909E+02  0.90999337784E+02 0.  0.
         13    1    3    3    0    0 -0.28571041213E+02 -0.18391022824E+02 -0.76902725166E+01  0.34837990355E+02  0.10566000000E+00 0.  1.
         22    1    1    0    0    0 -0.15352097293E+02 -0.10669666069E+02 -0.22659413822E+02  0.29376482091E+02  0.00000000000E+00 0. -1.
</event>
<event>
 5    1  0.9034713E-005  0.9118800E+02  0.7818608E-02  0.1130116E+00
         25   -1    0    0    0    0  0.00000000000E+00  0.00000000000E+00  0.99999998245E-14  0.12500000000E+03  0.12500000000E+03 0.  0.
        -13    1    3    3    0    0 -0.19744334457E+02 -0.83170970399E+01  0.58698816837E+02  0.62486599431E+02  0.10566000000E+00 0. -1.
         23    2    1    0    0    0 -0.84546226453E+01 -0.41508918398E+01  0.27899636275E+02  0.95553433963E+02  0.90903016950E+02 0.  0.
         13    1    3    3    0    0  0.11289711812E+02  0.41662052001E+01 -0.30799180563E+02  0.33066834531E+02  0.10566000000E+00 0.  1.
         22    1    1    0    0    0  0.84546226453E+01  0.41508918398E+01 -0.27899636275E+02  0.29446566037E+02  0.00000000000E+00 0. -1.
</event>
<event>
 5    1  0.9034713E-005  0.9118800E+02  0.7818608E-02  0.1130116E+00
         25   -1    0    0    0    0  0.00000000000E+00  0.00000000000E+00  0.99999998245E-14  0.12500000000E+03  0.12500000000E+03 0.  0.
        -13    1    3    3    0    0 -0.12844674329E+02  0.73566317700E+01  0.42413123393E+02  0.44922042358E+02  0.10566000000E+00 0. -1.
         23    2    1    0    0    0 -0.13377168996E+00 -0.28353067944E+02  0.95730292138E+01  0.95074137522E+02  0.90241533567E+02 0.  0.
         13    1    3    3    0    0  0.12710902639E+02 -0.35709699714E+02 -0.32840094180E+02  0.50152095164E+02  0.10566000000E+00 0.  1.
         22    1    1    0    0    0  0.13377168996E+00  0.28353067944E+02 -0.95730292138E+01  0.29925862478E+02  0.00000000000E+00 0. -1.
</event>
<event>
 5    1  0.9034713E-005  0.9118800E+02  0.7818608E-02  0.1130116E+00
         25   -1    0    0    0    0  0.00000000000E+00  0.00000000000E+00  0.99999998245E-14  0.12500000000E+03  0.12500000000E+03 0.  0.
        -13    1    3    3    0    0 -0.28843927304E+02 -0.21307281098E+02  0.66510225146E+01  0.36472176171E+02  0.10566000000E+00 0. -1.
         23    2    1    0    0    0  0.15841488910E+01  0.15530999669E+02 -0.26231851876E+02  0.94474084269E+02  0.89406493428E+02 0.  0.
         13    1    3    3    0    0  0.30428076195E+02  0.36838280767E+02 -0.32882874390E+02  0.58001908098E+02  0.10566000000E+00 0.  1.
         22    1    1    0    0    0 -0.15841488910E+01 -0.15530999669E+02  0.26231851876E+02  0.30525915731E+02  0.00000000000E+00 0.  1.
</event>
<event>
 5    1  0.9034713E-005  0.9118800E+02  0.7818608E-02  0.1130116E+00
         25   -1    0    0    0    0  0.00000000000E+00  0.00000000000E+00  0.99999998245E-14  0.12500000000E+03  0.12500000000E+03 0.  0.
        -13    1    3    3    0    0  0.49864546755E+02 -0.34313046469E+01 -0.23889029499E+01  0.50039633252E+02  0.10566000000E+00 0.  1.
         23    2    1    0    0    0  0.14598724963E+02  0.25404367451E+02 -0.24921823986E+01  0.95593952506E+02  0.90958716605E+02 0.  0.
         13    1    3    3    0    0 -0.35265821792E+02  0.28835672098E+02 -0.10327944864E+00  0.45554319254E+02  0.10566000000E+00 0. -1.
         22    1    1    0    0    0 -0.14598724963E+02 -0.25404367451E+02  0.24921823986E+01  0.29406047494E+02  0.00000000000E+00 0.  1.
</event>
<event>
 5    1  0.9034713E-005  0.9118800E+02  0.7818608E-02  0.1130116E+00
         25   -1    0    0    0    0  0.00000000000E+00  0.00000000000E+00  0.99999998245E-14  0.12500000000E+03  0.12500000000E+03 0.  0.
        -13    1    3    3    0    0 -0.25076539111E+02  0.10794010847E+02 -0.41964726174E+02  0.50063888091E+02  0.10566000000E+00 0.  1.
         23    2    1    0    0    0 -0.17336188562E+01  0.28318408269E+02 -0.66879964464E+01  0.95850952370E+02  0.91311215590E+02 0.  0.
         13    1    3    3    0    0  0.23342920254E+02  0.17524397423E+02  0.35276729727E+02  0.45787064279E+02  0.10566000000E+00 0. -1.
         22    1    1    0    0    0  0.17336188562E+01 -0.28318408269E+02  0.66879964464E+01  0.29149047630E+02  0.00000000000E+00 0. -1.
</event>
<event>
 5    1  0.9034713E-005  0.9118800E+02  0.7818608E-02  0.1130116E+00
         25   -1    0    0    0    0  0.00000000000E+00  0.00000000000E+00  0.99999998245E-14  0.12500000000E+03  0.12500000000E+03 0.  0.
        -13    1    3    3    0    0  0.10897191247E+02  0.32079276860E+02  0.35990969634E+01  0.34070418898E+02  0.10566000000E+00 0.  1.
         23    2    1    0    0    0  0.67152181609E+01 -0.26996645573E+02 -0.11029252643E+02  0.95074134248E+02  0.90241529032E+02 0.  0.
         13    1    3    3    0    0 -0.41819730861E+01 -0.59075922433E+02 -0.14628349606E+02  0.61003715349E+02  0.10566000000E+00 0. -1.
         22    1    1    0    0    0 -0.67152181609E+01  0.26996645573E+02  0.11029252643E+02  0.29925865752E+02  0.00000000000E+00 0. -1.
</event>
<event>
 5    1  0.9034713E-005  0.9118800E+02  0.7818608E-02  0.1130116E+00
         25   -1    0    0    0    0  0.00000000000E+00  0.00000000000E+00  0.99999998245E-14  0.12500000000E+03  0.12500000000E+03 0.  0.
        -13    1    3    3    0    0  0.28300644390E+02 -0.42478998785E+02 -0.67505419606E+01  0.51487598423E+02  0.10566000000E+00 0. -1.
         23    2    1    0    0    0 -0.69117542722E+01 -0.21149725144E+02 -0.20352648190E+02  0.94845174364E+02  0.89923821043E+02 0.  0.
         13    1    3    3    0    0 -0.35212398662E+02  0.21329273640E+02 -0.13602106229E+02  0.43357575941E+02  0.10566000000E+00 0.  1.
         22    1    1    0    0    0  0.69117542722E+01  0.21149725144E+02  0.20352648190E+02  0.30154825636E+02  0.00000000000E+00 0. -1.
</event>
<event>
 5    1  0.9034713E-005  0.9118800E+02  0.7818608E-02  0.1130116E+00
         25   -1    0    0    0    0  0.00000000000E+00  0.00000000000E+00  0.99999998245E-14  0.12500000000E+03  0.12500000000E+03 0.  0.
        -13    1    3    3    0    0  0.51970369281E+01  0.43299078529E+02 -0.66033687096E+01  0.44107086014E+02  0.10566000000E+00 0. -1.
         23    2    1    0    0    0  0.29696024656E+02 -0.12988792590E+01 -0.31741659293E+01  0.95106584387E+02  0.90286466852E+02 0.  0.
         13    1    3    3    0    0  0.24498987728E+02 -0.44597957788E+02  0.34292027803E+01  0.50999498373E+02  0.10566000000E+00 0.  1.
         22    1    1    0    0    0 -0.29696024656E+02  0.12988792590E+01  0.31741659293E+01  0.29893415613E+02  0.00000000000E+00 0. -1.
</event>
<event>
 5    1  0.9034713E-005  0.9118800E+02  0.7818608E-02  0.1130116E+00
         25   -1    0    0    0    0  0.00000000000E+00  0.00000000000E+00  0.99999998245E-14  0.12500000000E+03  0.12500000000E+03 0.  0.
        -13    1    3    3    0    0  0.39250565436E+02  0.42166771724E+02 -0.14471510665E+02  0.59397637240E+02  0.10566000000E+00 0.  1.
         23    2    1    0    0    0  0.15817820988E+02  0.22019495799E+02  0.69645132850E+01  0.97007749263E+02  0.92881307676E+02 0.  0.
         13    1    3    3    0    0 -0.23432744448E+02 -0.20147275925E+02  0.21436023950E+02  0.37610112023E+02  0.10566000000E+00 0. -1.
         22    1    1    0    0    0 -0.15817820988E+02 -0.22019495799E+02 -0.69645132850E+01  0.27992250737E+02  0.00000000000E+00 0. -1.
</event>
<event>
 5    1  0.9034713E-005  0.9118800E+02  0.7818608E-02  0.1130116E+00
         25   -1    0    0    0    0  0.00000000000E+00  0.00000000000E+00  0.99999998245E-14  0.12500000000E+03  0.12500000000E+03 0.  0.
        -13    1    3    3    0    0  0.23238995439E+02  0.15321797804E+02 -0.38641035219E+02  0.47622989866E+02  0.10566000000E+00 0.  1.
         23    2    1    0    0    0 -0.45897256559E+01 -0.20054333282E+02 -0.19895013959E+02  0.96380890206E+02  0.92033812001E+02 0.  0.
         13    1    3    3    0    0 -0.27828721095E+02 -0.35376131086E+02  0.18746021261E+02  0.48757900339E+02  0.10566000000E+00 0. -1.
         22    1    1    0    0    0  0.45897256559E+01  0.20054333282E+02  0.19895013959E+02  0.28619109794E+02  0.00000000000E+00 0.  1.
</event>
<event>
 5    1  0.9034713E-005  0.9118800E+02  0.7818608E-02  0.1130116E+00
         25   -1    0    0    0    0  0.00000000000E+00  0.00000000000E+00  0.99999998245E-14  0.12500000000E+03  0.12500000000E+03 0.  0.
        -13    1    3    3    0    0 -0.87818454904E+01  0.30886166482E+02  0.39442562798E+02  0.50860623416E+02  0.10566000000E+00 0.  1.
         23    2    1    0    0    0  0.19652397697E+02  0.27764616951E+01  0.24321902565E+02  0.93607637567E+02  0.88186786945E+02 0.  0.
         13    1    3    3    0    0  0.28434243187E+02 -0.28109704787E+02 -0.15120660233E+02  0.42747014151E+02  0.10566000000E+00 0. -1.
         22    1    1    0    0    0 -0.19652397697E+02 -0.27764616951E+01 -0.24321902565E+02  0.31392362433E+02  0.00000000000E+00 0.  1.
</event>
<event>
 5    1  0.9034713E-005  0.9118800E+02  0.7818608E-02  0.1130116E+00
         25   -1    0    0    0    0  0.00000000000E+00  0.00000000000E+00  0.99999998245E-14  0.12500000000E+03  0.12500000000E+03 0.  0.
        -13    1    3    3    0    0 -0.16215889728E+02 -0.38418526473E+02 -0.66412028284E+01  0.42226235862E+02  0.10566000000E+00 0. -1.
         23    2    1    0    0    0  0.25093184601E+02 -0.66141672675E+01  0.10353761186E+02  0.97060502997E+02  0.92952276730E+02 0.  0.
         13    1    3    3    0    0  0.41309074329E+02  0.31804359205E+02  0.16994964014E+02  0.54834267136E+02  0.10566000000E+00 0.  1.
         22    1    1    0    0    0 -0.25093184601E+02  0.66141672675E+01 -0.10353761186E+02  0.27939497003E+02  0.00000000000E+00 0.  1.
</event>
<event>
 5    1  0.9034713E-005  0.9118800E+02  0.7818608E-02  0.1130116E+00
         25   -1    0    0    0    0  0.00000000000E+00  0.00000000000E+00  0.99999998245E-14  0.12500000000E+03  0.12500000000E+03 0.  0.
        -13    1    3    3    0    0 -0.16198593201E+02 -0.49782853800E+02 -0.31610573216E+02  0.61155265164E+02  0.10566000000E+00 0. -1.
         23    2    1    0    0    0 -0.35471946331E+01 -0.24830624941E+02 -0.57204813128E+01  0.99273235121E+02  0.95881743727E+02 0.  0.
         13    1    3    3    0    0  0.12651398568E+02  0.24952228860E+02  0.25890091903E+02  0.38117969956E+02  0.10566000000E+00 0.  1.
         22    1    1    0    0    0  0.35471946331E+01  0.24830624941E+02  0.57204813128E+01  0.25726764879E+02  0.00000000000E+00 0. -1.
</event>
<event>
 5    1  0.9034713E-005  0.9118800E+02  0.7818608E-02  0.1130116E+00
         25   -1    0    0    0    0  0.00000000000E+00  0.00000000000E+00  0.99999998245E-14  0.12500000000E+03  0.12500000000E+03 0.  0.
        -13    1    3    3    0    0 -0.47086653027E+02  0.99177724671E+01  0.10235946824E+02  0.49196553492E+02  0.10566000000E+00 0.  1.
         23    2    1    0    0    0 -0.15997625844E+02  0.38601270406E+01 -0.24040226246E+02  0.95866564031E+02  0.91332584589E+02 0.  0.
         13    1    3    3    0    0  0.31089027183E+02 -0.60576454265E+01 -0.34276173071E+02  0.46670010539E+02  0.10566000000E+00 0. -1.
         22    1    1    0    0    0  0.15997625844E+02 -0.38601270406E+01  0.24040226246E+02  0.29133435969E+02  0.00000000000E+00 0.  1.
</event>
<event>
 5    1  0.9034713E-005  0.9118800E+02  0.7818608E-02  0.1130116E+00
         25   -1    0    0    0    0  0.00000000000E+00  0.00000000000E+00  0.99999998245E-14  0.12500000000E+03  0.12500000000E+03 0.  0.
        -13    1    3    3    0    0 -0.34189143502E+02 -0.33224847515E+02  0.59279119203E+01  0.48041017158E+02  0.10566000000E+00 0.  1.
         23    2    1    0    0    0 -0.13013049566E+02 -0.52136509780E+01 -0.25974528881E+02  0.95483940539E+02  0.90807406828E+02 0.  0.
         13    1    3    3    0    0  0.21176093936E+02  0.28011196537E+02 -0.31902440801E+02  0.47442923381E+02  0.10566000000E+00 0. -1.
         22    1    1    0    0    0  0.13013049566E+02  0.52136509780E+01  0.25974528881E+02  0.29516059461E+02  0.00000000000E+00 0. -1.
</event>
<event>
 5    1  0.9034713E-005  0.9118800E+02  0.7818608E-02  0.1130116E+00
         25   -1    0    0    0    0  0.00000000000E+00  0.00000000000E+00  0.99999998245E-14  0.12500000000E+03  0.12500000000E+03 0.  0.
        -13    1    3    3    0    0  0.94258582199E+01  0.26434239000E+02 -0.18245638622E+02  0.33474322808E+02  0.10566000000E+00 0. -1.
         23    2    1    0    0    0 -0.17855026845E+01 -0.24885431620E+02  0.15234920456E+02  0.95766876184E+02  0.91196047315E+02 0.  0.
         13    1    3    3    0    0 -0.11211360904E+02 -0.51319670620E+02  0.33480559078E+02  0.62292553376E+02  0.10566000000E+00 0.  1.
         22    1    1    0    0    0  0.17855026845E+01  0.24885431620E+02 -0.15234920456E+02  0.29233123816E+02  0.00000000000E+00 0.  1.
</event>
<event>
 5    1  0.9034713E-005  0.9118800E+02  0.7818608E-02  0.1130116E+00
         25   -1    0    0    0    0  0.00000000000E+00  0.00000000000E+00  0.99999998245E-14  0.12500000000E+03  0.12500000000E+03 0.  0.
        -13    1    3    3    0    0  0.39327872958E+02  0.30261279217E+01  0.20283791809E+02  0.44354057489E+02  0.10566000000E+00 0.  1.
         23    2    1    0    0    0 -0.12265946773E+02 -0.43142859988E+01  0.25143282908E+02  0.96693619283E+02  0.92457583901E+02 0.  0.
         13    1    3    3    0    0 -0.51593819731E+02 -0.73404139205E+01  0.48594910988E+01  0.52339561793E+02  0.10566000000E+00 0. -1.
         22    1    1    0    0    0  0.12265946773E+02  0.43142859988E+01 -0.25143282908E+02  0.28306380717E+02  0.00000000000E+00 0. -1.
</event>
<event>
 5    1  0.9034713E-005  0.9118800E+02  0.7818608E-02  0.1130116E+00
         25   -1    0    0    0    0  0.00000000000E+00  0.00000000000E+00  0.99999998245E-14  0.12500000000E+03  0.12500000000E+03 0.  0.
        -13    1    3    3    0    0  0.23238306424E+02  0.38564621468E+02  0.22442485511E+02  0.50308301843E+02  0.10566000000E+00 0.  1.
         23    2    1    0    0    0 -0.97977215286E+01  0.33920140319E+02  0.15752372847E+01  0.89658061189E+02  0.82398515140E+02 0.  0.
         13    1    3    3    0    0 -0.33036027952E+02 -0.46444811491E+01 -0.20867248226E+02  0.39349759346E+02  0.10566000000E+00 0. -1.
         22    1    1    0    0    0  0.97977215286E+01 -0.33920140319E+02 -0.15752372847E+01  0.35341938811E+02  0.00000000000E+00 0. -1.
</event>
<event>
 5    1  0.9034713E-005  0.9118800E+02  0.7818608E-02  0.1130116E+00
         25   -1    0    0    0    0  0.00000000000E+00  0.00000000000E+00  0.99999998245E-14  0.12500000000E+03  0.12500000000E+03 0.  0.
        -13    1    3    3    0    0 -0.30318040512E+02 -0.32848350008E+02  0.30739842910E+02  0.54250776814E+02  0.10566000000E+00 0. -1.
         23    2    1    0    0    0 -0.41194134532E+01 -0.68068116161E+00  0.28923046441E+02  0.95777140635E+02  0.91210115441E+02 0.  0.
         13    1    3    3    0    0  0.26198627059E+02  0.32167668846E+02 -0.18167964690E+01  0.41526363821E+02  0.10566000000E+00 0.  1.
         22    1    1    0    0    0  0.41194134532E+01  0.68068116161E+00 -0.28923046441E+02  0.29222859365E+02  0.00000000000E+00 0. -1.
</event>
<event>
 5    1  0.9034713E-005  0.9118800E+02  0.7818608E-02  0.1130116E+00
         25   -1    0    0    0    0  0.00000000000E+00  0.00000000000E+00  0.99999998245E-14  0.12500000000E+03  0.12500000000E+03 0.  0.
        -13    1    3    3    0    0 -0.12780760561E+02 -0.33550304954E+02  0.49853863859E+02  0.61436061956E+02  0.10566000000E+00 0. -1.
         23    2    1    0    0    0 -0.12686777531E+01 -0.80113514160E+01  0.24401308045E+02  0.99285896300E+02  0.95898248551E+02 0.  0.
         13    1    3    3    0    0  0.11512082808E+02  0.25538953538E+02 -0.25452555813E+02  0.37849834344E+02  0.10566000000E+00 0.  1.
         22    1    1    0    0    0  0.12686777531E+01  0.80113514160E+01 -0.24401308045E+02  0.25714103700E+02  0.00000000000E+00 0. -1.
</event>
<event>
 5    1  0.9034713E-005  0.9118800E+02  0.7818608E-02  0.1130116E+00
         25   -1    0    0    0    0  0.00000000000E+00  0.00000000000E+00  0.99999998245E-14  0.12500000000E+03  0.12500000000E+03 0.  0.
        -13    1    3    3    0    0  0.13970088306E+02  0.23238035160E+02  0.26997512921E+02  0.38262860758E+02  0.10566000000E+00 0.  1.
         23    2    1    0    0    0 -0.25889657019E+02 -0.12499627325E+02  0.11894247902E+02  0.93887491953E+02  0.88582577227E+02 0.  0.
         13    1    3    3    0    0 -0.39859745326E+02 -0.35737662485E+02 -0.15103265019E+02  0.55624631195E+02  0.10566000000E+00 0. -1.
         22    1    1    0    0    0  0.25889657019E+02  0.12499627325E+02 -0.11894247902E+02  0.31112508047E+02  0.00000000000E+00 0. -1.
</event>
<event>
 5    1  0.9034713E-005  0.9118800E+02  0.7818608E-02  0.1130116E+00
         25   -1    0    0    0    0  0.00000000000E+00  0.00000000000E+00  0.99999998245E-14  0.12500000000E+03  0.12500000000E+03 0.  0.
        -13    1    3    3    0    0 -0.31110741694E+02  0.30691756483E+02 -0.14767028616E+02  0.46129583381E+02  0.10566000000E+00 0.  1.
         23    2    1    0    0    0  0.85607784436E+01 -0.11831536077E+02 -0.14691166582E+02  0.10428520941E+03  0.10220715412E+03 0.  0.
         13    1    3    3    0    0  0.39671520137E+02 -0.42523292560E+02  0.75862034529E-01  0.58155626032E+02  0.10566000000E+00 0. -1.
         22    1    1    0    0    0 -0.85607784436E+01  0.11831536077E+02  0.14691166582E+02  0.20714790586E+02  0.00000000000E+00 0. -1.
</event>
<event>
 5    1  0.9034713E-005  0.9118800E+02  0.7818608E-02  0.1130116E+00
         25   -1    0    0    0    0  0.00000000000E+00  0.00000000000E+00  0.99999998245E-14  0.12500000000E+03  0.12500000000E+03 0.  0.
        -13    1    3    3    0    0  0.72500006475E+01  0.50444325121E+01  0.48626482226E+02  0.49422209041E+02  0.10566000000E+00 0. -1.
         23    2    1    0    0    0 -0.11635381303E+01 -0.25109904631E+02  0.13527481877E+02  0.96454354141E+02  0.92133536431E+02 0.  0.
         13    1    3    3    0    0 -0.84135387778E+01 -0.30154337143E+02 -0.35099000349E+02  0.47032145101E+02  0.10566000000E+00 0.  1.
         22    1    1    0    0    0  0.11635381303E+01  0.25109904631E+02 -0.13527481877E+02  0.28545645859E+02  0.00000000000E+00 0.  1.
</event>
<event>
 5    1  0.9034713E-005  0.9118800E+02  0.7818608E-02  0.1130116E+00
         25   -1    0    0    0    0  0.00000000000E+00  0.00000000000E+00  0.99999998245E-14  0.12500000000E+03  0.12500000000E+03 0.  0.
        -13    1    3    3    0    0 -0.13430535653E+02  0.20052014555E+02  0.42028908389E+02  0.48465481325E+02  0.10566000000E+00 0. -1.
         23    2    1    0    0    0 -0.27827774853E+02  0.71173089249E+01 -0.16383595036E+01  0.96229783430E+02  0.91828349966E+02 0.  0.
         13    1    3    3    0    0 -0.14397239200E+02 -0.12934705630E+02 -0.43667267893E+02  0.47764302105E+02  0.10566000000E+00 0.  1.
         22    1    1    0    0    0  0.27827774853E+02 -0.71173089249E+01  0.16383595036E+01  0.28770216570E+02  0.00000000000E+00 0. -1.
</event>
<event>
 5    1  0.9034713E-005  0.9118800E+02  0.7818608E-02  0.1130116E+00
         25   -1    0    0    0    0  0.00000000000E+00  0.00000000000E+00  0.99999998245E-14  0.12500000000E+03  0.12500000000E+03 0.  0.
        -13    1    3    3    0    0  0.72127656840E+01  0.59870812723E+01 -0.40625270851E+02  0.41692840234E+02  0.10566000000E+00 0.  1.
         23    2    1    0    0    0  0.21476892869E+01  0.26900773158E+02  0.96185114538E+01  0.96350742970E+02  0.91992857019E+02 0.  0.
         13    1    3    3    0    0 -0.50650763971E+01  0.20913691886E+02  0.50243782305E+02  0.54657902737E+02  0.10566000000E+00 0. -1.
         22    1    1    0    0    0 -0.21476892869E+01 -0.26900773158E+02 -0.96185114538E+01  0.28649257030E+02  0.00000000000E+00 0. -1.
</event>
<event>
 5    1  0.9034713E-005  0.9118800E+02  0.7818608E-02  0.1130116E+00
         25   -1    0    0    0    0  0.00000000000E+00  0.00000000000E+00  0.99999998245E-14  0.12500000000E+03  0.12500000000E+03 0.  0.
        -13    1    3    3    0    0  0.26766547242E+02 -0.10481037581E+01  0.26917638902E+02  0.37975215876E+02  0.10566000000E+00 0.  1.
         23    2    1    0    0    0 -0.21930327536E+01  0.22480590484E+02 -0.17819030699E+02  0.96230151266E+02  0.91828850676E+02 0.  0.
         13    1    3    3    0    0 -0.28959579995E+02  0.23528694242E+02 -0.44736669601E+02  0.58254935390E+02  0.10566000000E+00 0. -1.
         22    1    1    0    0    0  0.21930327536E+01 -0.22480590484E+02  0.17819030699E+02  0.28769848734E+02  0.00000000000E+00 0.  1.
</event>
<event>
 5    1  0.9034713E-005  0.9118800E+02  0.7818608E-02  0.1130116E+00
         25   -1    0    0    0    0  0.00000000000E+00  0.00000000000E+00  0.99999998245E-14  0.12500000000E+03  0.12500000000E+03 0.  0.
        -13    1    3    3    0    0  0.28969825143E+02  0.29537329252E+02  0.15249107893E+02  0.44093662172E+02  0.10566000000E+00 0. -1.
         23    2    1    0    0    0  0.20982355289E+02 -0.81053644799E+01 -0.18959772307E+02  0.95581823089E+02  0.90942046229E+02 0.  0.
         13    1    3    3    0    0 -0.79874698548E+01 -0.37642693732E+02 -0.34208880200E+02  0.51488160917E+02  0.10566000000E+00 0.  1.
         22    1    1    0    0    0 -0.20982355289E+02  0.81053644799E+01  0.18959772307E+02  0.29418176911E+02  0.00000000000E+00 0. -1.
</event>
<event>
 5    1  0.9034713E-005  0.9118800E+02  0.7818608E-02  0.1130116E+00
         25   -1    0    0    0    0  0.00000000000E+00  0.00000000000E+00  0.99999998245E-14  0.12500000000E+03  0.12500000000E+03 0.  0.
        -13    1    3    3    0    0 -0.10586593224E+02 -0.34391233728E+02 -0.21807082130E+02  0.42076037224E+02  0.10566000000E+00 0.  1.
         23    2    1    0    0    0  0.19330954772E+02  0.11901380762E+02 -0.15405711071E+02  0.97565266358E+02  0.93628609887E+02 0.  0.
         13    1    3    3    0    0  0.29917547996E+02  0.46292614490E+02  0.64013710592E+01  0.55489229134E+02  0.10566000000E+00 0. -1.
         22    1    1    0    0    0 -0.19330954772E+02 -0.11901380762E+02  0.15405711071E+02  0.27434733642E+02  0.00000000000E+00 0. -1.
</event>
<event>
 5    1  0.9034713E-005  0.9118800E+02  0.7818608E-02  0.1130116E+00
         25   -1    0    0    0    0  0.00000000000E+00  0.00000000000E+00  0.99999998245E-14  0.12500000000E+03  0.12500000000E+03 0.  0.
        -13    1    3    3    0    0 -0.21829056123E+02 -0.18991704889E+02  0.18116712775E+02  0.34138233575E+02  0.10566000000E+00 0.  1.
         23    2    1    0    0    0  0.25662740572E+02  0.12811457314E+02 -0.51663364169E+01  0.95855519834E+02  0.91317467981E+02 0.  0.
         13    1    3    3    0    0  0.47491796695E+02  0.31803162203E+02 -0.23283049192E+02  0.61717286259E+02  0.10566000000E+00 0. -1.
         22    1    1    0    0    0 -0.25662740572E+02 -0.12811457314E+02  0.51663364169E+01  0.29144480166E+02  0.00000000000E+00 0. -1.
</event>
<event>
 5    1  0.9034713E-005  0.9118800E+02  0.7818608E-02  0.1130116E+00
         25   -1    0    0    0    0  0.00000000000E+00  0.00000000000E+00  0.99999998245E-14  0.12500000000E+03  0.12500000000E+03 0.  0.
        -13    1    3    3    0    0 -0.25216619673E+01 -0.43177838917E+02 -0.21251290201E+02  0.48190383396E+02  0.10566000000E+00 0.  1.
         23    2    1    0    0    0  0.23005468518E+02 -0.33803580213E+02 -0.27019979881E+02  0.75989665073E+02  0.58072508713E+02 0.  0.
         13    1    3    3    0    0  0.25527130485E+02  0.93742587047E+01 -0.57686896799E+01  0.27799281677E+02  0.10566000000E+00 0. -1.
         22    1    1    0    0    0 -0.23005468518E+02  0.33803580213E+02  0.27019979881E+02  0.49010334927E+02  0.00000000000E+00 0.  1.
</event>
<event>
 5    1  0.9034713E-005  0.9118800E+02  0.7818608E-02  0.1130116E+00
         25   -1    0    0    0    0  0.00000000000E+00  0.00000000000E+00  0.99999998245E-14  0.12500000000E+03  0.12500000000E+03 0.  0.
        -13    1    3    3    0    0 -0.42921140394E+02  0.37197984138E+02 -0.15555686920E+02  0.58888919809E+02  0.10566000000E+00 0.  1.
         23    2    1    0    0    0 -0.17717398297E+02  0.11600164261E+02 -0.20945496848E+02  0.95214368372E+02  0.90435568738E+02 0.  0.
         13    1    3    3    0    0  0.25203742097E+02 -0.25597819877E+02 -0.53898099282E+01  0.36325448563E+02  0.10566000000E+00 0. -1.
         22    1    1    0    0    0  0.17717398297E+02 -0.11600164261E+02  0.20945496848E+02  0.29785631628E+02  0.00000000000E+00 0.  1.
</event>
<event>
 5    1  0.9034713E-005  0.9118800E+02  0.7818608E-02  0.1130116E+00
         25   -1    0    0    0    0  0.00000000000E+00  0.00000000000E+00  0.99999998245E-14  0.12500000000E+03  0.12500000000E+03 0.  0.
        -13    1    3    3    0    0 -0.23676299068E+02 -0.24665977605E+02 -0.82774292919E+01  0.35178183416E+02  0.10566000000E+00 0. -1.
         23    2    1    0    0    0  0.86954050072E+01  0.24279542905E+02  0.11023759274E+02  0.96953083228E+02  0.92807708769E+02 0.  0.
         13    1    3    3    0    0  0.32371704075E+02  0.48945520509E+02  0.19301188566E+02  0.61774899812E+02  0.10566000000E+00 0.  1.
         22    1    1    0    0    0 -0.86954050072E+01 -0.24279542905E+02 -0.11023759274E+02  0.28046916772E+02  0.00000000000E+00 0.  1.
</event>
<event>
 5    1  0.9034713E-005  0.9118800E+02  0.7818608E-02  0.1130116E+00
         25   -1    0    0    0    0  0.00000000000E+00  0.00000000000E+00  0.99999998245E-14  0.12500000000E+03  0.12500000000E+03 0.  0.
        -13    1    3    3    0    0  0.34140128544E+02 -0.11991533640E+02  0.10966467910E+02  0.37810313917E+02  0.10566000000E+00 0.  1.
         23    2    1    0    0    0 -0.25431996887E+01  0.26421181310E+02 -0.12236075559E+02  0.95772132621E+02  0.91203251890E+02 0.  0.
         13    1    3    3    0    0 -0.36683328233E+02  0.38412714949E+02 -0.23202543469E+02  0.57961818704E+02  0.10566000000E+00 0. -1.
         22    1    1    0    0    0  0.25431996887E+01 -0.26421181310E+02  0.12236075559E+02  0.29227867379E+02  0.00000000000E+00 0. -1.
</event>
<event>
 5    1  0.9034713E-005  0.9118800E+02  0.7818608E-02  0.1130116E+00
         25   -1    0    0    0    0  0.00000000000E+00  0.00000000000E+00  0.99999998245E-14  0.12500000000E+03  0.12500000000E+03 0.  0.
        -13    1    3    3    0    0  0.12536475224E+02 -0.42720391488E+02 -0.10505527939E+00  0.44522098564E+02  0.10566000000E+00 0. -1.
         23    2    1    0    0    0 -0.20614160050E+02  0.49618884055E+01 -0.61850463279E+01  0.10291338122E+03  0.10051539835E+03 0.  0.
         13    1    3    3    0    0 -0.33150635274E+02  0.47682279893E+02 -0.60799910485E+01  0.58391282655E+02  0.10566000000E+00 0.  1.
         22    1    1    0    0    0  0.20614160050E+02 -0.49618884055E+01  0.61850463279E+01  0.22086618781E+02  0.00000000000E+00 0.  1.
</event>
<event>
 5    1  0.9034713E-005  0.9118800E+02  0.7818608E-02  0.1130116E+00
         25   -1    0    0    0    0  0.00000000000E+00  0.00000000000E+00  0.99999998245E-14  0.12500000000E+03  0.12500000000E+03 0.  0.
        -13    1    3    3    0    0  0.11506214642E+02 -0.48663785622E+02 -0.25242484552E+02  0.56015633504E+02  0.10566000000E+00 0.  1.
         23    2    1    0    0    0 -0.12256820939E+02 -0.33739789985E+02 -0.11185964241E+02  0.87400413782E+02  0.78899324747E+02 0.  0.
         13    1    3    3    0    0 -0.23763035581E+02  0.14923995637E+02  0.14056520311E+02  0.31384780278E+02  0.10566000000E+00 0. -1.
         22    1    1    0    0    0  0.12256820939E+02  0.33739789985E+02  0.11185964241E+02  0.37599586218E+02  0.00000000000E+00 0.  1.
</event>
<event>
 5    1  0.9034713E-005  0.9118800E+02  0.7818608E-02  0.1130116E+00
         25   -1    0    0    0    0  0.00000000000E+00  0.00000000000E+00  0.99999998245E-14  0.12500000000E+03  0.12500000000E+03 0.  0.
        -13    1    3    3    0    0 -0.57243539352E+02 -0.21960274891E+02 -0.83421129821E+01  0.61876316017E+02  0.10566000000E+00 0.  1.
         23    2    1    0    0    0 -0.27752522248E+02 -0.58502065055E+01 -0.81810309562E+01  0.95481248759E+02  0.90803701410E+02 0.  0.
         13    1    3    3    0    0  0.29491017103E+02  0.16110068385E+02  0.16108202589E+00  0.33604932742E+02  0.10566000000E+00 0. -1.
         22    1    1    0    0    0  0.27752522248E+02  0.58502065055E+01  0.81810309562E+01  0.29518751241E+02  0.00000000000E+00 0.  1.
</event>
<event>
 5    1  0.9034713E-005  0.9118800E+02  0.7818608E-02  0.1130116E+00
         25   -1    0    0    0    0  0.00000000000E+00  0.00000000000E+00  0.99999998245E-14  0.12500000000E+03  0.12500000000E+03 0.  0.
        -13    1    3    3    0    0  0.31719041850E+02 -0.31870248720E+02  0.58146583634E+01  0.45339075700E+02  0.10566000000E+00 0.  1.
         23    2    1    0    0    0 -0.12078292748E+02 -0.15984407657E+02  0.22543114621E+02  0.94840781498E+02  0.89917714464E+02 0.  0.
         13    1    3    3    0    0 -0.43797334598E+02  0.15885841063E+02  0.16728456258E+02  0.49501705798E+02  0.10566000000E+00 0. -1.
         22    1    1    0    0    0  0.12078292748E+02  0.15984407657E+02 -0.22543114621E+02  0.30159218502E+02  0.00000000000E+00 0. -1.
</event>
<event>
 5    1  0.9034713E-005  0.9118800E+02  0.7818608E-02  0.1130116E+00
         25   -1    0    0    0    0  0.00000000000E+00  0.00000000000E+00  0.99999998245E-14  0.12500000000E+03  0.12500000000E+03 0.  0.
        -13    1    3    3    0    0 -0.18997776189E+02  0.57517765066E+01  0.56710107446E+02  0.60083657376E+02  0.10566000000E+00 0. -1.
         23    2    1    0    0    0 -0.14399699125E+02 -0.81539006006E+01  0.24913184108E+02  0.95091737391E+02  0.90265909112E+02 0.  0.
         13    1    3    3    0    0  0.45980770638E+01 -0.13905677107E+02 -0.31796923339E+02  0.35008080015E+02  0.10566000000E+00 0.  1.
         22    1    1    0    0    0  0.14399699125E+02  0.81539006006E+01 -0.24913184108E+02  0.29908262609E+02  0.00000000000E+00 0. -1.
</event>
<event>
 5    1  0.9034713E-005  0.9118800E+02  0.7818608E-02  0.1130116E+00
         25   -1    0    0    0    0  0.00000000000E+00  0.00000000000E+00  0.99999998245E-14  0.12500000000E+03  0.12500000000E+03 0.  0.
        -13    1    3    3    0    0 -0.95583569813E+00 -0.33286974385E+02  0.11816389897E+02  0.35335173974E+02  0.10566000000E+00 0.  1.
         23    2    1    0    0    0 -0.12585309019E+02  0.10775674842E+02 -0.25740352889E+02  0.94388385566E+02  0.89286596931E+02 0.  0.
         13    1    3    3    0    0 -0.11629473321E+02  0.44062649227E+02 -0.37556742786E+02  0.59053211592E+02  0.10566000000E+00 0. -1.
         22    1    1    0    0    0  0.12585309019E+02 -0.10775674842E+02  0.25740352889E+02  0.30611614434E+02  0.00000000000E+00 0. -1.
</event>
<event>
 5    1  0.9034713E-005  0.9118800E+02  0.7818608E-02  0.1130116E+00
         25   -1    0    0    0    0  0.00000000000E+00  0.00000000000E+00  0.99999998245E-14  0.12500000000E+03  0.12500000000E+03 0.  0.
        -13    1    3    3    0    0 -0.50006731292E+01  0.49678907227E+02 -0.22195725122E+02  0.54641210938E+02  0.10566000000E+00 0.  1.
         23    2    1    0    0    0 -0.22832751981E+02  0.14066060003E+02 -0.11010379159E+02  0.96010052497E+02  0.91528755723E+02 0.  0.
         13    1    3    3    0    0 -0.17832078852E+02 -0.35612847224E+02  0.11185345963E+02  0.41368841559E+02  0.10566000000E+00 0. -1.
         22    1    1    0    0    0  0.22832751981E+02 -0.14066060003E+02  0.11010379159E+02  0.28989947503E+02  0.00000000000E+00 0.  1.
</event>
<event>
 5    1  0.9034713E-005  0.9118800E+02  0.7818608E-02  0.1130116E+00
         25   -1    0    0    0    0  0.00000000000E+00  0.00000000000E+00  0.99999998245E-14  0.12500000000E+03  0.12500000000E+03 0.  0.
        -13    1    3    3    0    0 -0.27784207362E+02  0.10466159935E+02  0.37552789009E+02  0.47871973104E+02  0.10566000000E+00 0.  1.
         23    2    1    0    0    0  0.17481985936E+02 -0.35510105341E+00  0.21900806570E+02  0.96975167129E+02  0.92837448167E+02 0.  0.
         13    1    3    3    0    0  0.45266193298E+02 -0.10821260988E+02 -0.15651982439E+02  0.49103194024E+02  0.10566000000E+00 0. -1.
         22    1    1    0    0    0 -0.17481985936E+02  0.35510105341E+00 -0.21900806570E+02  0.28024832871E+02  0.00000000000E+00 0.  1.
</event>
<event>
 5    1  0.9034713E-005  0.9118800E+02  0.7818608E-02  0.1130116E+00
         25   -1    0    0    0    0  0.00000000000E+00  0.00000000000E+00  0.99999998245E-14  0.12500000000E+03  0.12500000000E+03 0.  0.
        -13    1    3    3    0    0 -0.43345870455E+02 -0.40862271126E+02 -0.99454130046E+01  0.60394636276E+02  0.10566000000E+00 0. -1.
         23    2    1    0    0    0 -0.25316531403E+02 -0.33858499666E+02 -0.14571771641E+02  0.80282427496E+02  0.66675384318E+02 0.  0.
         13    1    3    3    0    0  0.18029339052E+02  0.70037714602E+01 -0.46263586369E+01  0.19887791220E+02  0.10566000000E+00 0.  1.
         22    1    1    0    0    0  0.25316531403E+02  0.33858499666E+02  0.14571771641E+02  0.44717572504E+02  0.00000000000E+00 0. -1.
</event>
<event>
 5    1  0.9034713E-005  0.9118800E+02  0.7818608E-02  0.1130116E+00
         25   -1    0    0    0    0  0.00000000000E+00  0.00000000000E+00  0.99999998245E-14  0.12500000000E+03  0.12500000000E+03 0.  0.
        -13    1    3    3    0    0 -0.10296544410E+02 -0.20683733576E+02 -0.30380061555E+02  0.38167983514E+02  0.10566000000E+00 0. -1.
         23    2    1    0    0    0 -0.17314150232E+02 -0.58256014142E+01  0.23921211287E+02  0.94901133252E+02  0.90001573947E+02 0.  0.
         13    1    3    3    0    0 -0.70176058222E+01  0.14858132161E+02  0.54301272842E+02  0.56733149737E+02  0.10566000000E+00 0.  1.
         22    1    1    0    0    0  0.17314150232E+02  0.58256014142E+01 -0.23921211287E+02  0.30098866748E+02  0.00000000000E+00 0.  1.
</event>
<event>
 5    1  0.9034713E-005  0.9118800E+02  0.7818608E-02  0.1130116E+00
         25   -1    0    0    0    0  0.00000000000E+00  0.00000000000E+00  0.99999998245E-14  0.12500000000E+03  0.12500000000E+03 0.  0.
        -13    1    3    3    0    0  0.48783388562E+02  0.69480077936E+01 -0.41503125757E+01  0.49450278769E+02  0.10566000000E+00 0. -1.
         23    2    1    0    0    0  0.13707325800E+02 -0.18681440381E+02 -0.18658179037E+02  0.95250804376E+02  0.90485916551E+02 0.  0.
         13    1    3    3    0    0 -0.35076062761E+02 -0.25629448174E+02 -0.14507866462E+02  0.45800525607E+02  0.10566000000E+00 0.  1.
         22    1    1    0    0    0 -0.13707325800E+02  0.18681440381E+02  0.18658179037E+02  0.29749195624E+02  0.00000000000E+00 0. -1.
</event>
<event>
 5    1  0.9034713E-005  0.9118800E+02  0.7818608E-02  0.1130116E+00
         25   -1    0    0    0    0  0.00000000000E+00  0.00000000000E+00  0.99999998245E-14  0.12500000000E+03  0.12500000000E+03 0.  0.
        -13    1    3    3    0    0  0.44780874314E+01 -0.42103619399E+02 -0.15572096989E+02  0.45113960170E+02  0.10566000000E+00 0. -1.
         23    2    1    0    0    0 -0.66420009311E+01 -0.14221218485E+02  0.24937915763E+02  0.95533767221E+02  0.90875969350E+02 0.  0.
         13    1    3    3    0    0 -0.11120088362E+02  0.27882400914E+02  0.40510012752E+02  0.50419807051E+02  0.10566000000E+00 0.  1.
         22    1    1    0    0    0  0.66420009311E+01  0.14221218485E+02 -0.24937915763E+02  0.29466232779E+02  0.00000000000E+00 0.  1.
</event>
<event>
 5    1  0.9034713E-005  0.9118800E+02  0.7818608E-02  0.1130116E+00
         25   -1    0    0    0    0  0.00000000000E+00  0.00000000000E+00  0.99999998245E-14  0.12500000000E+03  0.12500000000E+03 0.  0.
        -13    1    3    3    0    0 -0.99400956161E+01  0.43355948602E+02 -0.52650039389E+00  0.44484066212E+02  0.10566000000E+00 0. -1.
         23    2    1    0    0    0 -0.38214235794E+02  0.17284605599E+02  0.18555432079E+01  0.83017522124E+02  0.71619693737E+02 0.  0.
         13    1    3    3    0    0 -0.28274140178E+02 -0.26071343003E+02  0.23820436018E+01  0.38533455912E+02  0.10566000000E+00 0.  1.
         22    1    1    0    0    0  0.38214235794E+02 -0.17284605599E+02 -0.18555432079E+01  0.41982477876E+02  0.00000000000E+00 0. -1.
</event>
<event>
 5    1  0.9034713E-005  0.9118800E+02  0.7818608E-02  0.1130116E+00
         25   -1    0    0    0    0  0.00000000000E+00  0.00000000000E+00  0.99999998245E-14  0.12500000000E+03  0.12500000000E+03 0.  0.
        -13    1    3    3    0    0 -0.35540040029E+02 -0.62923129637E+01 -0.47626409553E+02  0.59757624607E+02  0.10566000000E+00 0.  1.
         23    2    1    0    0    0 -0.92706622669E+01 -0.13723942160E+02 -0.23869460721E+02  0.95947583192E+02  0.91443402156E+02 0.  0.
         13    1    3    3    0    0  0.26269377762E+02 -0.74316291967E+01  0.23756948832E+02  0.36189958585E+02  0.10566000000E+00 0. -1.
         22    1    1    0    0    0  0.92706622669E+01  0.13723942160E+02  0.23869460721E+02  0.29052416808E+02  0.00000000000E+00 0.  1.
</event>
<event>
 5    1  0.9034713E-005  0.9118800E+02  0.7818608E-02  0.1130116E+00
         25   -1    0    0    0    0  0.00000000000E+00  0.00000000000E+00  0.99999998245E-14  0.12500000000E+03  0.12500000000E+03 0.  0.
        -13    1    3    3    0    0  0.63167543162E+01 -0.52104558940E+02 -0.16789542206E+02  0.55106137035E+02  0.10566000000E+00 0.  1.
         23    2    1    0    0    0  0.18083893808E+01 -0.12680651508E+02 -0.26154616630E+02  0.95877274065E+02  0.91347241426E+02 0.  0.
         13    1    3    3    0    0 -0.45083649354E+01  0.39423907433E+02 -0.93650744247E+01  0.40771137029E+02  0.10566000000E+00 0. -1.
         22    1    1    0    0    0 -0.18083893808E+01  0.12680651508E+02  0.26154616630E+02  0.29122725935E+02  0.00000000000E+00 0.  1.
</event>
<event>
 5    1  0.9034713E-005  0.9118800E+02  0.7818608E-02  0.1130116E+00
         25   -1    0    0    0    0  0.00000000000E+00  0.00000000000E+00  0.99999998245E-14  0.12500000000E+03  0.12500000000E+03 0.  0.
        -13    1    3    3    0    0 -0.31667866542E+02 -0.19872753502E+02 -0.69563901283E+01  0.38028707981E+02  0.10566000000E+00 0.  1.
         23    2    1    0    0    0  0.34516588766E+01  0.24795676005E+00  0.31173163827E+02  0.93635345139E+02  0.88226052188E+02 0.  0.
         13    1    3    3    0    0  0.35119525419E+02  0.20120710262E+02  0.38129553956E+02  0.55606637158E+02  0.10566000000E+00 0. -1.
         22    1    1    0    0    0 -0.34516588766E+01 -0.24795676005E+00 -0.31173163827E+02  0.31364654861E+02  0.00000000000E+00 0. -1.
</event>
<event>
 5    1  0.9034713E-005  0.9118800E+02  0.7818608E-02  0.1130116E+00
         25   -1    0    0    0    0  0.00000000000E+00  0.00000000000E+00  0.99999998245E-14  0.12500000000E+03  0.12500000000E+03 0.  0.
        -13    1    3    3    0    0  0.42857237248E+02 -0.53300923409E+01  0.30677569092E+01  0.43296362034E+02  0.10566000000E+00 0.  1.
         23    2    1    0    0    0  0.11469284767E+01  0.15750695445E+01  0.30980930607E+02  0.93957861699E+02  0.88681821276E+02 0.  0.
         13    1    3    3    0    0 -0.41710308771E+02  0.69051618855E+01  0.27913173698E+02  0.50661499666E+02  0.10566000000E+00 0. -1.
         22    1    1    0    0    0 -0.11469284767E+01 -0.15750695445E+01 -0.30980930607E+02  0.31042138301E+02  0.00000000000E+00 0. -1.
</event>
<event>
 5    1  0.9034713E-005  0.9118800E+02  0.7818608E-02  0.1130116E+00
         25   -1    0    0    0    0  0.00000000000E+00  0.00000000000E+00  0.99999998245E-14  0.12500000000E+03  0.12500000000E+03 0.  0.
        -13    1    3    3    0    0  0.54170264017E+02 -0.18937693334E+02  0.10553405130E+02  0.58347572840E+02  0.10566000000E+00 0. -1.
         23    2    1    0    0    0  0.22423907003E+02  0.71858946409E+00  0.17772474348E+02  0.96378175800E+02  0.92030125231E+02 0.  0.
         13    1    3    3    0    0 -0.31746357014E+02  0.19656282798E+02  0.72190692176E+01  0.38030602960E+02  0.10566000000E+00 0.  1.
         22    1    1    0    0    0 -0.22423907003E+02 -0.71858946409E+00 -0.17772474348E+02  0.28621824200E+02  0.00000000000E+00 0. -1.
</event>
<event>
 5    1  0.9034713E-005  0.9118800E+02  0.7818608E-02  0.1130116E+00
         25   -1    0    0    0    0  0.00000000000E+00  0.00000000000E+00  0.99999998245E-14  0.12500000000E+03  0.12500000000E+03 0.  0.
        -13    1    3    3    0    0 -0.31294466060E+01  0.13387142442E+02  0.38481551363E+02  0.40863797892E+02  0.10566000000E+00 0.  1.
         23    2    1    0    0    0  0.23711454903E+02  0.73768515239E+01 -0.11283350120E+02  0.97724277792E+02  0.93840659887E+02 0.  0.
         13    1    3    3    0    0  0.26840901509E+02 -0.60102909183E+01 -0.49764901483E+02  0.56860479900E+02  0.10566000000E+00 0. -1.
         22    1    1    0    0    0 -0.23711454903E+02 -0.73768515239E+01  0.11283350120E+02  0.27275722208E+02  0.00000000000E+00 0. -1.
</event>
<event>
 5    1  0.9034713E-005  0.9118800E+02  0.7818608E-02  0.1130116E+00
         25   -1    0    0    0    0  0.00000000000E+00  0.00000000000E+00  0.99999998245E-14  0.12500000000E+03  0.12500000000E+03 0.  0.
        -13    1    3    3    0    0 -0.12441631302E+02  0.10807606070E+02  0.44041468972E+02  0.47024043761E+02  0.10566000000E+00 0.  1.
         23    2    1    0    0    0  0.22445818638E+02 -0.86673279674E+01  0.12781520962E+02  0.97754732034E+02  0.93881217550E+02 0.  0.
         13    1    3    3    0    0  0.34887449940E+02 -0.19474934037E+02 -0.31259948010E+02  0.50730688273E+02  0.10566000000E+00 0. -1.
         22    1    1    0    0    0 -0.22445818638E+02  0.86673279674E+01 -0.12781520962E+02  0.27245267966E+02  0.00000000000E+00 0. -1.
</event>
<event>
 5    1  0.9034713E-005  0.9118800E+02  0.7818608E-02  0.1130116E+00
         25   -1    0    0    0    0  0.00000000000E+00  0.00000000000E+00  0.99999998245E-14  0.12500000000E+03  0.12500000000E+03 0.  0.
        -13    1    3    3    0    0  0.15713657643E+02  0.42704279715E+01 -0.29633671303E+02  0.33813033442E+02  0.10566000000E+00 0. -1.
         23    2    1    0    0    0 -0.20403121602E+02  0.79648690914E+01  0.20021735052E+02  0.95325155683E+02  0.90588569481E+02 0.  0.
         13    1    3    3    0    0 -0.36116779245E+02  0.36944411199E+01  0.49655406355E+02  0.61512122241E+02  0.10566000000E+00 0.  1.
         22    1    1    0    0    0  0.20403121602E+02 -0.79648690914E+01 -0.20021735052E+02  0.29674844317E+02  0.00000000000E+00 0.  1.
</event>
<event>
 5    1  0.9034713E-005  0.9118800E+02  0.7818608E-02  0.1130116E+00
         25   -1    0    0    0    0  0.00000000000E+00  0.00000000000E+00  0.99999998245E-14  0.12500000000E+03  0.12500000000E+03 0.  0.
        -13    1    3    3    0    0 -0.41499196720E+02 -0.19223140525E+01 -0.23192965200E+02  0.47579443235E+02  0.10566000000E+00 0.  1.
         23    2    1    0    0    0 -0.82816024595E+01 -0.29021207035E+02 -0.39735407456E+01  0.94559822222E+02  0.89526284161E+02 0.  0.
         13    1    3    3    0    0  0.33217594261E+02 -0.27098892983E+02  0.19219424455E+02  0.46980378987E+02  0.10566000000E+00 0. -1.
         22    1    1    0    0    0  0.82816024595E+01  0.29021207035E+02  0.39735407456E+01  0.30440177778E+02  0.00000000000E+00 0.  1.
</event>
<event>
 5    1  0.9034713E-005  0.9118800E+02  0.7818608E-02  0.1130116E+00
         25   -1    0    0    0    0  0.00000000000E+00  0.00000000000E+00  0.99999998245E-14  0.12500000000E+03  0.12500000000E+03 0.  0.
        -13    1    3    3    0    0 -0.45905609662E+02 -0.26862698071E+02 -0.82510264924E+01  0.53823973732E+02  0.10566000000E+00 0.  1.
         23    2    1    0    0    0 -0.24924197561E+02  0.95363643931E+01 -0.11454479663E+02  0.95959287642E+02  0.91459400340E+02 0.  0.
         13    1    3    3    0    0  0.20981412101E+02  0.36399062464E+02 -0.32034531707E+01  0.42135313910E+02  0.10566000000E+00 0. -1.
         22    1    1    0    0    0  0.24924197561E+02 -0.95363643931E+01  0.11454479663E+02  0.29040712358E+02  0.00000000000E+00 0.  1.
</event>
<event>
 5    1  0.9034713E-005  0.9118800E+02  0.7818608E-02  0.1130116E+00
         25   -1    0    0    0    0  0.00000000000E+00  0.00000000000E+00  0.99999998245E-14  0.12500000000E+03  0.12500000000E+03 0.  0.
        -13    1    3    3    0    0 -0.12911104370E+02 -0.30384382696E+02 -0.17553294452E+02  0.37390328135E+02  0.10566000000E+00 0.  1.
         23    2    1    0    0    0  0.22204901499E+02  0.16196703442E+02 -0.48825532081E+01  0.97085305325E+02  0.92985624326E+02 0.  0.
         13    1    3    3    0    0  0.35116005869E+02  0.46581086138E+02  0.12670741243E+02  0.59694977190E+02  0.10566000000E+00 0. -1.
         22    1    1    0    0    0 -0.22204901499E+02 -0.16196703442E+02  0.48825532081E+01  0.27914694675E+02  0.00000000000E+00 0. -1.
</event>
<event>
 5    1  0.9034713E-005  0.9118800E+02  0.7818608E-02  0.1130116E+00
         25   -1    0    0    0    0  0.00000000000E+00  0.00000000000E+00  0.99999998245E-14  0.12500000000E+03  0.12500000000E+03 0.  0.
        -13    1    3    3    0    0 -0.16474718439E+02 -0.18293094881E+02 -0.34169354359E+02  0.42114244731E+02  0.10566000000E+00 0.  1.
         23    2    1    0    0    0  0.20146646707E+02 -0.49126717729E+01  0.10789134752E+02  0.10162421881E+03  0.98899214874E+02 0.  0.
         13    1    3    3    0    0  0.36621365146E+02  0.13380423108E+02  0.44958489111E+02  0.59509974079E+02  0.10566000000E+00 0. -1.
         22    1    1    0    0    0 -0.20146646707E+02  0.49126717729E+01 -0.10789134752E+02  0.23375781189E+02  0.00000000000E+00 0. -1.
</event>
<event>
 5    1  0.9034713E-005  0.9118800E+02  0.7818608E-02  0.1130116E+00
         25   -1    0    0    0    0  0.00000000000E+00  0.00000000000E+00  0.99999998245E-14  0.12500000000E+03  0.12500000000E+03 0.  0.
        -13    1    3    3    0    0  0.54008523524E+02  0.19848914926E+02  0.13990133068E+01  0.57557522872E+02  0.10566000000E+00 0. -1.
         23    2    1    0    0    0  0.27918456995E+02 -0.76554909337E+01 -0.37238319861E+01  0.95812439172E+02  0.91258477924E+02 0.  0.
         13    1    3    3    0    0 -0.26090066528E+02 -0.27504405860E+02 -0.51228452929E+01  0.38254916300E+02  0.10566000000E+00 0.  1.
         22    1    1    0    0    0 -0.27918456995E+02  0.76554909337E+01  0.37238319861E+01  0.29187560828E+02  0.00000000000E+00 0. -1.
</event>
<event>
 5    1  0.9034713E-005  0.9118800E+02  0.7818608E-02  0.1130116E+00
         25   -1    0    0    0    0  0.00000000000E+00  0.00000000000E+00  0.99999998245E-14  0.12500000000E+03  0.12500000000E+03 0.  0.
        -13    1    3    3    0    0 -0.17804194487E+02  0.32482495573E+02  0.25797419872E+02  0.45140003279E+02  0.10566000000E+00 0. -1.
         23    2    1    0    0    0  0.85656044869E+01  0.22833216492E+02 -0.16245203743E+02  0.95697576888E+02  0.91101011092E+02 0.  0.
         13    1    3    3    0    0  0.26369798974E+02 -0.96492790810E+01 -0.42042623615E+02  0.50557573608E+02  0.10566000000E+00 0.  1.
         22    1    1    0    0    0 -0.85656044869E+01 -0.22833216492E+02  0.16245203743E+02  0.29302423112E+02  0.00000000000E+00 0.  1.
</event>
<event>
 5    1  0.9034713E-005  0.9118800E+02  0.7818608E-02  0.1130116E+00
         25   -1    0    0    0    0  0.00000000000E+00  0.00000000000E+00  0.99999998245E-14  0.12500000000E+03  0.12500000000E+03 0.  0.
        -13    1    3    3    0    0 -0.48821631190E+02  0.98929397081E+01  0.21975217592E+02  0.54445782944E+02  0.10566000000E+00 0. -1.
         23    2    1    0    0    0 -0.55391571465E+01 -0.49891399322E+01  0.23606396009E+02  0.10024448119E+03  0.97139694754E+02 0.  0.
         13    1    3    3    0    0  0.43282474044E+02 -0.14882079640E+02  0.16311784163E+01  0.45798698244E+02  0.10566000000E+00 0.  1.
         22    1    1    0    0    0  0.55391571465E+01  0.49891399322E+01 -0.23606396009E+02  0.24755518812E+02  0.00000000000E+00 0.  1.
</event>
<event>
 5    1  0.9034713E-005  0.9118800E+02  0.7818608E-02  0.1130116E+00
         25   -1    0    0    0    0  0.00000000000E+00  0.00000000000E+00  0.99999998245E-14  0.12500000000E+03  0.12500000000E+03 0.  0.
        -13    1    3    3    0    0 -0.30912706356E+02 -0.28912987387E+02  0.37277047199E+02  0.56401645949E+02  0.10566000000E+00 0.  1.
         23    2    1    0    0    0  0.38447390438E+01 -0.17360254549E+02  0.23493049366E+02  0.95536737709E+02  0.90880055167E+02 0.  0.
         13    1    3    3    0    0  0.34757445400E+02  0.11552732838E+02 -0.13783997833E+02  0.39135091760E+02  0.10566000000E+00 0. -1.
         22    1    1    0    0    0 -0.38447390438E+01  0.17360254549E+02 -0.23493049366E+02  0.29463262291E+02  0.00000000000E+00 0.  1.
</event>
<event>
 5    1  0.9034713E-005  0.9118800E+02  0.7818608E-02  0.1130116E+00
         25   -1    0    0    0    0  0.00000000000E+00  0.00000000000E+00  0.99999998245E-14  0.12500000000E+03  0.12500000000E+03 0.  0.
        -13    1    3    3    0    0 -0.55730157777E+02 -0.46665077639E+01 -0.19621310245E+02  0.59267476413E+02  0.10566000000E+00 0.  1.
         23    2    1    0    0    0 -0.29864092901E+02  0.98504294265E+01 -0.26480229261E+01  0.93442005290E+02  0.87951698804E+02 0.  0.
         13    1    3    3    0    0  0.25866064876E+02  0.14516937190E+02  0.16973287319E+02  0.34174528878E+02  0.10566000000E+00 0. -1.
         22    1    1    0    0    0  0.29864092901E+02 -0.98504294265E+01  0.26480229261E+01  0.31557994710E+02  0.00000000000E+00 0.  1.
</event>
<event>
 5    1  0.9034713E-005  0.9118800E+02  0.7818608E-02  0.1130116E+00
         25   -1    0    0    0    0  0.00000000000E+00  0.00000000000E+00  0.99999998245E-14  0.12500000000E+03  0.12500000000E+03 0.  0.
        -13    1    3    3    0    0  0.37790759687E+02  0.89036692881E+01  0.22618461030E+02  0.44933537452E+02  0.10566000000E+00 0.  1.
         23    2    1    0    0    0 -0.72916278853E+01 -0.15371160513E+02  0.23311263845E+02  0.96140765173E+02  0.91707095109E+02 0.  0.
         13    1    3    3    0    0 -0.45082387573E+02 -0.24274829801E+02  0.69280281525E+00  0.51207227721E+02  0.10566000000E+00 0. -1.
         22    1    1    0    0    0  0.72916278853E+01  0.15371160513E+02 -0.23311263845E+02  0.28859234827E+02  0.00000000000E+00 0.  1.
</event>
<event>
 5    1  0.9034713E-005  0.9118800E+02  0.7818608E-02  0.1130116E+00
         25   -1    0    0    0    0  0.00000000000E+00  0.00000000000E+00  0.99999998245E-14  0.12500000000E+03  0.12500000000E+03 0.  0.
        -13    1    3    3    0    0 -0.22741463884E+02  0.25283913576E+01  0.38474016334E+02  0.44764137871E+02  0.10566000000E+00 0.  1.
         23    2    1    0    0    0  0.20341344752E+02 -0.13440943744E+02  0.15189113790E+02  0.96274776715E+02  0.91889576006E+02 0.  0.
         13    1    3    3    0    0  0.43082808636E+02 -0.15969335102E+02 -0.23284902543E+02  0.51510638844E+02  0.10566000000E+00 0. -1.
         22    1    1    0    0    0 -0.20341344752E+02  0.13440943744E+02 -0.15189113790E+02  0.28725223285E+02  0.00000000000E+00 0. -1.
</event>
<event>
 5    1  0.9034713E-005  0.9118800E+02  0.7818608E-02  0.1130116E+00
         25   -1    0    0    0    0  0.00000000000E+00  0.00000000000E+00  0.99999998245E-14  0.12500000000E+03  0.12500000000E+03 0.  0.
        -13    1    3    3    0    0 -0.18001592593E+02  0.41125982879E+02 -0.22775152574E+01  0.44951107255E+02  0.10566000000E+00 0.  1.
         23    2    1    0    0    0 -0.28053729752E+02 -0.77038034604E+01  0.54540308457E+01  0.95400898776E+02  0.90693024506E+02 0.  0.
         13    1    3    3    0    0 -0.10052137159E+02 -0.48829786339E+02  0.77315461032E+01  0.50449791522E+02  0.10566000000E+00 0. -1.
         22    1    1    0    0    0  0.28053729752E+02  0.77038034604E+01 -0.54540308457E+01  0.29599101224E+02  0.00000000000E+00 0. -1.
</event>
<event>
 5    1  0.9034713E-005  0.9118800E+02  0.7818608E-02  0.1130116E+00
         25   -1    0    0    0    0  0.00000000000E+00  0.00000000000E+00  0.99999998245E-14  0.12500000000E+03  0.12500000000E+03 0.  0.
        -13    1    3    3    0    0 -0.29990989669E+02 -0.25783249443E+02  0.43247867654E+02  0.58605670663E+02  0.10566000000E+00 0.  1.
         23    2    1    0    0    0 -0.10820656993E+02 -0.26198626048E+02  0.36172564435E+02  0.79044488444E+02  0.64312690124E+02 0.  0.
         13    1    3    3    0    0  0.19170332676E+02 -0.41537660483E+00 -0.70753032189E+01  0.20438817781E+02  0.10566000000E+00 0. -1.
         22    1    1    0    0    0  0.10820656993E+02  0.26198626048E+02 -0.36172564435E+02  0.45955511556E+02  0.00000000000E+00 0.  1.
</event>
<event>
 5    1  0.9034713E-005  0.9118800E+02  0.7818608E-02  0.1130116E+00
         25   -1    0    0    0    0  0.00000000000E+00  0.00000000000E+00  0.99999998245E-14  0.12500000000E+03  0.12500000000E+03 0.  0.
        -13    1    3    3    0    0  0.12637565630E+02  0.35378788468E+02  0.42411007105E+02  0.56657492233E+02  0.10566000000E+00 0.  1.
         23    2    1    0    0    0  0.22922979116E+02  0.12028261373E+02  0.11681577711E+02  0.96599272878E+02  0.92329942162E+02 0.  0.
         13    1    3    3    0    0  0.10285413487E+02 -0.23350527095E+02 -0.30729429394E+02  0.39941780645E+02  0.10566000000E+00 0. -1.
         22    1    1    0    0    0 -0.22922979116E+02 -0.12028261373E+02 -0.11681577711E+02  0.28400727122E+02  0.00000000000E+00 0.  1.
</event>
<event>
 5    1  0.9034713E-005  0.9118800E+02  0.7818608E-02  0.1130116E+00
         25   -1    0    0    0    0  0.00000000000E+00  0.00000000000E+00  0.99999998245E-14  0.12500000000E+03  0.12500000000E+03 0.  0.
        -13    1    3    3    0    0  0.26736909593E+02 -0.16503447192E+02  0.35715127297E+02  0.47568977135E+02  0.10566000000E+00 0. -1.
         23    2    1    0    0    0  0.18879109438E+02  0.21989892743E+02  0.19484371443E+02  0.90076986290E+02  0.83031599844E+02 0.  0.
         13    1    3    3    0    0 -0.78578001549E+01  0.38493339936E+02 -0.16230755854E+02  0.42508009155E+02  0.10566000000E+00 0.  1.
         22    1    1    0    0    0 -0.18879109438E+02 -0.21989892743E+02 -0.19484371443E+02  0.34923013710E+02  0.00000000000E+00 0.  1.
</event>
<event>
 5    1  0.9034713E-005  0.9118800E+02  0.7818608E-02  0.1130116E+00
         25   -1    0    0    0    0  0.00000000000E+00  0.00000000000E+00  0.99999998245E-14  0.12500000000E+03  0.12500000000E+03 0.  0.
        -13    1    3    3    0    0  0.40471148774E+02  0.23900359421E+02  0.62848974705E+01  0.47419955333E+02  0.10566000000E+00 0.  1.
         23    2    1    0    0    0  0.12115610186E+01  0.10519636743E+02  0.28588284979E+02  0.94513598518E+02  0.89461721588E+02 0.  0.
         13    1    3    3    0    0 -0.39259587755E+02 -0.13380722678E+02  0.22303387508E+02  0.47093643185E+02  0.10566000000E+00 0. -1.
         22    1    1    0    0    0 -0.12115610186E+01 -0.10519636743E+02 -0.28588284979E+02  0.30486401482E+02  0.00000000000E+00 0.  1.
</event>
<event>
 5    1  0.9034713E-005  0.9118800E+02  0.7818608E-02  0.1130116E+00
         25   -1    0    0    0    0  0.00000000000E+00  0.00000000000E+00  0.99999998245E-14  0.12500000000E+03  0.12500000000E+03 0.  0.
        -13    1    3    3    0    0 -0.18713247133E+02 -0.56329471941E+02 -0.11826110070E+02  0.60523244054E+02  0.10566000000E+00 0. -1.
         23    2    1    0    0    0 -0.14314948001E+01 -0.26333697806E+02 -0.13871600351E+02  0.95201776667E+02  0.90418162814E+02 0.  0.
         13    1    3    3    0    0  0.17281752332E+02  0.29995774135E+02 -0.20454902817E+01  0.34678532613E+02  0.10566000000E+00 0.  1.
         22    1    1    0    0    0  0.14314948001E+01  0.26333697806E+02  0.13871600351E+02  0.29798223333E+02  0.00000000000E+00 0. -1.
</event>
<event>
 5    1  0.9034713E-005  0.9118800E+02  0.7818608E-02  0.1130116E+00
         25   -1    0    0    0    0  0.00000000000E+00  0.00000000000E+00  0.99999998245E-14  0.12500000000E+03  0.12500000000E+03 0.  0.
        -13    1    3    3    0    0  0.60479201396E+01  0.89532443286E+01  0.59607951359E+02  0.60579344262E+02  0.10566000000E+00 0.  1.
         23    2    1    0    0    0 -0.75378396886E+01  0.76662913729E+01  0.27950439445E+02  0.95053078360E+02  0.90212358299E+02 0.  0.
         13    1    3    3    0    0 -0.13585759828E+02 -0.12869529557E+01 -0.31657511914E+02  0.34473734098E+02  0.10566000000E+00 0. -1.
         22    1    1    0    0    0  0.75378396886E+01 -0.76662913729E+01 -0.27950439445E+02  0.29946921640E+02  0.00000000000E+00 0.  1.
</event>
<event>
 5    1  0.9034713E-005  0.9118800E+02  0.7818608E-02  0.1130116E+00
         25   -1    0    0    0    0  0.00000000000E+00  0.00000000000E+00  0.99999998245E-14  0.12500000000E+03  0.12500000000E+03 0.  0.
        -13    1    3    3    0    0  0.20616366693E+02 -0.37185484148E+02  0.25676875455E+01  0.42595762587E+02  0.10566000000E+00 0. -1.
         23    2    1    0    0    0 -0.46826746168E+01 -0.73083848128E+00  0.29910069836E+02  0.94716772892E+02  0.89745157101E+02 0.  0.
         13    1    3    3    0    0 -0.25299041310E+02  0.36454645667E+02  0.27342382291E+02  0.52121010306E+02  0.10566000000E+00 0.  1.
         22    1    1    0    0    0  0.46826746168E+01  0.73083848128E+00 -0.29910069836E+02  0.30283227108E+02  0.00000000000E+00 0.  1.
</event>
<event>
 5    1  0.9034713E-005  0.9118800E+02  0.7818608E-02  0.1130116E+00
         25   -1    0    0    0    0  0.00000000000E+00  0.00000000000E+00  0.99999998245E-14  0.12500000000E+03  0.12500000000E+03 0.  0.
        -13    1    3    3    0    0 -0.24783890410E+01  0.15838520902E+02  0.35715017632E+02  0.39148113685E+02  0.10566000000E+00 0. -1.
         23    2    1    0    0    0 -0.85033276390E+01  0.24093964026E+02 -0.17947948567E+02  0.93775737940E+02  0.88424739100E+02 0.  0.
         13    1    3    3    0    0 -0.60249385979E+01  0.82554431240E+01 -0.53662966200E+02  0.54627624254E+02  0.10566000000E+00 0.  1.
         22    1    1    0    0    0  0.85033276390E+01 -0.24093964026E+02  0.17947948567E+02  0.31224262060E+02  0.00000000000E+00 0.  1.
</event>
<event>
 5    1  0.9034713E-005  0.9118800E+02  0.7818608E-02  0.1130116E+00
         25   -1    0    0    0    0  0.00000000000E+00  0.00000000000E+00  0.99999998245E-14  0.12500000000E+03  0.12500000000E+03 0.  0.
        -13    1    3    3    0    0  0.53239287118E+00 -0.14104433262E+02 -0.34560047060E+02  0.37331307192E+02  0.10566000000E+00 0. -1.
         23    2    1    0    0    0 -0.15176461813E+02 -0.15955011345E+02  0.20680074344E+02  0.94791510215E+02  0.89849193395E+02 0.  0.
         13    1    3    3    0    0 -0.15708854684E+02 -0.18505780830E+01  0.55240121404E+02  0.57460203024E+02  0.10566000000E+00 0.  1.
         22    1    1    0    0    0  0.15176461813E+02  0.15955011345E+02 -0.20680074344E+02  0.30208489785E+02  0.00000000000E+00 0.  1.
</event>
<event>
 5    1  0.9034713E-005  0.9118800E+02  0.7818608E-02  0.1130116E+00
         25   -1    0    0    0    0  0.00000000000E+00  0.00000000000E+00  0.99999998245E-14  0.12500000000E+03  0.12500000000E+03 0.  0.
        -13    1    3    3    0    0 -0.43847631968E+02  0.10335234637E+02  0.16644994817E+02  0.48026023369E+02  0.10566000000E+00 0. -1.
         23    2    1    0    0    0 -0.45063446206E+01  0.30556466406E+02  0.79467093302E+01  0.93107132925E+02  0.87474471884E+02 0.  0.
         13    1    3    3    0    0  0.39341287347E+02  0.20221231769E+02 -0.86982854868E+01  0.45081109556E+02  0.10566000000E+00 0.  1.
         22    1    1    0    0    0  0.45063446206E+01 -0.30556466406E+02 -0.79467093302E+01  0.31892867075E+02  0.00000000000E+00 0. -1.
</event>
<event>
 5    1  0.9034713E-005  0.9118800E+02  0.7818608E-02  0.1130116E+00
         25   -1    0    0    0    0  0.00000000000E+00  0.00000000000E+00  0.99999998245E-14  0.12500000000E+03  0.12500000000E+03 0.  0.
        -13    1    3    3    0    0  0.95855409762E+01 -0.21723440532E+02  0.20672946496E+02  0.31482889722E+02  0.10566000000E+00 0. -1.
         23    2    1    0    0    0 -0.18366842326E+02  0.22576311765E+02 -0.12327727817E+02  0.93392981427E+02  0.87881996773E+02 0.  0.
         13    1    3    3    0    0 -0.27952383302E+02  0.44299752297E+02 -0.33000674313E+02  0.61910091706E+02  0.10566000000E+00 0.  1.
         22    1    1    0    0    0  0.18366842326E+02 -0.22576311765E+02  0.12327727817E+02  0.31607018573E+02  0.00000000000E+00 0.  1.
</event>
<event>
 5    1  0.9034713E-005  0.9118800E+02  0.7818608E-02  0.1130116E+00
         25   -1    0    0    0    0  0.00000000000E+00  0.00000000000E+00  0.99999998245E-14  0.12500000000E+03  0.12500000000E+03 0.  0.
        -13    1    3    3    0    0  0.43497268525E+02 -0.27399193577E+02  0.24313404763E+02  0.56867222484E+02  0.10566000000E+00 0. -1.
         23    2    1    0    0    0  0.60446138674E+01 -0.24016390365E+02  0.16401843621E+02  0.95295710123E+02  0.90547929466E+02 0.  0.
         13    1    3    3    0    0 -0.37452654657E+02  0.33828032126E+01 -0.79115611427E+01  0.38428487639E+02  0.10566000000E+00 0.  1.
         22    1    1    0    0    0 -0.60446138674E+01  0.24016390365E+02 -0.16401843621E+02  0.29704289877E+02  0.00000000000E+00 0. -1.
</event>
<event>
 5    1  0.9034713E-005  0.9118800E+02  0.7818608E-02  0.1130116E+00
         25   -1    0    0    0    0  0.00000000000E+00  0.00000000000E+00  0.99999998245E-14  0.12500000000E+03  0.12500000000E+03 0.  0.
        -13    1    3    3    0    0 -0.22336677591E+02 -0.52832509499E+02  0.19196828928E+02  0.60487441926E+02  0.10566000000E+00 0.  1.
         23    2    1    0    0    0 -0.54274783451E+01 -0.22290089465E+02  0.18701441728E+02  0.95401866068E+02  0.90694357692E+02 0.  0.
         13    1    3    3    0    0  0.16909199246E+02  0.30542420035E+02 -0.49538719946E+00  0.34914424143E+02  0.10566000000E+00 0. -1.
         22    1    1    0    0    0  0.54274783451E+01  0.22290089465E+02 -0.18701441728E+02  0.29598133932E+02  0.00000000000E+00 0.  1.
</event>
<event>
 5    1  0.9034713E-005  0.9118800E+02  0.7818608E-02  0.1130116E+00
         25   -1    0    0    0    0  0.00000000000E+00  0.00000000000E+00  0.99999998245E-14  0.12500000000E+03  0.12500000000E+03 0.  0.
        -13    1    3    3    0    0  0.17755315445E+02  0.16758330014E+02  0.34341008938E+02  0.42135601459E+02  0.10566000000E+00 0. -1.
         23    2    1    0    0    0  0.76234464159E+01 -0.27077877166E+02  0.35697640443E+01  0.96643844013E+02  0.92390264656E+02 0.  0.
         13    1    3    3    0    0 -0.10131869029E+02 -0.43836207180E+02 -0.30771244894E+02  0.54508242554E+02  0.10566000000E+00 0.  1.
         22    1    1    0    0    0 -0.76234464159E+01  0.27077877166E+02 -0.35697640443E+01  0.28356155987E+02  0.00000000000E+00 0.  1.
</event>
<event>
 5    1  0.9034713E-005  0.9118800E+02  0.7818608E-02  0.1130116E+00
         25   -1    0    0    0    0  0.00000000000E+00  0.00000000000E+00  0.99999998245E-14  0.12500000000E+03  0.12500000000E+03 0.  0.
        -13    1    3    3    0    0 -0.42639188434E+02 -0.28061672830E+02  0.21065920584E+02  0.55220847933E+02  0.10566000000E+00 0. -1.
         23    2    1    0    0    0 -0.36017242912E+02 -0.48952109843E+01 -0.20272868618E+01  0.88595127118E+02  0.80769931159E+02 0.  0.
         13    1    3    3    0    0  0.66219455226E+01  0.23166461845E+02 -0.23093207446E+02  0.33374279185E+02  0.10566000000E+00 0.  1.
         22    1    1    0    0    0  0.36017242912E+02  0.48952109843E+01  0.20272868618E+01  0.36404872882E+02  0.00000000000E+00 0. -1.
</event>
<event>
 5    1  0.9034713E-005  0.9118800E+02  0.7818608E-02  0.1130116E+00
         25   -1    0    0    0    0  0.00000000000E+00  0.00000000000E+00  0.99999998245E-14  0.12500000000E+03  0.12500000000E+03 0.  0.
        -13    1    3    3    0    0  0.47654100798E+02  0.15412642177E+01 -0.71521737717E+01  0.48212587277E+02  0.10566000000E+00 0.  1.
         23    2    1    0    0    0  0.15335889604E+02 -0.10827823338E+02  0.23832405654E+02  0.94661660766E+02  0.89668362267E+02 0.  0.
         13    1    3    3    0    0 -0.32318211194E+02 -0.12369087556E+02  0.30984579426E+02  0.46449073489E+02  0.10566000000E+00 0. -1.
         22    1    1    0    0    0 -0.15335889604E+02  0.10827823338E+02 -0.23832405654E+02  0.30338339234E+02  0.00000000000E+00 0.  1.
</event>
<event>
 5    1  0.9034713E-005  0.9118800E+02  0.7818608E-02  0.1130116E+00
         25   -1    0    0    0    0  0.00000000000E+00  0.00000000000E+00  0.99999998245E-14  0.12500000000E+03  0.12500000000E+03 0.  0.
        -13    1    3    3    0    0  0.26339349116E+02 -0.18512744844E+02 -0.53263904673E+01  0.32632263681E+02  0.10566000000E+00 0.  1.
         23    2    1    0    0    0 -0.19123434098E+02  0.15513162410E+02 -0.22172396429E+02  0.91864232270E+02  0.85679974717E+02 0.  0.
         13    1    3    3    0    0 -0.45462783214E+02  0.34025907254E+02 -0.16846005962E+02  0.59231968589E+02  0.10566000000E+00 0. -1.
         22    1    1    0    0    0  0.19123434098E+02 -0.15513162410E+02  0.22172396429E+02  0.33135767730E+02  0.00000000000E+00 0. -1.
</event>
<event>
 5    1  0.9034713E-005  0.9118800E+02  0.7818608E-02  0.1130116E+00
         25   -1    0    0    0    0  0.00000000000E+00  0.00000000000E+00  0.99999998245E-14  0.12500000000E+03  0.12500000000E+03 0.  0.
        -13    1    3    3    0    0  0.35726472627E+02 -0.10875634341E+01  0.99193260720E+01  0.37094040415E+02  0.10566000000E+00 0. -1.
         23    2    1    0    0    0 -0.21344831871E+02 -0.12113726689E+02  0.16251026655E+02  0.95564645590E+02  0.90918432661E+02 0.  0.
         13    1    3    3    0    0 -0.57071304497E+02 -0.11026163255E+02  0.63317005834E+01  0.58470605175E+02  0.10566000000E+00 0.  1.
         22    1    1    0    0    0  0.21344831871E+02  0.12113726689E+02 -0.16251026655E+02  0.29435354410E+02  0.00000000000E+00 0.  1.
</event>
<event>
 5    1  0.9034713E-005  0.9118800E+02  0.7818608E-02  0.1130116E+00
         25   -1    0    0    0    0  0.00000000000E+00  0.00000000000E+00  0.99999998245E-14  0.12500000000E+03  0.12500000000E+03 0.  0.
        -13    1    3    3    0    0 -0.74680031865E+01 -0.41414152523E+02 -0.13922794203E+02  0.44325596028E+02  0.10566000000E+00 0.  1.
         23    2    1    0    0    0 -0.14215713231E+02 -0.66581939334E+01  0.24073560452E+02  0.96260578260E+02  0.91870259415E+02 0.  0.
         13    1    3    3    0    0 -0.67477100444E+01  0.34755958589E+02  0.37996354655E+02  0.51934982232E+02  0.10566000000E+00 0. -1.
         22    1    1    0    0    0  0.14215713231E+02  0.66581939334E+01 -0.24073560452E+02  0.28739421740E+02  0.00000000000E+00 0. -1.
</event>
<event>
 5    1  0.9034713E-005  0.9118800E+02  0.7818608E-02  0.1130116E+00
         25   -1    0    0    0    0  0.00000000000E+00  0.00000000000E+00  0.99999998245E-14  0.12500000000E+03  0.12500000000E+03 0.  0.
        -13    1    3    3    0    0 -0.25785366337E+02  0.36021925583E+02  0.58520299033E+01  0.44684691538E+02  0.10566000000E+00 0. -1.
         23    2    1    0    0    0 -0.60114209521E+00  0.72120702724E+01 -0.28186766553E+02  0.95898983898E+02  0.91376944437E+02 0.  0.
         13    1    3    3    0    0  0.25184224242E+02 -0.28809855310E+02 -0.34038796457E+02  0.51214292360E+02  0.10566000000E+00 0.  1.
         22    1    1    0    0    0  0.60114209521E+00 -0.72120702724E+01  0.28186766553E+02  0.29101016102E+02  0.00000000000E+00 0.  1.
</event>
<event>
 5    1  0.9034713E-005  0.9118800E+02  0.7818608E-02  0.1130116E+00
         25   -1    0    0    0    0  0.00000000000E+00  0.00000000000E+00  0.99999998245E-14  0.12500000000E+03  0.12500000000E+03 0.  0.
        -13    1    3    3    0    0  0.40480226115E+02 -0.20565270351E+02 -0.52829346135E+01  0.45711044761E+02  0.10566000000E+00 0.  1.
         23    2    1    0    0    0  0.12092139245E+02  0.74067398776E+01  0.25333850525E+02  0.95967542137E+02  0.91470681283E+02 0.  0.
         13    1    3    3    0    0 -0.28388086870E+02  0.27972010229E+02  0.30616785138E+02  0.50256497377E+02  0.10566000000E+00 0. -1.
         22    1    1    0    0    0 -0.12092139245E+02 -0.74067398776E+01 -0.25333850525E+02  0.29032457863E+02  0.00000000000E+00 0.  1.
</event>
<event>
 5    1  0.9034713E-005  0.9118800E+02  0.7818608E-02  0.1130116E+00
         25   -1    0    0    0    0  0.00000000000E+00  0.00000000000E+00  0.99999998245E-14  0.12500000000E+03  0.12500000000E+03 0.  0.
        -13    1    3    3    0    0 -0.44031557632E+02  0.49643443101E+01  0.38127669983E+02  0.58456421069E+02  0.10566000000E+00 0.  1.
         23    2    1    0    0    0 -0.28626936219E+02  0.87523693671E+01  0.57413458834E+01  0.94519375017E+02  0.89469792412E+02 0.  0.
         13    1    3    3    0    0  0.15404621413E+02  0.37880250569E+01 -0.32386324099E+02  0.36062953947E+02  0.10566000000E+00 0. -1.
         22    1    1    0    0    0  0.28626936219E+02 -0.87523693671E+01 -0.57413458834E+01  0.30480624983E+02  0.00000000000E+00 0.  1.
</event>
<event>
 5    1  0.9034713E-005  0.9118800E+02  0.7818608E-02  0.1130116E+00
         25   -1    0    0    0    0  0.00000000000E+00  0.00000000000E+00  0.99999998245E-14  0.12500000000E+03  0.12500000000E+03 0.  0.
        -13    1    3    3    0    0 -0.28199385095E+02 -0.98413827050E+01  0.43803886791E+02  0.53017448027E+02  0.10566000000E+00 0.  1.
         23    2    1    0    0    0  0.40352858644E+01  0.12230105350E+02  0.26072717763E+02  0.95920013404E+02  0.91405707431E+02 0.  0.
         13    1    3    3    0    0  0.32234670959E+02  0.22071488055E+02 -0.17731169028E+02  0.42902565377E+02  0.10566000000E+00 0. -1.
         22    1    1    0    0    0 -0.40352858644E+01 -0.12230105350E+02 -0.26072717763E+02  0.29079986596E+02  0.00000000000E+00 0.  1.
</event>
<event>
 5    1  0.9034713E-005  0.9118800E+02  0.7818608E-02  0.1130116E+00
         25   -1    0    0    0    0  0.00000000000E+00  0.00000000000E+00  0.99999998245E-14  0.12500000000E+03  0.12500000000E+03 0.  0.
        -13    1    3    3    0    0 -0.16498815983E+02 -0.11249995300E+02 -0.54158430882E+02  0.57722786859E+02  0.10566000000E+00 0.  1.
         23    2    1    0    0    0 -0.14890071222E+02 -0.18759466238E+02 -0.17093373148E+02  0.95575262106E+02  0.90933027699E+02 0.  0.
         13    1    3    3    0    0  0.16087447612E+01 -0.75094709381E+01  0.37065057734E+02  0.37852475247E+02  0.10566000000E+00 0. -1.
         22    1    1    0    0    0  0.14890071222E+02  0.18759466238E+02  0.17093373148E+02  0.29424737894E+02  0.00000000000E+00 0. -1.
</event>
<event>
 5    1  0.9034713E-005  0.9118800E+02  0.7818608E-02  0.1130116E+00
         25   -1    0    0    0    0  0.00000000000E+00  0.00000000000E+00  0.99999998245E-14  0.12500000000E+03  0.12500000000E+03 0.  0.
        -13    1    3    3    0    0  0.52835525068E+02 -0.14672332579E+02  0.58266878696E+01  0.55143734985E+02  0.10566000000E+00 0.  1.
         23    2    1    0    0    0  0.26639475297E+02  0.14545245019E+02  0.17227975912E+01  0.94599443618E+02  0.89581587977E+02 0.  0.
         13    1    3    3    0    0 -0.26196049771E+02  0.29217577598E+02 -0.41038902783E+01  0.39455708633E+02  0.10566000000E+00 0. -1.
         22    1    1    0    0    0 -0.26639475297E+02 -0.14545245019E+02 -0.17227975912E+01  0.30400556382E+02  0.00000000000E+00 0.  1.
</event>
<event>
 5    1  0.9034713E-005  0.9118800E+02  0.7818608E-02  0.1130116E+00
         25   -1    0    0    0    0  0.00000000000E+00  0.00000000000E+00  0.99999998245E-14  0.12500000000E+03  0.12500000000E+03 0.  0.
        -13    1    3    3    0    0  0.45808930167E+02  0.18785118883E-04  0.35393981799E+02  0.57889577599E+02  0.10566000000E+00 0.  1.
         23    2    1    0    0    0  0.13255312408E+02 -0.14532911466E+02  0.20686324306E+02  0.96454723052E+02  0.92134036941E+02 0.  0.
         13    1    3    3    0    0 -0.32553617759E+02 -0.14532930251E+02 -0.14707657492E+02  0.38565145453E+02  0.10566000000E+00 0. -1.
         22    1    1    0    0    0 -0.13255312408E+02  0.14532911466E+02 -0.20686324306E+02  0.28545276948E+02  0.00000000000E+00 0.  1.
</event>
<event>
 5    1  0.9034713E-005  0.9118800E+02  0.7818608E-02  0.1130116E+00
         25   -1    0    0    0    0  0.00000000000E+00  0.00000000000E+00  0.99999998245E-14  0.12500000000E+03  0.12500000000E+03 0.  0.
        -13    1    3    3    0    0 -0.31555643042E+02 -0.92323646519E+01  0.26025712040E+02  0.41932612798E+02  0.10566000000E+00 0. -1.
         23    2    1    0    0    0  0.20720125884E+02  0.34818744855E+01  0.19867093085E+02  0.96083768326E+02  0.91629373465E+02 0.  0.
         13    1    3    3    0    0  0.52275768925E+02  0.12714239137E+02 -0.61586189553E+01  0.54151155528E+02  0.10566000000E+00 0.  1.
         22    1    1    0    0    0 -0.20720125884E+02 -0.34818744855E+01 -0.19867093085E+02  0.28916231674E+02  0.00000000000E+00 0.  1.
</event>
<event>
 5    1  0.9034713E-005  0.9118800E+02  0.7818608E-02  0.1130116E+00
         25   -1    0    0    0    0  0.00000000000E+00  0.00000000000E+00  0.99999998245E-14  0.12500000000E+03  0.12500000000E+03 0.  0.
        -13    1    3    3    0    0 -0.47932066027E+02 -0.33718868371E+02 -0.58389991045E+00  0.58607142406E+02  0.10566000000E+00 0. -1.
         23    2    1    0    0    0 -0.13234975121E+02 -0.22416802666E+02 -0.11272558937E+02  0.96631915941E+02  0.92374125085E+02 0.  0.
         13    1    3    3    0    0  0.34697090906E+02  0.11302065706E+02 -0.10688659027E+02  0.38024773535E+02  0.10566000000E+00 0.  1.
         22    1    1    0    0    0  0.13234975121E+02  0.22416802666E+02  0.11272558937E+02  0.28368084059E+02  0.00000000000E+00 0. -1.
</event>
<event>
 5    1  0.9034713E-005  0.9118800E+02  0.7818608E-02  0.1130116E+00
         25   -1    0    0    0    0  0.00000000000E+00  0.00000000000E+00  0.99999998245E-14  0.12500000000E+03  0.12500000000E+03 0.  0.
        -13    1    3    3    0    0  0.39071729943E+02  0.19301268909E+02 -0.31279541270E+02  0.53642892617E+02  0.10566000000E+00 0. -1.
         23    2    1    0    0    0 -0.57829323071E+00  0.21056503343E+02 -0.22278756143E+02  0.94339704317E+02  0.89218417825E+02 0.  0.
         13    1    3    3    0    0 -0.39650023173E+02  0.17552344341E+01  0.90007851277E+01  0.40696811700E+02  0.10566000000E+00 0.  1.
         22    1    1    0    0    0  0.57829323071E+00 -0.21056503343E+02  0.22278756143E+02  0.30660295683E+02  0.00000000000E+00 0. -1.
</event>
<event>
 5    1  0.9034713E-005  0.9118800E+02  0.7818608E-02  0.1130116E+00
         25   -1    0    0    0    0  0.00000000000E+00  0.00000000000E+00  0.99999998245E-14  0.12500000000E+03  0.12500000000E+03 0.  0.
        -13    1    3    3    0    0 -0.47218265990E+02 -0.64216431009E+01 -0.11941092671E+02  0.49126398213E+02  0.10566000000E+00 0.  1.
         23    2    1    0    0    0 -0.16414179839E+02  0.19788826094E+02  0.12529578915E+02  0.96399068446E+02  0.92058498312E+02 0.  0.
         13    1    3    3    0    0  0.30804086151E+02  0.26210469195E+02  0.24470671586E+02  0.47272670233E+02  0.10566000000E+00 0. -1.
         22    1    1    0    0    0  0.16414179839E+02 -0.19788826094E+02 -0.12529578915E+02  0.28600931554E+02  0.00000000000E+00 0. -1.
</event>
<event>
 5    1  0.9034713E-005  0.9118800E+02  0.7818608E-02  0.1130116E+00
         25   -1    0    0    0    0  0.00000000000E+00  0.00000000000E+00  0.99999998245E-14  0.12500000000E+03  0.12500000000E+03 0.  0.
        -13    1    3    3    0    0 -0.16729497833E+02  0.56120868392E+02  0.11476615543E+02  0.59675387181E+02  0.10566000000E+00 0.  1.
         23    2    1    0    0    0 -0.17038199907E+02  0.20526912984E+02  0.13043062155E+02  0.95305288635E+02  0.90561151487E+02 0.  0.
         13    1    3    3    0    0 -0.30870207443E+00 -0.35593955408E+02  0.15664466116E+01  0.35629901454E+02  0.10566000000E+00 0. -1.
         22    1    1    0    0    0  0.17038199907E+02 -0.20526912984E+02 -0.13043062155E+02  0.29694711365E+02  0.00000000000E+00 0.  1.
</event>
<event>
 5    1  0.9034713E-005  0.9118800E+02  0.7818608E-02  0.1130116E+00
         25   -1    0    0    0    0  0.00000000000E+00  0.00000000000E+00  0.99999998245E-14  0.12500000000E+03  0.12500000000E+03 0.  0.
        -13    1    3    3    0    0 -0.33009209172E+02 -0.18456641343E+01  0.33326787685E+01  0.33228485943E+02  0.10566000000E+00 0. -1.
         23    2    1    0    0    0  0.25582404147E+02 -0.14500281227E+02 -0.86310444281E+01  0.94353426203E+02  0.89237640885E+02 0.  0.
         13    1    3    3    0    0  0.58591613319E+02 -0.12654617092E+02 -0.11963723197E+02  0.61124940260E+02  0.10566000000E+00 0.  1.
         22    1    1    0    0    0 -0.25582404147E+02  0.14500281227E+02  0.86310444281E+01  0.30646573797E+02  0.00000000000E+00 0.  1.
</event>
<event>
 5    1  0.9034713E-005  0.9118800E+02  0.7818608E-02  0.1130116E+00
         25   -1    0    0    0    0  0.00000000000E+00  0.00000000000E+00  0.99999998245E-14  0.12500000000E+03  0.12500000000E+03 0.  0.
        -13    1    3    3    0    0  0.12469133586E+02  0.21330808674E+02 -0.30691030920E+02  0.39400929355E+02  0.10566000000E+00 0.  1.
         23    2    1    0    0    0 -0.13054490850E+02 -0.15199367804E+02 -0.35513127766E+02  0.84224728613E+02  0.73696554555E+02 0.  0.
         13    1    3    3    0    0 -0.25523624436E+02 -0.36530176478E+02 -0.48220968460E+01  0.44823799258E+02  0.10566000000E+00 0. -1.
         22    1    1    0    0    0  0.13054490850E+02  0.15199367804E+02  0.35513127766E+02  0.40775271387E+02  0.00000000000E+00 0. -1.
</event>
<event>
 5    1  0.9034713E-005  0.9118800E+02  0.7818608E-02  0.1130116E+00
         25   -1    0    0    0    0  0.00000000000E+00  0.00000000000E+00  0.99999998245E-14  0.12500000000E+03  0.12500000000E+03 0.  0.
        -13    1    3    3    0    0 -0.54210048872E+00  0.31171641796E+02 -0.14327773838E+02  0.34311242945E+02  0.10566000000E+00 0.  1.
         23    2    1    0    0    0 -0.16480604878E+02 -0.25001132655E+02  0.21397480767E+01  0.94979248960E+02  0.90110000776E+02 0.  0.
         13    1    3    3    0    0 -0.15938504390E+02 -0.56172774452E+02  0.16467521915E+02  0.60668006015E+02  0.10566000000E+00 0. -1.
         22    1    1    0    0    0  0.16480604878E+02  0.25001132655E+02 -0.21397480767E+01  0.30020751040E+02  0.00000000000E+00 0. -1.
</event>
<event>
 5    1  0.9034713E-005  0.9118800E+02  0.7818608E-02  0.1130116E+00
         25   -1    0    0    0    0  0.00000000000E+00  0.00000000000E+00  0.99999998245E-14  0.12500000000E+03  0.12500000000E+03 0.  0.
        -13    1    3    3    0    0 -0.27998937234E+02 -0.14875152643E+02 -0.52141599525E+02  0.61024324801E+02  0.10566000000E+00 0.  1.
         23    2    1    0    0    0 -0.75511186913E+01 -0.14626288671E+02 -0.26222514729E+02  0.94039250776E+02  0.88796467802E+02 0.  0.
         13    1    3    3    0    0  0.20447818543E+02  0.24886397247E+00  0.25919084796E+02  0.33014925975E+02  0.10566000000E+00 0. -1.
         22    1    1    0    0    0  0.75511186913E+01  0.14626288671E+02  0.26222514729E+02  0.30960749224E+02  0.00000000000E+00 0.  1.
</event>
<event>
 5    1  0.9034713E-005  0.9118800E+02  0.7818608E-02  0.1130116E+00
         25   -1    0    0    0    0  0.00000000000E+00  0.00000000000E+00  0.99999998245E-14  0.12500000000E+03  0.12500000000E+03 0.  0.
        -13    1    3    3    0    0 -0.41264699568E+02 -0.59340341254E+01  0.11105314648E+02  0.43143103376E+02  0.10566000000E+00 0.  1.
         23    2    1    0    0    0  0.19460265968E+01 -0.21325440783E+02 -0.17622863207E+02  0.97266865455E+02  0.93229375004E+02 0.  0.
         13    1    3    3    0    0  0.43210726165E+02 -0.15391406658E+02 -0.28728177855E+02  0.54123762078E+02  0.10566000000E+00 0. -1.
         22    1    1    0    0    0 -0.19460265968E+01  0.21325440783E+02  0.17622863207E+02  0.27733134545E+02  0.00000000000E+00 0. -1.
</event>
<event>
 5    1  0.9034713E-005  0.9118800E+02  0.7818608E-02  0.1130116E+00
         25   -1    0    0    0    0  0.00000000000E+00  0.00000000000E+00  0.99999998245E-14  0.12500000000E+03  0.12500000000E+03 0.  0.
        -13    1    3    3    0    0 -0.16379247695E+02  0.19999974430E+02  0.26749654933E+02  0.37199918485E+02  0.10566000000E+00 0. -1.
         23    2    1    0    0    0  0.26678606931E+01 -0.28559373258E+02 -0.10306159292E+01  0.96297779690E+02  0.91920862281E+02 0.  0.
         13    1    3    3    0    0  0.19047108388E+02 -0.48559347687E+02 -0.27780270862E+02  0.59097861205E+02  0.10566000000E+00 0.  1.
         22    1    1    0    0    0 -0.26678606931E+01  0.28559373258E+02  0.10306159292E+01  0.28702220310E+02  0.00000000000E+00 0.  1.
</event>
<event>
 5    1  0.9034713E-005  0.9118800E+02  0.7818608E-02  0.1130116E+00
         25   -1    0    0    0    0  0.00000000000E+00  0.00000000000E+00  0.99999998245E-14  0.12500000000E+03  0.12500000000E+03 0.  0.
        -13    1    3    3    0    0 -0.28597653589E+02 -0.46081656144E+02 -0.95500088205E+01  0.55068672186E+02  0.10566000000E+00 0.  1.
         23    2    1    0    0    0  0.48461945552E+01 -0.24717181313E+02 -0.15834048412E+02  0.95248668218E+02  0.90482965548E+02 0.  0.
         13    1    3    3    0    0  0.33443848144E+02  0.21364474831E+02 -0.62840395912E+01  0.40179996032E+02  0.10566000000E+00 0. -1.
         22    1    1    0    0    0 -0.48461945552E+01  0.24717181313E+02  0.15834048412E+02  0.29751331782E+02  0.00000000000E+00 0. -1.
</event>
<event>
 5    1  0.9034713E-005  0.9118800E+02  0.7818608E-02  0.1130116E+00
         25   -1    0    0    0    0  0.00000000000E+00  0.00000000000E+00  0.99999998245E-14  0.12500000000E+03  0.12500000000E+03 0.  0.
        -13    1    3    3    0    0 -0.23562811397E+01 -0.46500480314E+02 -0.28603245075E+02  0.54644336606E+02  0.10566000000E+00 0.  1.
         23    2    1    0    0    0 -0.16306905913E+02 -0.73419215689E+01 -0.21859304338E+02  0.96757334069E+02  0.92543684372E+02 0.  0.
         13    1    3    3    0    0 -0.13950624774E+02  0.39158558745E+02  0.67439407379E+01  0.42112997463E+02  0.10566000000E+00 0. -1.
         22    1    1    0    0    0  0.16306905913E+02  0.73419215689E+01  0.21859304338E+02  0.28242665931E+02  0.00000000000E+00 0.  1.
</event>
<event>
 5    1  0.9034713E-005  0.9118800E+02  0.7818608E-02  0.1130116E+00
         25   -1    0    0    0    0  0.00000000000E+00  0.00000000000E+00  0.99999998245E-14  0.12500000000E+03  0.12500000000E+03 0.  0.
        -13    1    3    3    0    0 -0.28895417621E+00 -0.14549120930E+02  0.33996022654E+02  0.36979739516E+02  0.10566000000E+00 0.  1.
         23    2    1    0    0    0  0.25686157100E+02  0.21611851364E+02  0.28605886877E+01  0.91309738001E+02  0.84867157960E+02 0.  0.
         13    1    3    3    0    0  0.25975111276E+02  0.36160972293E+02 -0.31135433967E+02  0.54329998485E+02  0.10566000000E+00 0. -1.
         22    1    1    0    0    0 -0.25686157100E+02 -0.21611851364E+02 -0.28605886877E+01  0.33690261999E+02  0.00000000000E+00 0. -1.
</event>
<event>
 5    1  0.9034713E-005  0.9118800E+02  0.7818608E-02  0.1130116E+00
         25   -1    0    0    0    0  0.00000000000E+00  0.00000000000E+00  0.99999998245E-14  0.12500000000E+03  0.12500000000E+03 0.  0.
        -13    1    3    3    0    0 -0.13119599658E+02 -0.22283117467E+02  0.31816731360E+02  0.40999716800E+02  0.10566000000E+00 0.  1.
         23    2    1    0    0    0  0.85769266955E+01 -0.17605375926E+02 -0.19778562482E+02  0.97166486624E+02  0.93094691878E+02 0.  0.
         13    1    3    3    0    0  0.21696526354E+02  0.46777415410E+01 -0.51595293842E+02  0.56166769823E+02  0.10566000000E+00 0. -1.
         22    1    1    0    0    0 -0.85769266955E+01  0.17605375926E+02  0.19778562482E+02  0.27833513376E+02  0.00000000000E+00 0. -1.
</event>
<event>
 5    1  0.9034713E-005  0.9118800E+02  0.7818608E-02  0.1130116E+00
         25   -1    0    0    0    0  0.00000000000E+00  0.00000000000E+00  0.99999998245E-14  0.12500000000E+03  0.12500000000E+03 0.  0.
        -13    1    3    3    0    0 -0.22511453747E+02  0.11157687917E+02 -0.32302494539E+02  0.40923365782E+02  0.10566000000E+00 0. -1.
         23    2    1    0    0    0  0.34925507129E+00  0.27666040109E+02  0.13113538703E+02  0.94381432892E+02  0.89276862753E+02 0.  0.
         13    1    3    3    0    0  0.22860708818E+02  0.16508352192E+02  0.45416033242E+02  0.53458067111E+02  0.10566000000E+00 0.  1.
         22    1    1    0    0    0 -0.34925507129E+00 -0.27666040109E+02 -0.13113538703E+02  0.30618567108E+02  0.00000000000E+00 0.  1.
</event>
<event>
 5    1  0.9034713E-005  0.9118800E+02  0.7818608E-02  0.1130116E+00
         25   -1    0    0    0    0  0.00000000000E+00  0.00000000000E+00  0.99999998245E-14  0.12500000000E+03  0.12500000000E+03 0.  0.
        -13    1    3    3    0    0 -0.84771398756E+01 -0.26122952921E+02  0.21160774425E+02  0.34670738499E+02  0.10566000000E+00 0. -1.
         23    2    1    0    0    0  0.21644769790E+02  0.10343394412E+02 -0.17127468646E+02  0.95524042857E+02  0.90862592492E+02 0.  0.
         13    1    3    3    0    0  0.30121909666E+02  0.36466347333E+02 -0.38288243071E+02  0.60853304358E+02  0.10566000000E+00 0.  1.
         22    1    1    0    0    0 -0.21644769790E+02 -0.10343394412E+02  0.17127468646E+02  0.29475957143E+02  0.00000000000E+00 0.  1.
</event>
<event>
 5    1  0.9034713E-005  0.9118800E+02  0.7818608E-02  0.1130116E+00
         25   -1    0    0    0    0  0.00000000000E+00  0.00000000000E+00  0.99999998245E-14  0.12500000000E+03  0.12500000000E+03 0.  0.
        -13    1    3    3    0    0 -0.14101638684E+02 -0.36619911132E+02 -0.99813597117E+01  0.40490897874E+02  0.10566000000E+00 0.  1.
         23    2    1    0    0    0 -0.18607279296E+02  0.83153474818E+01  0.21371723375E+02  0.95468213624E+02  0.90785755524E+02 0.  0.
         13    1    3    3    0    0 -0.45056406119E+01  0.44935258614E+02  0.31353083086E+02  0.54977315750E+02  0.10566000000E+00 0. -1.
         22    1    1    0    0    0  0.18607279296E+02 -0.83153474818E+01 -0.21371723375E+02  0.29531786376E+02  0.00000000000E+00 0. -1.
</event>
<event>
 5    1  0.9034713E-005  0.9118800E+02  0.7818608E-02  0.1130116E+00
         25   -1    0    0    0    0  0.00000000000E+00  0.00000000000E+00  0.99999998245E-14  0.12500000000E+03  0.12500000000E+03 0.  0.
        -13    1    3    3    0    0 -0.35190142954E+02  0.64636467393E+01 -0.46206528101E+02  0.58439535363E+02  0.10566000000E+00 0.  1.
         23    2    1    0    0    0 -0.51517934592E+01 -0.12958464682E+01 -0.31999939672E+02  0.92562115776E+02  0.86692150417E+02 0.  0.
         13    1    3    3    0    0  0.30038349495E+02 -0.77594932076E+01  0.14206588429E+02  0.34122580413E+02  0.10566000000E+00 0. -1.
         22    1    1    0    0    0  0.51517934592E+01  0.12958464682E+01  0.31999939672E+02  0.32437884224E+02  0.00000000000E+00 0.  1.
</event>
<event>
 5    1  0.9034713E-005  0.9118800E+02  0.7818608E-02  0.1130116E+00
         25   -1    0    0    0    0  0.00000000000E+00  0.00000000000E+00  0.99999998245E-14  0.12500000000E+03  0.12500000000E+03 0.  0.
        -13    1    3    3    0    0 -0.31048807210E+02  0.24889607681E+02 -0.46249734267E+02  0.61012868180E+02  0.10566000000E+00 0.  1.
         23    2    1    0    0    0 -0.13499318177E+02  0.19189698117E+02 -0.15480405740E+02  0.96890943329E+02  0.92723976577E+02 0.  0.
         13    1    3    3    0    0  0.17549489033E+02 -0.56999095637E+01  0.30769328528E+02  0.35878075149E+02  0.10566000000E+00 0. -1.
         22    1    1    0    0    0  0.13499318177E+02 -0.19189698117E+02  0.15480405740E+02  0.28109056671E+02  0.00000000000E+00 0.  1.
</event>
<event>
 5    1  0.9034713E-005  0.9118800E+02  0.7818608E-02  0.1130116E+00
         25   -1    0    0    0    0  0.00000000000E+00  0.00000000000E+00  0.99999998245E-14  0.12500000000E+03  0.12500000000E+03 0.  0.
        -13    1    3    3    0    0  0.29763137178E+02  0.49179776349E+02 -0.83928010270E+01  0.58094276909E+02  0.10566000000E+00 0. -1.
         23    2    1    0    0    0  0.19175924998E+01  0.18605111940E+02 -0.16291032753E+02  0.10019626844E+03  0.97077634443E+02 0.  0.
         13    1    3    3    0    0 -0.27845544679E+02 -0.30574664409E+02 -0.78982317264E+01  0.42101991528E+02  0.10566000000E+00 0.  1.
         22    1    1    0    0    0 -0.19175924998E+01 -0.18605111940E+02  0.16291032753E+02  0.24803731563E+02  0.00000000000E+00 0. -1.
</event>
<event>
 5    1  0.9034713E-005  0.9118800E+02  0.7818608E-02  0.1130116E+00
         25   -1    0    0    0    0  0.00000000000E+00  0.00000000000E+00  0.99999998245E-14  0.12500000000E+03  0.12500000000E+03 0.  0.
        -13    1    3    3    0    0 -0.12508995171E+02 -0.20549712508E+02  0.48670158258E+02  0.54291446041E+02  0.10566000000E+00 0.  1.
         23    2    1    0    0    0 -0.20291253491E+02 -0.19679227794E+02  0.81211628219E+01  0.95589793261E+02  0.90953000585E+02 0.  0.
         13    1    3    3    0    0 -0.77822583204E+01  0.87048471394E+00 -0.40548995436E+02  0.41298347220E+02  0.10566000000E+00 0. -1.
         22    1    1    0    0    0  0.20291253491E+02  0.19679227794E+02 -0.81211628219E+01  0.29410206739E+02  0.00000000000E+00 0.  1.
</event>
<event>
 5    1  0.9034713E-005  0.9118800E+02  0.7818608E-02  0.1130116E+00
         25   -1    0    0    0    0  0.00000000000E+00  0.00000000000E+00  0.99999998245E-14  0.12500000000E+03  0.12500000000E+03 0.  0.
        -13    1    3    3    0    0 -0.15710283962E+02 -0.42578289855E+02 -0.23510943822E+02  0.51112615200E+02  0.10566000000E+00 0. -1.
         23    2    1    0    0    0  0.14212739970E+02 -0.26174472385E+02  0.40034637062E+01  0.94947833627E+02  0.90066411090E+02 0.  0.
         13    1    3    3    0    0  0.29923023932E+02  0.16403817471E+02  0.27514407529E+02  0.43835218427E+02  0.10566000000E+00 0.  1.
         22    1    1    0    0    0 -0.14212739970E+02  0.26174472385E+02 -0.40034637062E+01  0.30052166373E+02  0.00000000000E+00 0. -1.
</event>
<event>
 5    1  0.9034713E-005  0.9118800E+02  0.7818608E-02  0.1130116E+00
         25   -1    0    0    0    0  0.00000000000E+00  0.00000000000E+00  0.99999998245E-14  0.12500000000E+03  0.12500000000E+03 0.  0.
        -13    1    3    3    0    0 -0.22271352865E+01  0.28909036617E+02 -0.20913540688E+02  0.35750243046E+02  0.10566000000E+00 0.  1.
         23    2    1    0    0    0  0.22405658785E+02 -0.17101671869E+02  0.83736166539E+01  0.95595949562E+02  0.90961461018E+02 0.  0.
         13    1    3    3    0    0  0.24632794071E+02 -0.46010708486E+02  0.29287157342E+02  0.59845706516E+02  0.10566000000E+00 0. -1.
         22    1    1    0    0    0 -0.22405658785E+02  0.17101671869E+02 -0.83736166539E+01  0.29404050438E+02  0.00000000000E+00 0. -1.
</event>
<event>
 5    1  0.9034713E-005  0.9118800E+02  0.7818608E-02  0.1130116E+00
         25   -1    0    0    0    0  0.00000000000E+00  0.00000000000E+00  0.99999998245E-14  0.12500000000E+03  0.12500000000E+03 0.  0.
        -13    1    3    3    0    0  0.34654638854E+01 -0.16366829822E+02 -0.58829268586E+02  0.61161888172E+02  0.10566000000E+00 0. -1.
         23    2    1    0    0    0  0.31415235217E+01  0.15045223874E+01 -0.27889592093E+02  0.96893735489E+02  0.92727740576E+02 0.  0.
         13    1    3    3    0    0 -0.32394036370E+00  0.17871352209E+02  0.30939676494E+02  0.35731847317E+02  0.10566000000E+00 0.  1.
         22    1    1    0    0    0 -0.31415235217E+01 -0.15045223874E+01  0.27889592093E+02  0.28106264511E+02  0.00000000000E+00 0. -1.
</event>
<event>
 5    1  0.9034713E-005  0.9118800E+02  0.7818608E-02  0.1130116E+00
         25   -1    0    0    0    0  0.00000000000E+00  0.00000000000E+00  0.99999998245E-14  0.12500000000E+03  0.12500000000E+03 0.  0.
        -13    1    3    3    0    0 -0.27268278338E+02  0.49406180305E+02  0.50032926021E+01  0.56653100151E+02  0.10566000000E+00 0. -1.
         23    2    1    0    0    0 -0.27787322970E+01  0.24334983003E+02 -0.14272889373E+02  0.96651664564E+02  0.92400844914E+02 0.  0.
         13    1    3    3    0    0  0.24489546041E+02 -0.25071197302E+02 -0.19276181975E+02  0.39998564412E+02  0.10566000000E+00 0.  1.
         22    1    1    0    0    0  0.27787322970E+01 -0.24334983003E+02  0.14272889373E+02  0.28348335436E+02  0.00000000000E+00 0. -1.
</event>
<event>
 5    1  0.9034713E-005  0.9118800E+02  0.7818608E-02  0.1130116E+00
         25   -1    0    0    0    0  0.00000000000E+00  0.00000000000E+00  0.99999998245E-14  0.12500000000E+03  0.12500000000E+03 0.  0.
        -13    1    3    3    0    0 -0.85930549073E+01  0.55810224948E+02 -0.10354578683E+01  0.56477474611E+02  0.10566000000E+00 0.  1.
         23    2    1    0    0    0  0.40119041985E+01  0.21992631232E+02  0.17086711000E+02  0.96862358012E+02  0.92685433068E+02 0.  0.
         13    1    3    3    0    0  0.12604959106E+02 -0.33817593716E+02  0.18122168869E+02  0.40384883401E+02  0.10566000000E+00 0. -1.
         22    1    1    0    0    0 -0.40119041985E+01 -0.21992631232E+02 -0.17086711000E+02  0.28137641988E+02  0.00000000000E+00 0.  1.
</event>
<event>
 5    1  0.9034713E-005  0.9118800E+02  0.7818608E-02  0.1130116E+00
         25   -1    0    0    0    0  0.00000000000E+00  0.00000000000E+00  0.99999998245E-14  0.12500000000E+03  0.12500000000E+03 0.  0.
        -13    1    3    3    0    0  0.28377441972E+01  0.51464123089E+02 -0.82303621595E+01  0.52195390436E+02  0.10566000000E+00 0.  1.
         23    2    1    0    0    0  0.18141231152E+02  0.41889164432E+01  0.83714502980E+01  0.10458597372E+03  0.10257433125E+03 0.  0.
         13    1    3    3    0    0  0.15303486955E+02 -0.47275206646E+02  0.16601812458E+02  0.52390583289E+02  0.10566000000E+00 0. -1.
         22    1    1    0    0    0 -0.18141231152E+02 -0.41889164432E+01 -0.83714502980E+01  0.20414026275E+02  0.00000000000E+00 0. -1.
</event>
<event>
 5    1  0.9034713E-005  0.9118800E+02  0.7818608E-02  0.1130116E+00
         25   -1    0    0    0    0  0.00000000000E+00  0.00000000000E+00  0.99999998245E-14  0.12500000000E+03  0.12500000000E+03 0.  0.
        -13    1    3    3    0    0  0.48867144115E+02 -0.16799168122E+02 -0.33438491555E+02  0.61549603614E+02  0.10566000000E+00 0.  1.
         23    2    1    0    0    0  0.20865336117E+02  0.74565327633E+00 -0.12746408796E+02  0.10053800525E+03  0.97516671968E+02 0.  0.
         13    1    3    3    0    0 -0.28001807998E+02  0.17544821398E+02  0.20692082758E+02  0.38988401633E+02  0.10566000000E+00 0. -1.
         22    1    1    0    0    0 -0.20865336117E+02 -0.74565327633E+00  0.12746408796E+02  0.24461994753E+02  0.00000000000E+00 0.  1.
</event>
<event>
 5    1  0.9034713E-005  0.9118800E+02  0.7818608E-02  0.1130116E+00
         25   -1    0    0    0    0  0.00000000000E+00  0.00000000000E+00  0.99999998245E-14  0.12500000000E+03  0.12500000000E+03 0.  0.
        -13    1    3    3    0    0 -0.23281533373E+02  0.25253751031E+02 -0.51416444616E+02  0.61834000989E+02  0.10566000000E+00 0. -1.
         23    2    1    0    0    0 -0.16658292326E+02  0.89088795473E+01 -0.23595125133E+02  0.94774236684E+02  0.89825158897E+02 0.  0.
         13    1    3    3    0    0  0.66232410471E+01 -0.16344871484E+02  0.27821319483E+02  0.32940235694E+02  0.10566000000E+00 0.  1.
         22    1    1    0    0    0  0.16658292326E+02 -0.89088795473E+01  0.23595125133E+02  0.30225763316E+02  0.00000000000E+00 0. -1.
</event>
<event>
 5    1  0.9034713E-005  0.9118800E+02  0.7818608E-02  0.1130116E+00
         25   -1    0    0    0    0  0.00000000000E+00  0.00000000000E+00  0.99999998245E-14  0.12500000000E+03  0.12500000000E+03 0.  0.
        -13    1    3    3    0    0  0.15194697124E+02 -0.40032928254E+02 -0.24122032193E+02  0.49146696394E+02  0.10566000000E+00 0.  1.
         23    2    1    0    0    0  0.28738863601E+02 -0.47629332319E+01  0.30871686808E+01  0.95706000196E+02  0.91112568009E+02 0.  0.
         13    1    3    3    0    0  0.13544166476E+02  0.35269995022E+02  0.27209200874E+02  0.46559303803E+02  0.10566000000E+00 0. -1.
         22    1    1    0    0    0 -0.28738863601E+02  0.47629332319E+01 -0.30871686808E+01  0.29293999804E+02  0.00000000000E+00 0.  1.
</event>
<event>
 5    1  0.9034713E-005  0.9118800E+02  0.7818608E-02  0.1130116E+00
         25   -1    0    0    0    0  0.00000000000E+00  0.00000000000E+00  0.99999998245E-14  0.12500000000E+03  0.12500000000E+03 0.  0.
        -13    1    3    3    0    0 -0.40686460329E+02 -0.27431482184E+02 -0.45202745439E+01  0.49277969874E+02  0.10566000000E+00 0.  1.
         23    2    1    0    0    0 -0.21102636737E+02 -0.37785386678E+02 -0.21006973350E+02  0.76892311914E+02  0.59983981016E+02 0.  0.
         13    1    3    3    0    0  0.19583823592E+02 -0.10353904494E+02 -0.16486698806E+02  0.27614342040E+02  0.10566000000E+00 0. -1.
         22    1    1    0    0    0  0.21102636737E+02  0.37785386678E+02  0.21006973350E+02  0.48107688086E+02  0.00000000000E+00 0.  1.
</event>
<event>
 5    1  0.9034713E-005  0.9118800E+02  0.7818608E-02  0.1130116E+00
         25   -1    0    0    0    0  0.00000000000E+00  0.00000000000E+00  0.99999998245E-14  0.12500000000E+03  0.12500000000E+03 0.  0.
        -13    1    3    3    0    0 -0.27937137806E+02 -0.17629054604E+02 -0.11512614986E+02  0.34983120256E+02  0.10566000000E+00 0.  1.
         23    2    1    0    0    0  0.18326768846E+02  0.21587477017E+02 -0.71778738914E+01  0.95786792476E+02  0.91223341963E+02 0.  0.
         13    1    3    3    0    0  0.46263906651E+02  0.39216531621E+02  0.43347410946E+01  0.60803672220E+02  0.10566000000E+00 0. -1.
         22    1    1    0    0    0 -0.18326768846E+02 -0.21587477017E+02  0.71778738914E+01  0.29213207524E+02  0.00000000000E+00 0. -1.
</event>
<event>
 5    1  0.9034713E-005  0.9118800E+02  0.7818608E-02  0.1130116E+00
         25   -1    0    0    0    0  0.00000000000E+00  0.00000000000E+00  0.99999998245E-14  0.12500000000E+03  0.12500000000E+03 0.  0.
        -13    1    3    3    0    0  0.13616935007E+02 -0.49918593558E+02 -0.34316078171E+02  0.62087770832E+02  0.10566000000E+00 0.  1.
         23    2    1    0    0    0  0.86098306995E+01 -0.19339611296E+02 -0.18542802444E+02  0.96857767106E+02  0.92679241346E+02 0.  0.
         13    1    3    3    0    0 -0.50071043078E+01  0.30578982262E+02  0.15773275727E+02  0.34769996274E+02  0.10566000000E+00 0. -1.
         22    1    1    0    0    0 -0.86098306995E+01  0.19339611296E+02  0.18542802444E+02  0.28142232894E+02  0.00000000000E+00 0.  1.
</event>
<event>
 5    1  0.9034713E-005  0.9118800E+02  0.7818608E-02  0.1130116E+00
         25   -1    0    0    0    0  0.00000000000E+00  0.00000000000E+00  0.99999998245E-14  0.12500000000E+03  0.12500000000E+03 0.  0.
        -13    1    3    3    0    0 -0.19724080475E+02 -0.21548323387E+02  0.19281046238E+02  0.35001992793E+02  0.10566000000E+00 0.  1.
         23    2    1    0    0    0 -0.69452533519E+01  0.21847541635E+02 -0.19742320967E+02  0.94745895208E+02  0.89785710455E+02 0.  0.
         13    1    3    3    0    0  0.12778827123E+02  0.43395865022E+02 -0.39023367205E+02  0.59743902415E+02  0.10566000000E+00 0. -1.
         22    1    1    0    0    0  0.69452533519E+01 -0.21847541635E+02  0.19742320967E+02  0.30254104792E+02  0.00000000000E+00 0. -1.
</event>
<event>
 5    1  0.9034713E-005  0.9118800E+02  0.7818608E-02  0.1130116E+00
         25   -1    0    0    0    0  0.00000000000E+00  0.00000000000E+00  0.99999998245E-14  0.12500000000E+03  0.12500000000E+03 0.  0.
        -13    1    3    3    0    0 -0.38578165127E+02 -0.47856056563E+02 -0.59262331763E+01  0.61754419907E+02  0.10566000000E+00 0.  1.
         23    2    1    0    0    0 -0.12129501070E+02 -0.25755876898E+02 -0.36750728924E+01  0.96294666841E+02  0.91916629128E+02 0.  0.
         13    1    3    3    0    0  0.26448664057E+02  0.22100179665E+02  0.22511602839E+01  0.34540246934E+02  0.10566000000E+00 0. -1.
         22    1    1    0    0    0  0.12129501070E+02  0.25755876898E+02  0.36750728924E+01  0.28705333159E+02  0.00000000000E+00 0.  1.
</event>
<event>
 5    1  0.9034713E-005  0.9118800E+02  0.7818608E-02  0.1130116E+00
         25   -1    0    0    0    0  0.00000000000E+00  0.00000000000E+00  0.99999998245E-14  0.12500000000E+03  0.12500000000E+03 0.  0.
        -13    1    3    3    0    0  0.33188575245E+02 -0.39115003332E+02 -0.34567977192E+02  0.61858073229E+02  0.10566000000E+00 0. -1.
         23    2    1    0    0    0  0.10767588274E+02 -0.17393118038E+02 -0.20295763104E+02  0.96183693638E+02  0.91765589464E+02 0.  0.
         13    1    3    3    0    0 -0.22420986971E+02  0.21721885294E+02  0.14272214087E+02  0.34325620409E+02  0.10566000000E+00 0.  1.
         22    1    1    0    0    0 -0.10767588274E+02  0.17393118038E+02  0.20295763104E+02  0.28816306362E+02  0.00000000000E+00 0. -1.
</event>
<event>
 5    1  0.9034713E-005  0.9118800E+02  0.7818608E-02  0.1130116E+00
         25   -1    0    0    0    0  0.00000000000E+00  0.00000000000E+00  0.99999998245E-14  0.12500000000E+03  0.12500000000E+03 0.  0.
        -13    1    3    3    0    0 -0.61489156144E+01  0.30225452921E+02 -0.25434978572E+02  0.39979200424E+02  0.10566000000E+00 0. -1.
         23    2    1    0    0    0 -0.18852943878E+02 -0.19301816334E+02 -0.20033408133E+02  0.91394478905E+02  0.84991880354E+02 0.  0.
         13    1    3    3    0    0 -0.12704028264E+02 -0.49527269255E+02  0.54015704393E+01  0.51415278481E+02  0.10566000000E+00 0.  1.
         22    1    1    0    0    0  0.18852943878E+02  0.19301816334E+02  0.20033408133E+02  0.33605521095E+02  0.00000000000E+00 0.  1.
</event>
<event>
 5    1  0.9034713E-005  0.9118800E+02  0.7818608E-02  0.1130116E+00
         25   -1    0    0    0    0  0.00000000000E+00  0.00000000000E+00  0.99999998245E-14  0.12500000000E+03  0.12500000000E+03 0.  0.
        -13    1    3    3    0    0  0.43222010202E+02 -0.27998833906E+02 -0.32558924807E+02  0.60927593212E+02  0.10566000000E+00 0. -1.
         23    2    1    0    0    0  0.21524736559E+02 -0.40891457822E+01 -0.19195487144E+02  0.95870940217E+02  0.91338573747E+02 0.  0.
         13    1    3    3    0    0 -0.21697273642E+02  0.23909688124E+02  0.13363437663E+02  0.34943347005E+02  0.10566000000E+00 0.  1.
         22    1    1    0    0    0 -0.21524736559E+02  0.40891457822E+01  0.19195487144E+02  0.29129059783E+02  0.00000000000E+00 0. -1.
</event>
<event>
 5    1  0.9034713E-005  0.9118800E+02  0.7818608E-02  0.1130116E+00
         25   -1    0    0    0    0  0.00000000000E+00  0.00000000000E+00  0.99999998245E-14  0.12500000000E+03  0.12500000000E+03 0.  0.
        -13    1    3    3    0    0 -0.74526139097E+01  0.21998221838E+01  0.27429896926E+02  0.28509491071E+02  0.10566000000E+00 0.  1.
         23    2    1    0    0    0  0.10397726868E+02 -0.72642036803E+01 -0.31625660172E+02  0.90925614306E+02  0.84299487403E+02 0.  0.
         13    1    3    3    0    0  0.17850340778E+02 -0.94640258641E+01 -0.59055557098E+02  0.62416123235E+02  0.10566000000E+00 0. -1.
         22    1    1    0    0    0 -0.10397726868E+02  0.72642036803E+01  0.31625660172E+02  0.34074385694E+02  0.00000000000E+00 0. -1.
</event>
<event>
 5    1  0.9034713E-005  0.9118800E+02  0.7818608E-02  0.1130116E+00
         25   -1    0    0    0    0  0.00000000000E+00  0.00000000000E+00  0.99999998245E-14  0.12500000000E+03  0.12500000000E+03 0.  0.
        -13    1    3    3    0    0  0.40925392525E+01 -0.42305741980E+02 -0.29158757495E+02  0.51543854966E+02  0.10566000000E+00 0.  1.
         23    2    1    0    0    0  0.35173405308E+01 -0.26153949761E+02  0.12184092272E+02  0.95933646995E+02  0.91424349868E+02 0.  0.
         13    1    3    3    0    0 -0.57519872167E+00  0.16151792219E+02  0.41342849768E+02  0.44389792029E+02  0.10566000000E+00 0. -1.
         22    1    1    0    0    0 -0.35173405308E+01  0.26153949761E+02 -0.12184092272E+02  0.29066353005E+02  0.00000000000E+00 0.  1.
</event>
<event>
 5    1  0.9034713E-005  0.9118800E+02  0.7818608E-02  0.1130116E+00
         25   -1    0    0    0    0  0.00000000000E+00  0.00000000000E+00  0.99999998245E-14  0.12500000000E+03  0.12500000000E+03 0.  0.
        -13    1    3    3    0    0 -0.63548872653E+01 -0.30477835094E+02  0.39386797424E+02  0.50205716801E+02  0.10566000000E+00 0.  1.
         23    2    1    0    0    0  0.30464396700E+01 -0.28687546265E+02 -0.50942852560E+01  0.95704815283E+02  0.91110942376E+02 0.  0.
         13    1    3    3    0    0  0.94013269353E+01  0.17902888299E+01 -0.44481082680E+02  0.45499098482E+02  0.10566000000E+00 0. -1.
         22    1    1    0    0    0 -0.30464396700E+01  0.28687546265E+02  0.50942852560E+01  0.29295184717E+02  0.00000000000E+00 0. -1.
</event>
<event>
 5    1  0.9034713E-005  0.9118800E+02  0.7818608E-02  0.1130116E+00
         25   -1    0    0    0    0  0.00000000000E+00  0.00000000000E+00  0.99999998245E-14  0.12500000000E+03  0.12500000000E+03 0.  0.
        -13    1    3    3    0    0 -0.52255706612E+02  0.24861849568E+02  0.10255233047E+01  0.57877744423E+02  0.10566000000E+00 0. -1.
         23    2    1    0    0    0 -0.16603277454E+02  0.21484654155E+02  0.11971646105E+02  0.95325440242E+02  0.90588962134E+02 0.  0.
         13    1    3    3    0    0  0.35652429158E+02 -0.33771954135E+01  0.10946122800E+02  0.37447695819E+02  0.10566000000E+00 0.  1.
         22    1    1    0    0    0  0.16603277454E+02 -0.21484654155E+02 -0.11971646105E+02  0.29674559758E+02  0.00000000000E+00 0. -1.
</event>
<event>
 5    1  0.9034713E-005  0.9118800E+02  0.7818608E-02  0.1130116E+00
         25   -1    0    0    0    0  0.00000000000E+00  0.00000000000E+00  0.99999998245E-14  0.12500000000E+03  0.12500000000E+03 0.  0.
        -13    1    3    3    0    0 -0.32920785987E+02 -0.33486192001E+02  0.13461117550E+02  0.48849934027E+02  0.10566000000E+00 0.  1.
         23    2    1    0    0    0 -0.26912388873E+02  0.55207528910E+01 -0.11137706329E+02  0.95355373343E+02  0.90630256183E+02 0.  0.
         13    1    3    3    0    0  0.60083971141E+01  0.39006944892E+02 -0.24598823880E+02  0.46505439316E+02  0.10566000000E+00 0. -1.
         22    1    1    0    0    0  0.26912388873E+02 -0.55207528910E+01  0.11137706329E+02  0.29644626657E+02  0.00000000000E+00 0. -1.
</event>
<event>
 5    1  0.9034713E-005  0.9118800E+02  0.7818608E-02  0.1130116E+00
         25   -1    0    0    0    0  0.00000000000E+00  0.00000000000E+00  0.99999998245E-14  0.12500000000E+03  0.12500000000E+03 0.  0.
        -13    1    3    3    0    0  0.52693228172E+02 -0.10419464332E+02  0.12396318524E+02  0.55125505976E+02  0.10566000000E+00 0.  1.
         23    2    1    0    0    0  0.26664158391E+02  0.97442355181E+01 -0.99497452376E+01  0.94918030337E+02  0.90025038651E+02 0.  0.
         13    1    3    3    0    0 -0.26029069781E+02  0.20163699851E+02 -0.22346063762E+02  0.39792524361E+02  0.10566000000E+00 0. -1.
         22    1    1    0    0    0 -0.26664158391E+02 -0.97442355181E+01  0.99497452376E+01  0.30081969663E+02  0.00000000000E+00 0.  1.
</event>
<event>
 5    1  0.9034713E-005  0.9118800E+02  0.7818608E-02  0.1130116E+00
         25   -1    0    0    0    0  0.00000000000E+00  0.00000000000E+00  0.99999998245E-14  0.12500000000E+03  0.12500000000E+03 0.  0.
        -13    1    3    3    0    0 -0.45066694459E+02  0.10656291055E+02  0.29969947056E+02  0.55161330469E+02  0.10566000000E+00 0.  1.
         23    2    1    0    0    0 -0.28484307658E+02  0.16843802088E+01 -0.60629583921E+01  0.95828911849E+02  0.91281038350E+02 0.  0.
         13    1    3    3    0    0  0.16582386801E+02 -0.89719108465E+01 -0.36032905448E+02  0.40667581380E+02  0.10566000000E+00 0. -1.
         22    1    1    0    0    0  0.28484307658E+02 -0.16843802088E+01  0.60629583921E+01  0.29171088151E+02  0.00000000000E+00 0.  1.
</event>
<event>
 5    1  0.9034713E-005  0.9118800E+02  0.7818608E-02  0.1130116E+00
         25   -1    0    0    0    0  0.00000000000E+00  0.00000000000E+00  0.99999998245E-14  0.12500000000E+03  0.12500000000E+03 0.  0.
        -13    1    3    3    0    0 -0.23810175058E+02 -0.55106804691E+02  0.17282921103E+02  0.62469151471E+02  0.10566000000E+00 0. -1.
         23    2    1    0    0    0 -0.10249837813E+02 -0.26615581123E+02  0.73969438678E+01  0.95535392209E+02  0.90878204495E+02 0.  0.
         13    1    3    3    0    0  0.13560337245E+02  0.28491223569E+02 -0.98859772355E+01  0.33066240739E+02  0.10566000000E+00 0.  1.
         22    1    1    0    0    0  0.10249837813E+02  0.26615581123E+02 -0.73969438678E+01  0.29464607791E+02  0.00000000000E+00 0. -1.
</event>
<event>
 5    1  0.9034713E-005  0.9118800E+02  0.7818608E-02  0.1130116E+00
         25   -1    0    0    0    0  0.00000000000E+00  0.00000000000E+00  0.99999998245E-14  0.12500000000E+03  0.12500000000E+03 0.  0.
        -13    1    3    3    0    0 -0.10585332581E+02 -0.44007160699E+02  0.11787467949E+02  0.46772160772E+02  0.10566000000E+00 0.  1.
         23    2    1    0    0    0  0.87768580853E+01 -0.34829510643E+01  0.28717817902E+02  0.94769597240E+02  0.89818702452E+02 0.  0.
         13    1    3    3    0    0  0.19362190667E+02  0.40524209635E+02  0.16930349953E+02  0.47997436468E+02  0.10566000000E+00 0. -1.
         22    1    1    0    0    0 -0.87768580853E+01  0.34829510643E+01 -0.28717817902E+02  0.30230402760E+02  0.00000000000E+00 0.  1.
</event>
<event>
 5    1  0.9034713E-005  0.9118800E+02  0.7818608E-02  0.1130116E+00
         25   -1    0    0    0    0  0.00000000000E+00  0.00000000000E+00  0.99999998245E-14  0.12500000000E+03  0.12500000000E+03 0.  0.
        -13    1    3    3    0    0  0.31643235374E+02 -0.83649000253E+01 -0.11746162866E+02  0.34774263521E+02  0.10566000000E+00 0.  1.
         23    2    1    0    0    0 -0.27012158858E+02 -0.11575227099E+02  0.33378516779E+01  0.95423254702E+02  0.90723831905E+02 0.  0.
         13    1    3    3    0    0 -0.58655394232E+02 -0.32103270741E+01  0.15084014544E+02  0.60648991181E+02  0.10566000000E+00 0. -1.
         22    1    1    0    0    0  0.27012158858E+02  0.11575227099E+02 -0.33378516779E+01  0.29576745298E+02  0.00000000000E+00 0. -1.
</event>
<event>
 5    1  0.9034713E-005  0.9118800E+02  0.7818608E-02  0.1130116E+00
         25   -1    0    0    0    0  0.00000000000E+00  0.00000000000E+00  0.99999998245E-14  0.12500000000E+03  0.12500000000E+03 0.  0.
        -13    1    3    3    0    0  0.11649640155E+02  0.24208739351E+02 -0.21305383232E+02  0.34288594246E+02  0.10566000000E+00 0. -1.
         23    2    1    0    0    0 -0.91940498421E+01 -0.29312785152E+02 -0.82475830334E+01  0.93191313266E+02  0.87594682010E+02 0.  0.
         13    1    3    3    0    0 -0.20843689997E+02 -0.53521524503E+02  0.13057800198E+02  0.58902719019E+02  0.10566000000E+00 0.  1.
         22    1    1    0    0    0  0.91940498421E+01  0.29312785152E+02  0.82475830334E+01  0.31808686734E+02  0.00000000000E+00 0.  1.
</event>
<event>
 5    1  0.9034713E-005  0.9118800E+02  0.7818608E-02  0.1130116E+00
         25   -1    0    0    0    0  0.00000000000E+00  0.00000000000E+00  0.99999998245E-14  0.12500000000E+03  0.12500000000E+03 0.  0.
        -13    1    3    3    0    0 -0.37889964392E+02  0.12332066151E+01 -0.42212076543E+02  0.56736591106E+02  0.10566000000E+00 0.  1.
         23    2    1    0    0    0 -0.48445557393E+01 -0.14297859536E+02 -0.21542972195E+02  0.98694142123E+02  0.95123790561E+02 0.  0.
         13    1    3    3    0    0  0.33045408652E+02 -0.15531066151E+02  0.20669104348E+02  0.41957551017E+02  0.10566000000E+00 0. -1.
         22    1    1    0    0    0  0.48445557393E+01  0.14297859536E+02  0.21542972195E+02  0.26305857877E+02  0.00000000000E+00 0.  1.
</event>
<event>
 5    1  0.9034713E-005  0.9118800E+02  0.7818608E-02  0.1130116E+00
         25   -1    0    0    0    0  0.00000000000E+00  0.00000000000E+00  0.99999998245E-14  0.12500000000E+03  0.12500000000E+03 0.  0.
        -13    1    3    3    0    0 -0.22349346957E+02 -0.41726364314E+02 -0.34560469699E+02  0.58609043825E+02  0.10566000000E+00 0. -1.
         23    2    1    0    0    0 -0.20789703361E+02 -0.79327011983E+01 -0.18522386030E+02  0.96048000098E+02  0.91580565757E+02 0.  0.
         13    1    3    3    0    0  0.15596435961E+01  0.33793663116E+02  0.16038083670E+02  0.37438956272E+02  0.10566000000E+00 0.  1.
         22    1    1    0    0    0  0.20789703361E+02  0.79327011983E+01  0.18522386030E+02  0.28951999902E+02  0.00000000000E+00 0. -1.
</event>
<event>
 5    1  0.9034713E-005  0.9118800E+02  0.7818608E-02  0.1130116E+00
         25   -1    0    0    0    0  0.00000000000E+00  0.00000000000E+00  0.99999998245E-14  0.12500000000E+03  0.12500000000E+03 0.  0.
        -13    1    3    3    0    0 -0.28031853882E+02  0.18170266065E+02 -0.40194986011E+02  0.52264629199E+02  0.10566000000E+00 0.  1.
         23    2    1    0    0    0 -0.27241542938E+02 -0.87397851249E+01 -0.60298100849E+01  0.95762282659E+02  0.91189750876E+02 0.  0.
         13    1    3    3    0    0  0.79031094403E+00 -0.26910051190E+02  0.34165175926E+02  0.43497653460E+02  0.10566000000E+00 0. -1.
         22    1    1    0    0    0  0.27241542938E+02  0.87397851249E+01  0.60298100849E+01  0.29237717341E+02  0.00000000000E+00 0.  1.
</event>
<event>
 5    1  0.9034713E-005  0.9118800E+02  0.7818608E-02  0.1130116E+00
         25   -1    0    0    0    0  0.00000000000E+00  0.00000000000E+00  0.99999998245E-14  0.12500000000E+03  0.12500000000E+03 0.  0.
        -13    1    3    3    0    0  0.47832666363E+01 -0.21904938318E+02  0.23091809469E+02  0.32186158376E+02  0.10566000000E+00 0.  1.
         23    2    1    0    0    0 -0.71308188180E+01  0.15434935214E+02 -0.25336050854E+02  0.94487686503E+02  0.89425508809E+02 0.  0.
         13    1    3    3    0    0 -0.11914085454E+02  0.37339873531E+02 -0.48427860323E+02  0.62301528127E+02  0.10566000000E+00 0. -1.
         22    1    1    0    0    0  0.71308188180E+01 -0.15434935214E+02  0.25336050854E+02  0.30512313497E+02  0.00000000000E+00 0. -1.
</event>
<event>
 5    1  0.9034713E-005  0.9118800E+02  0.7818608E-02  0.1130116E+00
         25   -1    0    0    0    0  0.00000000000E+00  0.00000000000E+00  0.99999998245E-14  0.12500000000E+03  0.12500000000E+03 0.  0.
        -13    1    3    3    0    0 -0.41878339945E+01 -0.32545886867E+02 -0.32033853154E+02  0.45857950428E+02  0.10566000000E+00 0. -1.
         23    2    1    0    0    0 -0.27636576530E+02  0.50165950538E+01 -0.12500827810E+02  0.94255613778E+02  0.89100524378E+02 0.  0.
         13    1    3    3    0    0 -0.23448742536E+02  0.37562481921E+02  0.19533025344E+02  0.48397663349E+02  0.10566000000E+00 0.  1.
         22    1    1    0    0    0  0.27636576530E+02 -0.50165950538E+01  0.12500827810E+02  0.30744386222E+02  0.00000000000E+00 0.  1.
</event>
<event>
 5    1  0.9034713E-005  0.9118800E+02  0.7818608E-02  0.1130116E+00
         25   -1    0    0    0    0  0.00000000000E+00  0.00000000000E+00  0.99999998245E-14  0.12500000000E+03  0.12500000000E+03 0.  0.
        -13    1    3    3    0    0  0.26426796866E+02  0.11998841236E+02 -0.18458667131E+02  0.34395949469E+02  0.10566000000E+00 0. -1.
         23    2    1    0    0    0 -0.21938289090E+02 -0.11176619520E+02 -0.26727138608E+02  0.88660692215E+02  0.80871336417E+02 0.  0.
         13    1    3    3    0    0 -0.48365085955E+02 -0.23175460756E+02 -0.82684714774E+01  0.54264742746E+02  0.10566000000E+00 0.  1.
         22    1    1    0    0    0  0.21938289090E+02  0.11176619520E+02  0.26727138608E+02  0.36339307785E+02  0.00000000000E+00 0.  1.
</event>
<event>
 5    1  0.9034713E-005  0.9118800E+02  0.7818608E-02  0.1130116E+00
         25   -1    0    0    0    0  0.00000000000E+00  0.00000000000E+00  0.99999998245E-14  0.12500000000E+03  0.12500000000E+03 0.  0.
        -13    1    3    3    0    0  0.30511534766E+02  0.82300886198E+01 -0.12643935723E+02  0.34037749442E+02  0.10566000000E+00 0. -1.
         23    2    1    0    0    0 -0.27402628094E+02  0.70033381972E+01  0.81201558537E+01  0.95574030118E+02  0.90931334146E+02 0.  0.
         13    1    3    3    0    0 -0.57914162861E+02 -0.12267504225E+01  0.20764091577E+02  0.61536280676E+02  0.10566000000E+00 0.  1.
         22    1    1    0    0    0  0.27402628094E+02 -0.70033381972E+01 -0.81201558537E+01  0.29425969882E+02  0.00000000000E+00 0.  1.
</event>
<event>
 5    1  0.9034713E-005  0.9118800E+02  0.7818608E-02  0.1130116E+00
         25   -1    0    0    0    0  0.00000000000E+00  0.00000000000E+00  0.99999998245E-14  0.12500000000E+03  0.12500000000E+03 0.  0.
        -13    1    3    3    0    0 -0.63799058880E+01 -0.29394940566E+02 -0.18835123735E+02  0.35489981406E+02  0.10566000000E+00 0. -1.
         23    2    1    0    0    0 -0.13201100422E+02  0.13358330894E+02  0.22735451518E+02  0.95510767858E+02  0.90844328191E+02 0.  0.
         13    1    3    3    0    0 -0.68211945342E+01  0.42753271460E+02  0.41570575253E+02  0.60020786452E+02  0.10566000000E+00 0.  1.
         22    1    1    0    0    0  0.13201100422E+02 -0.13358330894E+02 -0.22735451518E+02  0.29489232142E+02  0.00000000000E+00 0.  1.
</event>
<event>
 5    1  0.9034713E-005  0.9118800E+02  0.7818608E-02  0.1130116E+00
         25   -1    0    0    0    0  0.00000000000E+00  0.00000000000E+00  0.99999998245E-14  0.12500000000E+03  0.12500000000E+03 0.  0.
        -13    1    3    3    0    0 -0.59744664729E+02  0.88614222353E+01 -0.55844053914E+00  0.60400933664E+02  0.10566000000E+00 0. -1.
         23    2    1    0    0    0 -0.29963524749E+02 -0.56157267720E+01 -0.59183657171E+01  0.93945592014E+02  0.88664525057E+02 0.  0.
         13    1    3    3    0    0  0.29781139980E+02 -0.14477149007E+02 -0.53599251780E+01  0.33544658350E+02  0.10566000000E+00 0.  1.
         22    1    1    0    0    0  0.29963524749E+02  0.56157267720E+01  0.59183657171E+01  0.31054407986E+02  0.00000000000E+00 0. -1.
</event>
<event>
 5    1  0.9034713E-005  0.9118800E+02  0.7818608E-02  0.1130116E+00
         25   -1    0    0    0    0  0.00000000000E+00  0.00000000000E+00  0.99999998245E-14  0.12500000000E+03  0.12500000000E+03 0.  0.
        -13    1    3    3    0    0  0.29213770583E+02  0.23114764103E+02  0.44288674851E+02  0.57872572047E+02  0.10566000000E+00 0.  1.
         23    2    1    0    0    0 -0.16975639777E+01  0.45188650406E+01  0.26444345999E+02  0.98118681207E+02  0.94364560624E+02 0.  0.
         13    1    3    3    0    0 -0.30911334561E+02 -0.18595899062E+02 -0.17844328852E+02  0.40246109160E+02  0.10566000000E+00 0. -1.
         22    1    1    0    0    0  0.16975639777E+01 -0.45188650406E+01 -0.26444345999E+02  0.26881318793E+02  0.00000000000E+00 0. -1.
</event>
<event>
 5    1  0.9034713E-005  0.9118800E+02  0.7818608E-02  0.1130116E+00
         25   -1    0    0    0    0  0.00000000000E+00  0.00000000000E+00  0.99999998245E-14  0.12500000000E+03  0.12500000000E+03 0.  0.
        -13    1    3    3    0    0  0.31277044710E+02  0.26539717592E+02  0.81536067766E+01  0.41822274008E+02  0.10566000000E+00 0.  1.
         23    2    1    0    0    0  0.12944090343E+01 -0.85756815752E+01 -0.24916360797E+02  0.98617376086E+02  0.95022860520E+02 0.  0.
         13    1    3    3    0    0 -0.29982635676E+02 -0.35115399167E+02 -0.33069967574E+02  0.56795102078E+02  0.10566000000E+00 0. -1.
         22    1    1    0    0    0 -0.12944090343E+01  0.85756815752E+01  0.24916360797E+02  0.26382623914E+02  0.00000000000E+00 0. -1.
</event>
<event>
 5    1  0.9034713E-005  0.9118800E+02  0.7818608E-02  0.1130116E+00
         25   -1    0    0    0    0  0.00000000000E+00  0.00000000000E+00  0.99999998245E-14  0.12500000000E+03  0.12500000000E+03 0.  0.
        -13    1    3    3    0    0  0.25719963467E+02  0.28685916016E+02  0.28067385906E+01  0.38630133885E+02  0.10566000000E+00 0.  1.
         23    2    1    0    0    0 -0.27676780548E+02  0.73456828384E+01  0.36049751601E+01  0.96138969461E+02  0.91704647457E+02 0.  0.
         13    1    3    3    0    0 -0.53396744016E+02 -0.21340233178E+02  0.79823656955E+00  0.57508835575E+02  0.10566000000E+00 0. -1.
         22    1    1    0    0    0  0.27676780548E+02 -0.73456828384E+01 -0.36049751601E+01  0.28861030539E+02  0.00000000000E+00 0. -1.
</event>
<event>
 5    1  0.9034713E-005  0.9118800E+02  0.7818608E-02  0.1130116E+00
         25   -1    0    0    0    0  0.00000000000E+00  0.00000000000E+00  0.99999998245E-14  0.12500000000E+03  0.12500000000E+03 0.  0.
        -13    1    3    3    0    0 -0.53584254554E+02  0.47365110133E+01  0.10624211518E+02  0.54832398335E+02  0.10566000000E+00 0.  1.
         23    2    1    0    0    0 -0.19961770951E+02 -0.13096892979E+02  0.19801149350E+02  0.93982482034E+02  0.88716517675E+02 0.  0.
         13    1    3    3    0    0  0.33622483603E+02 -0.17833403992E+02  0.91769378321E+01  0.39150083699E+02  0.10566000000E+00 0. -1.
         22    1    1    0    0    0  0.19961770951E+02  0.13096892979E+02 -0.19801149350E+02  0.31017517966E+02  0.00000000000E+00 0.  1.
</event>
<event>
 5    1  0.9034713E-005  0.9118800E+02  0.7818608E-02  0.1130116E+00
         25   -1    0    0    0    0  0.00000000000E+00  0.00000000000E+00  0.99999998245E-14  0.12500000000E+03  0.12500000000E+03 0.  0.
        -13    1    3    3    0    0 -0.26806842152E+02  0.26225966381E+02  0.34332535134E+00  0.37503828273E+02  0.10566000000E+00 0. -1.
         23    2    1    0    0    0  0.23435549681E+02  0.29267836807E+01  0.17637656410E+02  0.95523263830E+02  0.90861520775E+02 0.  0.
         13    1    3    3    0    0  0.50242391833E+02 -0.23299182700E+02  0.17294331059E+02  0.58019435558E+02  0.10566000000E+00 0.  1.
         22    1    1    0    0    0 -0.23435549681E+02 -0.29267836807E+01 -0.17637656410E+02  0.29476736170E+02  0.00000000000E+00 0.  1.
</event>
<event>
 5    1  0.9034713E-005  0.9118800E+02  0.7818608E-02  0.1130116E+00
         25   -1    0    0    0    0  0.00000000000E+00  0.00000000000E+00  0.99999998245E-14  0.12500000000E+03  0.12500000000E+03 0.  0.
        -13    1    3    3    0    0 -0.31050433887E+02  0.10734083223E+02  0.56655193378E+01  0.33338555167E+02  0.10566000000E+00 0. -1.
         23    2    1    0    0    0  0.20950647877E+02  0.14716943738E+02 -0.20974911382E+02  0.91902190602E+02  0.85735334901E+02 0.  0.
         13    1    3    3    0    0  0.52001081764E+02  0.39828605157E+01 -0.26640430719E+02  0.58563635436E+02  0.10566000000E+00 0.  1.
         22    1    1    0    0    0 -0.20950647877E+02 -0.14716943738E+02  0.20974911382E+02  0.33097809398E+02  0.00000000000E+00 0.  1.
</event>
<event>
 5    1  0.9034713E-005  0.9118800E+02  0.7818608E-02  0.1130116E+00
         25   -1    0    0    0    0  0.00000000000E+00  0.00000000000E+00  0.99999998245E-14  0.12500000000E+03  0.12500000000E+03 0.  0.
        -13    1    3    3    0    0  0.20608741857E+02  0.91130700343E+01 -0.33961919945E+02  0.40757716530E+02  0.10566000000E+00 0. -1.
         23    2    1    0    0    0 -0.14089677145E+02 -0.24542502594E+02 -0.81830264770E+01  0.95541294021E+02  0.90886321882E+02 0.  0.
         13    1    3    3    0    0 -0.34698419002E+02 -0.33655572628E+02  0.25778893468E+02  0.54783577491E+02  0.10566000000E+00 0.  1.
         22    1    1    0    0    0  0.14089677145E+02  0.24542502594E+02  0.81830264770E+01  0.29458705979E+02  0.00000000000E+00 0.  1.
</event>
<event>
 5    1  0.9034713E-005  0.9118800E+02  0.7818608E-02  0.1130116E+00
         25   -1    0    0    0    0  0.00000000000E+00  0.00000000000E+00  0.99999998245E-14  0.12500000000E+03  0.12500000000E+03 0.  0.
        -13    1    3    3    0    0  0.13555206115E+02 -0.11933730772E+02 -0.40353265413E+02  0.44210346487E+02  0.10566000000E+00 0.  1.
         23    2    1    0    0    0 -0.23507595851E+02  0.11392274814E+02 -0.13279739023E+02  0.95695692182E+02  0.91098425045E+02 0.  0.
         13    1    3    3    0    0 -0.37062801967E+02  0.23326005586E+02  0.27073526389E+02  0.51485345696E+02  0.10566000000E+00 0. -1.
         22    1    1    0    0    0  0.23507595851E+02 -0.11392274814E+02  0.13279739023E+02  0.29304307818E+02  0.00000000000E+00 0.  1.
</event>
<event>
 5    1  0.9034713E-005  0.9118800E+02  0.7818608E-02  0.1130116E+00
         25   -1    0    0    0    0  0.00000000000E+00  0.00000000000E+00  0.99999998245E-14  0.12500000000E+03  0.12500000000E+03 0.  0.
        -13    1    3    3    0    0  0.50661317460E+02 -0.25027090596E+02 -0.19076276610E+02  0.59639247512E+02  0.10566000000E+00 0. -1.
         23    2    1    0    0    0  0.26533318617E+02  0.15651016068E+01 -0.71399921188E+01  0.97478262639E+02  0.93512382388E+02 0.  0.
         13    1    3    3    0    0 -0.24127998843E+02  0.26592192203E+02  0.11936284491E+02  0.37839015127E+02  0.10566000000E+00 0.  1.
         22    1    1    0    0    0 -0.26533318617E+02 -0.15651016068E+01  0.71399921188E+01  0.27521737361E+02  0.00000000000E+00 0. -1.
</event>
<event>
 5    1  0.9034713E-005  0.9118800E+02  0.7818608E-02  0.1130116E+00
         25   -1    0    0    0    0  0.00000000000E+00  0.00000000000E+00  0.99999998245E-14  0.12500000000E+03  0.12500000000E+03 0.  0.
        -13    1    3    3    0    0  0.55375667557E+02  0.10074245588E+02 -0.44651700427E+01  0.56461525742E+02  0.10566000000E+00 0. -1.
         23    2    1    0    0    0  0.18707269637E+02  0.21588182360E+02 -0.87267562706E+01  0.95130821406E+02  0.90320016339E+02 0.  0.
         13    1    3    3    0    0 -0.36668397919E+02  0.11513936772E+02 -0.42615862279E+01  0.38669295664E+02  0.10566000000E+00 0.  1.
         22    1    1    0    0    0 -0.18707269637E+02 -0.21588182360E+02  0.87267562706E+01  0.29869178594E+02  0.00000000000E+00 0. -1.
</event>
<event>
 5    1  0.9034713E-005  0.9118800E+02  0.7818608E-02  0.1130116E+00
         25   -1    0    0    0    0  0.00000000000E+00  0.00000000000E+00  0.99999998245E-14  0.12500000000E+03  0.12500000000E+03 0.  0.
        -13    1    3    3    0    0  0.32931939173E+02  0.15412028795E+02 -0.58434707202E+00  0.36364761443E+02  0.10566000000E+00 0.  1.
         23    2    1    0    0    0 -0.23311172286E+02  0.11398707779E+02 -0.15608869111E+02  0.94718353953E+02  0.89747359227E+02 0.  0.
         13    1    3    3    0    0 -0.56243111460E+02 -0.40133210158E+01 -0.15024522039E+02  0.58353592510E+02  0.10566000000E+00 0. -1.
         22    1    1    0    0    0  0.23311172286E+02 -0.11398707779E+02  0.15608869111E+02  0.30281646047E+02  0.00000000000E+00 0. -1.
</event>
<event>
 5    1  0.9034713E-005  0.9118800E+02  0.7818608E-02  0.1130116E+00
         25   -1    0    0    0    0  0.00000000000E+00  0.00000000000E+00  0.99999998245E-14  0.12500000000E+03  0.12500000000E+03 0.  0.
        -13    1    3    3    0    0 -0.28682510189E+02  0.45286442794E+02  0.15861274877E+02  0.55902947118E+02  0.10566000000E+00 0.  1.
         23    2    1    0    0    0 -0.25672034121E+02  0.62747914364E+01  0.14042844948E+02  0.95072958086E+02  0.90239899831E+02 0.  0.
         13    1    3    3    0    0  0.30104760678E+01 -0.39011651358E+02 -0.18184299286E+01  0.39170010968E+02  0.10566000000E+00 0. -1.
         22    1    1    0    0    0  0.25672034121E+02 -0.62747914364E+01 -0.14042844948E+02  0.29927041914E+02  0.00000000000E+00 0.  1.
</event>
<event>
 5    1  0.9034713E-005  0.9118800E+02  0.7818608E-02  0.1130116E+00
         25   -1    0    0    0    0  0.00000000000E+00  0.00000000000E+00  0.99999998245E-14  0.12500000000E+03  0.12500000000E+03 0.  0.
        -13    1    3    3    0    0  0.79758408022E+01  0.21512336869E+01  0.35193599592E+02  0.36150276059E+02  0.10566000000E+00 0.  1.
         23    2    1    0    0    0 -0.14285820086E+02 -0.87017823514E+00 -0.22651969316E+02  0.98205344198E+02  0.94479288997E+02 0.  0.
         13    1    3    3    0    0 -0.22261660888E+02 -0.30214119220E+01 -0.57845568907E+02  0.62055068139E+02  0.10566000000E+00 0. -1.
         22    1    1    0    0    0  0.14285820086E+02  0.87017823514E+00  0.22651969316E+02  0.26794655802E+02  0.00000000000E+00 0. -1.
</event>
<event>
 5    1  0.9034713E-005  0.9118800E+02  0.7818608E-02  0.1130116E+00
         25   -1    0    0    0    0  0.00000000000E+00  0.00000000000E+00  0.99999998245E-14  0.12500000000E+03  0.12500000000E+03 0.  0.
        -13    1    3    3    0    0  0.20424344070E+02  0.11094673730E-01 -0.25785968720E+02  0.32895004190E+02  0.10566000000E+00 0. -1.
         23    2    1    0    0    0 -0.83980234796E+01  0.11751273793E+02  0.27118667850E+02  0.94274743612E+02  0.89127357770E+02 0.  0.
         13    1    3    3    0    0 -0.28822367549E+02  0.11740179119E+02  0.52904636570E+02  0.61379739423E+02  0.10566000000E+00 0.  1.
         22    1    1    0    0    0  0.83980234796E+01 -0.11751273793E+02 -0.27118667850E+02  0.30725256388E+02  0.00000000000E+00 0.  1.
</event>
<event>
 5    1  0.9034713E-005  0.9118800E+02  0.7818608E-02  0.1130116E+00
         25   -1    0    0    0    0  0.00000000000E+00  0.00000000000E+00  0.99999998245E-14  0.12500000000E+03  0.12500000000E+03 0.  0.
        -13    1    3    3    0    0  0.39404098392E+02 -0.18903331619E+02  0.71538721782E+01  0.44285527744E+02  0.10566000000E+00 0.  1.
         23    2    1    0    0    0 -0.11125933364E+02 -0.24192381332E+02  0.12892825480E+02  0.95414823702E+02  0.90712214864E+02 0.  0.
         13    1    3    3    0    0 -0.50530031756E+02 -0.52890497126E+01  0.57389533020E+01  0.51129295958E+02  0.10566000000E+00 0. -1.
         22    1    1    0    0    0  0.11125933364E+02  0.24192381332E+02 -0.12892825480E+02  0.29585176298E+02  0.00000000000E+00 0.  1.
</event>
<event>
 5    1  0.9034713E-005  0.9118800E+02  0.7818608E-02  0.1130116E+00
         25   -1    0    0    0    0  0.00000000000E+00  0.00000000000E+00  0.99999998245E-14  0.12500000000E+03  0.12500000000E+03 0.  0.
        -13    1    3    3    0    0 -0.96385942458E+01  0.46468916207E+01 -0.37263565350E+02  0.38769583018E+02  0.10566000000E+00 0.  1.
         23    2    1    0    0    0 -0.56737433201E+01 -0.86675887324E+01  0.22554728066E+02  0.10017996342E+03  0.97056637357E+02 0.  0.
         13    1    3    3    0    0  0.39648509257E+01 -0.13314480353E+02  0.59818293416E+02  0.61410380402E+02  0.10566000000E+00 0. -1.
         22    1    1    0    0    0  0.56737433201E+01  0.86675887324E+01 -0.22554728066E+02  0.24820036579E+02  0.00000000000E+00 0. -1.
</event>
<event>
 5    1  0.9034713E-005  0.9118800E+02  0.7818608E-02  0.1130116E+00
         25   -1    0    0    0    0  0.00000000000E+00  0.00000000000E+00  0.99999998245E-14  0.12500000000E+03  0.12500000000E+03 0.  0.
        -13    1    3    3    0    0 -0.19002670737E+01  0.22541866108E+02  0.27558282241E+02  0.35654127766E+02  0.10566000000E+00 0.  1.
         23    2    1    0    0    0 -0.15598984246E+02 -0.21583000737E+02 -0.11345202086E+02  0.96054053122E+02  0.91588827269E+02 0.  0.
         13    1    3    3    0    0 -0.13698717172E+02 -0.44124866845E+02 -0.38903484327E+02  0.60399925356E+02  0.10566000000E+00 0. -1.
         22    1    1    0    0    0  0.15598984246E+02  0.21583000737E+02  0.11345202086E+02  0.28945946878E+02  0.00000000000E+00 0. -1.
</event>
<event>
 5    1  0.9034713E-005  0.9118800E+02  0.7818608E-02  0.1130116E+00
         25   -1    0    0    0    0  0.00000000000E+00  0.00000000000E+00  0.99999998245E-14  0.12500000000E+03  0.12500000000E+03 0.  0.
        -13    1    3    3    0    0  0.10840112159E+02  0.38016323427E+02 -0.46590038829E+01  0.39805355917E+02  0.10566000000E+00 0. -1.
         23    2    1    0    0    0 -0.28759792737E+02 -0.17164090903E+01 -0.40522122926E+01  0.95905461631E+02  0.91385805286E+02 0.  0.
         13    1    3    3    0    0 -0.39599904896E+02 -0.39732732517E+02  0.60679159035E+00  0.56100105714E+02  0.10566000000E+00 0.  1.
         22    1    1    0    0    0  0.28759792737E+02  0.17164090903E+01  0.40522122926E+01  0.29094538369E+02  0.00000000000E+00 0.  1.
</event>
<event>
 5    1  0.9034713E-005  0.9118800E+02  0.7818608E-02  0.1130116E+00
         25   -1    0    0    0    0  0.00000000000E+00  0.00000000000E+00  0.99999998245E-14  0.12500000000E+03  0.12500000000E+03 0.  0.
        -13    1    3    3    0    0 -0.86877298789E+01 -0.45068314218E+00 -0.55803147714E+02  0.56477271752E+02  0.10566000000E+00 0. -1.
         23    2    1    0    0    0 -0.19854814883E+02  0.10515373415E+02 -0.22870601555E+02  0.92939881978E+02  0.87235144836E+02 0.  0.
         13    1    3    3    0    0 -0.11167085004E+02  0.10966056557E+02  0.32932546159E+02  0.36462610226E+02  0.10566000000E+00 0.  1.
         22    1    1    0    0    0  0.19854814883E+02 -0.10515373415E+02  0.22870601555E+02  0.32060118022E+02  0.00000000000E+00 0. -1.
</event>
<event>
 5    1  0.9034713E-005  0.9118800E+02  0.7818608E-02  0.1130116E+00
         25   -1    0    0    0    0  0.00000000000E+00  0.00000000000E+00  0.99999998245E-14  0.12500000000E+03  0.12500000000E+03 0.  0.
        -13    1    3    3    0    0 -0.23977074303E+02 -0.35477842774E+02 -0.31786952253E+02  0.53329156356E+02  0.10566000000E+00 0.  1.
         23    2    1    0    0    0 -0.94320522957E+01 -0.29887613628E+02  0.49839493050E+01  0.93265589504E+02  0.87700612175E+02 0.  0.
         13    1    3    3    0    0  0.14545022008E+02  0.55902291465E+01  0.36770901558E+02  0.39936433148E+02  0.10566000000E+00 0. -1.
         22    1    1    0    0    0  0.94320522957E+01  0.29887613628E+02 -0.49839493050E+01  0.31734410496E+02  0.00000000000E+00 0.  1.
</event>
<event>
 5    1  0.9034713E-005  0.9118800E+02  0.7818608E-02  0.1130116E+00
         25   -1    0    0    0    0  0.00000000000E+00  0.00000000000E+00  0.99999998245E-14  0.12500000000E+03  0.12500000000E+03 0.  0.
        -13    1    3    3    0    0 -0.70575291233E+01 -0.33634396493E+02  0.26025392305E+02  0.43109320957E+02  0.10566000000E+00 0.  1.
         23    2    1    0    0    0 -0.15741503205E+02  0.17256380271E+02  0.18335591136E+02  0.95305362680E+02  0.90561253691E+02 0.  0.
         13    1    3    3    0    0 -0.86839740820E+01  0.50890776764E+02 -0.76898011683E+01  0.52196041723E+02  0.10566000000E+00 0. -1.
         22    1    1    0    0    0  0.15741503205E+02 -0.17256380271E+02 -0.18335591136E+02  0.29694637320E+02  0.00000000000E+00 0. -1.
</event>
<event>
 5    1  0.9034713E-005  0.9118800E+02  0.7818608E-02  0.1130116E+00
         25   -1    0    0    0    0  0.00000000000E+00  0.00000000000E+00  0.99999998245E-14  0.12500000000E+03  0.12500000000E+03 0.  0.
        -13    1    3    3    0    0  0.83315136976E+01 -0.33220931593E+02  0.38702842764E+02  0.51681385609E+02  0.10566000000E+00 0.  1.
         23    2    1    0    0    0 -0.19862369356E+02 -0.20887179946E+02  0.81491545384E+01  0.95046757735E+02  0.90203599893E+02 0.  0.
         13    1    3    3    0    0 -0.28193883054E+02  0.12333751648E+02 -0.30553688226E+02  0.43365372125E+02  0.10566000000E+00 0. -1.
         22    1    1    0    0    0  0.19862369356E+02  0.20887179946E+02 -0.81491545384E+01  0.29953242265E+02  0.00000000000E+00 0.  1.
</event>
<event>
 5    1  0.9034713E-005  0.9118800E+02  0.7818608E-02  0.1130116E+00
         25   -1    0    0    0    0  0.00000000000E+00  0.00000000000E+00  0.99999998245E-14  0.12500000000E+03  0.12500000000E+03 0.  0.
        -13    1    3    3    0    0  0.48300358528E+02 -0.33534495709E+02  0.75207872713E+01  0.59279511145E+02  0.10566000000E+00 0. -1.
         23    2    1    0    0    0  0.28184062208E+02 -0.26516773773E+01  0.52709806347E+01  0.96204931111E+02  0.91794513876E+02 0.  0.
         13    1    3    3    0    0 -0.20116296320E+02  0.30882818332E+02 -0.22498066366E+01  0.36925419966E+02  0.10566000000E+00 0.  1.
         22    1    1    0    0    0 -0.28184062208E+02  0.26516773773E+01 -0.52709806347E+01  0.28795068889E+02  0.00000000000E+00 0. -1.
</event>
<event>
 5    1  0.9034713E-005  0.9118800E+02  0.7818608E-02  0.1130116E+00
         25   -1    0    0    0    0  0.00000000000E+00  0.00000000000E+00  0.99999998245E-14  0.12500000000E+03  0.12500000000E+03 0.  0.
        -13    1    3    3    0    0 -0.31228124208E+02 -0.64050820677E+01 -0.28273766129E+02  0.42610301959E+02  0.10566000000E+00 0.  1.
         23    2    1    0    0    0  0.97923067211E+01  0.20361994239E+02 -0.24401566652E+02  0.91744375883E+02  0.85504935360E+02 0.  0.
         13    1    3    3    0    0  0.41020430929E+02  0.26767076306E+02  0.38721994769E+01  0.49134073925E+02  0.10566000000E+00 0. -1.
         22    1    1    0    0    0 -0.97923067211E+01 -0.20361994239E+02  0.24401566652E+02  0.33255624117E+02  0.00000000000E+00 0. -1.
</event>
<event>
 5    1  0.9034713E-005  0.9118800E+02  0.7818608E-02  0.1130116E+00
         25   -1    0    0    0    0  0.00000000000E+00  0.00000000000E+00  0.99999998245E-14  0.12500000000E+03  0.12500000000E+03 0.  0.
        -13    1    3    3    0    0 -0.86198030040E+01 -0.47143578507E+02  0.16256980947E+02  0.50607495412E+02  0.10566000000E+00 0. -1.
         23    2    1    0    0    0  0.12969362409E+02 -0.82962788484E+01  0.24747171925E+02  0.95854586599E+02  0.91316190513E+02 0.  0.
         13    1    3    3    0    0  0.21589165413E+02  0.38847299659E+02  0.84901909779E+01  0.45247091187E+02  0.10566000000E+00 0.  1.
         22    1    1    0    0    0 -0.12969362409E+02  0.82962788484E+01 -0.24747171925E+02  0.29145413401E+02  0.00000000000E+00 0. -1.
</event>
<event>
 5    1  0.9034713E-005  0.9118800E+02  0.7818608E-02  0.1130116E+00
         25   -1    0    0    0    0  0.00000000000E+00  0.00000000000E+00  0.99999998245E-14  0.12500000000E+03  0.12500000000E+03 0.  0.
        -13    1    3    3    0    0 -0.41947995064E+02 -0.63680748275E+01  0.29810926520E+01  0.42533336859E+02  0.10566000000E+00 0.  1.
         23    2    1    0    0    0  0.15657968536E+02 -0.14000689758E+02 -0.94659948700E+01  0.10196098198E+03  0.99323942206E+02 0.  0.
         13    1    3    3    0    0  0.57605963600E+02 -0.76326149305E+01 -0.12447087522E+02  0.59427645123E+02  0.10566000000E+00 0. -1.
         22    1    1    0    0    0 -0.15657968536E+02  0.14000689758E+02  0.94659948700E+01  0.23039018019E+02  0.00000000000E+00 0. -1.
</event>
<event>
 5    1  0.9034713E-005  0.9118800E+02  0.7818608E-02  0.1130116E+00
         25   -1    0    0    0    0  0.00000000000E+00  0.00000000000E+00  0.99999998245E-14  0.12500000000E+03  0.12500000000E+03 0.  0.
        -13    1    3    3    0    0  0.19287820429E+02 -0.43474253099E+02 -0.18723069613E+01  0.47597766720E+02  0.10566000000E+00 0. -1.
         23    2    1    0    0    0 -0.18601440036E+02 -0.12448362998E+02 -0.14700524277E+02  0.98221636966E+02  0.94500842544E+02 0.  0.
         13    1    3    3    0    0 -0.37889260465E+02  0.31025890101E+02 -0.12828217316E+02  0.50623870246E+02  0.10566000000E+00 0.  1.
         22    1    1    0    0    0  0.18601440036E+02  0.12448362998E+02  0.14700524277E+02  0.26778363034E+02  0.00000000000E+00 0.  1.
</event>
<event>
 5    1  0.9034713E-005  0.9118800E+02  0.7818608E-02  0.1130116E+00
         25   -1    0    0    0    0  0.00000000000E+00  0.00000000000E+00  0.99999998245E-14  0.12500000000E+03  0.12500000000E+03 0.  0.
        -13    1    3    3    0    0  0.18466442462E+02 -0.21226342232E+02  0.32214736697E+02  0.42771106208E+02  0.10566000000E+00 0. -1.
         23    2    1    0    0    0 -0.18064252307E+02  0.15182110162E+02  0.14497955552E+02  0.97305155794E+02  0.93280699764E+02 0.  0.
         13    1    3    3    0    0 -0.36530694769E+02  0.36408452394E+02 -0.17716781144E+02  0.54534049586E+02  0.10566000000E+00 0.  1.
         22    1    1    0    0    0  0.18064252307E+02 -0.15182110162E+02 -0.14497955552E+02  0.27694844206E+02  0.00000000000E+00 0.  1.
</event>
<event>
 5    1  0.9034713E-005  0.9118800E+02  0.7818608E-02  0.1130116E+00
         25   -1    0    0    0    0  0.00000000000E+00  0.00000000000E+00  0.99999998245E-14  0.12500000000E+03  0.12500000000E+03 0.  0.
        -13    1    3    3    0    0  0.17972772061E+02  0.14207214844E+02  0.26065952837E+02  0.34703177816E+02  0.10566000000E+00 0.  1.
         23    2    1    0    0    0 -0.24447824007E+02 -0.94670291986E+01 -0.11753991167E+02  0.96268883613E+02  0.91881559103E+02 0.  0.
         13    1    3    3    0    0 -0.42420596067E+02 -0.23674244043E+02 -0.37819944005E+02  0.61565705797E+02  0.10566000000E+00 0. -1.
         22    1    1    0    0    0  0.24447824007E+02  0.94670291986E+01  0.11753991167E+02  0.28731116387E+02  0.00000000000E+00 0. -1.
</event>
<event>
 5    1  0.9034713E-005  0.9118800E+02  0.7818608E-02  0.1130116E+00
         25   -1    0    0    0    0  0.00000000000E+00  0.00000000000E+00  0.99999998245E-14  0.12500000000E+03  0.12500000000E+03 0.  0.
        -13    1    3    3    0    0 -0.49495252498E+02  0.14300737788E+02 -0.17169903580E+02  0.54305689151E+02  0.10566000000E+00 0.  1.
         23    2    1    0    0    0 -0.27050187282E+02 -0.10894119671E+02  0.59870585138E+01  0.95230227662E+02  0.90457486786E+02 0.  0.
         13    1    3    3    0    0  0.22445065216E+02 -0.25194857459E+02  0.23156962094E+02  0.40924538512E+02  0.10566000000E+00 0. -1.
         22    1    1    0    0    0  0.27050187282E+02  0.10894119671E+02 -0.59870585138E+01  0.29769772338E+02  0.00000000000E+00 0.  1.
</event>
<event>
 5    1  0.9034713E-005  0.9118800E+02  0.7818608E-02  0.1130116E+00
         25   -1    0    0    0    0  0.00000000000E+00  0.00000000000E+00  0.99999998245E-14  0.12500000000E+03  0.12500000000E+03 0.  0.
        -13    1    3    3    0    0 -0.10162227568E+02  0.38964875441E+02 -0.32939954485E+02  0.52024841689E+02  0.10566000000E+00 0.  1.
         23    2    1    0    0    0  0.19473403077E+01 -0.33220516078E+01 -0.28506620590E+02  0.96234472391E+02  0.91834732524E+02 0.  0.
         13    1    3    3    0    0  0.12109567876E+02 -0.42286927049E+02  0.44333338953E+01  0.44209630702E+02  0.10566000000E+00 0. -1.
         22    1    1    0    0    0 -0.19473403077E+01  0.33220516078E+01  0.28506620590E+02  0.28765527609E+02  0.00000000000E+00 0.  1.
</event>
<event>
 5    1  0.9034713E-005  0.9118800E+02  0.7818608E-02  0.1130116E+00
         25   -1    0    0    0    0  0.00000000000E+00  0.00000000000E+00  0.99999998245E-14  0.12500000000E+03  0.12500000000E+03 0.  0.
        -13    1    3    3    0    0 -0.22820626469E+02 -0.88801207744E+01 -0.34978327048E+02  0.42698150598E+02  0.10566000000E+00 0.  1.
         23    2    1    0    0    0  0.81617026910E+01  0.26148231957E+02 -0.91573752175E+01  0.96117462955E+02  0.91675327863E+02 0.  0.
         13    1    3    3    0    0  0.30982329160E+02  0.35028352731E+02  0.25820951831E+02  0.53419312357E+02  0.10566000000E+00 0. -1.
         22    1    1    0    0    0 -0.81617026910E+01 -0.26148231957E+02  0.91573752175E+01  0.28882537045E+02  0.00000000000E+00 0. -1.
</event>
<event>
 5    1  0.9034713E-005  0.9118800E+02  0.7818608E-02  0.1130116E+00
         25   -1    0    0    0    0  0.00000000000E+00  0.00000000000E+00  0.99999998245E-14  0.12500000000E+03  0.12500000000E+03 0.  0.
        -13    1    3    3    0    0  0.34522116195E+02  0.15984376033E+02  0.47362772184E+02  0.60749651331E+02  0.10566000000E+00 0.  1.
         23    2    1    0    0    0  0.17978218626E+02 -0.28155780178E+01  0.22806466892E+02  0.95823318272E+02  0.91273378200E+02 0.  0.
         13    1    3    3    0    0 -0.16543897569E+02 -0.18799954051E+02 -0.24556305292E+02  0.35073666942E+02  0.10566000000E+00 0. -1.
         22    1    1    0    0    0 -0.17978218626E+02  0.28155780178E+01 -0.22806466892E+02  0.29176681728E+02  0.00000000000E+00 0.  1.
</event>
<event>
 5    1  0.9034713E-005  0.9118800E+02  0.7818608E-02  0.1130116E+00
         25   -1    0    0    0    0  0.00000000000E+00  0.00000000000E+00  0.99999998245E-14  0.12500000000E+03  0.12500000000E+03 0.  0.
        -13    1    3    3    0    0 -0.13846173187E+02  0.36222645060E+02  0.31453007526E+02  0.49930946051E+02  0.10566000000E+00 0.  1.
         23    2    1    0    0    0 -0.99630393915E+01  0.23536997237E+02 -0.13002504556E+02  0.96323920813E+02  0.91956403818E+02 0.  0.
         13    1    3    3    0    0  0.38831337951E+01 -0.12685647824E+02 -0.44455512082E+02  0.46392974762E+02  0.10566000000E+00 0. -1.
         22    1    1    0    0    0  0.99630393915E+01 -0.23536997237E+02  0.13002504556E+02  0.28676079187E+02  0.00000000000E+00 0.  1.
</event>
<event>
 5    1  0.9034713E-005  0.9118800E+02  0.7818608E-02  0.1130116E+00
         25   -1    0    0    0    0  0.00000000000E+00  0.00000000000E+00  0.99999998245E-14  0.12500000000E+03  0.12500000000E+03 0.  0.
        -13    1    3    3    0    0  0.55544345507E+01 -0.43385096364E+02  0.21317034298E+02  0.48657429494E+02  0.10566000000E+00 0. -1.
         23    2    1    0    0    0 -0.26606966562E+02 -0.23311517091E+02  0.94088928711E+01  0.88395563605E+02  0.80460492798E+02 0.  0.
         13    1    3    3    0    0 -0.32161401113E+02  0.20073579273E+02 -0.11908141427E+02  0.39738134111E+02  0.10566000000E+00 0.  1.
         22    1    1    0    0    0  0.26606966562E+02  0.23311517091E+02 -0.94088928711E+01  0.36604436395E+02  0.00000000000E+00 0. -1.
</event>
<event>
 5    1  0.9034713E-005  0.9118800E+02  0.7818608E-02  0.1130116E+00
         25   -1    0    0    0    0  0.00000000000E+00  0.00000000000E+00  0.99999998245E-14  0.12500000000E+03  0.12500000000E+03 0.  0.
        -13    1    3    3    0    0 -0.19388762473E+02  0.28263441899E+02  0.22763605156E+02  0.41145341680E+02  0.10566000000E+00 0.  1.
         23    2    1    0    0    0  0.17133628397E+01 -0.24116235312E+02  0.82877225374E+01  0.99441933510E+02  0.96101422349E+02 0.  0.
         13    1    3    3    0    0  0.21102125312E+02 -0.52379677211E+02 -0.14475882619E+02  0.58296591831E+02  0.10566000000E+00 0. -1.
         22    1    1    0    0    0 -0.17133628397E+01  0.24116235312E+02 -0.82877225374E+01  0.25558066490E+02  0.00000000000E+00 0. -1.
</event>
<event>
 5    1  0.9034713E-005  0.9118800E+02  0.7818608E-02  0.1130116E+00
         25   -1    0    0    0    0  0.00000000000E+00  0.00000000000E+00  0.99999998245E-14  0.12500000000E+03  0.12500000000E+03 0.  0.
        -13    1    3    3    0    0  0.64590039337E+01 -0.16261891730E+02 -0.36275269229E+02  0.40274982013E+02  0.10566000000E+00 0. -1.
         23    2    1    0    0    0  0.73598149025E+01  0.27909287469E+02 -0.22312967793E+01  0.96050494171E+02  0.91583969900E+02 0.  0.
         13    1    3    3    0    0  0.90081096882E+00  0.44171179199E+02  0.34043972450E+02  0.55775512158E+02  0.10566000000E+00 0.  1.
         22    1    1    0    0    0 -0.73598149025E+01 -0.27909287469E+02  0.22312967793E+01  0.28949505829E+02  0.00000000000E+00 0.  1.
</event>
<event>
 5    1  0.9034713E-005  0.9118800E+02  0.7818608E-02  0.1130116E+00
         25   -1    0    0    0    0  0.00000000000E+00  0.00000000000E+00  0.99999998245E-14  0.12500000000E+03  0.12500000000E+03 0.  0.
        -13    1    3    3    0    0 -0.34905110004E+01 -0.37422851112E+02 -0.18336322749E+02  0.41819676569E+02  0.10566000000E+00 0. -1.
         23    2    1    0    0    0  0.22493522411E+02  0.10174232452E+02 -0.14918097486E+02  0.96155187831E+02  0.91726751593E+02 0.  0.
         13    1    3    3    0    0  0.25984033412E+02  0.47597083563E+02  0.34182252633E+01  0.54335511262E+02  0.10566000000E+00 0.  1.
         22    1    1    0    0    0 -0.22493522411E+02 -0.10174232452E+02  0.14918097486E+02  0.28844812169E+02  0.00000000000E+00 0.  1.
</event>
<event>
 5    1  0.9034713E-005  0.9118800E+02  0.7818608E-02  0.1130116E+00
         25   -1    0    0    0    0  0.00000000000E+00  0.00000000000E+00  0.99999998245E-14  0.12500000000E+03  0.12500000000E+03 0.  0.
        -13    1    3    3    0    0 -0.36308353282E+02  0.97375993452E+01  0.35755846455E+02  0.51880719721E+02  0.10566000000E+00 0. -1.
         23    2    1    0    0    0  0.68857301191E+01  0.16483905438E+02  0.19579764049E+02  0.98495291400E+02  0.94862125476E+02 0.  0.
         13    1    3    3    0    0  0.43194083401E+02  0.67463060928E+01 -0.16176082406E+02  0.46614571678E+02  0.10566000000E+00 0.  1.
         22    1    1    0    0    0 -0.68857301191E+01 -0.16483905438E+02 -0.19579764049E+02  0.26504708600E+02  0.00000000000E+00 0. -1.
</event>
<event>
 5    1  0.9034713E-005  0.9118800E+02  0.7818608E-02  0.1130116E+00
         25   -1    0    0    0    0  0.00000000000E+00  0.00000000000E+00  0.99999998245E-14  0.12500000000E+03  0.12500000000E+03 0.  0.
        -13    1    3    3    0    0  0.22481931353E+01  0.35163711527E+02 -0.23823721849E+02  0.42533773257E+02  0.10566000000E+00 0.  1.
         23    2    1    0    0    0  0.29577832106E+02  0.67575908695E+00  0.47992590848E+01  0.95027717969E+02  0.90177211601E+02 0.  0.
         13    1    3    3    0    0  0.27329638970E+02 -0.34487952440E+02  0.28622980934E+02  0.52493944711E+02  0.10566000000E+00 0. -1.
         22    1    1    0    0    0 -0.29577832106E+02 -0.67575908695E+00 -0.47992590848E+01  0.29972282031E+02  0.00000000000E+00 0.  1.
</event>
<event>
 5    1  0.9034713E-005  0.9118800E+02  0.7818608E-02  0.1130116E+00
         25   -1    0    0    0    0  0.00000000000E+00  0.00000000000E+00  0.99999998245E-14  0.12500000000E+03  0.12500000000E+03 0.  0.
        -13    1    3    3    0    0 -0.15136955228E+02  0.17010962073E+02  0.54471158462E+02  0.59039126962E+02  0.10566000000E+00 0.  1.
         23    2    1    0    0    0 -0.64009686816E+01  0.24128759210E+02  0.30058566143E+02  0.85927160077E+02  0.76529667576E+02 0.  0.
         13    1    3    3    0    0  0.87359865459E+01  0.71177971372E+01 -0.24412592319E+02  0.26888033115E+02  0.10566000000E+00 0. -1.
         22    1    1    0    0    0  0.64009686816E+01 -0.24128759210E+02 -0.30058566143E+02  0.39072839923E+02  0.00000000000E+00 0.  1.
</event>
<event>
 5    1  0.9034713E-005  0.9118800E+02  0.7818608E-02  0.1130116E+00
         25   -1    0    0    0    0  0.00000000000E+00  0.00000000000E+00  0.99999998245E-14  0.12500000000E+03  0.12500000000E+03 0.  0.
        -13    1    3    3    0    0  0.43680368988E+02 -0.11752124538E+01 -0.32121062552E+02  0.54232182168E+02  0.10566000000E+00 0.  1.
         23    2    1    0    0    0 -0.27729358860E+01 -0.76086455903E+01 -0.21089685709E+02  0.10240895079E+03  0.99886123647E+02 0.  0.
         13    1    3    3    0    0 -0.46453304874E+02 -0.64334331365E+01  0.11031376843E+02  0.48176768621E+02  0.10566000000E+00 0. -1.
         22    1    1    0    0    0  0.27729358860E+01  0.76086455903E+01  0.21089685709E+02  0.22591049211E+02  0.00000000000E+00 0.  1.
</event>
<event>
 5    1  0.9034713E-005  0.9118800E+02  0.7818608E-02  0.1130116E+00
         25   -1    0    0    0    0  0.00000000000E+00  0.00000000000E+00  0.99999998245E-14  0.12500000000E+03  0.12500000000E+03 0.  0.
        -13    1    3    3    0    0 -0.16386746548E+02 -0.25687923893E+02 -0.30677341920E+02  0.43237777090E+02  0.10566000000E+00 0. -1.
         23    2    1    0    0    0 -0.21517401775E+02  0.17357546208E+02  0.16355742832E+01  0.97305991754E+02  0.93281819978E+02 0.  0.
         13    1    3    3    0    0 -0.51306552266E+01  0.43045470102E+02  0.32312916203E+02  0.54068214664E+02  0.10566000000E+00 0.  1.
         22    1    1    0    0    0  0.21517401775E+02 -0.17357546208E+02 -0.16355742832E+01  0.27694008246E+02  0.00000000000E+00 0.  1.
</event>
<event>
 5    1  0.9034713E-005  0.9118800E+02  0.7818608E-02  0.1130116E+00
         25   -1    0    0    0    0  0.00000000000E+00  0.00000000000E+00  0.99999998245E-14  0.12500000000E+03  0.12500000000E+03 0.  0.
        -13    1    3    3    0    0  0.28119257405E+02 -0.31189926521E+02 -0.38517924895E+02  0.56983733255E+02  0.10566000000E+00 0.  1.
         23    2    1    0    0    0  0.25834652218E+02 -0.18611874915E+02 -0.51130520427E+01  0.92751365234E+02  0.86964598018E+02 0.  0.
         13    1    3    3    0    0 -0.22846051868E+01  0.12578051606E+02  0.33404872853E+02  0.35767631979E+02  0.10566000000E+00 0. -1.
         22    1    1    0    0    0 -0.25834652218E+02  0.18611874915E+02  0.51130520427E+01  0.32248634766E+02  0.00000000000E+00 0.  1.
</event>
<event>
 5    1  0.9034713E-005  0.9118800E+02  0.7818608E-02  0.1130116E+00
         25   -1    0    0    0    0  0.00000000000E+00  0.00000000000E+00  0.99999998245E-14  0.12500000000E+03  0.12500000000E+03 0.  0.
        -13    1    3    3    0    0  0.48758093037E+02 -0.20932153032E+02  0.26435643112E+02  0.59282046674E+02  0.10566000000E+00 0.  1.
         23    2    1    0    0    0  0.11523270221E+02 -0.16821783093E+02  0.18268316082E+02  0.97623193841E+02  0.93705914756E+02 0.  0.
         13    1    3    3    0    0 -0.37234822816E+02  0.41103699388E+01 -0.81673270300E+01  0.38341147166E+02  0.10566000000E+00 0. -1.
         22    1    1    0    0    0 -0.11523270221E+02  0.16821783093E+02 -0.18268316082E+02  0.27376806159E+02  0.00000000000E+00 0.  1.
</event>
<event>
 5    1  0.9034713E-005  0.9118800E+02  0.7818608E-02  0.1130116E+00
         25   -1    0    0    0    0  0.00000000000E+00  0.00000000000E+00  0.99999998245E-14  0.12500000000E+03  0.12500000000E+03 0.  0.
        -13    1    3    3    0    0 -0.52387243441E+02 -0.43129396851E+01  0.31465865416E+02  0.61262848240E+02  0.10566000000E+00 0. -1.
         23    2    1    0    0    0 -0.27129405574E+02 -0.98182579663E+01  0.11439591134E+02  0.93963455708E+02  0.88689705868E+02 0.  0.
         13    1    3    3    0    0  0.25257837867E+02 -0.55053182812E+01 -0.20026274282E+02  0.32700607468E+02  0.10566000000E+00 0.  1.
         22    1    1    0    0    0  0.27129405574E+02  0.98182579663E+01 -0.11439591134E+02  0.31036544292E+02  0.00000000000E+00 0. -1.
</event>
<event>
 5    1  0.9034713E-005  0.9118800E+02  0.7818608E-02  0.1130116E+00
         25   -1    0    0    0    0  0.00000000000E+00  0.00000000000E+00  0.99999998245E-14  0.12500000000E+03  0.12500000000E+03 0.  0.
        -13    1    3    3    0    0 -0.18425315979E+02 -0.34660035518E+02  0.57772315972E+00  0.39257550346E+02  0.10566000000E+00 0.  1.
         23    2    1    0    0    0  0.20883546292E+02  0.13812511412E+01  0.20035160017E+02  0.96026943597E+02  0.91551820841E+02 0.  0.
         13    1    3    3    0    0  0.39308862271E+02  0.36041286659E+02  0.19457436857E+02  0.56769393252E+02  0.10566000000E+00 0. -1.
         22    1    1    0    0    0 -0.20883546292E+02 -0.13812511412E+01 -0.20035160017E+02  0.28973056403E+02  0.00000000000E+00 0.  1.
</event>
<event>
 5    1  0.9034713E-005  0.9118800E+02  0.7818608E-02  0.1130116E+00
         25   -1    0    0    0    0  0.00000000000E+00  0.00000000000E+00  0.99999998245E-14  0.12500000000E+03  0.12500000000E+03 0.  0.
        -13    1    3    3    0    0 -0.17263403775E+02 -0.80179402651E+01  0.25582800637E+02  0.31887353739E+02  0.10566000000E+00 0.  1.
         23    2    1    0    0    0  0.12827228188E+02  0.14994845665E+02 -0.23772583201E+02  0.94104710851E+02  0.88888569079E+02 0.  0.
         13    1    3    3    0    0  0.30090631963E+02  0.23012785930E+02 -0.49355383839E+02  0.62217357113E+02  0.10566000000E+00 0. -1.
         22    1    1    0    0    0 -0.12827228188E+02 -0.14994845665E+02  0.23772583201E+02  0.30895289149E+02  0.00000000000E+00 0. -1.
</event>
<event>
 5    1  0.9034713E-005  0.9118800E+02  0.7818608E-02  0.1130116E+00
         25   -1    0    0    0    0  0.00000000000E+00  0.00000000000E+00  0.99999998245E-14  0.12500000000E+03  0.12500000000E+03 0.  0.
        -13    1    3    3    0    0  0.90870536513E+01 -0.37864884996E+02 -0.14902939323E+02  0.41694517917E+02  0.10566000000E+00 0. -1.
         23    2    1    0    0    0 -0.27524120263E+02 -0.49573734128E+01  0.78887702165E+01  0.95941688918E+02  0.91435344532E+02 0.  0.
         13    1    3    3    0    0 -0.36611173914E+02  0.32907511583E+02  0.22791709539E+02  0.54247171002E+02  0.10566000000E+00 0.  1.
         22    1    1    0    0    0  0.27524120263E+02  0.49573734128E+01 -0.78887702165E+01  0.29058311082E+02  0.00000000000E+00 0.  1.
</event>
<event>
 5    1  0.9034713E-005  0.9118800E+02  0.7818608E-02  0.1130116E+00
         25   -1    0    0    0    0  0.00000000000E+00  0.00000000000E+00  0.99999998245E-14  0.12500000000E+03  0.12500000000E+03 0.  0.
        -13    1    3    3    0    0 -0.50228598269E+01  0.45475092810E+02  0.11528994224E+01  0.45766292488E+02  0.10566000000E+00 0.  1.
         23    2    1    0    0    0 -0.23424949007E+02  0.14946205594E+01  0.17012831916E+02  0.96010371227E+02  0.91529191009E+02 0.  0.
         13    1    3    3    0    0 -0.18402089180E+02 -0.43980472251E+02  0.15859932493E+02  0.50244078739E+02  0.10566000000E+00 0. -1.
         22    1    1    0    0    0  0.23424949007E+02 -0.14946205594E+01 -0.17012831916E+02  0.28989628773E+02  0.00000000000E+00 0.  1.
</event>
<event>
 5    1  0.9034713E-005  0.9118800E+02  0.7818608E-02  0.1130116E+00
         25   -1    0    0    0    0  0.00000000000E+00  0.00000000000E+00  0.99999998245E-14  0.12500000000E+03  0.12500000000E+03 0.  0.
        -13    1    3    3    0    0 -0.17152037151E+02 -0.48348450119E+02  0.31302542018E+02  0.60096799484E+02  0.10566000000E+00 0. -1.
         23    2    1    0    0    0 -0.16641360865E+02 -0.15139546212E+02  0.19125220116E+02  0.95471796610E+02  0.90790688689E+02 0.  0.
         13    1    3    3    0    0  0.51067628642E+00  0.33208903907E+02 -0.12177321902E+02  0.35374997127E+02  0.10566000000E+00 0.  1.
         22    1    1    0    0    0  0.16641360865E+02  0.15139546212E+02 -0.19125220116E+02  0.29528203390E+02  0.00000000000E+00 0. -1.
</event>
<event>
 5    1  0.9034713E-005  0.9118800E+02  0.7818608E-02  0.1130116E+00
         25   -1    0    0    0    0  0.00000000000E+00  0.00000000000E+00  0.99999998245E-14  0.12500000000E+03  0.12500000000E+03 0.  0.
        -13    1    3    3    0    0 -0.12111926005E+00 -0.35161161551E+01 -0.53052617717E+02  0.53169250073E+02  0.10566000000E+00 0.  1.
         23    2    1    0    0    0  0.12484390814E+02 -0.22444486124E+02 -0.28382797918E+02  0.86722092677E+02  0.77817242108E+02 0.  0.
         13    1    3    3    0    0  0.12605510074E+02 -0.18928369969E+02  0.24669819799E+02  0.33552842604E+02  0.10566000000E+00 0. -1.
         22    1    1    0    0    0 -0.12484390814E+02  0.22444486124E+02  0.28382797918E+02  0.38277907323E+02  0.00000000000E+00 0.  1.
</event>
<event>
 5    1  0.9034713E-005  0.9118800E+02  0.7818608E-02  0.1130116E+00
         25   -1    0    0    0    0  0.00000000000E+00  0.00000000000E+00  0.99999998245E-14  0.12500000000E+03  0.12500000000E+03 0.  0.
        -13    1    3    3    0    0 -0.19114430859E+01  0.25195901147E+02 -0.21730785295E+02  0.33327544806E+02  0.10566000000E+00 0.  1.
         23    2    1    0    0    0 -0.94059442780E+01 -0.26691188616E+02  0.10438550695E+02  0.94836202525E+02  0.89911348734E+02 0.  0.
         13    1    3    3    0    0 -0.74945011921E+01 -0.51887089763E+02  0.32169335990E+02  0.61508657718E+02  0.10566000000E+00 0. -1.
         22    1    1    0    0    0  0.94059442780E+01  0.26691188616E+02 -0.10438550695E+02  0.30163797475E+02  0.00000000000E+00 0. -1.
</event>
<event>
 5    1  0.9034713E-005  0.9118800E+02  0.7818608E-02  0.1130116E+00
         25   -1    0    0    0    0  0.00000000000E+00  0.00000000000E+00  0.99999998245E-14  0.12500000000E+03  0.12500000000E+03 0.  0.
        -13    1    3    3    0    0 -0.19321265816E+02  0.47256237482E+02  0.23960678751E+01  0.51109838573E+02  0.10566000000E+00 0.  1.
         23    2    1    0    0    0  0.53740162815E+01  0.24588588171E+02 -0.21190946436E+02  0.92098101421E+02  0.86020493810E+02 0.  0.
         13    1    3    3    0    0  0.24695282098E+02 -0.22667649311E+02 -0.23587014311E+02  0.40988262848E+02  0.10566000000E+00 0. -1.
         22    1    1    0    0    0 -0.53740162815E+01 -0.24588588171E+02  0.21190946436E+02  0.32901898579E+02  0.00000000000E+00 0. -1.
</event>
<event>
 5    1  0.9034713E-005  0.9118800E+02  0.7818608E-02  0.1130116E+00
         25   -1    0    0    0    0  0.00000000000E+00  0.00000000000E+00  0.99999998245E-14  0.12500000000E+03  0.12500000000E+03 0.  0.
        -13    1    3    3    0    0  0.74251069231E+01  0.87862407250E+01  0.31004190920E+02  0.33069642537E+02  0.10566000000E+00 0. -1.
         23    2    1    0    0    0  0.45289735521E+01 -0.12631803095E+01 -0.29832713019E+02  0.94799039883E+02  0.89859668209E+02 0.  0.
         13    1    3    3    0    0 -0.28961333710E+01 -0.10049421035E+02 -0.60836903939E+02  0.61729397345E+02  0.10566000000E+00 0.  1.
         22    1    1    0    0    0 -0.45289735521E+01  0.12631803095E+01  0.29832713019E+02  0.30200960117E+02  0.00000000000E+00 0.  1.
</event>
<event>
 5    1  0.9034713E-005  0.9118800E+02  0.7818608E-02  0.1130116E+00
         25   -1    0    0    0    0  0.00000000000E+00  0.00000000000E+00  0.99999998245E-14  0.12500000000E+03  0.12500000000E+03 0.  0.
        -13    1    3    3    0    0 -0.90442570640E+01  0.60877303467E+02 -0.91304372592E+01  0.62219134612E+02  0.10566000000E+00 0.  1.
         23    2    1    0    0    0 -0.84458567131E+00  0.78624385517E+01 -0.40803775326E+01  0.11610164365E+03  0.11576014389E+03 0.  0.
         13    1    3    3    0    0  0.81996713927E+01 -0.53014864915E+02  0.50500597266E+01  0.53882509038E+02  0.10566000000E+00 0. -1.
         22    1    1    0    0    0  0.84458567131E+00 -0.78624385517E+01  0.40803775326E+01  0.88983563507E+01  0.00000000000E+00 0.  1.
</event>
<event>
 5    1  0.9034713E-005  0.9118800E+02  0.7818608E-02  0.1130116E+00
         25   -1    0    0    0    0  0.00000000000E+00  0.00000000000E+00  0.99999998245E-14  0.12500000000E+03  0.12500000000E+03 0.  0.
        -13    1    3    3    0    0  0.37103159137E+02  0.38425860765E+02  0.24775805380E+02  0.58881600605E+02  0.10566000000E+00 0. -1.
         23    2    1    0    0    0  0.10415232188E+02  0.20239528316E+02  0.25016243464E+02  0.91177995254E+02  0.84672893027E+02 0.  0.
         13    1    3    3    0    0 -0.26687926949E+02 -0.18186332450E+02  0.24043808400E+00  0.32296394649E+02  0.10566000000E+00 0.  1.
         22    1    1    0    0    0 -0.10415232188E+02 -0.20239528316E+02 -0.25016243464E+02  0.33822004746E+02  0.00000000000E+00 0. -1.
</event>
<event>
 5    1  0.9034713E-005  0.9118800E+02  0.7818608E-02  0.1130116E+00
         25   -1    0    0    0    0  0.00000000000E+00  0.00000000000E+00  0.99999998245E-14  0.12500000000E+03  0.12500000000E+03 0.  0.
        -13    1    3    3    0    0  0.32540016842E+02  0.41663782871E+02  0.20440495628E+02  0.56679348309E+02  0.10566000000E+00 0. -1.
         23    2    1    0    0    0  0.90542026558E+01  0.11664682678E+02  0.25918536402E+02  0.95170250807E+02  0.90374568888E+02 0.  0.
         13    1    3    3    0    0 -0.23485814186E+02 -0.29999100193E+02  0.54780407740E+01  0.38490902498E+02  0.10566000000E+00 0.  1.
         22    1    1    0    0    0 -0.90542026558E+01 -0.11664682678E+02 -0.25918536402E+02  0.29829749193E+02  0.00000000000E+00 0. -1.
</event>
<event>
 5    1  0.9034713E-005  0.9118800E+02  0.7818608E-02  0.1130116E+00
         25   -1    0    0    0    0  0.00000000000E+00  0.00000000000E+00  0.99999998245E-14  0.12500000000E+03  0.12500000000E+03 0.  0.
        -13    1    3    3    0    0 -0.47439884774E+02 -0.18868880202E+02 -0.35318930550E+02  0.62080716223E+02  0.10566000000E+00 0. -1.
         23    2    1    0    0    0 -0.18517528705E+02 -0.97394615160E+01 -0.19987065062E+02  0.96064921812E+02  0.91603659604E+02 0.  0.
         13    1    3    3    0    0  0.28922356069E+02  0.91294186862E+01  0.15331865488E+02  0.33984205589E+02  0.10566000000E+00 0.  1.
         22    1    1    0    0    0  0.18517528705E+02  0.97394615160E+01  0.19987065062E+02  0.28935078188E+02  0.00000000000E+00 0. -1.
</event>
<event>
 5    1  0.9034713E-005  0.9118800E+02  0.7818608E-02  0.1130116E+00
         25   -1    0    0    0    0  0.00000000000E+00  0.00000000000E+00  0.99999998245E-14  0.12500000000E+03  0.12500000000E+03 0.  0.
        -13    1    3    3    0    0  0.17314899537E+02 -0.18938635807E+01 -0.34411667245E+02  0.38568983288E+02  0.10566000000E+00 0. -1.
         23    2    1    0    0    0 -0.27553966947E+02 -0.95216187670E+01  0.36096381466E+00  0.95845024209E+02  0.91303099905E+02 0.  0.
         13    1    3    3    0    0 -0.44868866484E+02 -0.76277551864E+01  0.34772631060E+02  0.57276040921E+02  0.10566000000E+00 0.  1.
         22    1    1    0    0    0  0.27553966947E+02  0.95216187670E+01 -0.36096381466E+00  0.29154975791E+02  0.00000000000E+00 0.  1.
</event>
<event>
 5    1  0.9034713E-005  0.9118800E+02  0.7818608E-02  0.1130116E+00
         25   -1    0    0    0    0  0.00000000000E+00  0.00000000000E+00  0.99999998245E-14  0.12500000000E+03  0.12500000000E+03 0.  0.
        -13    1    3    3    0    0  0.24271488183E+02 -0.23688540146E+02 -0.11043695543E+02  0.35668283504E+02  0.10566000000E+00 0.  1.
         23    2    1    0    0    0 -0.27989885653E+02 -0.44973598557E+01  0.96353280560E+01  0.95058398652E+02  0.90219729898E+02 0.  0.
         13    1    3    3    0    0 -0.52261373836E+02  0.19191180291E+02  0.20679023599E+02  0.59390115147E+02  0.10566000000E+00 0. -1.
         22    1    1    0    0    0  0.27989885653E+02  0.44973598557E+01 -0.96353280560E+01  0.29941601348E+02  0.00000000000E+00 0. -1.
</event>
<event>
 5    1  0.9034713E-005  0.9118800E+02  0.7818608E-02  0.1130116E+00
         25   -1    0    0    0    0  0.00000000000E+00  0.00000000000E+00  0.99999998245E-14  0.12500000000E+03  0.12500000000E+03 0.  0.
        -13    1    3    3    0    0 -0.27281084066E+02 -0.29866330496E+01  0.21947076031E+02  0.35140615179E+02  0.10566000000E+00 0.  1.
         23    2    1    0    0    0  0.29032818683E+02 -0.61780936316E+01  0.10277288551E+01  0.95299332866E+02  0.90552930469E+02 0.  0.
         13    1    3    3    0    0  0.56313902749E+02 -0.31914605820E+01 -0.20919347175E+02  0.60158717687E+02  0.10566000000E+00 0. -1.
         22    1    1    0    0    0 -0.29032818683E+02  0.61780936316E+01 -0.10277288551E+01  0.29700667134E+02  0.00000000000E+00 0. -1.
</event>
<event>
 5    1  0.9034713E-005  0.9118800E+02  0.7818608E-02  0.1130116E+00
         25   -1    0    0    0    0  0.00000000000E+00  0.00000000000E+00  0.99999998245E-14  0.12500000000E+03  0.12500000000E+03 0.  0.
        -13    1    3    3    0    0  0.28178106992E+02  0.23683195226E+02 -0.10817301292E+02  0.38365669824E+02  0.10566000000E+00 0.  1.
         23    2    1    0    0    0 -0.26666455471E+02  0.13479326219E+02 -0.71793082260E+01  0.94269973165E+02  0.89120667026E+02 0.  0.
         13    1    3    3    0    0 -0.54844562463E+02 -0.10203869007E+02  0.36379930659E+01  0.55904303341E+02  0.10566000000E+00 0. -1.
         22    1    1    0    0    0  0.26666455471E+02 -0.13479326219E+02  0.71793082260E+01  0.30730026835E+02  0.00000000000E+00 0. -1.
</event>
<event>
 5    1  0.9034713E-005  0.9118800E+02  0.7818608E-02  0.1130116E+00
         25   -1    0    0    0    0  0.00000000000E+00  0.00000000000E+00  0.99999998245E-14  0.12500000000E+03  0.12500000000E+03 0.  0.
        -13    1    3    3    0    0 -0.39575357475E+02 -0.88516688358E+01 -0.36255575765E+02  0.54397048620E+02  0.10566000000E+00 0.  1.
         23    2    1    0    0    0 -0.24147136439E+02  0.15277846012E+02 -0.65023569977E+01  0.95695095573E+02  0.91097606408E+02 0.  0.
         13    1    3    3    0    0  0.15428221036E+02  0.24129514848E+02  0.29753218767E+02  0.41298046953E+02  0.10566000000E+00 0. -1.
         22    1    1    0    0    0  0.24147136439E+02 -0.15277846012E+02  0.65023569977E+01  0.29304904427E+02  0.00000000000E+00 0.  1.
</event>
<event>
 5    1  0.9034713E-005  0.9118800E+02  0.7818608E-02  0.1130116E+00
         25   -1    0    0    0    0  0.00000000000E+00  0.00000000000E+00  0.99999998245E-14  0.12500000000E+03  0.12500000000E+03 0.  0.
        -13    1    3    3    0    0  0.14516339709E+02 -0.16481197869E+02 -0.84555818021E+01  0.23534273505E+02  0.10566000000E+00 0. -1.
         23    2    1    0    0    0 -0.22750502575E+02 -0.31250963682E+00  0.35148900291E+02  0.83129625971E+02  0.71815085412E+02 0.  0.
         13    1    3    3    0    0 -0.37266842283E+02  0.16168688232E+02  0.43604482093E+02  0.59595352466E+02  0.10566000000E+00 0.  1.
         22    1    1    0    0    0  0.22750502575E+02  0.31250963682E+00 -0.35148900291E+02  0.41870374029E+02  0.00000000000E+00 0.  1.
</event>
<event>
 5    1  0.9034713E-005  0.9118800E+02  0.7818608E-02  0.1130116E+00
         25   -1    0    0    0    0  0.00000000000E+00  0.00000000000E+00  0.99999998245E-14  0.12500000000E+03  0.12500000000E+03 0.  0.
        -13    1    3    3    0    0  0.16325976868E+02  0.55761105975E+02 -0.40781412217E+01  0.58245007169E+02  0.10566000000E+00 0.  1.
         23    2    1    0    0    0 -0.17591087622E-01  0.27887780450E+02  0.12357933472E+02  0.94496768572E+02  0.89438202928E+02 0.  0.
         13    1    3    3    0    0 -0.16343567956E+02 -0.27873325526E+02  0.16436074694E+02  0.36251761402E+02  0.10566000000E+00 0. -1.
         22    1    1    0    0    0  0.17591087622E-01 -0.27887780450E+02 -0.12357933472E+02  0.30503231428E+02  0.00000000000E+00 0.  1.
</event>
<event>
 5    1  0.9034713E-005  0.9118800E+02  0.7818608E-02  0.1130116E+00
         25   -1    0    0    0    0  0.00000000000E+00  0.00000000000E+00  0.99999998245E-14  0.12500000000E+03  0.12500000000E+03 0.  0.
        -13    1    3    3    0    0  0.22205536009E+02  0.36006297735E+02 -0.12888039435E+02  0.44222754669E+02  0.10566000000E+00 0.  1.
         23    2    1    0    0    0  0.29234448125E+02 -0.10800977190E+02 -0.12117642485E+02  0.91561230214E+02  0.85236773481E+02 0.  0.
         13    1    3    3    0    0  0.70289121159E+01 -0.46807274925E+02  0.77039694965E+00  0.47338475545E+02  0.10566000000E+00 0. -1.
         22    1    1    0    0    0 -0.29234448125E+02  0.10800977190E+02  0.12117642485E+02  0.33438769786E+02  0.00000000000E+00 0.  1.
</event>
<event>
 5    1  0.9034713E-005  0.9118800E+02  0.7818608E-02  0.1130116E+00
         25   -1    0    0    0    0  0.00000000000E+00  0.00000000000E+00  0.99999998245E-14  0.12500000000E+03  0.12500000000E+03 0.  0.
        -13    1    3    3    0    0  0.58339456905E+01 -0.31729738451E+02  0.35326277011E+02  0.47841072688E+02  0.10566000000E+00 0.  1.
         23    2    1    0    0    0  0.22189643516E+02  0.89800017824E+01  0.18163297343E+02  0.94951271545E+02  0.90071182329E+02 0.  0.
         13    1    3    3    0    0  0.16355697826E+02  0.40709740233E+02 -0.17162979667E+02  0.47110198857E+02  0.10566000000E+00 0. -1.
         22    1    1    0    0    0 -0.22189643516E+02 -0.89800017824E+01 -0.18163297343E+02  0.30048728455E+02  0.00000000000E+00 0. -1.
</event>
<event>
 5    1  0.9034713E-005  0.9118800E+02  0.7818608E-02  0.1130116E+00
         25   -1    0    0    0    0  0.00000000000E+00  0.00000000000E+00  0.99999998245E-14  0.12500000000E+03  0.12500000000E+03 0.  0.
        -13    1    3    3    0    0  0.66235177521E+01  0.41199378230E+02 -0.33361612352E+01  0.41861687613E+02  0.10566000000E+00 0. -1.
         23    2    1    0    0    0 -0.30253076437E+02  0.90773477070E+01 -0.11385841612E+02  0.91424945800E+02  0.85036677087E+02 0.  0.
         13    1    3    3    0    0 -0.36876594190E+02 -0.32122030523E+02 -0.80496803766E+01  0.49563258187E+02  0.10566000000E+00 0.  1.
         22    1    1    0    0    0  0.30253076437E+02 -0.90773477070E+01  0.11385841612E+02  0.33575054200E+02  0.00000000000E+00 0. -1.
</event>
<event>
 5    1  0.9034713E-005  0.9118800E+02  0.7818608E-02  0.1130116E+00
         25   -1    0    0    0    0  0.00000000000E+00  0.00000000000E+00  0.99999998245E-14  0.12500000000E+03  0.12500000000E+03 0.  0.
        -13    1    3    3    0    0  0.43758476998E+02  0.25020397997E+02  0.32229337771E+02  0.59829474361E+02  0.10566000000E+00 0. -1.
         23    2    1    0    0    0  0.23750543788E+02  0.12556794359E+02  0.21452546702E+01  0.98048867697E+02  0.94272036810E+02 0.  0.
         13    1    3    3    0    0 -0.20007933210E+02 -0.12463603638E+02 -0.30084083101E+02  0.38219393337E+02  0.10566000000E+00 0.  1.
         22    1    1    0    0    0 -0.23750543788E+02 -0.12556794359E+02 -0.21452546702E+01  0.26951132303E+02  0.00000000000E+00 0. -1.
</event>
<event>
 5    1  0.9034713E-005  0.9118800E+02  0.7818608E-02  0.1130116E+00
         25   -1    0    0    0    0  0.00000000000E+00  0.00000000000E+00  0.99999998245E-14  0.12500000000E+03  0.12500000000E+03 0.  0.
        -13    1    3    3    0    0  0.16259412005E+02  0.21231878611E+02 -0.43446274662E+02  0.51017164701E+02  0.10566000000E+00 0.  1.
         23    2    1    0    0    0 -0.17344935090E+02  0.72616716946E+00 -0.25180530027E+02  0.94415147794E+02  0.89324055822E+02 0.  0.
         13    1    3    3    0    0 -0.33604347095E+02 -0.20505711441E+02  0.18265744635E+02  0.43397983093E+02  0.10566000000E+00 0. -1.
         22    1    1    0    0    0  0.17344935090E+02 -0.72616716946E+00  0.25180530027E+02  0.30584852206E+02  0.00000000000E+00 0.  1.
</event>
<event>
 5    1  0.9034713E-005  0.9118800E+02  0.7818608E-02  0.1130116E+00
         25   -1    0    0    0    0  0.00000000000E+00  0.00000000000E+00  0.99999998245E-14  0.12500000000E+03  0.12500000000E+03 0.  0.
        -13    1    3    3    0    0 -0.33810629693E+02  0.13309586877E+01 -0.32990904944E+02  0.47258238481E+02  0.10566000000E+00 0.  1.
         23    2    1    0    0    0 -0.94626061976E+01 -0.27973171971E+02 -0.38598741771E+01  0.95218497439E+02  0.90441275752E+02 0.  0.
         13    1    3    3    0    0  0.24348023495E+02 -0.29304130658E+02  0.29131030766E+02  0.47960258958E+02  0.10566000000E+00 0. -1.
         22    1    1    0    0    0  0.94626061976E+01  0.27973171971E+02  0.38598741771E+01  0.29781502561E+02  0.00000000000E+00 0.  1.
</event>
<event>
 5    1  0.9034713E-005  0.9118800E+02  0.7818608E-02  0.1130116E+00
         25   -1    0    0    0    0  0.00000000000E+00  0.00000000000E+00  0.99999998245E-14  0.12500000000E+03  0.12500000000E+03 0.  0.
        -13    1    3    3    0    0  0.10838133718E+02  0.18194509872E+02  0.34000441729E+02  0.40056791357E+02  0.10566000000E+00 0.  1.
         23    2    1    0    0    0 -0.12792105937E+02  0.16200552238E+02 -0.18256490554E+02  0.97442871803E+02  0.93465062728E+02 0.  0.
         13    1    3    3    0    0 -0.23630239655E+02 -0.19939576350E+01 -0.52256932284E+02  0.57386080446E+02  0.10566000000E+00 0. -1.
         22    1    1    0    0    0  0.12792105937E+02 -0.16200552238E+02  0.18256490554E+02  0.27557128197E+02  0.00000000000E+00 0. -1.
</event>
<event>
 5    1  0.9034713E-005  0.9118800E+02  0.7818608E-02  0.1130116E+00
         25   -1    0    0    0    0  0.00000000000E+00  0.00000000000E+00  0.99999998245E-14  0.12500000000E+03  0.12500000000E+03 0.  0.
        -13    1    3    3    0    0  0.20776725030E+02  0.10535096031E+02  0.25232449166E+02  0.34341639540E+02  0.10566000000E+00 0.  1.
         23    2    1    0    0    0 -0.20736860728E+02  0.61470311000E+01 -0.19750526393E+02  0.95710297424E+02  0.91118463310E+02 0.  0.
         13    1    3    3    0    0 -0.41513585758E+02 -0.43880649311E+01 -0.44982975559E+02  0.61368657884E+02  0.10566000000E+00 0. -1.
         22    1    1    0    0    0  0.20736860728E+02 -0.61470311000E+01  0.19750526393E+02  0.29289702576E+02  0.00000000000E+00 0. -1.
</event>
<event>
 5    1  0.9034713E-005  0.9118800E+02  0.7818608E-02  0.1130116E+00
         25   -1    0    0    0    0  0.00000000000E+00  0.00000000000E+00  0.99999998245E-14  0.12500000000E+03  0.12500000000E+03 0.  0.
        -13    1    3    3    0    0  0.91497875244E+01  0.30354782349E+02 -0.30874872512E+02  0.44253817235E+02  0.10566000000E+00 0. -1.
         23    2    1    0    0    0 -0.11747263128E+02  0.21217200387E+02  0.15697361605E+02  0.96110989206E+02  0.91666500433E+02 0.  0.
         13    1    3    3    0    0 -0.20897050652E+02 -0.91375819621E+01  0.46572234118E+02  0.51857171971E+02  0.10566000000E+00 0.  1.
         22    1    1    0    0    0  0.11747263128E+02 -0.21217200387E+02 -0.15697361605E+02  0.28889010794E+02  0.00000000000E+00 0.  1.
</event>
<event>
 5    1  0.9034713E-005  0.9118800E+02  0.7818608E-02  0.1130116E+00
         25   -1    0    0    0    0  0.00000000000E+00  0.00000000000E+00  0.99999998245E-14  0.12500000000E+03  0.12500000000E+03 0.  0.
        -13    1    3    3    0    0 -0.38938768767E+02  0.77024799119E+01  0.78243777543E+01  0.40457236203E+02  0.10566000000E+00 0. -1.
         23    2    1    0    0    0  0.78961277056E+01  0.23379268904E+02 -0.16302617573E+02  0.95424429220E+02  0.90725450151E+02 0.  0.
         13    1    3    3    0    0  0.46834896473E+02  0.15676788992E+02 -0.24126995327E+02  0.54967193018E+02  0.10566000000E+00 0.  1.
         22    1    1    0    0    0 -0.78961277056E+01 -0.23379268904E+02  0.16302617573E+02  0.29575570780E+02  0.00000000000E+00 0.  1.
</event>
<event>
 5    1  0.9034713E-005  0.9118800E+02  0.7818608E-02  0.1130116E+00
         25   -1    0    0    0    0  0.00000000000E+00  0.00000000000E+00  0.99999998245E-14  0.12500000000E+03  0.12500000000E+03 0.  0.
        -13    1    3    3    0    0  0.29793815411E+02  0.64341499942E+01  0.38784184259E+02  0.49328428270E+02  0.10566000000E+00 0.  1.
         23    2    1    0    0    0  0.15909266669E+02 -0.22867152558E+02  0.40411766148E+01  0.96851420276E+02  0.92670680741E+02 0.  0.
         13    1    3    3    0    0 -0.13884548742E+02 -0.29301302552E+02 -0.34743007644E+02  0.47522992006E+02  0.10566000000E+00 0. -1.
         22    1    1    0    0    0 -0.15909266669E+02  0.22867152558E+02 -0.40411766148E+01  0.28148579724E+02  0.00000000000E+00 0.  1.
</event>
<event>
 5    1  0.9034713E-005  0.9118800E+02  0.7818608E-02  0.1130116E+00
         25   -1    0    0    0    0  0.00000000000E+00  0.00000000000E+00  0.99999998245E-14  0.12500000000E+03  0.12500000000E+03 0.  0.
        -13    1    3    3    0    0 -0.50269525268E+02 -0.37148870009E+01  0.79150285675E+01  0.51024351024E+02  0.10566000000E+00 0.  1.
         23    2    1    0    0    0 -0.86848392571E+01 -0.18198940634E+02  0.19908191942E+02  0.96663380944E+02  0.92416693492E+02 0.  0.
         13    1    3    3    0    0  0.41584686011E+02 -0.14484053633E+02  0.11993163374E+02  0.45639029920E+02  0.10566000000E+00 0. -1.
         22    1    1    0    0    0  0.86848392571E+01  0.18198940634E+02 -0.19908191942E+02  0.28336619056E+02  0.00000000000E+00 0. -1.
</event>
<event>
 5    1  0.9034713E-005  0.9118800E+02  0.7818608E-02  0.1130116E+00
         25   -1    0    0    0    0  0.00000000000E+00  0.00000000000E+00  0.99999998245E-14  0.12500000000E+03  0.12500000000E+03 0.  0.
        -13    1    3    3    0    0 -0.28907443363E+01  0.60418932720E+01 -0.36104693515E+02  0.36720851501E+02  0.10566000000E+00 0.  1.
         23    2    1    0    0    0 -0.10977507330E+02 -0.22661880180E+02  0.14854394842E+02  0.95764413353E+02  0.91192671516E+02 0.  0.
         13    1    3    3    0    0 -0.80867629938E+01 -0.28703773452E+02  0.50959088356E+02  0.59043561852E+02  0.10566000000E+00 0. -1.
         22    1    1    0    0    0  0.10977507330E+02  0.22661880180E+02 -0.14854394842E+02  0.29235586647E+02  0.00000000000E+00 0. -1.
</event>
<event>
 5    1  0.9034713E-005  0.9118800E+02  0.7818608E-02  0.1130116E+00
         25   -1    0    0    0    0  0.00000000000E+00  0.00000000000E+00  0.99999998245E-14  0.12500000000E+03  0.12500000000E+03 0.  0.
        -13    1    3    3    0    0  0.39548356087E+02 -0.23362435021E+02 -0.28923023668E+02  0.54281012347E+02  0.10566000000E+00 0.  1.
         23    2    1    0    0    0  0.27749554428E+02 -0.12310183718E+01  0.53118833127E+01  0.96719807612E+02  0.92492982993E+02 0.  0.
         13    1    3    3    0    0 -0.11798801659E+02  0.22131416649E+02  0.34234906981E+02  0.42438795265E+02  0.10566000000E+00 0. -1.
         22    1    1    0    0    0 -0.27749554428E+02  0.12310183718E+01 -0.53118833127E+01  0.28280192388E+02  0.00000000000E+00 0.  1.
</event>
<event>
 5    1  0.9034713E-005  0.9118800E+02  0.7818608E-02  0.1130116E+00
         25   -1    0    0    0    0  0.00000000000E+00  0.00000000000E+00  0.99999998245E-14  0.12500000000E+03  0.12500000000E+03 0.  0.
        -13    1    3    3    0    0  0.15814787824E+02  0.24356102324E+01 -0.32110514378E+02  0.35876677783E+02  0.10566000000E+00 0.  1.
         23    2    1    0    0    0 -0.28174982784E+02  0.56277128924E+01  0.76596917746E+01  0.95264975444E+02  0.90505490778E+02 0.  0.
         13    1    3    3    0    0 -0.43989770609E+02  0.31921026600E+01  0.39770206152E+02  0.59388297660E+02  0.10566000000E+00 0. -1.
         22    1    1    0    0    0  0.28174982784E+02 -0.56277128924E+01 -0.76596917746E+01  0.29735024556E+02  0.00000000000E+00 0. -1.
</event>
<event>
 5    1  0.9034713E-005  0.9118800E+02  0.7818608E-02  0.1130116E+00
         25   -1    0    0    0    0  0.00000000000E+00  0.00000000000E+00  0.99999998245E-14  0.12500000000E+03  0.12500000000E+03 0.  0.
        -13    1    3    3    0    0  0.83248237144E+01 -0.41025215444E+01 -0.38269987006E+02  0.39379391087E+02  0.10566000000E+00 0. -1.
         23    2    1    0    0    0  0.15168364952E+02  0.22275460266E+02  0.11165883250E+02  0.95828912017E+02  0.91281038579E+02 0.  0.
         13    1    3    3    0    0  0.68435412376E+01  0.26377981810E+02  0.49435870257E+02  0.56449520929E+02  0.10566000000E+00 0.  1.
         22    1    1    0    0    0 -0.15168364952E+02 -0.22275460266E+02 -0.11165883250E+02  0.29171087983E+02  0.00000000000E+00 0.  1.
</event>
<event>
 5    1  0.9034713E-005  0.9118800E+02  0.7818608E-02  0.1130116E+00
         25   -1    0    0    0    0  0.00000000000E+00  0.00000000000E+00  0.99999998245E-14  0.12500000000E+03  0.12500000000E+03 0.  0.
        -13    1    3    3    0    0 -0.37418443170E+02 -0.11077468373E+02 -0.22670429947E+02  0.45131028714E+02  0.10566000000E+00 0.  1.
         23    2    1    0    0    0  0.13137102738E+02 -0.20043317673E+02 -0.14125903923E+02  0.97181674865E+02  0.93115083183E+02 0.  0.
         13    1    3    3    0    0  0.50555545907E+02 -0.89658493004E+01  0.85445260242E+01  0.52050646150E+02  0.10566000000E+00 0. -1.
         22    1    1    0    0    0 -0.13137102738E+02  0.20043317673E+02  0.14125903923E+02  0.27818325135E+02  0.00000000000E+00 0.  1.
</event>
<event>
 5    1  0.9034713E-005  0.9118800E+02  0.7818608E-02  0.1130116E+00
         25   -1    0    0    0    0  0.00000000000E+00  0.00000000000E+00  0.99999998245E-14  0.12500000000E+03  0.12500000000E+03 0.  0.
        -13    1    3    3    0    0 -0.19273794054E+02 -0.58653597534E+02  0.68375758405E+01  0.62116722775E+02  0.10566000000E+00 0.  1.
         23    2    1    0    0    0 -0.11477907417E+02 -0.27380610211E+02 -0.10291795919E+01  0.95293108798E+02  0.90544338308E+02 0.  0.
         13    1    3    3    0    0  0.77958866364E+01  0.31272987322E+02 -0.78667554325E+01  0.33176386024E+02  0.10566000000E+00 0. -1.
         22    1    1    0    0    0  0.11477907417E+02  0.27380610211E+02  0.10291795919E+01  0.29706891202E+02  0.00000000000E+00 0.  1.
</event>
<event>
 5    1  0.9034713E-005  0.9118800E+02  0.7818608E-02  0.1130116E+00
         25   -1    0    0    0    0  0.00000000000E+00  0.00000000000E+00  0.99999998245E-14  0.12500000000E+03  0.12500000000E+03 0.  0.
        -13    1    3    3    0    0 -0.21077343647E+02 -0.15741691918E+02  0.52052978167E+02  0.58323057017E+02  0.10566000000E+00 0.  1.
         23    2    1    0    0    0 -0.23371727771E+02 -0.84553073878E+01  0.15405037164E+02  0.95758846602E+02  0.91185040716E+02 0.  0.
         13    1    3    3    0    0 -0.22943841240E+01  0.72863845303E+01 -0.36647941003E+02  0.37435789585E+02  0.10566000000E+00 0. -1.
         22    1    1    0    0    0  0.23371727771E+02  0.84553073878E+01 -0.15405037164E+02  0.29241153398E+02  0.00000000000E+00 0.  1.
</event>
<event>
 5    1  0.9034713E-005  0.9118800E+02  0.7818608E-02  0.1130116E+00
         25   -1    0    0    0    0  0.00000000000E+00  0.00000000000E+00  0.99999998245E-14  0.12500000000E+03  0.12500000000E+03 0.  0.
        -13    1    3    3    0    0 -0.25903826124E+02  0.37387275020E+02 -0.27004908446E+02  0.52897001668E+02  0.10566000000E+00 0. -1.
         23    2    1    0    0    0 -0.21215191025E+02 -0.54586855039E+01 -0.17320987200E+02  0.97073342928E+02  0.92969541958E+02 0.  0.
         13    1    3    3    0    0  0.46886350988E+01 -0.42845960524E+02  0.96839212463E+01  0.44176341259E+02  0.10566000000E+00 0.  1.
         22    1    1    0    0    0  0.21215191025E+02  0.54586855039E+01  0.17320987200E+02  0.27926657072E+02  0.00000000000E+00 0.  1.
</event>
<event>
 5    1  0.9034713E-005  0.9118800E+02  0.7818608E-02  0.1130116E+00
         25   -1    0    0    0    0  0.00000000000E+00  0.00000000000E+00  0.99999998245E-14  0.12500000000E+03  0.12500000000E+03 0.  0.
        -13    1    3    3    0    0  0.16944553912E+02 -0.23558924537E+02 -0.36163683149E+02  0.46367704015E+02  0.10566000000E+00 0. -1.
         23    2    1    0    0    0 -0.23892285679E+02 -0.12053870245E+02 -0.89047773599E+01  0.96796593066E+02  0.92596696844E+02 0.  0.
         13    1    3    3    0    0 -0.40836839591E+02  0.11505054291E+02  0.27258905789E+02  0.50428889051E+02  0.10566000000E+00 0.  1.
         22    1    1    0    0    0  0.23892285679E+02  0.12053870245E+02  0.89047773599E+01  0.28203406934E+02  0.00000000000E+00 0. -1.
</event>
<event>
 5    1  0.9034713E-005  0.9118800E+02  0.7818608E-02  0.1130116E+00
         25   -1    0    0    0    0  0.00000000000E+00  0.00000000000E+00  0.99999998245E-14  0.12500000000E+03  0.12500000000E+03 0.  0.
        -13    1    3    3    0    0 -0.31392878376E+02 -0.13700471950E+02  0.50711875083E+02  0.61195761151E+02  0.10566000000E+00 0. -1.
         23    2    1    0    0    0 -0.57650049521E+01 -0.69782205017E+01  0.26162900856E+02  0.97315559882E+02  0.93294640631E+02 0.  0.
         13    1    3    3    0    0  0.25627873424E+02  0.67222514488E+01 -0.24548974227E+02  0.36119798731E+02  0.10566000000E+00 0.  1.
         22    1    1    0    0    0  0.57650049521E+01  0.69782205017E+01 -0.26162900856E+02  0.27684440118E+02  0.00000000000E+00 0. -1.
</event>
<event>
 5    1  0.9034713E-005  0.9118800E+02  0.7818608E-02  0.1130116E+00
         25   -1    0    0    0    0  0.00000000000E+00  0.00000000000E+00  0.99999998245E-14  0.12500000000E+03  0.12500000000E+03 0.  0.
        -13    1    3    3    0    0  0.29422839674E+02  0.69481508470E+01 -0.17842575248E+02  0.35104828018E+02  0.10566000000E+00 0. -1.
         23    2    1    0    0    0 -0.62592358967E+01 -0.14632676262E+02  0.25302358038E+02  0.95108486641E+02  0.90289100450E+02 0.  0.
         13    1    3    3    0    0 -0.35682075570E+02 -0.21580827109E+02  0.43144933287E+02  0.60003658623E+02  0.10566000000E+00 0.  1.
         22    1    1    0    0    0  0.62592358967E+01  0.14632676262E+02 -0.25302358038E+02  0.29891513359E+02  0.00000000000E+00 0.  1.
</event>
