<event>
 5    1  0.1099741E-009  0.9118800E+02  0.7818608E-02  0.1130116E+00
         25   -1    0    0    0    0  0.00000000000E+00  0.00000000000E+00  0.99999998245E-14  0.12500000000E+03  0.12500000000E+03 0.  0.
        -11    1    3    3    0    0 -0.41888193296E+02 -0.79850699169E+01 -0.27201242830E+02  0.50579538263E+02  0.51100000000E-03 0.  1.
         23    2    1    0    0    0 -0.18432188164E+02 -0.20123726233E+02  0.97692936995E+01  0.96014675828E+02  0.91535069547E+02 0.  0.
         11    1    3    3    0    0  0.23456005132E+02 -0.12138656316E+02  0.36970536530E+02  0.45435137564E+02  0.51100000000E-03 0. -1.
         22    1    1    0    0    0  0.18432188164E+02  0.20123726233E+02 -0.97692936995E+01  0.28985324172E+02  0.00000000000E+00 0. -1.
</event>
<event>
 5    1  0.1099741E-009  0.9118800E+02  0.7818608E-02  0.1130116E+00
         25   -1    0    0    0    0  0.00000000000E+00  0.00000000000E+00  0.99999998245E-14  0.12500000000E+03  0.12500000000E+03 0.  0.
        -11    1    3    3    0    0 -0.38249371965E+02 -0.26182296869E+02  0.27835233650E+02  0.54067803336E+02  0.51100000000E-03 0.  1.
         23    2    1    0    0    0 -0.29229110630E+02 -0.23947535763E+01 -0.46260411626E+01  0.95310338335E+02  0.90568121234E+02 0.  0.
         11    1    3    3    0    0  0.90202613345E+01  0.23787543292E+02 -0.32461274812E+02  0.41242534999E+02  0.51100000000E-03 0. -1.
         22    1    1    0    0    0  0.29229110630E+02  0.23947535763E+01  0.46260411626E+01  0.29689661665E+02  0.00000000000E+00 0.  1.
</event>
<event>
 5    1  0.1099741E-009  0.9118800E+02  0.7818608E-02  0.1130116E+00
         25   -1    0    0    0    0  0.00000000000E+00  0.00000000000E+00  0.99999998245E-14  0.12500000000E+03  0.12500000000E+03 0.  0.
        -11    1    3    3    0    0 -0.15050311452E+02  0.64158434099E+01  0.31701733057E+02  0.35674567980E+02  0.51100000000E-03 0. -1.
         23    2    1    0    0    0  0.26123752621E+02 -0.43555126206E+01 -0.11326536800E+02  0.96195288978E+02  0.91781382886E+02 0.  0.
         11    1    3    3    0    0  0.41174064073E+02 -0.10771356031E+02 -0.43028269857E+02  0.60520720998E+02  0.51100000000E-03 0.  1.
         22    1    1    0    0    0 -0.26123752621E+02  0.43555126206E+01  0.11326536800E+02  0.28804711022E+02  0.00000000000E+00 0.  1.
</event>
<event>
 5    1  0.1099741E-009  0.9118800E+02  0.7818608E-02  0.1130116E+00
         25   -1    0    0    0    0  0.00000000000E+00  0.00000000000E+00  0.99999998245E-14  0.12500000000E+03  0.12500000000E+03 0.  0.
        -11    1    3    3    0    0 -0.59524042411E+01  0.34798070677E+02  0.27762981440E+01  0.35412493145E+02  0.51100000000E-03 0. -1.
         23    2    1    0    0    0 -0.92244278923E+01 -0.26180733518E+02  0.61370127882E+01  0.96571426286E+02  0.92292234622E+02 0.  0.
         11    1    3    3    0    0 -0.32720236512E+01 -0.60978804195E+02  0.33607146441E+01  0.61158933141E+02  0.51100000000E-03 0.  1.
         22    1    1    0    0    0  0.92244278923E+01  0.26180733518E+02 -0.61370127882E+01  0.28428573714E+02  0.00000000000E+00 0.  1.
</event>
<event>
 5    1  0.1099741E-009  0.9118800E+02  0.7818608E-02  0.1130116E+00
         25   -1    0    0    0    0  0.00000000000E+00  0.00000000000E+00  0.99999998245E-14  0.12500000000E+03  0.12500000000E+03 0.  0.
        -11    1    3    3    0    0 -0.16992188999E+02 -0.36268086017E+02  0.14908309281E+02  0.42736006320E+02  0.51100000000E-03 0.  1.
         23    2    1    0    0    0 -0.16134267526E+00  0.11434683288E+02  0.27801672765E+02  0.94938213262E+02  0.90053058335E+02 0.  0.
         11    1    3    3    0    0  0.16830846324E+02  0.47702769306E+02  0.12893363484E+02  0.52202206942E+02  0.51100000000E-03 0. -1.
         22    1    1    0    0    0  0.16134267526E+00 -0.11434683288E+02 -0.27801672765E+02  0.30061786738E+02  0.00000000000E+00 0. -1.
</event>
<event>
 5    1  0.1099741E-009  0.9118800E+02  0.7818608E-02  0.1130116E+00
         25   -1    0    0    0    0  0.00000000000E+00  0.00000000000E+00  0.99999998245E-14  0.12500000000E+03  0.12500000000E+03 0.  0.
        -11    1    3    3    0    0  0.53875802406E+02  0.13404363470E+02  0.28483130651E+02  0.62398459732E+02  0.51100000000E-03 0.  1.
         23    2    1    0    0    0  0.25272956793E+02  0.75700496044E+01  0.15981767296E+02  0.94154499810E+02  0.88958557500E+02 0.  0.
         11    1    3    3    0    0 -0.28602845613E+02 -0.58343138652E+01 -0.12501363355E+02  0.31756040078E+02  0.51100000000E-03 0. -1.
         22    1    1    0    0    0 -0.25272956793E+02 -0.75700496044E+01 -0.15981767296E+02  0.30845500190E+02  0.00000000000E+00 0.  1.
</event>
<event>
 4    1  0.1099741E-009  0.9118800E+02  0.7818608E-02  0.1130116E+00
         25   -1    0    0    0    0  0.00000000000E+00  0.00000000000E+00  0.99999998245E-14  0.12500000000E+03  0.12500000000E+03 0.  0.
        -11    1    1    0    0    0  0.12282435104E+02 -0.85530795182E+01  0.14359844123E+02  0.20741709303E+02  0.51100000000E-03 0. -1.
         11    1    1    0    0    0  0.18008716488E+02 -0.20885495287E+02 -0.44510872690E+02  0.52361584877E+02  0.51100000000E-03 0.  1.
         22    1    1    0    0    0 -0.30291151593E+02  0.29438574805E+02  0.30151028567E+02  0.51896705820E+02  0.00000000000E+00 0.  1.
</event>
<event>
 5    1  0.1099741E-009  0.9118800E+02  0.7818608E-02  0.1130116E+00
         25   -1    0    0    0    0  0.00000000000E+00  0.00000000000E+00  0.99999998245E-14  0.12500000000E+03  0.12500000000E+03 0.  0.
        -11    1    3    3    0    0  0.45863712978E+02 -0.30989795814E+02 -0.50453529028E+01  0.55581500510E+02  0.51100000000E-03 0.  1.
         23    2    1    0    0    0  0.82471002531E+01 -0.30395519766E+02 -0.27261440607E+00  0.93504339933E+02  0.88040246384E+02 0.  0.
         11    1    3    3    0    0 -0.37616612725E+02  0.59427604797E+00  0.47727384967E+01  0.37922839423E+02  0.51100000000E-03 0. -1.
         22    1    1    0    0    0 -0.82471002531E+01  0.30395519766E+02  0.27261440607E+00  0.31495660067E+02  0.00000000000E+00 0.  1.
</event>
<event>
 5    1  0.1099741E-009  0.9118800E+02  0.7818608E-02  0.1130116E+00
         25   -1    0    0    0    0  0.00000000000E+00  0.00000000000E+00  0.99999998245E-14  0.12500000000E+03  0.12500000000E+03 0.  0.
        -11    1    3    3    0    0  0.15860272485E+02 -0.42312363152E+02  0.14683852796E+02  0.47513154515E+02  0.51100000000E-03 0. -1.
         23    2    1    0    0    0  0.14557345576E+02  0.59590933546E+01  0.23619569999E+02  0.96621994595E+02  0.92360698616E+02 0.  0.
         11    1    3    3    0    0 -0.13029269091E+01  0.48271456507E+02  0.89357172028E+01  0.49108840080E+02  0.51100000000E-03 0.  1.
         22    1    1    0    0    0 -0.14557345576E+02 -0.59590933546E+01 -0.23619569999E+02  0.28378005405E+02  0.00000000000E+00 0.  1.
</event>
<event>
 5    1  0.1099741E-009  0.9118800E+02  0.7818608E-02  0.1130116E+00
         25   -1    0    0    0    0  0.00000000000E+00  0.00000000000E+00  0.99999998245E-14  0.12500000000E+03  0.12500000000E+03 0.  0.
        -11    1    3    3    0    0 -0.14139817584E+02 -0.21180957702E+02  0.22673375510E+02  0.34097644607E+02  0.51100000000E-03 0. -1.
         23    2    1    0    0    0  0.17968584261E+02  0.25279636606E+02  0.32735043633E+01  0.93812728910E+02  0.88477015249E+02 0.  0.
         11    1    3    3    0    0  0.32108401845E+02  0.46460594307E+02 -0.19399871147E+02  0.59715084302E+02  0.51100000000E-03 0.  1.
         22    1    1    0    0    0 -0.17968584261E+02 -0.25279636606E+02 -0.32735043633E+01  0.31187271090E+02  0.00000000000E+00 0.  1.
</event>
<event>
 5    1  0.1099741E-009  0.9118800E+02  0.7818608E-02  0.1130116E+00
         25   -1    0    0    0    0  0.00000000000E+00  0.00000000000E+00  0.99999998245E-14  0.12500000000E+03  0.12500000000E+03 0.  0.
        -11    1    3    3    0    0  0.11980040520E+02  0.88948016936E+01 -0.54754836757E+02  0.56751484708E+02  0.51100000000E-03 0. -1.
         23    2    1    0    0    0  0.16717624895E+02  0.17940356241E+02 -0.18878306694E+02  0.94052854286E+02  0.88815615584E+02 0.  0.
         11    1    3    3    0    0  0.47375843753E+01  0.90455545470E+01  0.35876530063E+02  0.37301369578E+02  0.51100000000E-03 0.  1.
         22    1    1    0    0    0 -0.16717624895E+02 -0.17940356241E+02  0.18878306694E+02  0.30947145714E+02  0.00000000000E+00 0. -1.
</event>
<event>
 5    1  0.1099741E-009  0.9118800E+02  0.7818608E-02  0.1130116E+00
         25   -1    0    0    0    0  0.00000000000E+00  0.00000000000E+00  0.99999998245E-14  0.12500000000E+03  0.12500000000E+03 0.  0.
        -11    1    3    3    0    0  0.14412539757E+02 -0.22616193302E+02 -0.21957205813E+02  0.34660242196E+02  0.51100000000E-03 0. -1.
         23    2    1    0    0    0 -0.20738869005E+02  0.98308771970E+01  0.17069145109E+02  0.96397507996E+02  0.92056379458E+02 0.  0.
         11    1    3    3    0    0 -0.35151408762E+02  0.32447070499E+02  0.39026350922E+02  0.61737265800E+02  0.51100000000E-03 0.  1.
         22    1    1    0    0    0  0.20738869005E+02 -0.98308771970E+01 -0.17069145109E+02  0.28602492004E+02  0.00000000000E+00 0.  1.
</event>
<event>
 5    1  0.1099741E-009  0.9118800E+02  0.7818608E-02  0.1130116E+00
         25   -1    0    0    0    0  0.00000000000E+00  0.00000000000E+00  0.99999998245E-14  0.12500000000E+03  0.12500000000E+03 0.  0.
        -11    1    3    3    0    0  0.23987407543E+02  0.84180197331E+01 -0.27167707925E+02  0.37206761899E+02  0.51100000000E-03 0. -1.
         23    2    1    0    0    0 -0.23011788020E+02 -0.18317077536E+02 -0.93744557809E+01  0.94130303880E+02  0.88924552122E+02 0.  0.
         11    1    3    3    0    0 -0.46999195563E+02 -0.26735097269E+02  0.17793252144E+02  0.56923541981E+02  0.51100000000E-03 0.  1.
         22    1    1    0    0    0  0.23011788020E+02  0.18317077536E+02  0.93744557809E+01  0.30869696120E+02  0.00000000000E+00 0.  1.
</event>
<event>
 5    1  0.1099741E-009  0.9118800E+02  0.7818608E-02  0.1130116E+00
         25   -1    0    0    0    0  0.00000000000E+00  0.00000000000E+00  0.99999998245E-14  0.12500000000E+03  0.12500000000E+03 0.  0.
        -11    1    3    3    0    0 -0.22853904713E+02  0.11775719067E+02  0.38808373519E+02  0.46551674251E+02  0.51100000000E-03 0. -1.
         23    2    1    0    0    0 -0.25224899983E+02 -0.11613519613E+02 -0.54815511728E+01  0.96694226381E+02  0.92458404676E+02 0.  0.
         11    1    3    3    0    0 -0.23709952700E+01 -0.23389238679E+02 -0.44289924692E+02  0.50142552129E+02  0.51100000000E-03 0.  1.
         22    1    1    0    0    0  0.25224899983E+02  0.11613519613E+02  0.54815511728E+01  0.28305773619E+02  0.00000000000E+00 0.  1.
</event>
<event>
 5    1  0.1099741E-009  0.9118800E+02  0.7818608E-02  0.1130116E+00
         25   -1    0    0    0    0  0.00000000000E+00  0.00000000000E+00  0.99999998245E-14  0.12500000000E+03  0.12500000000E+03 0.  0.
        -11    1    3    3    0    0 -0.38496913658E+02  0.23621942321E+02 -0.56925274159E+01  0.45523767297E+02  0.51100000000E-03 0.  1.
         23    2    1    0    0    0  0.64870758675E+01  0.16346560779E+02  0.20425435757E+02  0.98046509902E+02  0.94268910440E+02 0.  0.
         11    1    3    3    0    0  0.44983989526E+02 -0.72753815421E+01  0.26117963173E+02  0.52522742605E+02  0.51100000000E-03 0. -1.
         22    1    1    0    0    0 -0.64870758675E+01 -0.16346560779E+02 -0.20425435757E+02  0.26953490098E+02  0.00000000000E+00 0.  1.
</event>
<event>
 5    1  0.1099741E-009  0.9118800E+02  0.7818608E-02  0.1130116E+00
         25   -1    0    0    0    0  0.00000000000E+00  0.00000000000E+00  0.99999998245E-14  0.12500000000E+03  0.12500000000E+03 0.  0.
        -11    1    3    3    0    0  0.29560935890E+02  0.52203980888E+02  0.13175883011E+02  0.61422377393E+02  0.51100000000E-03 0. -1.
         23    2    1    0    0    0  0.72763082803E+01  0.24633432862E+02  0.11345922414E+02  0.96920102703E+02  0.92763277625E+02 0.  0.
         11    1    3    3    0    0 -0.22284627610E+02 -0.27570548026E+02 -0.18299605971E+01  0.35497725310E+02  0.51100000000E-03 0.  1.
         22    1    1    0    0    0 -0.72763082803E+01 -0.24633432862E+02 -0.11345922414E+02  0.28079897297E+02  0.00000000000E+00 0. -1.
</event>
<event>
 5    1  0.1099741E-009  0.9118800E+02  0.7818608E-02  0.1130116E+00
         25   -1    0    0    0    0  0.00000000000E+00  0.00000000000E+00  0.99999998245E-14  0.12500000000E+03  0.12500000000E+03 0.  0.
        -11    1    3    3    0    0  0.11122868528E+02  0.45741713207E+02 -0.38901941069E+02  0.61068678965E+02  0.51100000000E-03 0. -1.
         23    2    1    0    0    0  0.76309580247E+01  0.25779789267E+02 -0.10111803352E+02  0.96275835573E+02  0.91891016390E+02 0.  0.
         11    1    3    3    0    0 -0.34919105030E+01 -0.19961923940E+02  0.28790137717E+02  0.35207156608E+02  0.51100000000E-03 0.  1.
         22    1    1    0    0    0 -0.76309580247E+01 -0.25779789267E+02  0.10111803352E+02  0.28724164427E+02  0.00000000000E+00 0. -1.
</event>
<event>
 5    1  0.1099741E-009  0.9118800E+02  0.7818608E-02  0.1130116E+00
         25   -1    0    0    0    0  0.00000000000E+00  0.00000000000E+00  0.99999998245E-14  0.12500000000E+03  0.12500000000E+03 0.  0.
        -11    1    3    3    0    0 -0.17336684832E+01  0.39744201542E+02 -0.22470590149E+00  0.39782630074E+02  0.51100000000E-03 0.  1.
         23    2    1    0    0    0  0.66909565199E+01 -0.83336822874E+01  0.27204106239E+02  0.95771887576E+02  0.91202916039E+02 0.  0.
         11    1    3    3    0    0  0.84246250030E+01 -0.48077883829E+02  0.27428812141E+02  0.55989257502E+02  0.51100000000E-03 0. -1.
         22    1    1    0    0    0 -0.66909565199E+01  0.83336822874E+01 -0.27204106239E+02  0.29228112424E+02  0.00000000000E+00 0. -1.
</event>
<event>
 5    1  0.1099741E-009  0.9118800E+02  0.7818608E-02  0.1130116E+00
         25   -1    0    0    0    0  0.00000000000E+00  0.00000000000E+00  0.99999998245E-14  0.12500000000E+03  0.12500000000E+03 0.  0.
        -11    1    3    3    0    0  0.17467514119E+02  0.47350084561E+02  0.10741457656E+02  0.51599646028E+02  0.51100000000E-03 0.  1.
         23    2    1    0    0    0 -0.18469681399E+02  0.20783522907E+02  0.21156142631E+01  0.97115241096E+02  0.93025858093E+02 0.  0.
         11    1    3    3    0    0 -0.35937195519E+02 -0.26566561653E+02 -0.86258433925E+01  0.45515595067E+02  0.51100000000E-03 0. -1.
         22    1    1    0    0    0  0.18469681399E+02 -0.20783522907E+02 -0.21156142631E+01  0.27884758904E+02  0.00000000000E+00 0. -1.
</event>
<event>
 5    1  0.1099741E-009  0.9118800E+02  0.7818608E-02  0.1130116E+00
         25   -1    0    0    0    0  0.00000000000E+00  0.00000000000E+00  0.99999998245E-14  0.12500000000E+03  0.12500000000E+03 0.  0.
        -11    1    3    3    0    0  0.48193065408E+02  0.20090050672E+02 -0.55389099242E+01  0.52505820752E+02  0.51100000000E-03 0. -1.
         23    2    1    0    0    0  0.16399919106E+02  0.41205206494E+01 -0.26325487293E+02  0.93711546566E+02  0.88333949541E+02 0.  0.
         11    1    3    3    0    0 -0.31793146302E+02 -0.15969530023E+02 -0.20786577369E+02  0.41205725814E+02  0.51100000000E-03 0.  1.
         22    1    1    0    0    0 -0.16399919106E+02 -0.41205206494E+01  0.26325487293E+02  0.31288453434E+02  0.00000000000E+00 0. -1.
</event>
<event>
 5    1  0.1099741E-009  0.9118800E+02  0.7818608E-02  0.1130116E+00
         25   -1    0    0    0    0  0.00000000000E+00  0.00000000000E+00  0.99999998245E-14  0.12500000000E+03  0.12500000000E+03 0.  0.
        -11    1    3    3    0    0 -0.12727150259E+01 -0.24887759892E+02 -0.26646368710E+02  0.36483549193E+02  0.51100000000E-03 0. -1.
         23    2    1    0    0    0 -0.97015261450E+01  0.27853591181E+02 -0.16361341320E+01  0.95459873289E+02  0.90774271256E+02 0.  0.
         11    1    3    3    0    0 -0.84288111191E+01  0.52741351074E+02  0.25010234578E+02  0.58976324096E+02  0.51100000000E-03 0.  1.
         22    1    1    0    0    0  0.97015261450E+01 -0.27853591181E+02  0.16361341320E+01  0.29540126711E+02  0.00000000000E+00 0.  1.
</event>
<event>
 5    1  0.1099741E-009  0.9118800E+02  0.7818608E-02  0.1130116E+00
         25   -1    0    0    0    0  0.00000000000E+00  0.00000000000E+00  0.99999998245E-14  0.12500000000E+03  0.12500000000E+03 0.  0.
        -11    1    3    3    0    0 -0.68905735946E+01 -0.55212493846E+01  0.51909473346E+02  0.52655081640E+02  0.51100000000E-03 0.  1.
         23    2    1    0    0    0 -0.15938563517E+02 -0.21583070812E+02  0.14167153315E+02  0.94659021346E+02  0.89664682771E+02 0.  0.
         11    1    3    3    0    0 -0.90479899227E+01 -0.16061821427E+02 -0.37742320031E+02  0.42003939706E+02  0.51100000000E-03 0. -1.
         22    1    1    0    0    0  0.15938563517E+02  0.21583070812E+02 -0.14167153315E+02  0.30340978654E+02  0.00000000000E+00 0.  1.
</event>
<event>
 5    1  0.1099741E-009  0.9118800E+02  0.7818608E-02  0.1130116E+00
         25   -1    0    0    0    0  0.00000000000E+00  0.00000000000E+00  0.99999998245E-14  0.12500000000E+03  0.12500000000E+03 0.  0.
        -11    1    3    3    0    0  0.25143476669E+02 -0.44022356096E+02  0.36342757295E+02  0.62377546147E+02  0.51100000000E-03 0.  1.
         23    2    1    0    0    0  0.12864583926E+02 -0.22814822136E+02  0.15378050110E+02  0.94627346941E+02  0.89620515147E+02 0.  0.
         11    1    3    3    0    0 -0.12278892743E+02  0.21207533960E+02 -0.20964707185E+02  0.32249800794E+02  0.51100000000E-03 0. -1.
         22    1    1    0    0    0 -0.12864583926E+02  0.22814822136E+02 -0.15378050110E+02  0.30372653059E+02  0.00000000000E+00 0.  1.
</event>
<event>
 5    1  0.1099741E-009  0.9118800E+02  0.7818608E-02  0.1130116E+00
         25   -1    0    0    0    0  0.00000000000E+00  0.00000000000E+00  0.99999998245E-14  0.12500000000E+03  0.12500000000E+03 0.  0.
        -11    1    3    3    0    0  0.20378243196E+01  0.37476449130E+02 -0.10675419931E+02  0.39020527397E+02  0.51100000000E-03 0.  1.
         23    2    1    0    0    0  0.19441945245E+02  0.78860198986E+01 -0.37124638655E+02  0.82357095080E+02  0.70457602642E+02 0.  0.
         11    1    3    3    0    0  0.17404120925E+02 -0.29590429231E+02 -0.26449218724E+02  0.43336567684E+02  0.51100000000E-03 0. -1.
         22    1    1    0    0    0 -0.19441945245E+02 -0.78860198986E+01  0.37124638655E+02  0.42642904920E+02  0.00000000000E+00 0.  1.
</event>
<event>
 5    1  0.1099741E-009  0.9118800E+02  0.7818608E-02  0.1130116E+00
         25   -1    0    0    0    0  0.00000000000E+00  0.00000000000E+00  0.99999998245E-14  0.12500000000E+03  0.12500000000E+03 0.  0.
        -11    1    3    3    0    0 -0.84519609780E+00 -0.38740070396E+02  0.47011536885E+02  0.60922836534E+02  0.51100000000E-03 0.  1.
         23    2    1    0    0    0  0.47765922506E+01 -0.24831995037E+02  0.16838093491E+02  0.94619657615E+02  0.89609789665E+02 0.  0.
         11    1    3    3    0    0  0.56217883484E+01  0.13908075360E+02 -0.30173443394E+02  0.33696821081E+02  0.51100000000E-03 0. -1.
         22    1    1    0    0    0 -0.47765922506E+01  0.24831995037E+02 -0.16838093491E+02  0.30380342385E+02  0.00000000000E+00 0.  1.
</event>
<event>
 5    1  0.1099741E-009  0.9118800E+02  0.7818608E-02  0.1130116E+00
         25   -1    0    0    0    0  0.00000000000E+00  0.00000000000E+00  0.99999998245E-14  0.12500000000E+03  0.12500000000E+03 0.  0.
        -11    1    3    3    0    0  0.17138760750E+01 -0.32116221907E+02  0.43785042680E+02  0.54327884585E+02  0.51100000000E-03 0. -1.
         23    2    1    0    0    0 -0.19279843505E+02 -0.19696694797E+02  0.10697458208E+02  0.95434686479E+02  0.90739581328E+02 0.  0.
         11    1    3    3    0    0 -0.20993719580E+02  0.12419527109E+02 -0.33087584472E+02  0.41106801893E+02  0.51100000000E-03 0.  1.
         22    1    1    0    0    0  0.19279843505E+02  0.19696694797E+02 -0.10697458208E+02  0.29565313521E+02  0.00000000000E+00 0. -1.
</event>
<event>
 5    1  0.1099741E-009  0.9118800E+02  0.7818608E-02  0.1130116E+00
         25   -1    0    0    0    0  0.00000000000E+00  0.00000000000E+00  0.99999998245E-14  0.12500000000E+03  0.12500000000E+03 0.  0.
        -11    1    3    3    0    0  0.48165983800E+02 -0.24837345028E+02  0.20764944629E+02  0.58034805326E+02  0.51100000000E-03 0.  1.
         23    2    1    0    0    0  0.19735963108E+02 -0.21727175014E+02 -0.33664858963E+01  0.95454922556E+02  0.90767453633E+02 0.  0.
         11    1    3    3    0    0 -0.28430020692E+02  0.31101700144E+01 -0.24131430525E+02  0.37420117230E+02  0.51100000000E-03 0. -1.
         22    1    1    0    0    0 -0.19735963108E+02  0.21727175014E+02  0.33664858963E+01  0.29545077444E+02  0.00000000000E+00 0.  1.
</event>
<event>
 5    1  0.1099741E-009  0.9118800E+02  0.7818608E-02  0.1130116E+00
         25   -1    0    0    0    0  0.00000000000E+00  0.00000000000E+00  0.99999998245E-14  0.12500000000E+03  0.12500000000E+03 0.  0.
        -11    1    3    3    0    0 -0.97858787253E+01  0.29601066083E+02  0.43419493244E+02  0.53453147050E+02  0.51100000000E-03 0.  1.
         23    2    1    0    0    0 -0.25148436625E+02  0.96619299376E+01  0.80168786282E+01  0.96891867765E+02  0.92725222789E+02 0.  0.
         11    1    3    3    0    0 -0.15362557900E+02 -0.19939136145E+02 -0.35402614616E+02  0.43438720715E+02  0.51100000000E-03 0. -1.
         22    1    1    0    0    0  0.25148436625E+02 -0.96619299376E+01 -0.80168786282E+01  0.28108132235E+02  0.00000000000E+00 0.  1.
</event>
<event>
 5    1  0.1099741E-009  0.9118800E+02  0.7818608E-02  0.1130116E+00
         25   -1    0    0    0    0  0.00000000000E+00  0.00000000000E+00  0.99999998245E-14  0.12500000000E+03  0.12500000000E+03 0.  0.
        -11    1    3    3    0    0 -0.28235632562E+02  0.18781103060E+02  0.14852548428E+02  0.37021331329E+02  0.51100000000E-03 0.  1.
         23    2    1    0    0    0  0.27361430017E+02 -0.69737856315E+00  0.88384656705E+01  0.96237999637E+02  0.91839533477E+02 0.  0.
         11    1    3    3    0    0  0.55597062579E+02 -0.19478481623E+02 -0.60140827577E+01  0.59216668308E+02  0.51100000000E-03 0. -1.
         22    1    1    0    0    0 -0.27361430017E+02  0.69737856315E+00 -0.88384656705E+01  0.28762000363E+02  0.00000000000E+00 0. -1.
</event>
<event>
 5    1  0.1099741E-009  0.9118800E+02  0.7818608E-02  0.1130116E+00
         25   -1    0    0    0    0  0.00000000000E+00  0.00000000000E+00  0.99999998245E-14  0.12500000000E+03  0.12500000000E+03 0.  0.
        -11    1    3    3    0    0 -0.12991991003E+02 -0.42291591550E+02 -0.33811869773E+02  0.55683149011E+02  0.51100000000E-03 0.  1.
         23    2    1    0    0    0  0.11384446874E+02 -0.27445944001E+02 -0.78468157262E+01  0.94267964764E+02  0.89117850013E+02 0.  0.
         11    1    3    3    0    0  0.24376437877E+02  0.14845647549E+02  0.25965054046E+02  0.38584815752E+02  0.51100000000E-03 0. -1.
         22    1    1    0    0    0 -0.11384446874E+02  0.27445944001E+02  0.78468157262E+01  0.30732035236E+02  0.00000000000E+00 0.  1.
</event>
<event>
 5    1  0.1099741E-009  0.9118800E+02  0.7818608E-02  0.1130116E+00
         25   -1    0    0    0    0  0.00000000000E+00  0.00000000000E+00  0.99999998245E-14  0.12500000000E+03  0.12500000000E+03 0.  0.
        -11    1    3    3    0    0  0.34856220281E+02  0.19985706449E+02  0.21180968193E+02  0.45420457598E+02  0.51100000000E-03 0.  1.
         23    2    1    0    0    0 -0.11420260027E+02  0.27370228284E+02  0.54950553469E+01  0.94837981357E+02  0.89913821736E+02 0.  0.
         11    1    3    3    0    0 -0.46276480308E+02  0.73845218348E+01 -0.15685912846E+02  0.49417523759E+02  0.51100000000E-03 0. -1.
         22    1    1    0    0    0  0.11420260027E+02 -0.27370228284E+02 -0.54950553469E+01  0.30162018643E+02  0.00000000000E+00 0.  1.
</event>
<event>
 5    1  0.1099741E-009  0.9118800E+02  0.7818608E-02  0.1130116E+00
         25   -1    0    0    0    0  0.00000000000E+00  0.00000000000E+00  0.99999998245E-14  0.12500000000E+03  0.12500000000E+03 0.  0.
        -11    1    3    3    0    0  0.18391017343E+02  0.41172203018E+02  0.20790042079E+02  0.49654865524E+02  0.51100000000E-03 0. -1.
         23    2    1    0    0    0  0.25247827482E+02  0.55064109483E+01 -0.10022250335E+02  0.97283238720E+02  0.93251325352E+02 0.  0.
         11    1    3    3    0    0  0.68568101385E+01 -0.35665792070E+02 -0.30812292414E+02  0.47628373196E+02  0.51100000000E-03 0.  1.
         22    1    1    0    0    0 -0.25247827482E+02 -0.55064109483E+01  0.10022250335E+02  0.27716761280E+02  0.00000000000E+00 0. -1.
</event>
<event>
 5    1  0.1099741E-009  0.9118800E+02  0.7818608E-02  0.1130116E+00
         25   -1    0    0    0    0  0.00000000000E+00  0.00000000000E+00  0.99999998245E-14  0.12500000000E+03  0.12500000000E+03 0.  0.
        -11    1    3    3    0    0  0.45969072137E+02 -0.15986284715E+01 -0.28640632758E+02  0.54184841526E+02  0.51100000000E-03 0. -1.
         23    2    1    0    0    0  0.68758118697E+01 -0.15994285961E+02 -0.22893290636E+02  0.96238972056E+02  0.91840856997E+02 0.  0.
         11    1    3    3    0    0 -0.39093260268E+02 -0.14395657489E+02  0.57473421226E+01  0.42054130530E+02  0.51100000000E-03 0.  1.
         22    1    1    0    0    0 -0.68758118697E+01  0.15994285961E+02  0.22893290636E+02  0.28761027944E+02  0.00000000000E+00 0. -1.
</event>
<event>
 5    1  0.1099741E-009  0.9118800E+02  0.7818608E-02  0.1130116E+00
         25   -1    0    0    0    0  0.00000000000E+00  0.00000000000E+00  0.99999998245E-14  0.12500000000E+03  0.12500000000E+03 0.  0.
        -11    1    3    3    0    0  0.16438098757E+02  0.14023278783E+02 -0.27224598491E+02  0.34756901499E+02  0.51100000000E-03 0. -1.
         23    2    1    0    0    0 -0.23109532851E+02  0.79942686976E+01  0.17626082528E+02  0.94856383331E+02  0.89939400892E+02 0.  0.
         11    1    3    3    0    0 -0.39547631608E+02 -0.60290100858E+01  0.44850681019E+02  0.60099481832E+02  0.51100000000E-03 0.  1.
         22    1    1    0    0    0  0.23109532851E+02 -0.79942686976E+01 -0.17626082528E+02  0.30143616669E+02  0.00000000000E+00 0.  1.
</event>
<event>
 5    1  0.1099741E-009  0.9118800E+02  0.7818608E-02  0.1130116E+00
         25   -1    0    0    0    0  0.00000000000E+00  0.00000000000E+00  0.99999998245E-14  0.12500000000E+03  0.12500000000E+03 0.  0.
        -11    1    3    3    0    0 -0.20876163803E+02 -0.18294605042E+02  0.13325015395E+02  0.30790628839E+02  0.51100000000E-03 0.  1.
         23    2    1    0    0    0  0.25037703400E+02  0.16135426270E+02 -0.11169006453E+02  0.93188283957E+02  0.87590358997E+02 0.  0.
         11    1    3    3    0    0  0.45913867202E+02  0.34430031312E+02 -0.24494021849E+02  0.62397655118E+02  0.51100000000E-03 0. -1.
         22    1    1    0    0    0 -0.25037703400E+02 -0.16135426270E+02  0.11169006453E+02  0.31811716043E+02  0.00000000000E+00 0. -1.
</event>
<event>
 5    1  0.1099741E-009  0.9118800E+02  0.7818608E-02  0.1130116E+00
         25   -1    0    0    0    0  0.00000000000E+00  0.00000000000E+00  0.99999998245E-14  0.12500000000E+03  0.12500000000E+03 0.  0.
        -11    1    3    3    0    0  0.15546080823E+02 -0.43336578045E+02 -0.28025724330E+02  0.53899729592E+02  0.51100000000E-03 0. -1.
         23    2    1    0    0    0 -0.14246629866E+02 -0.15564105692E+02 -0.20999484088E+02  0.95231120604E+02  0.90458720702E+02 0.  0.
         11    1    3    3    0    0 -0.29792710689E+02  0.27772472353E+02  0.70262402425E+01  0.41331391013E+02  0.51100000000E-03 0.  1.
         22    1    1    0    0    0  0.14246629866E+02  0.15564105692E+02  0.20999484088E+02  0.29768879396E+02  0.00000000000E+00 0.  1.
</event>
<event>
 5    1  0.1099741E-009  0.9118800E+02  0.7818608E-02  0.1130116E+00
         25   -1    0    0    0    0  0.00000000000E+00  0.00000000000E+00  0.99999998245E-14  0.12500000000E+03  0.12500000000E+03 0.  0.
        -11    1    3    3    0    0  0.13638181231E+01  0.36786657187E+02  0.15844081785E+02  0.40076839630E+02  0.51100000000E-03 0. -1.
         23    2    1    0    0    0 -0.15865204589E+01  0.38605865365E+01 -0.28951172664E+02  0.95749503009E+02  0.91172231256E+02 0.  0.
         11    1    3    3    0    0 -0.29503385820E+01 -0.32926070651E+02 -0.44795254450E+02  0.55672663379E+02  0.51100000000E-03 0.  1.
         22    1    1    0    0    0  0.15865204589E+01 -0.38605865365E+01  0.28951172664E+02  0.29250496991E+02  0.00000000000E+00 0.  1.
</event>
<event>
 5    1  0.1099741E-009  0.9118800E+02  0.7818608E-02  0.1130116E+00
         25   -1    0    0    0    0  0.00000000000E+00  0.00000000000E+00  0.99999998245E-14  0.12500000000E+03  0.12500000000E+03 0.  0.
        -11    1    3    3    0    0  0.20685104105E+02 -0.14175198656E+02  0.34953465533E+02  0.43018072270E+02  0.51100000000E-03 0. -1.
         23    2    1    0    0    0  0.17581320479E+01 -0.24477803100E+02 -0.14171192815E+02  0.96661394200E+02  0.92414006243E+02 0.  0.
         11    1    3    3    0    0 -0.18926972057E+02 -0.10302604444E+02 -0.49124658348E+02  0.53643321930E+02  0.51100000000E-03 0.  1.
         22    1    1    0    0    0 -0.17581320479E+01  0.24477803100E+02  0.14171192815E+02  0.28338605800E+02  0.00000000000E+00 0.  1.
</event>
<event>
 5    1  0.1099741E-009  0.9118800E+02  0.7818608E-02  0.1130116E+00
         25   -1    0    0    0    0  0.00000000000E+00  0.00000000000E+00  0.99999998245E-14  0.12500000000E+03  0.12500000000E+03 0.  0.
        -11    1    3    3    0    0  0.32056668245E+02 -0.91157170347E+01  0.35776732868E+02  0.48894794109E+02  0.51100000000E-03 0.  1.
         23    2    1    0    0    0 -0.13860961575E+02 -0.94488497469E+01  0.22952358402E+02  0.96570828827E+02  0.92291425424E+02 0.  0.
         11    1    3    3    0    0 -0.45917629820E+02 -0.33313271221E+00 -0.12824374465E+02  0.47676034718E+02  0.51100000000E-03 0. -1.
         22    1    1    0    0    0  0.13860961575E+02  0.94488497469E+01 -0.22952358402E+02  0.28429171173E+02  0.00000000000E+00 0.  1.
</event>
<event>
 5    1  0.1099741E-009  0.9118800E+02  0.7818608E-02  0.1130116E+00
         25   -1    0    0    0    0  0.00000000000E+00  0.00000000000E+00  0.99999998245E-14  0.12500000000E+03  0.12500000000E+03 0.  0.
        -11    1    3    3    0    0  0.32643087240E+02  0.81781247723E+01 -0.16495797346E+02  0.37477515922E+02  0.51100000000E-03 0.  1.
         23    2    1    0    0    0 -0.21910889326E+02 -0.15043468527E+02 -0.69136096962E+01  0.97537461600E+02  0.93591481450E+02 0.  0.
         11    1    3    3    0    0 -0.54553976565E+02 -0.23221593299E+02  0.95821876501E+01  0.60059945678E+02  0.51100000000E-03 0. -1.
         22    1    1    0    0    0  0.21910889326E+02  0.15043468527E+02  0.69136096962E+01  0.27462538400E+02  0.00000000000E+00 0. -1.
</event>
<event>
 5    1  0.1099741E-009  0.9118800E+02  0.7818608E-02  0.1130116E+00
         25   -1    0    0    0    0  0.00000000000E+00  0.00000000000E+00  0.99999998245E-14  0.12500000000E+03  0.12500000000E+03 0.  0.
        -11    1    3    3    0    0 -0.26823459441E+02 -0.10298805479E+02  0.54802993004E+02  0.61878359813E+02  0.51100000000E-03 0.  1.
         23    2    1    0    0    0 -0.96694372472E+01 -0.14524307072E+00  0.28649404290E+02  0.94762482271E+02  0.89808800057E+02 0.  0.
         11    1    3    3    0    0  0.17154022194E+02  0.10153562408E+02 -0.26153588713E+02  0.32884122458E+02  0.51100000000E-03 0. -1.
         22    1    1    0    0    0  0.96694372472E+01  0.14524307072E+00 -0.28649404290E+02  0.30237517729E+02  0.00000000000E+00 0.  1.
</event>
<event>
 5    1  0.1099741E-009  0.9118800E+02  0.7818608E-02  0.1130116E+00
         25   -1    0    0    0    0  0.00000000000E+00  0.00000000000E+00  0.99999998245E-14  0.12500000000E+03  0.12500000000E+03 0.  0.
        -11    1    3    3    0    0  0.15770434055E+02 -0.21082186631E+02 -0.53725884636E+02  0.59830058195E+02  0.51100000000E-03 0.  1.
         23    2    1    0    0    0  0.18898678676E+02 -0.67533613805E+01 -0.19720253979E+02  0.96863611414E+02  0.92687123450E+02 0.  0.
         11    1    3    3    0    0  0.31282446214E+01  0.14328825250E+02  0.34005630656E+02  0.37033553220E+02  0.51100000000E-03 0. -1.
         22    1    1    0    0    0 -0.18898678676E+02  0.67533613805E+01  0.19720253979E+02  0.28136388586E+02  0.00000000000E+00 0.  1.
</event>
<event>
 5    1  0.1099741E-009  0.9118800E+02  0.7818608E-02  0.1130116E+00
         25   -1    0    0    0    0  0.00000000000E+00  0.00000000000E+00  0.99999998245E-14  0.12500000000E+03  0.12500000000E+03 0.  0.
        -11    1    3    3    0    0 -0.46196811146E+01 -0.27762661389E+01 -0.38351344129E+02  0.38728215864E+02  0.51100000000E-03 0.  1.
         23    2    1    0    0    0 -0.30749404992E+01  0.67442010410E+01  0.23001077191E+02  0.10083413443E+03  0.97895523941E+02 0.  0.
         11    1    3    3    0    0  0.15447406154E+01  0.95204671798E+01  0.61352421320E+02  0.62105918567E+02  0.51100000000E-03 0. -1.
         22    1    1    0    0    0  0.30749404992E+01 -0.67442010410E+01 -0.23001077191E+02  0.24165865569E+02  0.00000000000E+00 0. -1.
</event>
<event>
 5    1  0.1099741E-009  0.9118800E+02  0.7818608E-02  0.1130116E+00
         25   -1    0    0    0    0  0.00000000000E+00  0.00000000000E+00  0.99999998245E-14  0.12500000000E+03  0.12500000000E+03 0.  0.
        -11    1    3    3    0    0  0.11909936309E+02  0.51651739909E+02 -0.15077352325E+02  0.55109666773E+02  0.51100000000E-03 0. -1.
         23    2    1    0    0    0  0.24204850190E+02  0.16819219263E+02  0.12562804776E+01  0.95498489023E+02  0.90827431185E+02 0.  0.
         11    1    3    3    0    0  0.12294913881E+02 -0.34832520646E+02  0.16333632802E+02  0.40388822249E+02  0.51100000000E-03 0.  1.
         22    1    1    0    0    0 -0.24204850190E+02 -0.16819219263E+02 -0.12562804776E+01  0.29501510977E+02  0.00000000000E+00 0. -1.
</event>
<event>
 5    1  0.1099741E-009  0.9118800E+02  0.7818608E-02  0.1130116E+00
         25   -1    0    0    0    0  0.00000000000E+00  0.00000000000E+00  0.99999998245E-14  0.12500000000E+03  0.12500000000E+03 0.  0.
        -11    1    3    3    0    0  0.22820692580E+02 -0.75560763369E+01  0.36136926332E+02  0.43402255062E+02  0.51100000000E-03 0. -1.
         23    2    1    0    0    0  0.24889319907E+02  0.16952057467E+02 -0.79221290049E+01  0.93861428649E+02  0.88545791330E+02 0.  0.
         11    1    3    3    0    0  0.20686273270E+01  0.24508133804E+02 -0.44059055337E+02  0.50459173587E+02  0.51100000000E-03 0.  1.
         22    1    1    0    0    0 -0.24889319907E+02 -0.16952057467E+02  0.79221290049E+01  0.31138571351E+02  0.00000000000E+00 0.  1.
</event>
<event>
 5    1  0.1099741E-009  0.9118800E+02  0.7818608E-02  0.1130116E+00
         25   -1    0    0    0    0  0.00000000000E+00  0.00000000000E+00  0.99999998245E-14  0.12500000000E+03  0.12500000000E+03 0.  0.
        -11    1    3    3    0    0 -0.30582114559E+02  0.10472069244E+02 -0.26929493251E+02  0.42072884048E+02  0.51100000000E-03 0. -1.
         23    2    1    0    0    0 -0.11865782831E+02 -0.24590224264E+02  0.96030287394E+01  0.96057054530E+02  0.91592923484E+02 0.  0.
         11    1    3    3    0    0  0.18716331727E+02 -0.35062293507E+02  0.36532521990E+02  0.53984170481E+02  0.51100000000E-03 0.  1.
         22    1    1    0    0    0  0.11865782831E+02  0.24590224264E+02 -0.96030287394E+01  0.28942945470E+02  0.00000000000E+00 0.  1.
</event>
<event>
 5    1  0.1099741E-009  0.9118800E+02  0.7818608E-02  0.1130116E+00
         25   -1    0    0    0    0  0.00000000000E+00  0.00000000000E+00  0.99999998245E-14  0.12500000000E+03  0.12500000000E+03 0.  0.
        -11    1    3    3    0    0  0.45079819292E+02 -0.32085819799E+01 -0.30146714221E+02  0.54325955898E+02  0.51100000000E-03 0. -1.
         23    2    1    0    0    0  0.27407157997E+01 -0.26447360483E+01 -0.28020151939E+02  0.96722180661E+02  0.92496190004E+02 0.  0.
         11    1    3    3    0    0 -0.42339103492E+02  0.56384593164E+00  0.21265622815E+01  0.42396224763E+02  0.51100000000E-03 0.  1.
         22    1    1    0    0    0 -0.27407157997E+01  0.26447360483E+01  0.28020151939E+02  0.28277819339E+02  0.00000000000E+00 0. -1.
</event>
<event>
 5    1  0.1099741E-009  0.9118800E+02  0.7818608E-02  0.1130116E+00
         25   -1    0    0    0    0  0.00000000000E+00  0.00000000000E+00  0.99999998245E-14  0.12500000000E+03  0.12500000000E+03 0.  0.
        -11    1    3    3    0    0 -0.14782047806E+02 -0.38839146217E+02 -0.32175119202E+01  0.41681417915E+02  0.51100000000E-03 0.  1.
         23    2    1    0    0    0  0.22998402416E+02 -0.47347550535E+01  0.16540258002E+02  0.96278500146E+02  0.91894640956E+02 0.  0.
         11    1    3    3    0    0  0.37780450222E+02  0.34104391164E+02  0.19757769922E+02  0.54597082231E+02  0.51100000000E-03 0. -1.
         22    1    1    0    0    0 -0.22998402416E+02  0.47347550535E+01 -0.16540258002E+02  0.28721499854E+02  0.00000000000E+00 0. -1.
</event>
<event>
 5    1  0.1099741E-009  0.9118800E+02  0.7818608E-02  0.1130116E+00
         25   -1    0    0    0    0  0.00000000000E+00  0.00000000000E+00  0.99999998245E-14  0.12500000000E+03  0.12500000000E+03 0.  0.
        -11    1    3    3    0    0 -0.53199930775E+02  0.93153324481E+01  0.20158351086E+02  0.57648652819E+02  0.51100000000E-03 0.  1.
         23    2    1    0    0    0 -0.91613510017E+01  0.14441002390E+02  0.14941709331E+02  0.10229036372E+03  0.99737610410E+02 0.  0.
         11    1    3    3    0    0  0.44038579773E+02  0.51256699415E+01 -0.52166417547E+01  0.44641710902E+02  0.51100000000E-03 0. -1.
         22    1    1    0    0    0  0.91613510017E+01 -0.14441002390E+02 -0.14941709331E+02  0.22709636279E+02  0.00000000000E+00 0.  1.
</event>
<event>
 5    1  0.1099741E-009  0.9118800E+02  0.7818608E-02  0.1130116E+00
         25   -1    0    0    0    0  0.00000000000E+00  0.00000000000E+00  0.99999998245E-14  0.12500000000E+03  0.12500000000E+03 0.  0.
        -11    1    3    3    0    0  0.24925387012E+02 -0.38134053111E+02  0.30598989462E+02  0.54879678213E+02  0.51100000000E-03 0. -1.
         23    2    1    0    0    0  0.28337704210E+02 -0.64760582911E+01  0.55182658614E+01  0.95412569071E+02  0.90709107964E+02 0.  0.
         11    1    3    3    0    0  0.34123171983E+01  0.31657994820E+02 -0.25080723601E+02  0.40532890858E+02  0.51100000000E-03 0.  1.
         22    1    1    0    0    0 -0.28337704210E+02  0.64760582911E+01 -0.55182658614E+01  0.29587430929E+02  0.00000000000E+00 0. -1.
</event>
<event>
 5    1  0.1099741E-009  0.9118800E+02  0.7818608E-02  0.1130116E+00
         25   -1    0    0    0    0  0.00000000000E+00  0.00000000000E+00  0.99999998245E-14  0.12500000000E+03  0.12500000000E+03 0.  0.
        -11    1    3    3    0    0 -0.11385576138E+02  0.44799804501E+02  0.12805230083E+02  0.47964859482E+02  0.51100000000E-03 0.  1.
         23    2    1    0    0    0 -0.27234054025E+01  0.16440895303E+02 -0.24344665977E+02  0.95497750308E+02  0.90826414534E+02 0.  0.
         11    1    3    3    0    0  0.86621707359E+01 -0.28358909199E+02 -0.37149896060E+02  0.47532890827E+02  0.51100000000E-03 0. -1.
         22    1    1    0    0    0  0.27234054025E+01 -0.16440895303E+02  0.24344665977E+02  0.29502249692E+02  0.00000000000E+00 0. -1.
</event>
<event>
 5    1  0.1099741E-009  0.9118800E+02  0.7818608E-02  0.1130116E+00
         25   -1    0    0    0    0  0.00000000000E+00  0.00000000000E+00  0.99999998245E-14  0.12500000000E+03  0.12500000000E+03 0.  0.
        -11    1    3    3    0    0  0.31337764869E+01  0.55174364266E+02 -0.37190946443E+01  0.55388290211E+02  0.51100000000E-03 0.  1.
         23    2    1    0    0    0 -0.15436678654E+01  0.25377047747E+02  0.19092512257E+02  0.93205322976E+02  0.87614671967E+02 0.  0.
         11    1    3    3    0    0 -0.46774443523E+01 -0.29797316520E+02  0.22811606901E+02  0.37817032765E+02  0.51100000000E-03 0. -1.
         22    1    1    0    0    0  0.15436678654E+01 -0.25377047747E+02 -0.19092512257E+02  0.31794677024E+02  0.00000000000E+00 0.  1.
</event>
<event>
 5    1  0.1099741E-009  0.9118800E+02  0.7818608E-02  0.1130116E+00
         25   -1    0    0    0    0  0.00000000000E+00  0.00000000000E+00  0.99999998245E-14  0.12500000000E+03  0.12500000000E+03 0.  0.
        -11    1    3    3    0    0 -0.16245234325E+02 -0.18938864291E+02 -0.22040920980E+02  0.33292497906E+02  0.51100000000E-03 0.  1.
         23    2    1    0    0    0  0.16057040463E+02  0.73426763797E+01  0.23891668537E+02  0.95292168199E+02  0.90543039764E+02 0.  0.
         11    1    3    3    0    0  0.32302274788E+02  0.26281540671E+02  0.45932589517E+02  0.61999670293E+02  0.51100000000E-03 0. -1.
         22    1    1    0    0    0 -0.16057040463E+02 -0.73426763797E+01 -0.23891668537E+02  0.29707831801E+02  0.00000000000E+00 0. -1.
</event>
<event>
 5    1  0.1099741E-009  0.9118800E+02  0.7818608E-02  0.1130116E+00
         25   -1    0    0    0    0  0.00000000000E+00  0.00000000000E+00  0.99999998245E-14  0.12500000000E+03  0.12500000000E+03 0.  0.
        -11    1    3    3    0    0 -0.37359739711E+02 -0.22005657371E+02  0.65946677026E+01  0.43857596263E+02  0.51100000000E-03 0. -1.
         23    2    1    0    0    0 -0.57841683701E+01  0.13802492346E+02  0.25684053721E+02  0.95273984219E+02  0.90517932227E+02 0.  0.
         11    1    3    3    0    0  0.31575571341E+02  0.35808149717E+02  0.19089386018E+02  0.51416387956E+02  0.51100000000E-03 0.  1.
         22    1    1    0    0    0  0.57841683701E+01 -0.13802492346E+02 -0.25684053721E+02  0.29726015781E+02  0.00000000000E+00 0. -1.
</event>
<event>
 5    1  0.1099741E-009  0.9118800E+02  0.7818608E-02  0.1130116E+00
         25   -1    0    0    0    0  0.00000000000E+00  0.00000000000E+00  0.99999998245E-14  0.12500000000E+03  0.12500000000E+03 0.  0.
        -11    1    3    3    0    0  0.38027368787E+02  0.48883305517E+02  0.19328855782E+01  0.61962846788E+02  0.51100000000E-03 0.  1.
         23    2    1    0    0    0  0.21478053112E+02  0.18281855530E+02  0.24008887420E+00  0.96793783491E+02  0.92592904008E+02 0.  0.
         11    1    3    3    0    0 -0.16549315675E+02 -0.30601449987E+02 -0.16927967040E+01  0.34830936703E+02  0.51100000000E-03 0. -1.
         22    1    1    0    0    0 -0.21478053112E+02 -0.18281855530E+02 -0.24008887420E+00  0.28206216509E+02  0.00000000000E+00 0.  1.
</event>
<event>
 5    1  0.1099741E-009  0.9118800E+02  0.7818608E-02  0.1130116E+00
         25   -1    0    0    0    0  0.00000000000E+00  0.00000000000E+00  0.99999998245E-14  0.12500000000E+03  0.12500000000E+03 0.  0.
        -11    1    3    3    0    0 -0.13936891109E+02 -0.24270589184E+02  0.30559405246E+02  0.41438818545E+02  0.51100000000E-03 0.  1.
         23    2    1    0    0    0 -0.91693317149E+01 -0.18488994395E+02 -0.22177467825E+02  0.94705452026E+02  0.89729387641E+02 0.  0.
         11    1    3    3    0    0  0.47675593941E+01  0.57815947897E+01 -0.52736873071E+02  0.53266633481E+02  0.51100000000E-03 0. -1.
         22    1    1    0    0    0  0.91693317149E+01  0.18488994395E+02  0.22177467825E+02  0.30294547974E+02  0.00000000000E+00 0. -1.
</event>
<event>
 5    1  0.1099741E-009  0.9118800E+02  0.7818608E-02  0.1130116E+00
         25   -1    0    0    0    0  0.00000000000E+00  0.00000000000E+00  0.99999998245E-14  0.12500000000E+03  0.12500000000E+03 0.  0.
        -11    1    3    3    0    0 -0.11472627753E+02 -0.43283430984E+02  0.27609379951E+01  0.44863118084E+02  0.51100000000E-03 0. -1.
         23    2    1    0    0    0 -0.97133505583E+01  0.51338483996E+01 -0.22836063031E+02  0.99658505308E+02  0.96382707614E+02 0.  0.
         11    1    3    3    0    0  0.17592771945E+01  0.48417279384E+02 -0.25597001027E+02  0.54795387224E+02  0.51100000000E-03 0.  1.
         22    1    1    0    0    0  0.97133505583E+01 -0.51338483996E+01  0.22836063031E+02  0.25341494692E+02  0.00000000000E+00 0.  1.
</event>
<event>
 5    1  0.1099741E-009  0.9118800E+02  0.7818608E-02  0.1130116E+00
         25   -1    0    0    0    0  0.00000000000E+00  0.00000000000E+00  0.99999998245E-14  0.12500000000E+03  0.12500000000E+03 0.  0.
        -11    1    3    3    0    0 -0.10417031522E+02 -0.34566858351E+02 -0.43196960178E+02  0.56297065740E+02  0.51100000000E-03 0.  1.
         23    2    1    0    0    0 -0.18124285070E+02 -0.22685925478E+02 -0.70496023975E+01  0.95119608134E+02  0.90304496198E+02 0.  0.
         11    1    3    3    0    0 -0.77072535480E+01  0.11880932873E+02  0.36147357781E+02  0.38822542395E+02  0.51100000000E-03 0. -1.
         22    1    1    0    0    0  0.18124285070E+02  0.22685925478E+02  0.70496023975E+01  0.29880391866E+02  0.00000000000E+00 0. -1.
</event>
<event>
 5    1  0.1099741E-009  0.9118800E+02  0.7818608E-02  0.1130116E+00
         25   -1    0    0    0    0  0.00000000000E+00  0.00000000000E+00  0.99999998245E-14  0.12500000000E+03  0.12500000000E+03 0.  0.
        -11    1    3    3    0    0 -0.19311263850E+02  0.45371373778E+02 -0.78277953791E+01  0.49927556027E+02  0.51100000000E-03 0.  1.
         23    2    1    0    0    0  0.11814528780E+02  0.15996137831E+02 -0.22313389120E+02  0.95111091525E+02  0.90292706689E+02 0.  0.
         11    1    3    3    0    0  0.31125792630E+02 -0.29375235947E+02 -0.14485593741E+02  0.45183535498E+02  0.51100000000E-03 0. -1.
         22    1    1    0    0    0 -0.11814528780E+02 -0.15996137831E+02  0.22313389120E+02  0.29888908475E+02  0.00000000000E+00 0.  1.
</event>
<event>
 5    1  0.1099741E-009  0.9118800E+02  0.7818608E-02  0.1130116E+00
         25   -1    0    0    0    0  0.00000000000E+00  0.00000000000E+00  0.99999998245E-14  0.12500000000E+03  0.12500000000E+03 0.  0.
        -11    1    3    3    0    0  0.51941826151E+02 -0.17181125473E+02  0.19265980095E+02  0.58002778948E+02  0.51100000000E-03 0. -1.
         23    2    1    0    0    0  0.27540326494E+02  0.82332645519E+01  0.60974733316E+01  0.95615728534E+02  0.90988637387E+02 0.  0.
         11    1    3    3    0    0 -0.24401499658E+02  0.25414390025E+02 -0.13168506763E+02  0.37612949585E+02  0.51100000000E-03 0.  1.
         22    1    1    0    0    0 -0.27540326494E+02 -0.82332645519E+01 -0.60974733316E+01  0.29384271466E+02  0.00000000000E+00 0. -1.
</event>
<event>
 5    1  0.1099741E-009  0.9118800E+02  0.7818608E-02  0.1130116E+00
         25   -1    0    0    0    0  0.00000000000E+00  0.00000000000E+00  0.99999998245E-14  0.12500000000E+03  0.12500000000E+03 0.  0.
        -11    1    3    3    0    0  0.45194554739E+02 -0.40153569694E+02  0.10003120234E+02  0.61277396745E+02  0.51100000000E-03 0.  1.
         23    2    1    0    0    0  0.24228348646E+02 -0.13511833111E+02  0.10906519025E+02  0.95191701334E+02  0.90404232940E+02 0.  0.
         11    1    3    3    0    0 -0.20966206093E+02  0.26641736583E+02  0.90339879092E+00  0.33914304588E+02  0.51100000000E-03 0. -1.
         22    1    1    0    0    0 -0.24228348646E+02  0.13511833111E+02 -0.10906519025E+02  0.29808298666E+02  0.00000000000E+00 0.  1.
</event>
<event>
 5    1  0.1099741E-009  0.9118800E+02  0.7818608E-02  0.1130116E+00
         25   -1    0    0    0    0  0.00000000000E+00  0.00000000000E+00  0.99999998245E-14  0.12500000000E+03  0.12500000000E+03 0.  0.
        -11    1    3    3    0    0  0.40419731715E+02  0.20265461084E+02 -0.16772088162E+02  0.48225994717E+02  0.51100000000E-03 0. -1.
         23    2    1    0    0    0  0.23080222851E+02 -0.19913640024E+02 -0.11973412779E+02  0.92249238796E+02  0.86239838236E+02 0.  0.
         11    1    3    3    0    0 -0.17339508864E+02 -0.40179101109E+02  0.47986753826E+01  0.44023244079E+02  0.51100000000E-03 0.  1.
         22    1    1    0    0    0 -0.23080222851E+02  0.19913640024E+02  0.11973412779E+02  0.32750761204E+02  0.00000000000E+00 0.  1.
</event>
<event>
 5    1  0.1099741E-009  0.9118800E+02  0.7818608E-02  0.1130116E+00
         25   -1    0    0    0    0  0.00000000000E+00  0.00000000000E+00  0.99999998245E-14  0.12500000000E+03  0.12500000000E+03 0.  0.
        -11    1    3    3    0    0  0.15856826485E+02 -0.48652169943E+02 -0.60666906739E+01  0.51529383097E+02  0.51100000000E-03 0.  1.
         23    2    1    0    0    0  0.41309858687E+00 -0.17840281989E+02  0.22491372571E+02  0.96289232821E+02  0.91909238954E+02 0.  0.
         11    1    3    3    0    0 -0.15443727898E+02  0.30811887954E+02  0.28558063245E+02  0.44759849724E+02  0.51100000000E-03 0. -1.
         22    1    1    0    0    0 -0.41309858687E+00  0.17840281989E+02 -0.22491372571E+02  0.28710767179E+02  0.00000000000E+00 0.  1.
</event>
<event>
 5    1  0.1099741E-009  0.9118800E+02  0.7818608E-02  0.1130116E+00
         25   -1    0    0    0    0  0.00000000000E+00  0.00000000000E+00  0.99999998245E-14  0.12500000000E+03  0.12500000000E+03 0.  0.
        -11    1    3    3    0    0  0.47351848565E+02 -0.21084235233E+02  0.13056465466E+02  0.53452912255E+02  0.51100000000E-03 0.  1.
         23    2    1    0    0    0  0.39278274767E+01 -0.23291517816E+02  0.15073531664E+02  0.96979757537E+02  0.92843628668E+02 0.  0.
         11    1    3    3    0    0 -0.43424021088E+02 -0.22072825833E+01  0.20170661980E+01  0.43526845282E+02  0.51100000000E-03 0. -1.
         22    1    1    0    0    0 -0.39278274767E+01  0.23291517816E+02 -0.15073531664E+02  0.28020242463E+02  0.00000000000E+00 0.  1.
</event>
<event>
 5    1  0.1099741E-009  0.9118800E+02  0.7818608E-02  0.1130116E+00
         25   -1    0    0    0    0  0.00000000000E+00  0.00000000000E+00  0.99999998245E-14  0.12500000000E+03  0.12500000000E+03 0.  0.
        -11    1    3    3    0    0  0.14123298703E+02 -0.55464299709E+02  0.12228611412E+02  0.58526020246E+02  0.51100000000E-03 0. -1.
         23    2    1    0    0    0  0.47269882885E+01 -0.19834743449E+02  0.20278436383E+02  0.96242801804E+02  0.91846069328E+02 0.  0.
         11    1    3    3    0    0 -0.93963104145E+01  0.35629556261E+02  0.80498249714E+01  0.37716781558E+02  0.51100000000E-03 0.  1.
         22    1    1    0    0    0 -0.47269882885E+01  0.19834743449E+02 -0.20278436383E+02  0.28757198196E+02  0.00000000000E+00 0. -1.
</event>
<event>
 5    1  0.1099741E-009  0.9118800E+02  0.7818608E-02  0.1130116E+00
         25   -1    0    0    0    0  0.00000000000E+00  0.00000000000E+00  0.99999998245E-14  0.12500000000E+03  0.12500000000E+03 0.  0.
        -11    1    3    3    0    0  0.15440205162E+02  0.37545384175E+02  0.39114007043E+02  0.56373410004E+02  0.51100000000E-03 0.  1.
         23    2    1    0    0    0  0.83685855925E+01 -0.71178226601E+00  0.26388797804E+02  0.97306886987E+02  0.93283019606E+02 0.  0.
         11    1    3    3    0    0 -0.70716195695E+01 -0.38257166441E+02 -0.12725209239E+02  0.40933476983E+02  0.51100000000E-03 0. -1.
         22    1    1    0    0    0 -0.83685855925E+01  0.71178226601E+00 -0.26388797804E+02  0.27693113013E+02  0.00000000000E+00 0.  1.
</event>
<event>
 5    1  0.1099741E-009  0.9118800E+02  0.7818608E-02  0.1130116E+00
         25   -1    0    0    0    0  0.00000000000E+00  0.00000000000E+00  0.99999998245E-14  0.12500000000E+03  0.12500000000E+03 0.  0.
        -11    1    3    3    0    0 -0.25693782305E+02  0.29573188734E+02 -0.87804544595E+01  0.40147731216E+02  0.51100000000E-03 0.  1.
         23    2    1    0    0    0  0.25873580744E+01 -0.14798190760E+02 -0.25539285930E+02  0.95370015231E+02  0.90650448470E+02 0.  0.
         11    1    3    3    0    0  0.28281140379E+02 -0.44371379494E+02 -0.16758831470E+02  0.55222284015E+02  0.51100000000E-03 0. -1.
         22    1    1    0    0    0 -0.25873580744E+01  0.14798190760E+02  0.25539285930E+02  0.29629984769E+02  0.00000000000E+00 0. -1.
</event>
<event>
 5    1  0.1099741E-009  0.9118800E+02  0.7818608E-02  0.1130116E+00
         25   -1    0    0    0    0  0.00000000000E+00  0.00000000000E+00  0.99999998245E-14  0.12500000000E+03  0.12500000000E+03 0.  0.
        -11    1    3    3    0    0 -0.26359916337E+02  0.79373081477E+01  0.20980606547E+02  0.34612597436E+02  0.51100000000E-03 0.  1.
         23    2    1    0    0    0  0.75798723228E+01 -0.11596114177E+02 -0.25858193411E+02  0.95664518158E+02  0.91055639800E+02 0.  0.
         11    1    3    3    0    0  0.33939788660E+02 -0.19533422324E+02 -0.46838799958E+02  0.61051920721E+02  0.51100000000E-03 0. -1.
         22    1    1    0    0    0 -0.75798723228E+01  0.11596114177E+02  0.25858193411E+02  0.29335481842E+02  0.00000000000E+00 0. -1.
</event>
<event>
 5    1  0.1099741E-009  0.9118800E+02  0.7818608E-02  0.1130116E+00
         25   -1    0    0    0    0  0.00000000000E+00  0.00000000000E+00  0.99999998245E-14  0.12500000000E+03  0.12500000000E+03 0.  0.
        -11    1    3    3    0    0  0.27907828779E+02  0.74452136870E+01 -0.15915907336E+02  0.32978693434E+02  0.51100000000E-03 0.  1.
         23    2    1    0    0    0 -0.25934166128E+02 -0.54096622041E+01  0.13064687672E+02  0.95461356126E+02  0.90776313163E+02 0.  0.
         11    1    3    3    0    0 -0.53841994908E+02 -0.12854875891E+02  0.28980595008E+02  0.62482662692E+02  0.51100000000E-03 0. -1.
         22    1    1    0    0    0  0.25934166128E+02  0.54096622041E+01 -0.13064687672E+02  0.29538643874E+02  0.00000000000E+00 0. -1.
</event>
<event>
 5    1  0.1099741E-009  0.9118800E+02  0.7818608E-02  0.1130116E+00
         25   -1    0    0    0    0  0.00000000000E+00  0.00000000000E+00  0.99999998245E-14  0.12500000000E+03  0.12500000000E+03 0.  0.
        -11    1    3    3    0    0  0.26408452868E+02  0.94858246010E+01  0.19432533360E+02  0.34132251673E+02  0.51100000000E-03 0.  1.
         23    2    1    0    0    0 -0.11839015205E+02 -0.10593491982E+02 -0.24535572090E+02  0.95770243737E+02  0.91200663014E+02 0.  0.
         11    1    3    3    0    0 -0.38247468073E+02 -0.20079316583E+02 -0.43968105450E+02  0.61637992063E+02  0.51100000000E-03 0. -1.
         22    1    1    0    0    0  0.11839015205E+02  0.10593491982E+02  0.24535572090E+02  0.29229756263E+02  0.00000000000E+00 0. -1.
</event>
<event>
 5    1  0.1099741E-009  0.9118800E+02  0.7818608E-02  0.1130116E+00
         25   -1    0    0    0    0  0.00000000000E+00  0.00000000000E+00  0.99999998245E-14  0.12500000000E+03  0.12500000000E+03 0.  0.
        -11    1    3    3    0    0  0.58506281647E+01 -0.12454942230E+01  0.37113919986E+02  0.37592873829E+02  0.51100000000E-03 0. -1.
         23    2    1    0    0    0  0.10601682266E+02  0.20433930155E+02 -0.17198217927E+02  0.96264658201E+02  0.91875810474E+02 0.  0.
         11    1    3    3    0    0  0.47510541013E+01  0.21679424378E+02 -0.54312137913E+02  0.58671784372E+02  0.51100000000E-03 0.  1.
         22    1    1    0    0    0 -0.10601682266E+02 -0.20433930155E+02  0.17198217927E+02  0.28735341799E+02  0.00000000000E+00 0.  1.
</event>
<event>
 5    1  0.1099741E-009  0.9118800E+02  0.7818608E-02  0.1130116E+00
         25   -1    0    0    0    0  0.00000000000E+00  0.00000000000E+00  0.99999998245E-14  0.12500000000E+03  0.12500000000E+03 0.  0.
        -11    1    3    3    0    0  0.16946161743E+02  0.42396988075E+02  0.32898819305E+02  0.56276187749E+02  0.51100000000E-03 0. -1.
         23    2    1    0    0    0 -0.11361948119E+02  0.19128428896E+02  0.19878979334E+02  0.95164375716E+02  0.90366442494E+02 0.  0.
         11    1    3    3    0    0 -0.28308109861E+02 -0.23268559179E+02 -0.13019839972E+02  0.38888187967E+02  0.51100000000E-03 0.  1.
         22    1    1    0    0    0  0.11361948119E+02 -0.19128428896E+02 -0.19878979334E+02  0.29835624284E+02  0.00000000000E+00 0. -1.
</event>
<event>
 5    1  0.1099741E-009  0.9118800E+02  0.7818608E-02  0.1130116E+00
         25   -1    0    0    0    0  0.00000000000E+00  0.00000000000E+00  0.99999998245E-14  0.12500000000E+03  0.12500000000E+03 0.  0.
        -11    1    3    3    0    0  0.13362054227E+02  0.47816416637E+01  0.44184324869E+02  0.46407576478E+02  0.51100000000E-03 0.  1.
         23    2    1    0    0    0  0.12604197333E+01 -0.28333787374E+02  0.11797227075E+02  0.94282468661E+02  0.89138191396E+02 0.  0.
         11    1    3    3    0    0 -0.12101634493E+02 -0.33115429038E+02 -0.32387097794E+02  0.47874892183E+02  0.51100000000E-03 0. -1.
         22    1    1    0    0    0 -0.12604197333E+01  0.28333787374E+02 -0.11797227075E+02  0.30717531339E+02  0.00000000000E+00 0. -1.
</event>
<event>
 5    1  0.1099741E-009  0.9118800E+02  0.7818608E-02  0.1130116E+00
         25   -1    0    0    0    0  0.00000000000E+00  0.00000000000E+00  0.99999998245E-14  0.12500000000E+03  0.12500000000E+03 0.  0.
        -11    1    3    3    0    0  0.15492592722E+02  0.65888935008E+01  0.22978473362E+02  0.28485859389E+02  0.51100000000E-03 0.  1.
         23    2    1    0    0    0 -0.25723883739E+02 -0.82598647334E+00 -0.22861715638E+02  0.90575321495E+02  0.83778460082E+02 0.  0.
         11    1    3    3    0    0 -0.41216476460E+02 -0.74148799741E+01 -0.45840189000E+02  0.62089462106E+02  0.51100000000E-03 0. -1.
         22    1    1    0    0    0  0.25723883739E+02  0.82598647334E+00  0.22861715638E+02  0.34424678505E+02  0.00000000000E+00 0. -1.
</event>
<event>
 5    1  0.1099741E-009  0.9118800E+02  0.7818608E-02  0.1130116E+00
         25   -1    0    0    0    0  0.00000000000E+00  0.00000000000E+00  0.99999998245E-14  0.12500000000E+03  0.12500000000E+03 0.  0.
        -11    1    3    3    0    0 -0.12045879840E+02 -0.16207428630E+02 -0.37860780157E+02  0.42909470263E+02  0.51100000000E-03 0. -1.
         23    2    1    0    0    0 -0.24439740901E+02  0.18217761653E+02 -0.15182415145E+01  0.94479632502E+02  0.89414250125E+02 0.  0.
         11    1    3    3    0    0 -0.12393861061E+02  0.34425190283E+02  0.36342538643E+02  0.51570162238E+02  0.51100000000E-03 0.  1.
         22    1    1    0    0    0  0.24439740901E+02 -0.18217761653E+02  0.15182415145E+01  0.30520367498E+02  0.00000000000E+00 0. -1.
</event>
<event>
 5    1  0.1099741E-009  0.9118800E+02  0.7818608E-02  0.1130116E+00
         25   -1    0    0    0    0  0.00000000000E+00  0.00000000000E+00  0.99999998245E-14  0.12500000000E+03  0.12500000000E+03 0.  0.
        -11    1    3    3    0    0 -0.42980500862E+01 -0.13570044226E+02  0.36046554560E+02  0.38755301969E+02  0.51100000000E-03 0.  1.
         23    2    1    0    0    0 -0.38467174996E+00 -0.18869589402E+02 -0.21335733036E+02  0.96514514560E+02  0.92215121537E+02 0.  0.
         11    1    3    3    0    0  0.39133783362E+01 -0.52995451754E+01 -0.57382287596E+02  0.57759212591E+02  0.51100000000E-03 0. -1.
         22    1    1    0    0    0  0.38467174996E+00  0.18869589402E+02  0.21335733036E+02  0.28485485440E+02  0.00000000000E+00 0. -1.
</event>
<event>
 5    1  0.1099741E-009  0.9118800E+02  0.7818608E-02  0.1130116E+00
         25   -1    0    0    0    0  0.00000000000E+00  0.00000000000E+00  0.99999998245E-14  0.12500000000E+03  0.12500000000E+03 0.  0.
        -11    1    3    3    0    0 -0.24027404349E+02 -0.15797366234E+02 -0.20057870857E+02  0.35059822066E+02  0.51100000000E-03 0.  1.
         23    2    1    0    0    0  0.29646852464E+02  0.93947268904E+00 -0.15668778529E+02  0.91454074904E+02  0.85079484755E+02 0.  0.
         11    1    3    3    0    0  0.53674256813E+02  0.16736838923E+02  0.43890923281E+01  0.56394252839E+02  0.51100000000E-03 0. -1.
         22    1    1    0    0    0 -0.29646852464E+02 -0.93947268904E+00  0.15668778529E+02  0.33545925096E+02  0.00000000000E+00 0. -1.
</event>
<event>
 5    1  0.1099741E-009  0.9118800E+02  0.7818608E-02  0.1130116E+00
         25   -1    0    0    0    0  0.00000000000E+00  0.00000000000E+00  0.99999998245E-14  0.12500000000E+03  0.12500000000E+03 0.  0.
        -11    1    3    3    0    0 -0.71784099059E+01 -0.22564323486E+02 -0.48120621446E+02  0.53630891021E+02  0.51100000000E-03 0. -1.
         23    2    1    0    0    0  0.67981518160E+01  0.11065796484E+02 -0.25166805251E+02  0.96679780960E+02  0.92438872992E+02 0.  0.
         11    1    3    3    0    0  0.13976561722E+02  0.33630119970E+02  0.22953816195E+02  0.43048889939E+02  0.51100000000E-03 0.  1.
         22    1    1    0    0    0 -0.67981518160E+01 -0.11065796484E+02  0.25166805251E+02  0.28320219040E+02  0.00000000000E+00 0. -1.
</event>
<event>
 5    1  0.1099741E-009  0.9118800E+02  0.7818608E-02  0.1130116E+00
         25   -1    0    0    0    0  0.00000000000E+00  0.00000000000E+00  0.99999998245E-14  0.12500000000E+03  0.12500000000E+03 0.  0.
        -11    1    3    3    0    0  0.32261811052E+01 -0.11254006910E+02  0.35894696641E+02  0.37755663990E+02  0.51100000000E-03 0.  1.
         23    2    1    0    0    0 -0.23119925970E+02  0.12819510096E+02 -0.10728335057E+02  0.96469875762E+02  0.92154592618E+02 0.  0.
         11    1    3    3    0    0 -0.26346107075E+02  0.24073517006E+02 -0.46623031698E+02  0.58714211772E+02  0.51100000000E-03 0. -1.
         22    1    1    0    0    0  0.23119925970E+02 -0.12819510096E+02  0.10728335057E+02  0.28530124238E+02  0.00000000000E+00 0. -1.
</event>
<event>
 5    1  0.1099741E-009  0.9118800E+02  0.7818608E-02  0.1130116E+00
         25   -1    0    0    0    0  0.00000000000E+00  0.00000000000E+00  0.99999998245E-14  0.12500000000E+03  0.12500000000E+03 0.  0.
        -11    1    3    3    0    0  0.26273502601E+02 -0.31789406445E+02  0.12606695916E+02  0.43125306760E+02  0.51100000000E-03 0.  1.
         23    2    1    0    0    0 -0.21894525714E+02 -0.64996671883E+01  0.15158293166E+02  0.97588510046E+02  0.93659636512E+02 0.  0.
         11    1    3    3    0    0 -0.48168028314E+02  0.25289739256E+02  0.25515972508E+01  0.54463203286E+02  0.51100000000E-03 0. -1.
         22    1    1    0    0    0  0.21894525714E+02  0.64996671883E+01 -0.15158293166E+02  0.27411489954E+02  0.00000000000E+00 0. -1.
</event>
<event>
 5    1  0.1099741E-009  0.9118800E+02  0.7818608E-02  0.1130116E+00
         25   -1    0    0    0    0  0.00000000000E+00  0.00000000000E+00  0.99999998245E-14  0.12500000000E+03  0.12500000000E+03 0.  0.
        -11    1    3    3    0    0  0.24306361139E+02 -0.25215578685E+02 -0.34836540662E+01  0.35196028841E+02  0.51100000000E-03 0.  1.
         23    2    1    0    0    0  0.63920860540E+01  0.23464732623E+02 -0.23863426498E+02  0.90927788956E+02  0.84302711931E+02 0.  0.
         11    1    3    3    0    0 -0.17914275085E+02  0.48680311308E+02 -0.20379772432E+02  0.55731760115E+02  0.51100000000E-03 0. -1.
         22    1    1    0    0    0 -0.63920860540E+01 -0.23464732623E+02  0.23863426498E+02  0.34072211044E+02  0.00000000000E+00 0. -1.
</event>
<event>
 5    1  0.1099741E-009  0.9118800E+02  0.7818608E-02  0.1130116E+00
         25   -1    0    0    0    0  0.00000000000E+00  0.00000000000E+00  0.99999998245E-14  0.12500000000E+03  0.12500000000E+03 0.  0.
        -11    1    3    3    0    0 -0.84763989790E+00 -0.33764552658E+02 -0.83403134338E+01  0.34789715981E+02  0.51100000000E-03 0. -1.
         23    2    1    0    0    0 -0.79570432171E+01  0.25276130353E+02 -0.14869330195E+02  0.94614242105E+02  0.89602235052E+02 0.  0.
         11    1    3    3    0    0 -0.71094033192E+01  0.59040683011E+02 -0.65290167612E+01  0.59824526125E+02  0.51100000000E-03 0.  1.
         22    1    1    0    0    0  0.79570432171E+01 -0.25276130353E+02  0.14869330195E+02  0.30385757895E+02  0.00000000000E+00 0.  1.
</event>
<event>
 5    1  0.1099741E-009  0.9118800E+02  0.7818608E-02  0.1130116E+00
         25   -1    0    0    0    0  0.00000000000E+00  0.00000000000E+00  0.99999998245E-14  0.12500000000E+03  0.12500000000E+03 0.  0.
        -11    1    3    3    0    0  0.54825014855E+02 -0.93063832545E+01 -0.18483494380E+02  0.58600602283E+02  0.51100000000E-03 0.  1.
         23    2    1    0    0    0  0.19650937356E+02 -0.11622252815E+02 -0.21052737318E+02  0.93944342737E+02  0.88662763797E+02 0.  0.
         11    1    3    3    0    0 -0.35174077499E+02 -0.23158695602E+01 -0.25692429381E+01  0.35343740454E+02  0.51100000000E-03 0. -1.
         22    1    1    0    0    0 -0.19650937356E+02  0.11622252815E+02  0.21052737318E+02  0.31055657263E+02  0.00000000000E+00 0.  1.
</event>
<event>
 5    1  0.1099741E-009  0.9118800E+02  0.7818608E-02  0.1130116E+00
         25   -1    0    0    0    0  0.00000000000E+00  0.00000000000E+00  0.99999998245E-14  0.12500000000E+03  0.12500000000E+03 0.  0.
        -11    1    3    3    0    0  0.25002000448E+02  0.19314504350E+02  0.91495517747E+01  0.32891707201E+02  0.51100000000E-03 0.  1.
         23    2    1    0    0    0  0.27146525278E+02 -0.63153637460E+01 -0.32712970414E+02  0.82023772999E+02  0.69863747751E+02 0.  0.
         11    1    3    3    0    0  0.21445248304E+01 -0.25629868096E+02 -0.41862522189E+02  0.49132065798E+02  0.51100000000E-03 0. -1.
         22    1    1    0    0    0 -0.27146525278E+02  0.63153637460E+01  0.32712970414E+02  0.42976227001E+02  0.00000000000E+00 0. -1.
</event>
<event>
 5    1  0.1099741E-009  0.9118800E+02  0.7818608E-02  0.1130116E+00
         25   -1    0    0    0    0  0.00000000000E+00  0.00000000000E+00  0.99999998245E-14  0.12500000000E+03  0.12500000000E+03 0.  0.
        -11    1    3    3    0    0  0.58727608514E+01 -0.36750476774E+02 -0.24906602306E+02  0.44781979655E+02  0.51100000000E-03 0.  1.
         23    2    1    0    0    0  0.38397483904E+01  0.11829131027E+02 -0.28869786004E+02  0.93565360628E+02  0.88126841296E+02 0.  0.
         11    1    3    3    0    0 -0.20330124610E+01  0.48579607801E+02 -0.39631836974E+01  0.48783380972E+02  0.51100000000E-03 0. -1.
         22    1    1    0    0    0 -0.38397483904E+01 -0.11829131027E+02  0.28869786004E+02  0.31434639372E+02  0.00000000000E+00 0. -1.
</event>
<event>
 5    1  0.1099741E-009  0.9118800E+02  0.7818608E-02  0.1130116E+00
         25   -1    0    0    0    0  0.00000000000E+00  0.00000000000E+00  0.99999998245E-14  0.12500000000E+03  0.12500000000E+03 0.  0.
        -11    1    3    3    0    0  0.14184011553E+02 -0.14275541824E+02  0.16446390240E+02  0.25989633131E+02  0.51100000000E-03 0. -1.
         23    2    1    0    0    0 -0.21080296235E+02 -0.48140853984E+01 -0.31831200908E+02  0.86519100078E+02  0.77490483412E+02 0.  0.
         11    1    3    3    0    0 -0.35264307788E+02  0.94614564256E+01 -0.48277591148E+02  0.60529466946E+02  0.51100000000E-03 0.  1.
         22    1    1    0    0    0  0.21080296235E+02  0.48140853984E+01  0.31831200908E+02  0.38480899922E+02  0.00000000000E+00 0.  1.
</event>
<event>
 5    1  0.1099741E-009  0.9118800E+02  0.7818608E-02  0.1130116E+00
         25   -1    0    0    0    0  0.00000000000E+00  0.00000000000E+00  0.99999998245E-14  0.12500000000E+03  0.12500000000E+03 0.  0.
        -11    1    3    3    0    0  0.13457664767E+01  0.31686265320E+02  0.33071419396E+02  0.45820838910E+02  0.51100000000E-03 0. -1.
         23    2    1    0    0    0  0.27553715291E+02 -0.30350696324E+01  0.74959815979E+01  0.96284000729E+02  0.91902122839E+02 0.  0.
         11    1    3    3    0    0  0.26207948814E+02 -0.34721334952E+02 -0.25575437798E+02  0.50463161819E+02  0.51100000000E-03 0.  1.
         22    1    1    0    0    0 -0.27553715291E+02  0.30350696324E+01 -0.74959815979E+01  0.28715999271E+02  0.00000000000E+00 0. -1.
</event>
<event>
 5    1  0.1099741E-009  0.9118800E+02  0.7818608E-02  0.1130116E+00
         25   -1    0    0    0    0  0.00000000000E+00  0.00000000000E+00  0.99999998245E-14  0.12500000000E+03  0.12500000000E+03 0.  0.
        -11    1    3    3    0    0  0.28442462138E+02 -0.36425188395E+02  0.11068037825E+02  0.47521252757E+02  0.51100000000E-03 0. -1.
         23    2    1    0    0    0  0.16599779593E+02  0.10665060045E+02  0.20014645082E+02  0.96895156893E+02  0.92729656654E+02 0.  0.
         11    1    3    3    0    0 -0.11842682545E+02  0.47090248440E+02  0.89466072573E+01  0.49373904136E+02  0.51100000000E-03 0.  1.
         22    1    1    0    0    0 -0.16599779593E+02 -0.10665060045E+02 -0.20014645082E+02  0.28104843107E+02  0.00000000000E+00 0. -1.
</event>
<event>
 5    1  0.1099741E-009  0.9118800E+02  0.7818608E-02  0.1130116E+00
         25   -1    0    0    0    0  0.00000000000E+00  0.00000000000E+00  0.99999998245E-14  0.12500000000E+03  0.12500000000E+03 0.  0.
        -11    1    3    3    0    0 -0.58180792986E+02  0.22196182881E+02 -0.36569883083E+01  0.62378271624E+02  0.51100000000E-03 0.  1.
         23    2    1    0    0    0 -0.25521526226E+02  0.12272737715E+02 -0.26811756399E+00  0.96679684343E+02  0.92438742341E+02 0.  0.
         11    1    3    3    0    0  0.32659266761E+02 -0.99234451659E+01  0.33888707443E+01  0.34301412719E+02  0.51100000000E-03 0. -1.
         22    1    1    0    0    0  0.25521526226E+02 -0.12272737715E+02  0.26811756399E+00  0.28320315657E+02  0.00000000000E+00 0.  1.
</event>
<event>
 5    1  0.1099741E-009  0.9118800E+02  0.7818608E-02  0.1130116E+00
         25   -1    0    0    0    0  0.00000000000E+00  0.00000000000E+00  0.99999998245E-14  0.12500000000E+03  0.12500000000E+03 0.  0.
        -11    1    3    3    0    0 -0.56397088053E+01 -0.20679289894E+02  0.30667733609E+02  0.37415895432E+02  0.51100000000E-03 0.  1.
         23    2    1    0    0    0 -0.18278997383E+02  0.24223560513E+02 -0.23443435526E+01  0.94563203586E+02  0.89531005224E+02 0.  0.
         11    1    3    3    0    0 -0.12639288577E+02  0.44902850408E+02 -0.33012077162E+02  0.57147308154E+02  0.51100000000E-03 0. -1.
         22    1    1    0    0    0  0.18278997383E+02 -0.24223560513E+02  0.23443435526E+01  0.30436796414E+02  0.00000000000E+00 0. -1.
</event>
<event>
 5    1  0.1099741E-009  0.9118800E+02  0.7818608E-02  0.1130116E+00
         25   -1    0    0    0    0  0.00000000000E+00  0.00000000000E+00  0.99999998245E-14  0.12500000000E+03  0.12500000000E+03 0.  0.
        -11    1    3    3    0    0 -0.46580261681E+02  0.10991571744E+02  0.18798628995E+02  0.51419100342E+02  0.51100000000E-03 0. -1.
         23    2    1    0    0    0 -0.18958903021E+02 -0.17492897354E+02 -0.63996866840E+01  0.98421861403E+02  0.94765317236E+02 0.  0.
         11    1    3    3    0    0  0.27621358660E+02 -0.28484469098E+02 -0.25198315679E+02  0.47002761061E+02  0.51100000000E-03 0.  1.
         22    1    1    0    0    0  0.18958903021E+02  0.17492897354E+02  0.63996866840E+01  0.26578138597E+02  0.00000000000E+00 0. -1.
</event>
<event>
 5    1  0.1099741E-009  0.9118800E+02  0.7818608E-02  0.1130116E+00
         25   -1    0    0    0    0  0.00000000000E+00  0.00000000000E+00  0.99999998245E-14  0.12500000000E+03  0.12500000000E+03 0.  0.
        -11    1    3    3    0    0  0.16658369010E+02  0.38940515752E+02  0.57495850370E+01  0.42742516930E+02  0.51100000000E-03 0. -1.
         23    2    1    0    0    0 -0.10633739198E+02 -0.12773588159E+02 -0.12727190169E+02  0.10406623939E+03  0.10193900062E+03 0.  0.
         11    1    3    3    0    0 -0.27292108208E+02 -0.51714103911E+02 -0.18476775206E+02  0.61323722458E+02  0.51100000000E-03 0.  1.
         22    1    1    0    0    0  0.10633739198E+02  0.12773588159E+02  0.12727190169E+02  0.20933760613E+02  0.00000000000E+00 0.  1.
</event>
<event>
 5    1  0.1099741E-009  0.9118800E+02  0.7818608E-02  0.1130116E+00
         25   -1    0    0    0    0  0.00000000000E+00  0.00000000000E+00  0.99999998245E-14  0.12500000000E+03  0.12500000000E+03 0.  0.
        -11    1    3    3    0    0 -0.58474340916E+01 -0.60090327125E+02  0.49125588577E+01  0.60573700021E+02  0.51100000000E-03 0.  1.
         23    2    1    0    0    0 -0.89363993091E+01 -0.27472045317E+02 -0.67165967289E+01  0.95340512848E+02  0.90609757818E+02 0.  0.
         11    1    3    3    0    0 -0.30889652175E+01  0.32618281808E+02 -0.11629155587E+02  0.34766812827E+02  0.51100000000E-03 0. -1.
         22    1    1    0    0    0  0.89363993091E+01  0.27472045317E+02  0.67165967289E+01  0.29659487152E+02  0.00000000000E+00 0.  1.
</event>
<event>
 5    1  0.1099741E-009  0.9118800E+02  0.7818608E-02  0.1130116E+00
         25   -1    0    0    0    0  0.00000000000E+00  0.00000000000E+00  0.99999998245E-14  0.12500000000E+03  0.12500000000E+03 0.  0.
        -11    1    3    3    0    0  0.90212751807E+01  0.35014094696E+02  0.16259091584E+02  0.39645028600E+02  0.51100000000E-03 0.  1.
         23    2    1    0    0    0 -0.25197023757E+02 -0.98294707845E+01  0.17063372822E+01  0.97899813856E+02  0.94074191275E+02 0.  0.
         11    1    3    3    0    0 -0.34218298938E+02 -0.44843565481E+02 -0.14552754302E+02  0.58254785256E+02  0.51100000000E-03 0. -1.
         22    1    1    0    0    0  0.25197023757E+02  0.98294707845E+01 -0.17063372822E+01  0.27100186144E+02  0.00000000000E+00 0. -1.
</event>
<event>
 5    1  0.1099741E-009  0.9118800E+02  0.7818608E-02  0.1130116E+00
         25   -1    0    0    0    0  0.00000000000E+00  0.00000000000E+00  0.99999998245E-14  0.12500000000E+03  0.12500000000E+03 0.  0.
        -11    1    3    3    0    0  0.10256091649E+02  0.39538154110E+02  0.43782138712E+02  0.59877614489E+02  0.51100000000E-03 0. -1.
         23    2    1    0    0    0  0.16903591291E+02  0.14749376047E+02  0.18234165067E+02  0.96090481360E+02  0.91638530870E+02 0.  0.
         11    1    3    3    0    0  0.66474996423E+01 -0.24788778063E+02 -0.25547973646E+02  0.36212866871E+02  0.51100000000E-03 0.  1.
         22    1    1    0    0    0 -0.16903591291E+02 -0.14749376047E+02 -0.18234165067E+02  0.28909518640E+02  0.00000000000E+00 0. -1.
</event>
<event>
 5    1  0.1099741E-009  0.9118800E+02  0.7818608E-02  0.1130116E+00
         25   -1    0    0    0    0  0.00000000000E+00  0.00000000000E+00  0.99999998245E-14  0.12500000000E+03  0.12500000000E+03 0.  0.
        -11    1    3    3    0    0 -0.14724562577E+02  0.86304864801E+01  0.29931643694E+02  0.34455788112E+02  0.51100000000E-03 0. -1.
         23    2    1    0    0    0  0.39609007705E+01 -0.28411187822E+02 -0.12418579571E+02  0.93741314056E+02  0.88376063015E+02 0.  0.
         11    1    3    3    0    0  0.18685463348E+02 -0.37041674302E+02 -0.42350223265E+02  0.59285525944E+02  0.51100000000E-03 0.  1.
         22    1    1    0    0    0 -0.39609007705E+01  0.28411187822E+02  0.12418579571E+02  0.31258685944E+02  0.00000000000E+00 0.  1.
</event>
<event>
 5    1  0.1099741E-009  0.9118800E+02  0.7818608E-02  0.1130116E+00
         25   -1    0    0    0    0  0.00000000000E+00  0.00000000000E+00  0.99999998245E-14  0.12500000000E+03  0.12500000000E+03 0.  0.
        -11    1    3    3    0    0  0.40790784253E+02 -0.18544279475E+02  0.59140748133E+00  0.44812142822E+02  0.51100000000E-03 0. -1.
         23    2    1    0    0    0  0.74603604015E+01  0.75085642191E+01  0.27896276493E+02  0.95163147684E+02  0.90364743794E+02 0.  0.
         11    1    3    3    0    0 -0.33330423851E+02  0.26052843694E+02  0.27304869012E+02  0.50351004862E+02  0.51100000000E-03 0.  1.
         22    1    1    0    0    0 -0.74603604015E+01 -0.75085642191E+01 -0.27896276493E+02  0.29836852316E+02  0.00000000000E+00 0.  1.
</event>
<event>
 5    1  0.1099741E-009  0.9118800E+02  0.7818608E-02  0.1130116E+00
         25   -1    0    0    0    0  0.00000000000E+00  0.00000000000E+00  0.99999998245E-14  0.12500000000E+03  0.12500000000E+03 0.  0.
        -11    1    3    3    0    0 -0.26489578852E+01 -0.31914085186E+02  0.13720209380E+02  0.34839201438E+02  0.51100000000E-03 0.  1.
         23    2    1    0    0    0  0.16279191420E+02  0.13531310329E+02 -0.21079007250E+02  0.95126383226E+02  0.90313873832E+02 0.  0.
         11    1    3    3    0    0  0.18928149305E+02  0.45445395515E+02 -0.34799216630E+02  0.60287181788E+02  0.51100000000E-03 0. -1.
         22    1    1    0    0    0 -0.16279191420E+02 -0.13531310329E+02  0.21079007250E+02  0.29873616774E+02  0.00000000000E+00 0. -1.
</event>
<event>
 5    1  0.1099741E-009  0.9118800E+02  0.7818608E-02  0.1130116E+00
         25   -1    0    0    0    0  0.00000000000E+00  0.00000000000E+00  0.99999998245E-14  0.12500000000E+03  0.12500000000E+03 0.  0.
        -11    1    3    3    0    0 -0.23557774582E+02  0.25383228020E+02 -0.36389175418E+01  0.34821239626E+02  0.51100000000E-03 0.  1.
         23    2    1    0    0    0  0.26613057967E+02 -0.35765522128E+01  0.13103315434E+02  0.95121187181E+02  0.90306681897E+02 0.  0.
         11    1    3    3    0    0  0.50170832549E+02 -0.28959780233E+02  0.16742232976E+02  0.60299947555E+02  0.51100000000E-03 0. -1.
         22    1    1    0    0    0 -0.26613057967E+02  0.35765522128E+01 -0.13103315434E+02  0.29878812819E+02  0.00000000000E+00 0. -1.
</event>
<event>
 5    1  0.1099741E-009  0.9118800E+02  0.7818608E-02  0.1130116E+00
         25   -1    0    0    0    0  0.00000000000E+00  0.00000000000E+00  0.99999998245E-14  0.12500000000E+03  0.12500000000E+03 0.  0.
        -11    1    3    3    0    0 -0.29619894884E+02 -0.12226348903E+02  0.22238293775E+02  0.39004659859E+02  0.51100000000E-03 0.  1.
         23    2    1    0    0    0  0.15894056100E+01  0.30277868569E+02  0.72352324309E+01  0.93829114167E+02  0.88500161253E+02 0.  0.
         11    1    3    3    0    0  0.31209300494E+02  0.42504217472E+02 -0.15003061344E+02  0.54824454308E+02  0.51100000000E-03 0. -1.
         22    1    1    0    0    0 -0.15894056100E+01 -0.30277868569E+02 -0.72352324309E+01  0.31170885833E+02  0.00000000000E+00 0. -1.
</event>
<event>
 5    1  0.1099741E-009  0.9118800E+02  0.7818608E-02  0.1130116E+00
         25   -1    0    0    0    0  0.00000000000E+00  0.00000000000E+00  0.99999998245E-14  0.12500000000E+03  0.12500000000E+03 0.  0.
        -11    1    3    3    0    0  0.18977621140E+02  0.24621637736E+02  0.13796487934E+02  0.34010560544E+02  0.51100000000E-03 0.  1.
         23    2    1    0    0    0 -0.81474503276E+01 -0.23264006566E+02 -0.15021931773E+02  0.96133871362E+02  0.91697698120E+02 0.  0.
         11    1    3    3    0    0 -0.27125071468E+02 -0.47885644302E+02 -0.28818419707E+02  0.62123310818E+02  0.51100000000E-03 0. -1.
         22    1    1    0    0    0  0.81474503276E+01  0.23264006566E+02  0.15021931773E+02  0.28866128638E+02  0.00000000000E+00 0. -1.
</event>
<event>
 5    1  0.1099741E-009  0.9118800E+02  0.7818608E-02  0.1130116E+00
         25   -1    0    0    0    0  0.00000000000E+00  0.00000000000E+00  0.99999998245E-14  0.12500000000E+03  0.12500000000E+03 0.  0.
        -11    1    3    3    0    0  0.29273597507E+02  0.95407483221E+00 -0.41803604035E+02  0.51043070836E+02  0.51100000000E-03 0. -1.
         23    2    1    0    0    0  0.31722005633E+02 -0.41986921157E+01 -0.23586230260E+00  0.93000464256E+02  0.87321910560E+02 0.  0.
         11    1    3    3    0    0  0.24484081256E+01 -0.51527669479E+01  0.41567741732E+02  0.41957393420E+02  0.51100000000E-03 0.  1.
         22    1    1    0    0    0 -0.31722005633E+02  0.41986921157E+01  0.23586230260E+00  0.31999535744E+02  0.00000000000E+00 0.  1.
</event>
<event>
 5    1  0.1099741E-009  0.9118800E+02  0.7818608E-02  0.1130116E+00
         25   -1    0    0    0    0  0.00000000000E+00  0.00000000000E+00  0.99999998245E-14  0.12500000000E+03  0.12500000000E+03 0.  0.
        -11    1    3    3    0    0 -0.17012791864E+02 -0.45105464748E+02  0.12632158782E+02  0.49834821891E+02  0.51100000000E-03 0.  1.
         23    2    1    0    0    0 -0.27007942268E+02 -0.46705444312E+01 -0.81795025756E+01  0.96396727579E+02  0.92055319752E+02 0.  0.
         11    1    3    3    0    0 -0.99951504035E+01  0.40434920316E+02 -0.20811661358E+02  0.46561905688E+02  0.51100000000E-03 0. -1.
         22    1    1    0    0    0  0.27007942268E+02  0.46705444312E+01  0.81795025756E+01  0.28603272421E+02  0.00000000000E+00 0. -1.
</event>
<event>
 5    1  0.1099741E-009  0.9118800E+02  0.7818608E-02  0.1130116E+00
         25   -1    0    0    0    0  0.00000000000E+00  0.00000000000E+00  0.99999998245E-14  0.12500000000E+03  0.12500000000E+03 0.  0.
        -11    1    3    3    0    0  0.27509630164E+02 -0.27342056261E+02 -0.29188989608E+02  0.48542403184E+02  0.51100000000E-03 0. -1.
         23    2    1    0    0    0 -0.38583991615E+01  0.84266384052E+01 -0.27316656331E+02  0.96153939749E+02  0.91725050761E+02 0.  0.
         11    1    3    3    0    0 -0.31368029325E+02  0.35768694666E+02  0.18723332767E+01  0.47611536564E+02  0.51100000000E-03 0.  1.
         22    1    1    0    0    0  0.38583991615E+01 -0.84266384052E+01  0.27316656331E+02  0.28846060251E+02  0.00000000000E+00 0. -1.
</event>
<event>
 4    1  0.1099741E-009  0.9118800E+02  0.7818608E-02  0.1130116E+00
         25   -1    0    0    0    0  0.00000000000E+00  0.00000000000E+00  0.99999998245E-14  0.12500000000E+03  0.12500000000E+03 0.  0.
        -11    1    1    0    0    0  0.10683669232E+02 -0.23719536655E+02 -0.30960178742E+02  0.40438717529E+02  0.51100000000E-03 0. -1.
         11    1    1    0    0    0  0.26097594028E+02  0.18614453417E+02 -0.54953174148E+01  0.32523542301E+02  0.51100000000E-03 0.  1.
         22    1    1    0    0    0 -0.36781263260E+02  0.51050832372E+01  0.36455496157E+02  0.52037740169E+02  0.00000000000E+00 0. -1.
</event>
<event>
 5    1  0.1099741E-009  0.9118800E+02  0.7818608E-02  0.1130116E+00
         25   -1    0    0    0    0  0.00000000000E+00  0.00000000000E+00  0.99999998245E-14  0.12500000000E+03  0.12500000000E+03 0.  0.
        -11    1    3    3    0    0  0.23717736950E+02  0.31905465672E+02  0.23664027264E+02  0.46265278259E+02  0.51100000000E-03 0. -1.
         23    2    1    0    0    0 -0.18132760671E+02  0.10603072602E+02  0.23840718261E+02  0.93225765070E+02  0.87643831886E+02 0.  0.
         11    1    3    3    0    0 -0.41850497620E+02 -0.21302393070E+02  0.17669099710E+00  0.46960486811E+02  0.51100000000E-03 0.  1.
         22    1    1    0    0    0  0.18132760671E+02 -0.10603072602E+02 -0.23840718261E+02  0.31774234930E+02  0.00000000000E+00 0.  1.
</event>
<event>
 5    1  0.1099741E-009  0.9118800E+02  0.7818608E-02  0.1130116E+00
         25   -1    0    0    0    0  0.00000000000E+00  0.00000000000E+00  0.99999998245E-14  0.12500000000E+03  0.12500000000E+03 0.  0.
        -11    1    3    3    0    0  0.32769029807E+02 -0.25549521419E+02 -0.15422152474E+02  0.44321892406E+02  0.51100000000E-03 0. -1.
         23    2    1    0    0    0  0.98305889474E+01  0.20829850150E+02 -0.17449585904E+02  0.96103439918E+02  0.91656205353E+02 0.  0.
         11    1    3    3    0    0 -0.22938440860E+02  0.46379371569E+02 -0.20274334294E+01  0.51781547513E+02  0.51100000000E-03 0.  1.
         22    1    1    0    0    0 -0.98305889474E+01 -0.20829850150E+02  0.17449585904E+02  0.28896560082E+02  0.00000000000E+00 0.  1.
</event>
<event>
 5    1  0.1099741E-009  0.9118800E+02  0.7818608E-02  0.1130116E+00
         25   -1    0    0    0    0  0.00000000000E+00  0.00000000000E+00  0.99999998245E-14  0.12500000000E+03  0.12500000000E+03 0.  0.
        -11    1    3    3    0    0  0.88087302158E+01 -0.23620262242E+02 -0.24412188936E+02  0.35092242523E+02  0.51100000000E-03 0. -1.
         23    2    1    0    0    0  0.45627665797E+01  0.15823052516E+01  0.29685986775E+02  0.94923757888E+02  0.90032991020E+02 0.  0.
         11    1    3    3    0    0 -0.42459636361E+01  0.25202567493E+02  0.54098175711E+02  0.59831515365E+02  0.51100000000E-03 0.  1.
         22    1    1    0    0    0 -0.45627665797E+01 -0.15823052516E+01 -0.29685986775E+02  0.30076242112E+02  0.00000000000E+00 0.  1.
</event>
<event>
 5    1  0.1099741E-009  0.9118800E+02  0.7818608E-02  0.1130116E+00
         25   -1    0    0    0    0  0.00000000000E+00  0.00000000000E+00  0.99999998245E-14  0.12500000000E+03  0.12500000000E+03 0.  0.
        -11    1    3    3    0    0  0.63867604950E+01  0.35588385767E+02 -0.12803836875E+02  0.38357035210E+02  0.51100000000E-03 0. -1.
         23    2    1    0    0    0 -0.18351964979E+02 -0.15937028886E+02  0.83457175589E+01  0.99301079597E+02  0.95918037403E+02 0.  0.
         11    1    3    3    0    0 -0.24738725474E+02 -0.51525414653E+02  0.21149554434E+02  0.60944044387E+02  0.51100000000E-03 0.  1.
         22    1    1    0    0    0  0.18351964979E+02  0.15937028886E+02 -0.83457175589E+01  0.25698920403E+02  0.00000000000E+00 0.  1.
</event>
<event>
 5    1  0.1099741E-009  0.9118800E+02  0.7818608E-02  0.1130116E+00
         25   -1    0    0    0    0  0.00000000000E+00  0.00000000000E+00  0.99999998245E-14  0.12500000000E+03  0.12500000000E+03 0.  0.
        -11    1    3    3    0    0 -0.23920541519E+02 -0.69737711158E+01  0.32946361682E+02  0.41307245593E+02  0.51100000000E-03 0.  1.
         23    2    1    0    0    0  0.17877069716E+01  0.11250340939E+02 -0.19455716229E+02  0.10245469092E+03  0.99943347604E+02 0.  0.
         11    1    3    3    0    0  0.25708248490E+02  0.18224112055E+02 -0.52402077911E+02  0.61147445329E+02  0.51100000000E-03 0. -1.
         22    1    1    0    0    0 -0.17877069716E+01 -0.11250340939E+02  0.19455716229E+02  0.22545309079E+02  0.00000000000E+00 0. -1.
</event>
<event>
 5    1  0.1099741E-009  0.9118800E+02  0.7818608E-02  0.1130116E+00
         25   -1    0    0    0    0  0.00000000000E+00  0.00000000000E+00  0.99999998245E-14  0.12500000000E+03  0.12500000000E+03 0.  0.
        -11    1    3    3    0    0 -0.26057191400E+02  0.12591526780E+02 -0.23967481669E+02  0.37576108741E+02  0.51100000000E-03 0. -1.
         23    2    1    0    0    0  0.18120026809E+02 -0.11035670436E+02  0.13250165083E+02  0.99986238423E+02  0.96806815905E+02 0.  0.
         11    1    3    3    0    0  0.44177218209E+02 -0.23627197215E+02  0.37217646751E+02  0.62410129682E+02  0.51100000000E-03 0.  1.
         22    1    1    0    0    0 -0.18120026809E+02  0.11035670436E+02 -0.13250165083E+02  0.25013761577E+02  0.00000000000E+00 0.  1.
</event>
<event>
 5    1  0.1099741E-009  0.9118800E+02  0.7818608E-02  0.1130116E+00
         25   -1    0    0    0    0  0.00000000000E+00  0.00000000000E+00  0.99999998245E-14  0.12500000000E+03  0.12500000000E+03 0.  0.
        -11    1    3    3    0    0 -0.30340179145E+02  0.16196155840E+02 -0.40984665006E+02  0.53503127950E+02  0.51100000000E-03 0.  1.
         23    2    1    0    0    0 -0.16420235425E+02  0.25452990590E+02 -0.35475165195E+01  0.94503053680E+02  0.89446986645E+02 0.  0.
         11    1    3    3    0    0  0.13919943720E+02  0.92568347508E+01  0.37437148486E+02  0.40999925730E+02  0.51100000000E-03 0. -1.
         22    1    1    0    0    0  0.16420235425E+02 -0.25452990590E+02  0.35475165195E+01  0.30496946320E+02  0.00000000000E+00 0. -1.
</event>
<event>
 5    1  0.1099741E-009  0.9118800E+02  0.7818608E-02  0.1130116E+00
         25   -1    0    0    0    0  0.00000000000E+00  0.00000000000E+00  0.99999998245E-14  0.12500000000E+03  0.12500000000E+03 0.  0.
        -11    1    3    3    0    0 -0.33152180932E+02 -0.15123497343E+02 -0.27357126482E+02  0.45565333775E+02  0.51100000000E-03 0. -1.
         23    2    1    0    0    0 -0.42807203146E+02 -0.82611553443E+01  0.60266965415E+01  0.80988360630E+02  0.67985955591E+02 0.  0.
         11    1    3    3    0    0 -0.96550222142E+01  0.68623419990E+01  0.33383823023E+02  0.35423026855E+02  0.51100000000E-03 0.  1.
         22    1    1    0    0    0  0.42807203146E+02  0.82611553443E+01 -0.60266965415E+01  0.44011639370E+02  0.00000000000E+00 0. -1.
</event>
<event>
 5    1  0.1099741E-009  0.9118800E+02  0.7818608E-02  0.1130116E+00
         25   -1    0    0    0    0  0.00000000000E+00  0.00000000000E+00  0.99999998245E-14  0.12500000000E+03  0.12500000000E+03 0.  0.
        -11    1    3    3    0    0 -0.14655785478E+01  0.11567576191E+02  0.41641163135E+02  0.43242839950E+02  0.51100000000E-03 0.  1.
         23    2    1    0    0    0  0.10222538688E+02  0.27356035929E+02 -0.63633289917E+01  0.95111123226E+02  0.90292750575E+02 0.  0.
         11    1    3    3    0    0  0.11688117236E+02  0.15788459738E+02 -0.48004492127E+02  0.51868283276E+02  0.51100000000E-03 0. -1.
         22    1    1    0    0    0 -0.10222538688E+02 -0.27356035929E+02  0.63633289917E+01  0.29888876774E+02  0.00000000000E+00 0. -1.
</event>
<event>
 5    1  0.1099741E-009  0.9118800E+02  0.7818608E-02  0.1130116E+00
         25   -1    0    0    0    0  0.00000000000E+00  0.00000000000E+00  0.99999998245E-14  0.12500000000E+03  0.12500000000E+03 0.  0.
        -11    1    3    3    0    0  0.27851936185E+02 -0.45609250152E+00  0.37120460576E+02  0.46409772282E+02  0.51100000000E-03 0.  1.
         23    2    1    0    0    0  0.26185312111E+02  0.51432199911E+01 -0.11902971274E+02  0.95780075165E+02  0.91214137014E+02 0.  0.
         11    1    3    3    0    0 -0.16666240740E+01  0.55993124926E+01 -0.49023431850E+02  0.49370302883E+02  0.51100000000E-03 0. -1.
         22    1    1    0    0    0 -0.26185312111E+02 -0.51432199911E+01  0.11902971274E+02  0.29219924835E+02  0.00000000000E+00 0. -1.
</event>
<event>
 5    1  0.1099741E-009  0.9118800E+02  0.7818608E-02  0.1130116E+00
         25   -1    0    0    0    0  0.00000000000E+00  0.00000000000E+00  0.99999998245E-14  0.12500000000E+03  0.12500000000E+03 0.  0.
        -11    1    3    3    0    0 -0.24098982933E+02  0.60405696807E+00  0.79700368050E+01  0.25389906462E+02  0.51100000000E-03 0. -1.
         23    2    1    0    0    0  0.30855575048E+02  0.70254252255E+01 -0.20180164885E+02  0.87467851568E+02  0.79006094018E+02 0.  0.
         11    1    3    3    0    0  0.54954557981E+02  0.64213682574E+01 -0.28150201690E+02  0.62077945106E+02  0.51100000000E-03 0.  1.
         22    1    1    0    0    0 -0.30855575048E+02 -0.70254252255E+01  0.20180164885E+02  0.37532148432E+02  0.00000000000E+00 0.  1.
</event>
<event>
 5    1  0.1099741E-009  0.9118800E+02  0.7818608E-02  0.1130116E+00
         25   -1    0    0    0    0  0.00000000000E+00  0.00000000000E+00  0.99999998245E-14  0.12500000000E+03  0.12500000000E+03 0.  0.
        -11    1    3    3    0    0  0.20054425855E+02  0.42389381790E+02 -0.87965834487E+01  0.47711838841E+02  0.51100000000E-03 0. -1.
         23    2    1    0    0    0  0.22828009570E+01  0.14322698816E+02  0.25628813828E+02  0.95551961359E+02  0.90900991963E+02 0.  0.
         11    1    3    3    0    0 -0.17771624898E+02 -0.28066682975E+02  0.34425397276E+02  0.47840122519E+02  0.51100000000E-03 0.  1.
         22    1    1    0    0    0 -0.22828009570E+01 -0.14322698816E+02 -0.25628813828E+02  0.29448038641E+02  0.00000000000E+00 0.  1.
</event>
<event>
 5    1  0.1099741E-009  0.9118800E+02  0.7818608E-02  0.1130116E+00
         25   -1    0    0    0    0  0.00000000000E+00  0.00000000000E+00  0.99999998245E-14  0.12500000000E+03  0.12500000000E+03 0.  0.
        -11    1    3    3    0    0 -0.47434685585E+02 -0.37641169602E+01 -0.28293869437E+02  0.55360283788E+02  0.51100000000E-03 0.  1.
         23    2    1    0    0    0 -0.23458640152E+02  0.15632508472E+02 -0.60915670769E+00  0.96803294682E+02  0.92605743183E+02 0.  0.
         11    1    3    3    0    0  0.23976045434E+02  0.19396625432E+02  0.27684712730E+02  0.41443010894E+02  0.51100000000E-03 0. -1.
         22    1    1    0    0    0  0.23458640152E+02 -0.15632508472E+02  0.60915670769E+00  0.28196705318E+02  0.00000000000E+00 0.  1.
</event>
<event>
 5    1  0.1099741E-009  0.9118800E+02  0.7818608E-02  0.1130116E+00
         25   -1    0    0    0    0  0.00000000000E+00  0.00000000000E+00  0.99999998245E-14  0.12500000000E+03  0.12500000000E+03 0.  0.
        -11    1    3    3    0    0  0.19377138090E+02 -0.80705253731E+01  0.24109003734E+02  0.31966403015E+02  0.51100000000E-03 0. -1.
         23    2    1    0    0    0 -0.25636217514E+02  0.21348861998E+02 -0.16615875407E+01  0.91597149371E+02  0.85289432772E+02 0.  0.
         11    1    3    3    0    0 -0.45013355604E+02  0.29419387371E+02 -0.25770591275E+02  0.59630746356E+02  0.51100000000E-03 0.  1.
         22    1    1    0    0    0  0.25636217514E+02 -0.21348861998E+02  0.16615875407E+01  0.33402850629E+02  0.00000000000E+00 0.  1.
</event>
<event>
 5    1  0.1099741E-009  0.9118800E+02  0.7818608E-02  0.1130116E+00
         25   -1    0    0    0    0  0.00000000000E+00  0.00000000000E+00  0.99999998245E-14  0.12500000000E+03  0.12500000000E+03 0.  0.
        -11    1    3    3    0    0  0.12739225100E+02  0.42112790321E+02 -0.19529618137E+01  0.44040765489E+02  0.51100000000E-03 0. -1.
         23    2    1    0    0    0  0.58326182305E+01 -0.72592300374E+01 -0.24525827387E+02  0.98765822575E+02  0.95217937616E+02 0.  0.
         11    1    3    3    0    0 -0.69066068695E+01 -0.49372020358E+02 -0.22572865573E+02  0.54725057086E+02  0.51100000000E-03 0.  1.
         22    1    1    0    0    0 -0.58326182305E+01  0.72592300374E+01  0.24525827387E+02  0.26234177425E+02  0.00000000000E+00 0.  1.
</event>
<event>
 5    1  0.1099741E-009  0.9118800E+02  0.7818608E-02  0.1130116E+00
         25   -1    0    0    0    0  0.00000000000E+00  0.00000000000E+00  0.99999998245E-14  0.12500000000E+03  0.12500000000E+03 0.  0.
        -11    1    3    3    0    0  0.46034468115E+02 -0.34866601784E+02 -0.78733918558E+01  0.58282437098E+02  0.51100000000E-03 0. -1.
         23    2    1    0    0    0  0.25433263224E+02 -0.77237316360E+01 -0.16860579841E+02  0.93523245701E+02  0.88067084801E+02 0.  0.
         11    1    3    3    0    0 -0.20601204891E+02  0.27142870148E+02 -0.89871879857E+01  0.35240808603E+02  0.51100000000E-03 0.  1.
         22    1    1    0    0    0 -0.25433263224E+02  0.77237316360E+01  0.16860579841E+02  0.31476754299E+02  0.00000000000E+00 0.  1.
</event>
<event>
 5    1  0.1099741E-009  0.9118800E+02  0.7818608E-02  0.1130116E+00
         25   -1    0    0    0    0  0.00000000000E+00  0.00000000000E+00  0.99999998245E-14  0.12500000000E+03  0.12500000000E+03 0.  0.
        -11    1    3    3    0    0 -0.57106136546E+02  0.14951740003E+02  0.66139484460E+01  0.59400418136E+02  0.51100000000E-03 0.  1.
         23    2    1    0    0    0 -0.19738304617E+02 -0.58252750271E+01  0.96626227230E+01  0.10226454803E+03  0.99705250654E+02 0.  0.
         11    1    3    3    0    0  0.37367831929E+02 -0.20777015030E+02  0.30486742770E+01  0.42864129896E+02  0.51100000000E-03 0. -1.
         22    1    1    0    0    0  0.19738304617E+02  0.58252750271E+01 -0.96626227230E+01  0.22735451968E+02  0.00000000000E+00 0.  1.
</event>
<event>
 5    1  0.1099741E-009  0.9118800E+02  0.7818608E-02  0.1130116E+00
         25   -1    0    0    0    0  0.00000000000E+00  0.00000000000E+00  0.99999998245E-14  0.12500000000E+03  0.12500000000E+03 0.  0.
        -11    1    3    3    0    0  0.32189366300E+01  0.57631346936E+02  0.15232801667E+02  0.59697336201E+02  0.51100000000E-03 0.  1.
         23    2    1    0    0    0  0.13961069258E+02  0.25410331622E+02  0.27749843932E+01  0.95874462300E+02  0.91343393713E+02 0.  0.
         11    1    3    3    0    0  0.10742132628E+02 -0.32221015314E+02 -0.12457817274E+02  0.36177126098E+02  0.51100000000E-03 0. -1.
         22    1    1    0    0    0 -0.13961069258E+02 -0.25410331622E+02 -0.27749843932E+01  0.29125537700E+02  0.00000000000E+00 0.  1.
</event>
<event>
 5    1  0.1099741E-009  0.9118800E+02  0.7818608E-02  0.1130116E+00
         25   -1    0    0    0    0  0.00000000000E+00  0.00000000000E+00  0.99999998245E-14  0.12500000000E+03  0.12500000000E+03 0.  0.
        -11    1    3    3    0    0 -0.91840222738E+01 -0.19369011296E+02  0.51473368498E+02  0.55758519784E+02  0.51100000000E-03 0. -1.
         23    2    1    0    0    0 -0.23509625396E+02 -0.36567930277E+01  0.19102170003E+02  0.94488239639E+02  0.89426281985E+02 0.  0.
         11    1    3    3    0    0 -0.14325603123E+02  0.15712218269E+02 -0.32371198495E+02  0.38729719854E+02  0.51100000000E-03 0.  1.
         22    1    1    0    0    0  0.23509625396E+02  0.36567930277E+01 -0.19102170003E+02  0.30511760361E+02  0.00000000000E+00 0. -1.
</event>
<event>
 5    1  0.1099741E-009  0.9118800E+02  0.7818608E-02  0.1130116E+00
         25   -1    0    0    0    0  0.00000000000E+00  0.00000000000E+00  0.99999998245E-14  0.12500000000E+03  0.12500000000E+03 0.  0.
        -11    1    3    3    0    0  0.26541862225E+02 -0.10831969123E+02  0.19562298534E+02  0.34705698806E+02  0.51100000000E-03 0.  1.
         23    2    1    0    0    0 -0.20295608019E+02  0.15974593559E+02 -0.11226987869E+02  0.96837176973E+02  0.92651466493E+02 0.  0.
         11    1    3    3    0    0 -0.46837470244E+02  0.26806562682E+02 -0.30789286403E+02  0.62131478167E+02  0.51100000000E-03 0. -1.
         22    1    1    0    0    0  0.20295608019E+02 -0.15974593559E+02  0.11226987869E+02  0.28162823027E+02  0.00000000000E+00 0. -1.
</event>
<event>
 5    1  0.1099741E-009  0.9118800E+02  0.7818608E-02  0.1130116E+00
         25   -1    0    0    0    0  0.00000000000E+00  0.00000000000E+00  0.99999998245E-14  0.12500000000E+03  0.12500000000E+03 0.  0.
        -11    1    3    3    0    0 -0.39120201532E+02 -0.12886030396E+02 -0.96568752911E+01  0.42304789184E+02  0.51100000000E-03 0.  1.
         23    2    1    0    0    0  0.13457679773E+02  0.99202473610E+01  0.12887495161E+02  0.10389057120E+03  0.10172336409E+03 0.  0.
         11    1    3    3    0    0  0.52577881305E+02  0.22806277757E+02  0.22544370452E+02  0.61585782020E+02  0.51100000000E-03 0. -1.
         22    1    1    0    0    0 -0.13457679773E+02 -0.99202473610E+01 -0.12887495161E+02  0.21109428796E+02  0.00000000000E+00 0. -1.
</event>
<event>
 5    1  0.1099741E-009  0.9118800E+02  0.7818608E-02  0.1130116E+00
         25   -1    0    0    0    0  0.00000000000E+00  0.00000000000E+00  0.99999998245E-14  0.12500000000E+03  0.12500000000E+03 0.  0.
        -11    1    3    3    0    0 -0.33433842056E+02 -0.16953002091E+02  0.16191303166E+02  0.40833618171E+02  0.51100000000E-03 0. -1.
         23    2    1    0    0    0  0.19592873635E+02 -0.21719147191E+02  0.37351405489E+01  0.95511810383E+02  0.90845762673E+02 0.  0.
         11    1    3    3    0    0  0.53026715691E+02 -0.47661450999E+01 -0.12456162617E+02  0.54678192211E+02  0.51100000000E-03 0.  1.
         22    1    1    0    0    0 -0.19592873635E+02  0.21719147191E+02 -0.37351405489E+01  0.29488189617E+02  0.00000000000E+00 0.  1.
</event>
<event>
 5    1  0.1099741E-009  0.9118800E+02  0.7818608E-02  0.1130116E+00
         25   -1    0    0    0    0  0.00000000000E+00  0.00000000000E+00  0.99999998245E-14  0.12500000000E+03  0.12500000000E+03 0.  0.
        -11    1    3    3    0    0 -0.27269567047E+02 -0.54437555996E+02  0.11826303087E+02  0.62023690915E+02  0.51100000000E-03 0.  1.
         23    2    1    0    0    0 -0.81410126436E+01 -0.27484982616E+02  0.76068009380E+01  0.95342559504E+02  0.90612581224E+02 0.  0.
         11    1    3    3    0    0  0.19128554403E+02  0.26952573381E+02 -0.42195021491E+01  0.33318868589E+02  0.51100000000E-03 0. -1.
         22    1    1    0    0    0  0.81410126436E+01  0.27484982616E+02 -0.76068009380E+01  0.29657440496E+02  0.00000000000E+00 0.  1.
</event>
<event>
 5    1  0.1099741E-009  0.9118800E+02  0.7818608E-02  0.1130116E+00
         25   -1    0    0    0    0  0.00000000000E+00  0.00000000000E+00  0.99999998245E-14  0.12500000000E+03  0.12500000000E+03 0.  0.
        -11    1    3    3    0    0  0.53561955446E+01 -0.39389009151E+02  0.21452718259E+02  0.45170809087E+02  0.51100000000E-03 0. -1.
         23    2    1    0    0    0 -0.10266797564E+02 -0.88796965205E+01  0.39019466952E+02  0.83686867176E+02  0.72778546248E+02 0.  0.
         11    1    3    3    0    0 -0.15622993108E+02  0.30509312630E+02  0.17566748693E+02  0.38516058089E+02  0.51100000000E-03 0.  1.
         22    1    1    0    0    0  0.10266797564E+02  0.88796965205E+01 -0.39019466952E+02  0.41313132824E+02  0.00000000000E+00 0.  1.
</event>
<event>
 5    1  0.1099741E-009  0.9118800E+02  0.7818608E-02  0.1130116E+00
         25   -1    0    0    0    0  0.00000000000E+00  0.00000000000E+00  0.99999998245E-14  0.12500000000E+03  0.12500000000E+03 0.  0.
        -11    1    3    3    0    0  0.21282197808E+02 -0.48784816835E+02 -0.30763644855E+02  0.61475947672E+02  0.51100000000E-03 0.  1.
         23    2    1    0    0    0  0.61788654522E+01 -0.20380218926E+02 -0.20990233412E+02  0.95098133830E+02  0.90274766450E+02 0.  0.
         11    1    3    3    0    0 -0.15103332355E+02  0.28404597908E+02  0.97734114431E+01  0.33622186158E+02  0.51100000000E-03 0. -1.
         22    1    1    0    0    0 -0.61788654522E+01  0.20380218926E+02  0.20990233412E+02  0.29901866170E+02  0.00000000000E+00 0.  1.
</event>
<event>
 5    1  0.1099741E-009  0.9118800E+02  0.7818608E-02  0.1130116E+00
         25   -1    0    0    0    0  0.00000000000E+00  0.00000000000E+00  0.99999998245E-14  0.12500000000E+03  0.12500000000E+03 0.  0.
        -11    1    3    3    0    0 -0.27348322398E+02  0.19947734122E+02 -0.48463575913E+02  0.59114812231E+02  0.51100000000E-03 0. -1.
         23    2    1    0    0    0 -0.93949111891E+01 -0.45045483682E+01 -0.26379657892E+02  0.96637319190E+02  0.92381436433E+02 0.  0.
         11    1    3    3    0    0  0.17953411209E+02 -0.24452282491E+02  0.22083918021E+02  0.37522506959E+02  0.51100000000E-03 0.  1.
         22    1    1    0    0    0  0.93949111891E+01  0.45045483682E+01  0.26379657892E+02  0.28362680810E+02  0.00000000000E+00 0. -1.
</event>
<event>
 5    1  0.1099741E-009  0.9118800E+02  0.7818608E-02  0.1130116E+00
         25   -1    0    0    0    0  0.00000000000E+00  0.00000000000E+00  0.99999998245E-14  0.12500000000E+03  0.12500000000E+03 0.  0.
        -11    1    3    3    0    0 -0.18041007342E+02  0.29193863316E+02  0.14964016692E+02  0.37439035738E+02  0.51100000000E-03 0. -1.
         23    2    1    0    0    0  0.21974833425E+02  0.12693600270E+02 -0.19684424329E+02  0.92883067503E+02  0.87153696856E+02 0.  0.
         11    1    3    3    0    0  0.40015840767E+02 -0.16500263046E+02 -0.34648441021E+02  0.55444031764E+02  0.51100000000E-03 0.  1.
         22    1    1    0    0    0 -0.21974833425E+02 -0.12693600270E+02  0.19684424329E+02  0.32116932497E+02  0.00000000000E+00 0.  1.
</event>
<event>
 5    1  0.1099741E-009  0.9118800E+02  0.7818608E-02  0.1130116E+00
         25   -1    0    0    0    0  0.00000000000E+00  0.00000000000E+00  0.99999998245E-14  0.12500000000E+03  0.12500000000E+03 0.  0.
        -11    1    3    3    0    0 -0.38126810780E+02  0.58816046790E+01 -0.22598245862E+02  0.44709369154E+02  0.51100000000E-03 0.  1.
         23    2    1    0    0    0 -0.31081794446E+01 -0.28063833192E+02 -0.70654691405E+01  0.95893980570E+02  0.91370099827E+02 0.  0.
         11    1    3    3    0    0  0.35018631335E+02 -0.33945437871E+02  0.15532776722E+02  0.51184611416E+02  0.51100000000E-03 0. -1.
         22    1    1    0    0    0  0.31081794446E+01  0.28063833192E+02  0.70654691405E+01  0.29106019430E+02  0.00000000000E+00 0. -1.
</event>
<event>
 5    1  0.1099741E-009  0.9118800E+02  0.7818608E-02  0.1130116E+00
         25   -1    0    0    0    0  0.00000000000E+00  0.00000000000E+00  0.99999998245E-14  0.12500000000E+03  0.12500000000E+03 0.  0.
        -11    1    3    3    0    0 -0.31604359314E+02  0.12730785529E+02 -0.39653618473E+02  0.52281142739E+02  0.51100000000E-03 0. -1.
         23    2    1    0    0    0 -0.21391844380E+02 -0.17282505860E+02 -0.98655053667E+01  0.95783151934E+02  0.91218353326E+02 0.  0.
         11    1    3    3    0    0  0.10212514934E+02 -0.30013291389E+02  0.29788113106E+02  0.43502009195E+02  0.51100000000E-03 0.  1.
         22    1    1    0    0    0  0.21391844380E+02  0.17282505860E+02  0.98655053667E+01  0.29216848066E+02  0.00000000000E+00 0. -1.
</event>
<event>
 5    1  0.1099741E-009  0.9118800E+02  0.7818608E-02  0.1130116E+00
         25   -1    0    0    0    0  0.00000000000E+00  0.00000000000E+00  0.99999998245E-14  0.12500000000E+03  0.12500000000E+03 0.  0.
        -11    1    3    3    0    0  0.51348729571E+02 -0.11176923706E+02 -0.91373181924E+01  0.53339537270E+02  0.51100000000E-03 0.  1.
         23    2    1    0    0    0  0.10827816925E+02 -0.21196213562E+02 -0.16916088518E+02  0.95799398302E+02  0.91240613630E+02 0.  0.
         11    1    3    3    0    0 -0.40520912646E+02 -0.10019289857E+02 -0.77787703255E+01  0.42459861033E+02  0.51100000000E-03 0. -1.
         22    1    1    0    0    0 -0.10827816925E+02  0.21196213562E+02  0.16916088518E+02  0.29200601698E+02  0.00000000000E+00 0.  1.
</event>
<event>
 5    1  0.1099741E-009  0.9118800E+02  0.7818608E-02  0.1130116E+00
         25   -1    0    0    0    0  0.00000000000E+00  0.00000000000E+00  0.99999998245E-14  0.12500000000E+03  0.12500000000E+03 0.  0.
        -11    1    3    3    0    0  0.56551423933E+02  0.82874637288E+01  0.12596587774E+02  0.58527084566E+02  0.51100000000E-03 0.  1.
         23    2    1    0    0    0  0.20712318462E+02  0.15152782757E+02  0.15307057908E+02  0.95118350395E+02  0.90302755211E+02 0.  0.
         11    1    3    3    0    0 -0.35839105472E+02  0.68653190280E+01  0.27104701341E+01  0.36591265829E+02  0.51100000000E-03 0. -1.
         22    1    1    0    0    0 -0.20712318462E+02 -0.15152782757E+02 -0.15307057908E+02  0.29881649605E+02  0.00000000000E+00 0.  1.
</event>
<event>
 5    1  0.1099741E-009  0.9118800E+02  0.7818608E-02  0.1130116E+00
         25   -1    0    0    0    0  0.00000000000E+00  0.00000000000E+00  0.99999998245E-14  0.12500000000E+03  0.12500000000E+03 0.  0.
        -11    1    3    3    0    0  0.62396855038E+01 -0.53209898469E+02 -0.69876960577E+01  0.54028278398E+02  0.51100000000E-03 0. -1.
         23    2    1    0    0    0  0.21855755955E+02 -0.11679286035E+02  0.43903729334E+01  0.99833451465E+02  0.96609331155E+02 0.  0.
         11    1    3    3    0    0  0.15616070451E+02  0.41530612434E+02  0.11378068991E+02  0.45805173067E+02  0.51100000000E-03 0.  1.
         22    1    1    0    0    0 -0.21855755955E+02  0.11679286035E+02 -0.43903729334E+01  0.25166548535E+02  0.00000000000E+00 0. -1.
</event>
<event>
 5    1  0.1099741E-009  0.9118800E+02  0.7818608E-02  0.1130116E+00
         25   -1    0    0    0    0  0.00000000000E+00  0.00000000000E+00  0.99999998245E-14  0.12500000000E+03  0.12500000000E+03 0.  0.
        -11    1    3    3    0    0 -0.45281101957E+02  0.26330455178E+02 -0.18796311662E+02  0.55650448306E+02  0.51100000000E-03 0.  1.
         23    2    1    0    0    0 -0.21155784509E+02 -0.57363127061E+01 -0.19318134880E+02  0.95782490919E+02  0.91217447508E+02 0.  0.
         11    1    3    3    0    0  0.24125317449E+02 -0.32066767885E+02 -0.52182321820E+00  0.40132042613E+02  0.51100000000E-03 0. -1.
         22    1    1    0    0    0  0.21155784509E+02  0.57363127061E+01  0.19318134880E+02  0.29217509081E+02  0.00000000000E+00 0.  1.
</event>
<event>
 5    1  0.1099741E-009  0.9118800E+02  0.7818608E-02  0.1130116E+00
         25   -1    0    0    0    0  0.00000000000E+00  0.00000000000E+00  0.99999998245E-14  0.12500000000E+03  0.12500000000E+03 0.  0.
        -11    1    3    3    0    0  0.63707224137E+00 -0.53176304847E+02  0.28669119572E+02  0.60415591328E+02  0.51100000000E-03 0.  1.
         23    2    1    0    0    0  0.49814461563E+01 -0.32028768162E+02  0.54316666231E+01  0.92134215389E+02  0.86072956539E+02 0.  0.
         11    1    3    3    0    0  0.43443739149E+01  0.21147536685E+02 -0.23237452949E+02  0.31718624062E+02  0.51100000000E-03 0. -1.
         22    1    1    0    0    0 -0.49814461563E+01  0.32028768162E+02 -0.54316666231E+01  0.32865784611E+02  0.00000000000E+00 0.  1.
</event>
<event>
 5    1  0.1099741E-009  0.9118800E+02  0.7818608E-02  0.1130116E+00
         25   -1    0    0    0    0  0.00000000000E+00  0.00000000000E+00  0.99999998245E-14  0.12500000000E+03  0.12500000000E+03 0.  0.
        -11    1    3    3    0    0 -0.19890629922E+02 -0.63774103437E+00  0.24974261837E+01  0.20056944187E+02  0.51100000000E-03 0. -1.
         23    2    1    0    0    0  0.36390102706E+02  0.22053209318E+02  0.10247131918E+02  0.81232576855E+02  0.68433502129E+02 0.  0.
         11    1    3    3    0    0  0.56280732628E+02  0.22690950353E+02  0.77497057347E+01  0.61175632668E+02  0.51100000000E-03 0.  1.
         22    1    1    0    0    0 -0.36390102706E+02 -0.22053209318E+02 -0.10247131918E+02  0.43767423145E+02  0.00000000000E+00 0.  1.
</event>
<event>
 5    1  0.1099741E-009  0.9118800E+02  0.7818608E-02  0.1130116E+00
         25   -1    0    0    0    0  0.00000000000E+00  0.00000000000E+00  0.99999998245E-14  0.12500000000E+03  0.12500000000E+03 0.  0.
        -11    1    3    3    0    0  0.33999694945E+02  0.84143210746E+01  0.49473920432E+02  0.60617232357E+02  0.51100000000E-03 0.  1.
         23    2    1    0    0    0  0.15418914728E+02 -0.64510469135E+01  0.26339680994E+02  0.93804844406E+02  0.88465875351E+02 0.  0.
         11    1    3    3    0    0 -0.18580780217E+02 -0.14865367988E+02 -0.23134239438E+02  0.33187612049E+02  0.51100000000E-03 0. -1.
         22    1    1    0    0    0 -0.15418914728E+02  0.64510469135E+01 -0.26339680994E+02  0.31195155594E+02  0.00000000000E+00 0.  1.
</event>
<event>
 5    1  0.1099741E-009  0.9118800E+02  0.7818608E-02  0.1130116E+00
         25   -1    0    0    0    0  0.00000000000E+00  0.00000000000E+00  0.99999998245E-14  0.12500000000E+03  0.12500000000E+03 0.  0.
        -11    1    3    3    0    0 -0.30922871550E+02 -0.17784565740E+02 -0.20657324033E+02  0.41221836445E+02  0.51100000000E-03 0.  1.
         23    2    1    0    0    0 -0.13637989537E+02  0.21781974562E+02  0.13217008253E+02  0.96101237369E+02  0.91653201484E+02 0.  0.
         11    1    3    3    0    0  0.17284882013E+02  0.39566540302E+02  0.33874332286E+02  0.54879400924E+02  0.51100000000E-03 0. -1.
         22    1    1    0    0    0  0.13637989537E+02 -0.21781974562E+02 -0.13217008253E+02  0.28898762631E+02  0.00000000000E+00 0. -1.
</event>
<event>
 5    1  0.1099741E-009  0.9118800E+02  0.7818608E-02  0.1130116E+00
         25   -1    0    0    0    0  0.00000000000E+00  0.00000000000E+00  0.99999998245E-14  0.12500000000E+03  0.12500000000E+03 0.  0.
        -11    1    3    3    0    0  0.51716961459E+02 -0.22534506552E+02  0.64821572035E+01  0.56784385621E+02  0.51100000000E-03 0. -1.
         23    2    1    0    0    0  0.14405147029E+02 -0.25367588702E+02  0.94864761880E+01  0.94324015127E+02  0.89196433682E+02 0.  0.
         11    1    3    3    0    0 -0.37311814431E+02 -0.28330821499E+01  0.30043189844E+01  0.37539629505E+02  0.51100000000E-03 0.  1.
         22    1    1    0    0    0 -0.14405147029E+02  0.25367588702E+02 -0.94864761880E+01  0.30675984873E+02  0.00000000000E+00 0.  1.
</event>
<event>
 5    1  0.1099741E-009  0.9118800E+02  0.7818608E-02  0.1130116E+00
         25   -1    0    0    0    0  0.00000000000E+00  0.00000000000E+00  0.99999998245E-14  0.12500000000E+03  0.12500000000E+03 0.  0.
        -11    1    3    3    0    0  0.17588101864E+02  0.22452024992E-01  0.59702901583E+02  0.62239684197E+02  0.51100000000E-03 0. -1.
         23    2    1    0    0    0  0.41567727362E+01 -0.60291125216E+00  0.28154664046E+02  0.96533750351E+02  0.92241192467E+02 0.  0.
         11    1    3    3    0    0 -0.13431329128E+02 -0.62536327715E+00 -0.31548237537E+02  0.34294066154E+02  0.51100000000E-03 0.  1.
         22    1    1    0    0    0 -0.41567727362E+01  0.60291125216E+00 -0.28154664046E+02  0.28466249649E+02  0.00000000000E+00 0. -1.
</event>
<event>
 5    1  0.1099741E-009  0.9118800E+02  0.7818608E-02  0.1130116E+00
         25   -1    0    0    0    0  0.00000000000E+00  0.00000000000E+00  0.99999998245E-14  0.12500000000E+03  0.12500000000E+03 0.  0.
        -11    1    3    3    0    0 -0.27964233827E+02  0.42983814411E+02 -0.31636247949E+02  0.60253289200E+02  0.51100000000E-03 0.  1.
         23    2    1    0    0    0 -0.63888163073E+01  0.15534192273E+02 -0.23519957749E+02  0.96098157223E+02  0.91649000572E+02 0.  0.
         11    1    3    3    0    0  0.21575417520E+02 -0.27449622138E+02  0.81162902004E+01  0.35844868023E+02  0.51100000000E-03 0. -1.
         22    1    1    0    0    0  0.63888163073E+01 -0.15534192273E+02  0.23519957749E+02  0.28901842777E+02  0.00000000000E+00 0.  1.
</event>
<event>
 5    1  0.1099741E-009  0.9118800E+02  0.7818608E-02  0.1130116E+00
         25   -1    0    0    0    0  0.00000000000E+00  0.00000000000E+00  0.99999998245E-14  0.12500000000E+03  0.12500000000E+03 0.  0.
        -11    1    3    3    0    0  0.10992123865E+02 -0.17239473335E+02  0.56207759977E+02  0.59810856120E+02  0.51100000000E-03 0.  1.
         23    2    1    0    0    0  0.10260753603E+02 -0.18311445120E+02  0.20112894721E+02  0.95929041623E+02  0.91418052953E+02 0.  0.
         11    1    3    3    0    0 -0.73137026198E+00 -0.10719717853E+01 -0.36094865256E+02  0.36118185503E+02  0.51100000000E-03 0. -1.
         22    1    1    0    0    0 -0.10260753603E+02  0.18311445120E+02 -0.20112894721E+02  0.29070958377E+02  0.00000000000E+00 0.  1.
</event>
<event>
 5    1  0.1099741E-009  0.9118800E+02  0.7818608E-02  0.1130116E+00
         25   -1    0    0    0    0  0.00000000000E+00  0.00000000000E+00  0.99999998245E-14  0.12500000000E+03  0.12500000000E+03 0.  0.
        -11    1    3    3    0    0 -0.11702835337E+02  0.37469471665E+02 -0.40435284052E+01  0.39462232375E+02  0.51100000000E-03 0. -1.
         23    2    1    0    0    0 -0.13555686586E+02 -0.11297681151E+02  0.23586232961E+02  0.95543173567E+02  0.90888906869E+02 0.  0.
         11    1    3    3    0    0 -0.18528512486E+01 -0.48767152816E+02  0.27629761366E+02  0.56080941192E+02  0.51100000000E-03 0.  1.
         22    1    1    0    0    0  0.13555686586E+02  0.11297681151E+02 -0.23586232961E+02  0.29456826433E+02  0.00000000000E+00 0.  1.
</event>
<event>
 4    1  0.1099741E-009  0.9118800E+02  0.7818608E-02  0.1130116E+00
         25   -1    0    0    0    0  0.00000000000E+00  0.00000000000E+00  0.99999998245E-14  0.12500000000E+03  0.12500000000E+03 0.  0.
        -11    1    1    0    0    0  0.30099740747E+02 -0.10162090271E+02 -0.48088577749E+02  0.57634831325E+02  0.51100000000E-03 0. -1.
         11    1    1    0    0    0  0.30689742997E+01  0.90889589597E+01  0.84441444514E+00  0.96302032294E+01  0.51100000000E-03 0.  1.
         22    1    1    0    0    0 -0.33168715047E+02  0.10731313109E+01  0.47244163304E+02  0.57734965445E+02  0.00000000000E+00 0. -1.
</event>
<event>
 5    1  0.1099741E-009  0.9118800E+02  0.7818608E-02  0.1130116E+00
         25   -1    0    0    0    0  0.00000000000E+00  0.00000000000E+00  0.99999998245E-14  0.12500000000E+03  0.12500000000E+03 0.  0.
        -11    1    3    3    0    0 -0.95279359494E+01 -0.12265626106E+02 -0.45239252550E+02  0.47831131272E+02  0.51100000000E-03 0. -1.
         23    2    1    0    0    0 -0.15642782726E+02  0.19869686464E+02 -0.58292656431E+01  0.99048479245E+02  0.95588282813E+02 0.  0.
         11    1    3    3    0    0 -0.61148467763E+01  0.32135312570E+02  0.39409986907E+02  0.51217347972E+02  0.51100000000E-03 0.  1.
         22    1    1    0    0    0  0.15642782726E+02 -0.19869686464E+02  0.58292656431E+01  0.25951520755E+02  0.00000000000E+00 0. -1.
</event>
<event>
 5    1  0.1099741E-009  0.9118800E+02  0.7818608E-02  0.1130116E+00
         25   -1    0    0    0    0  0.00000000000E+00  0.00000000000E+00  0.99999998245E-14  0.12500000000E+03  0.12500000000E+03 0.  0.
        -11    1    3    3    0    0 -0.46136850487E+02  0.30891759622E+02 -0.14985231216E+02  0.57510581116E+02  0.51100000000E-03 0. -1.
         23    2    1    0    0    0 -0.20088663768E+02  0.16250589621E+01 -0.19508439551E+02  0.96950500142E+02  0.92804229620E+02 0.  0.
         11    1    3    3    0    0  0.26048186719E+02 -0.29266700660E+02 -0.45232083345E+01  0.39439919026E+02  0.51100000000E-03 0.  1.
         22    1    1    0    0    0  0.20088663768E+02 -0.16250589621E+01  0.19508439551E+02  0.28049499858E+02  0.00000000000E+00 0. -1.
</event>
<event>
 5    1  0.1099741E-009  0.9118800E+02  0.7818608E-02  0.1130116E+00
         25   -1    0    0    0    0  0.00000000000E+00  0.00000000000E+00  0.99999998245E-14  0.12500000000E+03  0.12500000000E+03 0.  0.
        -11    1    3    3    0    0  0.44172451896E+02 -0.99913021421E+01  0.19504258747E+02  0.49309712375E+02  0.51100000000E-03 0.  1.
         23    2    1    0    0    0  0.20106135249E+02  0.18910948784E+02 -0.84077659745E+01  0.96145690317E+02  0.91713808008E+02 0.  0.
         11    1    3    3    0    0 -0.24066316646E+02  0.28902250926E+02 -0.27912024722E+02  0.46835977943E+02  0.51100000000E-03 0. -1.
         22    1    1    0    0    0 -0.20106135249E+02 -0.18910948784E+02  0.84077659745E+01  0.28854309683E+02  0.00000000000E+00 0. -1.
</event>
<event>
 5    1  0.1099741E-009  0.9118800E+02  0.7818608E-02  0.1130116E+00
         25   -1    0    0    0    0  0.00000000000E+00  0.00000000000E+00  0.99999998245E-14  0.12500000000E+03  0.12500000000E+03 0.  0.
        -11    1    3    3    0    0  0.12439467233E+02  0.31252614575E+02  0.13958018276E+02  0.36418299484E+02  0.51100000000E-03 0. -1.
         23    2    1    0    0    0 -0.21492994915E+00 -0.26388137723E+02  0.13330519530E+02  0.95435109364E+02  0.90740163880E+02 0.  0.
         11    1    3    3    0    0 -0.12654397182E+02 -0.57640752298E+02 -0.62749874578E+00  0.59016809881E+02  0.51100000000E-03 0.  1.
         22    1    1    0    0    0  0.21492994915E+00  0.26388137723E+02 -0.13330519530E+02  0.29564890636E+02  0.00000000000E+00 0.  1.
</event>
<event>
 5    1  0.1099741E-009  0.9118800E+02  0.7818608E-02  0.1130116E+00
         25   -1    0    0    0    0  0.00000000000E+00  0.00000000000E+00  0.99999998245E-14  0.12500000000E+03  0.12500000000E+03 0.  0.
        -11    1    3    3    0    0 -0.23023565521E+02 -0.22074577501E+02  0.26981477195E+02  0.41777645374E+02  0.51100000000E-03 0. -1.
         23    2    1    0    0    0  0.72114372978E+01 -0.15590934208E+02 -0.20383839482E+02  0.98343237830E+02  0.94661552161E+02 0.  0.
         11    1    3    3    0    0  0.30235002819E+02  0.64836432931E+01 -0.47365316676E+02  0.56565592456E+02  0.51100000000E-03 0.  1.
         22    1    1    0    0    0 -0.72114372978E+01  0.15590934208E+02  0.20383839482E+02  0.26656762170E+02  0.00000000000E+00 0.  1.
</event>
<event>
 5    1  0.1099741E-009  0.9118800E+02  0.7818608E-02  0.1130116E+00
         25   -1    0    0    0    0  0.00000000000E+00  0.00000000000E+00  0.99999998245E-14  0.12500000000E+03  0.12500000000E+03 0.  0.
        -11    1    3    3    0    0 -0.55546539753E+02  0.20803853269E+02  0.18147687410E+01  0.59342327012E+02  0.51100000000E-03 0.  1.
         23    2    1    0    0    0 -0.23448383562E+02  0.22687584088E+02 -0.43576274185E+01  0.92082799631E+02  0.85998255260E+02 0.  0.
         11    1    3    3    0    0  0.32098156191E+02  0.18837308190E+01 -0.61723961595E+01  0.32740472619E+02  0.51100000000E-03 0. -1.
         22    1    1    0    0    0  0.23448383562E+02 -0.22687584088E+02  0.43576274185E+01  0.32917200369E+02  0.00000000000E+00 0.  1.
</event>
<event>
 5    1  0.1099741E-009  0.9118800E+02  0.7818608E-02  0.1130116E+00
         25   -1    0    0    0    0  0.00000000000E+00  0.00000000000E+00  0.99999998245E-14  0.12500000000E+03  0.12500000000E+03 0.  0.
        -11    1    3    3    0    0  0.18835588032E+01 -0.49580387109E+02  0.14039558812E+02  0.51564249161E+02  0.51100000000E-03 0.  1.
         23    2    1    0    0    0  0.25972041946E+02 -0.15191224869E+02  0.53890316560E+01  0.94432665506E+02  0.89348566729E+02 0.  0.
         11    1    3    3    0    0  0.24088483143E+02  0.34389162240E+02 -0.86505271558E+01  0.42868416346E+02  0.51100000000E-03 0. -1.
         22    1    1    0    0    0 -0.25972041946E+02  0.15191224869E+02 -0.53890316560E+01  0.30567334494E+02  0.00000000000E+00 0.  1.
</event>
<event>
 5    1  0.1099741E-009  0.9118800E+02  0.7818608E-02  0.1130116E+00
         25   -1    0    0    0    0  0.00000000000E+00  0.00000000000E+00  0.99999998245E-14  0.12500000000E+03  0.12500000000E+03 0.  0.
        -11    1    3    3    0    0  0.82764645239E+01 -0.45915848640E+02 -0.16167839105E+02  0.49377768712E+02  0.51100000000E-03 0. -1.
         23    2    1    0    0    0 -0.24362937191E+02 -0.13650107747E+02 -0.74917329045E+01  0.96086262573E+02  0.91632776031E+02 0.  0.
         11    1    3    3    0    0 -0.32639401715E+02  0.32265740893E+02  0.86761062007E+01  0.46708493861E+02  0.51100000000E-03 0.  1.
         22    1    1    0    0    0  0.24362937191E+02  0.13650107747E+02  0.74917329045E+01  0.28913737427E+02  0.00000000000E+00 0.  1.
</event>
<event>
 5    1  0.1099741E-009  0.9118800E+02  0.7818608E-02  0.1130116E+00
         25   -1    0    0    0    0  0.00000000000E+00  0.00000000000E+00  0.99999998245E-14  0.12500000000E+03  0.12500000000E+03 0.  0.
        -11    1    3    3    0    0  0.68199894007E+01 -0.22849888064E+02 -0.21638140592E+02  0.32199980877E+02  0.51100000000E-03 0. -1.
         23    2    1    0    0    0 -0.77116083000E+01  0.20083735674E+02  0.21365274713E+02  0.94680034552E+02  0.89693972139E+02 0.  0.
         11    1    3    3    0    0 -0.14531597701E+02  0.42933623737E+02  0.43003415306E+02  0.62480053675E+02  0.51100000000E-03 0.  1.
         22    1    1    0    0    0  0.77116083000E+01 -0.20083735674E+02 -0.21365274713E+02  0.30319965448E+02  0.00000000000E+00 0.  1.
</event>
<event>
 5    1  0.1099741E-009  0.9118800E+02  0.7818608E-02  0.1130116E+00
         25   -1    0    0    0    0  0.00000000000E+00  0.00000000000E+00  0.99999998245E-14  0.12500000000E+03  0.12500000000E+03 0.  0.
        -11    1    3    3    0    0  0.61797723678E+01 -0.23461347481E+01  0.55220393947E+02  0.55614618966E+02  0.51100000000E-03 0. -1.
         23    2    1    0    0    0 -0.17817131463E+02  0.13024758097E+00  0.25457506075E+02  0.93926671348E+02  0.88637846527E+02 0.  0.
         11    1    3    3    0    0 -0.23996903831E+02  0.24763823291E+01 -0.29762887873E+02  0.38312052381E+02  0.51100000000E-03 0.  1.
         22    1    1    0    0    0  0.17817131463E+02 -0.13024758097E+00 -0.25457506075E+02  0.31073328652E+02  0.00000000000E+00 0. -1.
</event>
<event>
 5    1  0.1099741E-009  0.9118800E+02  0.7818608E-02  0.1130116E+00
         25   -1    0    0    0    0  0.00000000000E+00  0.00000000000E+00  0.99999998245E-14  0.12500000000E+03  0.12500000000E+03 0.  0.
        -11    1    3    3    0    0 -0.50401418157E+02  0.31765183197E+02 -0.22944699151E+01  0.59620419390E+02  0.51100000000E-03 0.  1.
         23    2    1    0    0    0 -0.28540079925E+02  0.25669142950E+01  0.15808911673E+01  0.96301142392E+02  0.91925434989E+02 0.  0.
         11    1    3    3    0    0  0.21861338231E+02 -0.29198268902E+02  0.38753610825E+01  0.36680723002E+02  0.51100000000E-03 0. -1.
         22    1    1    0    0    0  0.28540079925E+02 -0.25669142950E+01 -0.15808911673E+01  0.28698857608E+02  0.00000000000E+00 0.  1.
</event>
<event>
 5    1  0.1099741E-009  0.9118800E+02  0.7818608E-02  0.1130116E+00
         25   -1    0    0    0    0  0.00000000000E+00  0.00000000000E+00  0.99999998245E-14  0.12500000000E+03  0.12500000000E+03 0.  0.
        -11    1    3    3    0    0 -0.19833855296E+02  0.14837862520E+02 -0.16682711170E+02  0.29863972146E+02  0.51100000000E-03 0.  1.
         23    2    1    0    0    0  0.25450180308E+02  0.95386304580E+01  0.22294502896E+02  0.89846877691E+02  0.82684456959E+02 0.  0.
         11    1    3    3    0    0  0.45284035604E+02 -0.52992320624E+01  0.38977214066E+02  0.59982905545E+02  0.51100000000E-03 0. -1.
         22    1    1    0    0    0 -0.25450180308E+02 -0.95386304580E+01 -0.22294502896E+02  0.35153122309E+02  0.00000000000E+00 0. -1.
</event>
<event>
 5    1  0.1099741E-009  0.9118800E+02  0.7818608E-02  0.1130116E+00
         25   -1    0    0    0    0  0.00000000000E+00  0.00000000000E+00  0.99999998245E-14  0.12500000000E+03  0.12500000000E+03 0.  0.
        -11    1    3    3    0    0 -0.97387043777E+01  0.27436457943E+02 -0.19877385116E+02  0.35252120883E+02  0.51100000000E-03 0. -1.
         23    2    1    0    0    0  0.38084220110E+01 -0.13882037739E+02  0.23992588757E+02  0.97020375891E+02  0.92898299084E+02 0.  0.
         11    1    3    3    0    0  0.13547126389E+02 -0.41318495682E+02  0.43869973873E+02  0.61768255008E+02  0.51100000000E-03 0.  1.
         22    1    1    0    0    0 -0.38084220110E+01  0.13882037739E+02 -0.23992588757E+02  0.27979624109E+02  0.00000000000E+00 0.  1.
</event>
<event>
 5    1  0.1099741E-009  0.9118800E+02  0.7818608E-02  0.1130116E+00
         25   -1    0    0    0    0  0.00000000000E+00  0.00000000000E+00  0.99999998245E-14  0.12500000000E+03  0.12500000000E+03 0.  0.
        -11    1    3    3    0    0  0.23829931669E+02  0.18775590963E+01  0.26887160470E+02  0.35976523872E+02  0.51100000000E-03 0.  1.
         23    2    1    0    0    0 -0.26774331233E+02 -0.96587321009E+01 -0.38185958172E+01  0.96281755054E+02  0.91899068349E+02 0.  0.
         11    1    3    3    0    0 -0.50604262902E+02 -0.11536291197E+02 -0.30705756287E+02  0.60305231182E+02  0.51100000000E-03 0. -1.
         22    1    1    0    0    0  0.26774331233E+02  0.96587321009E+01  0.38185958172E+01  0.28718244946E+02  0.00000000000E+00 0. -1.
</event>
<event>
 5    1  0.1099741E-009  0.9118800E+02  0.7818608E-02  0.1130116E+00
         25   -1    0    0    0    0  0.00000000000E+00  0.00000000000E+00  0.99999998245E-14  0.12500000000E+03  0.12500000000E+03 0.  0.
        -11    1    3    3    0    0  0.46944210501E+02  0.21758400653E+02 -0.34943465750E+02  0.62435828636E+02  0.51100000000E-03 0.  1.
         23    2    1    0    0    0  0.22741383614E+02  0.94935231112E+01 -0.14513171880E+02  0.96400530289E+02  0.92060483228E+02 0.  0.
         11    1    3    3    0    0 -0.24202826888E+02 -0.12264877542E+02  0.20430293870E+02  0.33964701653E+02  0.51100000000E-03 0. -1.
         22    1    1    0    0    0 -0.22741383614E+02 -0.94935231112E+01  0.14513171880E+02  0.28599469711E+02  0.00000000000E+00 0.  1.
</event>
<event>
 5    1  0.1099741E-009  0.9118800E+02  0.7818608E-02  0.1130116E+00
         25   -1    0    0    0    0  0.00000000000E+00  0.00000000000E+00  0.99999998245E-14  0.12500000000E+03  0.12500000000E+03 0.  0.
        -11    1    3    3    0    0 -0.25802186951E+02 -0.17775483725E+02  0.33165719398E+02  0.45625493055E+02  0.51100000000E-03 0.  1.
         23    2    1    0    0    0  0.20255181387E+02 -0.15599809627E+02  0.16077071191E+02  0.94799028964E+02  0.89859653021E+02 0.  0.
         11    1    3    3    0    0  0.46057368338E+02  0.21756740984E+01 -0.17088648207E+02  0.49173535909E+02  0.51100000000E-03 0. -1.
         22    1    1    0    0    0 -0.20255181387E+02  0.15599809627E+02 -0.16077071191E+02  0.30200971036E+02  0.00000000000E+00 0.  1.
</event>
<event>
 5    1  0.1099741E-009  0.9118800E+02  0.7818608E-02  0.1130116E+00
         25   -1    0    0    0    0  0.00000000000E+00  0.00000000000E+00  0.99999998245E-14  0.12500000000E+03  0.12500000000E+03 0.  0.
        -11    1    3    3    0    0 -0.36062649074E+02  0.21865623360E+02 -0.11424440285E+02  0.43693683517E+02  0.51100000000E-03 0.  1.
         23    2    1    0    0    0 -0.28267437786E+01  0.87301207788E+01  0.27187332671E+02  0.96305809875E+02  0.91931781603E+02 0.  0.
         11    1    3    3    0    0  0.33235905295E+02 -0.13135502581E+02  0.38611772956E+02  0.52612126358E+02  0.51100000000E-03 0. -1.
         22    1    1    0    0    0  0.28267437786E+01 -0.87301207788E+01 -0.27187332671E+02  0.28694190125E+02  0.00000000000E+00 0. -1.
</event>
<event>
 5    1  0.1099741E-009  0.9118800E+02  0.7818608E-02  0.1130116E+00
         25   -1    0    0    0    0  0.00000000000E+00  0.00000000000E+00  0.99999998245E-14  0.12500000000E+03  0.12500000000E+03 0.  0.
        -11    1    3    3    0    0  0.20850552784E+02 -0.12069778189E+02  0.41365984049E+02  0.47870342943E+02  0.51100000000E-03 0. -1.
         23    2    1    0    0    0 -0.87053280373E+01  0.19383755518E+02  0.19063568382E+02  0.96452979951E+02  0.92131672012E+02 0.  0.
         11    1    3    3    0    0 -0.29555880821E+02  0.31453533707E+02 -0.22302415667E+02  0.48582637008E+02  0.51100000000E-03 0.  1.
         22    1    1    0    0    0  0.87053280373E+01 -0.19383755518E+02 -0.19063568382E+02  0.28547020049E+02  0.00000000000E+00 0. -1.
</event>
<event>
 5    1  0.1099741E-009  0.9118800E+02  0.7818608E-02  0.1130116E+00
         25   -1    0    0    0    0  0.00000000000E+00  0.00000000000E+00  0.99999998245E-14  0.12500000000E+03  0.12500000000E+03 0.  0.
        -11    1    3    3    0    0  0.33033617016E+01  0.51168903127E+01 -0.41247271241E+02  0.41694509831E+02  0.51100000000E-03 0.  1.
         23    2    1    0    0    0 -0.26408250382E+02  0.88159606606E+00  0.62209939899E+01  0.97854582963E+02  0.94014072036E+02 0.  0.
         11    1    3    3    0    0 -0.29711612084E+02 -0.42352942467E+01  0.47468265231E+02  0.56160073132E+02  0.51100000000E-03 0. -1.
         22    1    1    0    0    0  0.26408250382E+02 -0.88159606606E+00 -0.62209939899E+01  0.27145417037E+02  0.00000000000E+00 0. -1.
</event>
<event>
 5    1  0.1099741E-009  0.9118800E+02  0.7818608E-02  0.1130116E+00
         25   -1    0    0    0    0  0.00000000000E+00  0.00000000000E+00  0.99999998245E-14  0.12500000000E+03  0.12500000000E+03 0.  0.
        -11    1    3    3    0    0  0.17439796321E+02  0.68951780092E+01  0.42256930063E+02  0.46231354232E+02  0.51100000000E-03 0. -1.
         23    2    1    0    0    0 -0.54725233865E+01  0.27902799310E+02  0.28497942292E+01  0.96423155375E+02  0.92091198514E+02 0.  0.
         11    1    3    3    0    0 -0.22912319707E+02  0.21007621301E+02 -0.39407135834E+02  0.50191801143E+02  0.51100000000E-03 0.  1.
         22    1    1    0    0    0  0.54725233865E+01 -0.27902799310E+02 -0.28497942292E+01  0.28576844625E+02  0.00000000000E+00 0.  1.
</event>
<event>
 5    1  0.1099741E-009  0.9118800E+02  0.7818608E-02  0.1130116E+00
         25   -1    0    0    0    0  0.00000000000E+00  0.00000000000E+00  0.99999998245E-14  0.12500000000E+03  0.12500000000E+03 0.  0.
        -11    1    3    3    0    0  0.14751198146E+02  0.17652071139E+02  0.39295698445E+02  0.45534002446E+02  0.51100000000E-03 0. -1.
         23    2    1    0    0    0 -0.25805716590E+02  0.32082868843E+01  0.15565719922E+02  0.94692909243E+02  0.89711912870E+02 0.  0.
         11    1    3    3    0    0 -0.40556914736E+02 -0.14443784255E+02 -0.23729978523E+02  0.49158906797E+02  0.51100000000E-03 0.  1.
         22    1    1    0    0    0  0.25805716590E+02 -0.32082868843E+01 -0.15565719922E+02  0.30307090757E+02  0.00000000000E+00 0.  1.
</event>
<event>
 5    1  0.1099741E-009  0.9118800E+02  0.7818608E-02  0.1130116E+00
         25   -1    0    0    0    0  0.00000000000E+00  0.00000000000E+00  0.99999998245E-14  0.12500000000E+03  0.12500000000E+03 0.  0.
        -11    1    3    3    0    0 -0.27691851867E+02 -0.25756257192E+02  0.22580097258E+02  0.44046387330E+02  0.51100000000E-03 0.  1.
         23    2    1    0    0    0  0.21823625103E+02 -0.10156004184E+02  0.15322111040E+02  0.96466123285E+02  0.92149502556E+02 0.  0.
         11    1    3    3    0    0  0.49515476970E+02  0.15600253008E+02 -0.72579862181E+01  0.52419735956E+02  0.51100000000E-03 0. -1.
         22    1    1    0    0    0 -0.21823625103E+02  0.10156004184E+02 -0.15322111040E+02  0.28533876715E+02  0.00000000000E+00 0. -1.
</event>
<event>
 5    1  0.1099741E-009  0.9118800E+02  0.7818608E-02  0.1130116E+00
         25   -1    0    0    0    0  0.00000000000E+00  0.00000000000E+00  0.99999998245E-14  0.12500000000E+03  0.12500000000E+03 0.  0.
        -11    1    3    3    0    0  0.10469835076E+02 -0.18493570356E+02  0.32774615436E+02  0.39061554094E+02  0.51100000000E-03 0. -1.
         23    2    1    0    0    0  0.26244693458E+02  0.92421402020E+01 -0.12537841850E+02  0.94481176817E+02  0.89416409032E+02 0.  0.
         11    1    3    3    0    0  0.15774858382E+02  0.27735710558E+02 -0.45312457286E+02  0.55419622722E+02  0.51100000000E-03 0.  1.
         22    1    1    0    0    0 -0.26244693458E+02 -0.92421402020E+01  0.12537841850E+02  0.30518823183E+02  0.00000000000E+00 0.  1.
</event>
<event>
 5    1  0.1099741E-009  0.9118800E+02  0.7818608E-02  0.1130116E+00
         25   -1    0    0    0    0  0.00000000000E+00  0.00000000000E+00  0.99999998245E-14  0.12500000000E+03  0.12500000000E+03 0.  0.
        -11    1    3    3    0    0  0.61187538332E+01  0.35256279083E+02 -0.23164599961E+02  0.42626787996E+02  0.51100000000E-03 0. -1.
         23    2    1    0    0    0 -0.57045019116E+01 -0.15893521562E+02 -0.24620088265E+02  0.95145450667E+02  0.90340260498E+02 0.  0.
         11    1    3    3    0    0 -0.11823255745E+02 -0.51149800644E+02 -0.14554883041E+01  0.52518662672E+02  0.51100000000E-03 0.  1.
         22    1    1    0    0    0  0.57045019116E+01  0.15893521562E+02  0.24620088265E+02  0.29854549333E+02  0.00000000000E+00 0.  1.
</event>
<event>
 5    1  0.1099741E-009  0.9118800E+02  0.7818608E-02  0.1130116E+00
         25   -1    0    0    0    0  0.00000000000E+00  0.00000000000E+00  0.99999998245E-14  0.12500000000E+03  0.12500000000E+03 0.  0.
        -11    1    3    3    0    0  0.44562087383E+02 -0.32537156746E+02  0.26514513819E+02  0.61216547145E+02  0.51100000000E-03 0.  1.
         23    2    1    0    0    0  0.20537500743E+02 -0.14425158233E+02  0.23746393649E+01  0.99790616054E+02  0.96553891758E+02 0.  0.
         11    1    3    3    0    0 -0.24024586640E+02  0.18111998512E+02 -0.24139874454E+02  0.38574068910E+02  0.51100000000E-03 0. -1.
         22    1    1    0    0    0 -0.20537500743E+02  0.14425158233E+02 -0.23746393649E+01  0.25209383946E+02  0.00000000000E+00 0.  1.
</event>
<event>
 5    1  0.1099741E-009  0.9118800E+02  0.7818608E-02  0.1130116E+00
         25   -1    0    0    0    0  0.00000000000E+00  0.00000000000E+00  0.99999998245E-14  0.12500000000E+03  0.12500000000E+03 0.  0.
        -11    1    3    3    0    0 -0.59209140650E+01  0.54431564420E+02 -0.59464915315E+01  0.55074614754E+02  0.51100000000E-03 0.  1.
         23    2    1    0    0    0  0.18410825605E+02  0.18507702745E+02 -0.46584796470E+01  0.98482175938E+02  0.94844841633E+02 0.  0.
         11    1    3    3    0    0  0.24331739670E+02 -0.35923861675E+02  0.12880118845E+01  0.43407561183E+02  0.51100000000E-03 0. -1.
         22    1    1    0    0    0 -0.18410825605E+02 -0.18507702745E+02  0.46584796470E+01  0.26517824062E+02  0.00000000000E+00 0.  1.
</event>
<event>
 5    1  0.1099741E-009  0.9118800E+02  0.7818608E-02  0.1130116E+00
         25   -1    0    0    0    0  0.00000000000E+00  0.00000000000E+00  0.99999998245E-14  0.12500000000E+03  0.12500000000E+03 0.  0.
        -11    1    3    3    0    0 -0.27684300395E+02  0.26248138969E+02  0.21921284275E+02  0.43999181722E+02  0.51100000000E-03 0.  1.
         23    2    1    0    0    0 -0.22824267090E+02 -0.16752021471E+02 -0.67307083595E+01  0.95898800255E+02  0.91376693219E+02 0.  0.
         11    1    3    3    0    0  0.48600333044E+01 -0.43000160440E+02 -0.28651992635E+02  0.51899618533E+02  0.51100000000E-03 0. -1.
         22    1    1    0    0    0  0.22824267090E+02  0.16752021471E+02  0.67307083595E+01  0.29101199745E+02  0.00000000000E+00 0. -1.
</event>
<event>
 5    1  0.1099741E-009  0.9118800E+02  0.7818608E-02  0.1130116E+00
         25   -1    0    0    0    0  0.00000000000E+00  0.00000000000E+00  0.99999998245E-14  0.12500000000E+03  0.12500000000E+03 0.  0.
        -11    1    3    3    0    0 -0.73123428467E+01  0.12735420652E+02 -0.32516666788E+02  0.35679054309E+02  0.51100000000E-03 0. -1.
         23    2    1    0    0    0  0.15048592447E+02 -0.19581237812E+02  0.14030233096E+02  0.96596964078E+02  0.92326816361E+02 0.  0.
         11    1    3    3    0    0  0.22360935294E+02 -0.32316658463E+02  0.46546899884E+02  0.60917909769E+02  0.51100000000E-03 0.  1.
         22    1    1    0    0    0 -0.15048592447E+02  0.19581237812E+02 -0.14030233096E+02  0.28403035922E+02  0.00000000000E+00 0.  1.
</event>
<event>
 5    1  0.1099741E-009  0.9118800E+02  0.7818608E-02  0.1130116E+00
         25   -1    0    0    0    0  0.00000000000E+00  0.00000000000E+00  0.99999998245E-14  0.12500000000E+03  0.12500000000E+03 0.  0.
        -11    1    3    3    0    0  0.26152111296E+02  0.27970300520E+02 -0.47966761252E+02  0.61376549444E+02  0.51100000000E-03 0. -1.
         23    2    1    0    0    0  0.14291476035E+02  0.19223704699E+02 -0.17138183477E+02  0.95546401875E+02  0.90893346669E+02 0.  0.
         11    1    3    3    0    0 -0.11860635261E+02 -0.87465958201E+01  0.30828577775E+02  0.34169852430E+02  0.51100000000E-03 0.  1.
         22    1    1    0    0    0 -0.14291476035E+02 -0.19223704699E+02  0.17138183477E+02  0.29453598125E+02  0.00000000000E+00 0. -1.
</event>
<event>
 5    1  0.1099741E-009  0.9118800E+02  0.7818608E-02  0.1130116E+00
         25   -1    0    0    0    0  0.00000000000E+00  0.00000000000E+00  0.99999998245E-14  0.12500000000E+03  0.12500000000E+03 0.  0.
        -11    1    3    3    0    0 -0.17669806863E+01  0.35143008623E+02 -0.82642901883E+01  0.36144871951E+02  0.51100000000E-03 0. -1.
         23    2    1    0    0    0 -0.11712819192E+02 -0.78184252445E+01  0.28273944262E+02  0.93413075001E+02  0.87910572460E+02 0.  0.
         11    1    3    3    0    0 -0.99458385055E+01 -0.42961433867E+02  0.36538234451E+02  0.57268203050E+02  0.51100000000E-03 0.  1.
         22    1    1    0    0    0  0.11712819192E+02  0.78184252445E+01 -0.28273944262E+02  0.31586924999E+02  0.00000000000E+00 0.  1.
</event>
<event>
 5    1  0.1099741E-009  0.9118800E+02  0.7818608E-02  0.1130116E+00
         25   -1    0    0    0    0  0.00000000000E+00  0.00000000000E+00  0.99999998245E-14  0.12500000000E+03  0.12500000000E+03 0.  0.
        -11    1    3    3    0    0  0.47473791894E+02 -0.22736137537E+02  0.27495852929E+02  0.59386149862E+02  0.51100000000E-03 0.  1.
         23    2    1    0    0    0  0.27847164010E+02  0.17452226036E+01  0.96913983562E+01  0.95463013907E+02  0.90778595917E+02 0.  0.
         11    1    3    3    0    0 -0.19626627884E+02  0.24481360140E+02 -0.17804454573E+02  0.36076864045E+02  0.51100000000E-03 0. -1.
         22    1    1    0    0    0 -0.27847164010E+02 -0.17452226036E+01 -0.96913983562E+01  0.29536986093E+02  0.00000000000E+00 0.  1.
</event>
<event>
 5    1  0.1099741E-009  0.9118800E+02  0.7818608E-02  0.1130116E+00
         25   -1    0    0    0    0  0.00000000000E+00  0.00000000000E+00  0.99999998245E-14  0.12500000000E+03  0.12500000000E+03 0.  0.
        -11    1    3    3    0    0  0.42996798488E+02  0.35782665101E+02  0.26550659395E+02  0.61919797452E+02  0.51100000000E-03 0.  1.
         23    2    1    0    0    0  0.16640591092E+02  0.19403330627E+02  0.16657486290E+02  0.94489831845E+02  0.89428507543E+02 0.  0.
         11    1    3    3    0    0 -0.26356207396E+02 -0.16379334473E+02 -0.98931731049E+01  0.32570034394E+02  0.51100000000E-03 0. -1.
         22    1    1    0    0    0 -0.16640591092E+02 -0.19403330627E+02 -0.16657486290E+02  0.30510168155E+02  0.00000000000E+00 0.  1.
</event>
<event>
 5    1  0.1099741E-009  0.9118800E+02  0.7818608E-02  0.1130116E+00
         25   -1    0    0    0    0  0.00000000000E+00  0.00000000000E+00  0.99999998245E-14  0.12500000000E+03  0.12500000000E+03 0.  0.
        -11    1    3    3    0    0 -0.42518493309E+02  0.13698159269E+02 -0.16723406061E+01  0.44701885464E+02  0.51100000000E-03 0. -1.
         23    2    1    0    0    0 -0.92733501421E+01 -0.24621553428E+02 -0.11347370183E+02  0.96347273670E+02  0.91988142810E+02 0.  0.
         11    1    3    3    0    0  0.33245143167E+02 -0.38319712697E+02 -0.96750295766E+01  0.51645388206E+02  0.51100000000E-03 0.  1.
         22    1    1    0    0    0  0.92733501421E+01  0.24621553428E+02  0.11347370183E+02  0.28652726330E+02  0.00000000000E+00 0.  1.
</event>
<event>
 5    1  0.1099741E-009  0.9118800E+02  0.7818608E-02  0.1130116E+00
         25   -1    0    0    0    0  0.00000000000E+00  0.00000000000E+00  0.99999998245E-14  0.12500000000E+03  0.12500000000E+03 0.  0.
        -11    1    3    3    0    0  0.60556073716E+01  0.45862877008E+02 -0.34006877441E+02  0.57415516906E+02  0.51100000000E-03 0.  1.
         23    2    1    0    0    0  0.56135175032E+01  0.80969196638E+01 -0.27561945130E+02  0.95730006728E+02  0.91145497321E+02 0.  0.
         11    1    3    3    0    0 -0.44208986838E+00 -0.37765957344E+02  0.64449323105E+01  0.38314489822E+02  0.51100000000E-03 0. -1.
         22    1    1    0    0    0 -0.56135175032E+01 -0.80969196638E+01  0.27561945130E+02  0.29269993272E+02  0.00000000000E+00 0.  1.
</event>
<event>
 5    1  0.1099741E-009  0.9118800E+02  0.7818608E-02  0.1130116E+00
         25   -1    0    0    0    0  0.00000000000E+00  0.00000000000E+00  0.99999998245E-14  0.12500000000E+03  0.12500000000E+03 0.  0.
        -11    1    3    3    0    0 -0.25074941226E+02  0.15427052079E+02 -0.19681563664E+02  0.35413423470E+02  0.51100000000E-03 0. -1.
         23    2    1    0    0    0  0.67375256480E+01  0.29501641306E+01  0.29106622650E+02  0.94978454365E+02  0.90108898513E+02 0.  0.
         11    1    3    3    0    0  0.31812466874E+02 -0.12476887948E+02  0.48788186313E+02  0.59565030895E+02  0.51100000000E-03 0.  1.
         22    1    1    0    0    0 -0.67375256480E+01 -0.29501641306E+01 -0.29106622650E+02  0.30021545635E+02  0.00000000000E+00 0.  1.
</event>
<event>
 5    1  0.1099741E-009  0.9118800E+02  0.7818608E-02  0.1130116E+00
         25   -1    0    0    0    0  0.00000000000E+00  0.00000000000E+00  0.99999998245E-14  0.12500000000E+03  0.12500000000E+03 0.  0.
        -11    1    3    3    0    0  0.32852611794E+02  0.11403121346E+02 -0.61940497906E+01  0.35322677294E+02  0.51100000000E-03 0. -1.
         23    2    1    0    0    0 -0.23789009531E+02 -0.28932139527E+01  0.14135993629E+02  0.97177096174E+02  0.93108936432E+02 0.  0.
         11    1    3    3    0    0 -0.56641621325E+02 -0.14296335299E+02  0.20330043420E+02  0.61854418880E+02  0.51100000000E-03 0.  1.
         22    1    1    0    0    0  0.23789009531E+02  0.28932139527E+01 -0.14135993629E+02  0.27822903826E+02  0.00000000000E+00 0.  1.
</event>
<event>
 5    1  0.1099741E-009  0.9118800E+02  0.7818608E-02  0.1130116E+00
         25   -1    0    0    0    0  0.00000000000E+00  0.00000000000E+00  0.99999998245E-14  0.12500000000E+03  0.12500000000E+03 0.  0.
        -11    1    3    3    0    0  0.17595406978E+02 -0.28075995984E+01 -0.54607622141E+02  0.57441042455E+02  0.51100000000E-03 0. -1.
         23    2    1    0    0    0  0.22215483043E+02 -0.81956065503E+01 -0.16658236750E+02  0.96048445548E+02  0.91581173759E+02 0.  0.
         11    1    3    3    0    0  0.46200760654E+01 -0.53880069519E+01  0.37949385391E+02  0.38607403093E+02  0.51100000000E-03 0.  1.
         22    1    1    0    0    0 -0.22215483043E+02  0.81956065503E+01  0.16658236750E+02  0.28951554452E+02  0.00000000000E+00 0. -1.
</event>
<event>
 5    1  0.1099741E-009  0.9118800E+02  0.7818608E-02  0.1130116E+00
         25   -1    0    0    0    0  0.00000000000E+00  0.00000000000E+00  0.99999998245E-14  0.12500000000E+03  0.12500000000E+03 0.  0.
        -11    1    3    3    0    0  0.54808079008E+01 -0.10242573741E+02 -0.58073835386E+02  0.59224318728E+02  0.51100000000E-03 0. -1.
         23    2    1    0    0    0  0.16473033964E+02 -0.21639939003E+01 -0.25204020187E+02  0.94812480209E+02  0.89878362536E+02 0.  0.
         11    1    3    3    0    0  0.10992226063E+02  0.80785798409E+01  0.32869815199E+02  0.35588161481E+02  0.51100000000E-03 0.  1.
         22    1    1    0    0    0 -0.16473033964E+02  0.21639939003E+01  0.25204020187E+02  0.30187519791E+02  0.00000000000E+00 0. -1.
</event>
<event>
 5    1  0.1099741E-009  0.9118800E+02  0.7818608E-02  0.1130116E+00
         25   -1    0    0    0    0  0.00000000000E+00  0.00000000000E+00  0.99999998245E-14  0.12500000000E+03  0.12500000000E+03 0.  0.
        -11    1    3    3    0    0 -0.15411444284E+02 -0.58363543548E+02 -0.41759568921E+01  0.60508300642E+02  0.51100000000E-03 0. -1.
         23    2    1    0    0    0 -0.99253537297E+01 -0.23277102968E+02 -0.12186922350E+02  0.96913397400E+02  0.92754241682E+02 0.  0.
         11    1    3    3    0    0  0.54860905540E+01  0.35086440580E+02 -0.80109654577E+01  0.36405096758E+02  0.51100000000E-03 0.  1.
         22    1    1    0    0    0  0.99253537297E+01  0.23277102968E+02  0.12186922350E+02  0.28086602600E+02  0.00000000000E+00 0. -1.
</event>
<event>
 5    1  0.1099741E-009  0.9118800E+02  0.7818608E-02  0.1130116E+00
         25   -1    0    0    0    0  0.00000000000E+00  0.00000000000E+00  0.99999998245E-14  0.12500000000E+03  0.12500000000E+03 0.  0.
        -11    1    3    3    0    0  0.28646061504E+02  0.15945553942E+02 -0.24174332629E+02  0.40733964802E+02  0.51100000000E-03 0.  1.
         23    2    1    0    0    0 -0.24779764872E+02  0.87157276312E+01 -0.33904348346E+01  0.98514235831E+02  0.94887085305E+02 0.  0.
         11    1    3    3    0    0 -0.53425826376E+02 -0.72298263103E+01  0.20783897794E+02  0.57780271029E+02  0.51100000000E-03 0. -1.
         22    1    1    0    0    0  0.24779764872E+02 -0.87157276312E+01  0.33904348346E+01  0.26485764169E+02  0.00000000000E+00 0. -1.
</event>
<event>
 5    1  0.1099741E-009  0.9118800E+02  0.7818608E-02  0.1130116E+00
         25   -1    0    0    0    0  0.00000000000E+00  0.00000000000E+00  0.99999998245E-14  0.12500000000E+03  0.12500000000E+03 0.  0.
        -11    1    3    3    0    0 -0.43068561737E+02 -0.30315274715E+02 -0.29867632035E+02  0.60547438713E+02  0.51100000000E-03 0. -1.
         23    2    1    0    0    0 -0.18389340223E+02 -0.25185122300E+02 -0.11392319633E+02  0.91799952324E+02  0.85586144211E+02 0.  0.
         11    1    3    3    0    0  0.24679221514E+02  0.51301524150E+01  0.18475312402E+02  0.31252513610E+02  0.51100000000E-03 0.  1.
         22    1    1    0    0    0  0.18389340223E+02  0.25185122300E+02  0.11392319633E+02  0.33200047676E+02  0.00000000000E+00 0. -1.
</event>
<event>
 5    1  0.1099741E-009  0.9118800E+02  0.7818608E-02  0.1130116E+00
         25   -1    0    0    0    0  0.00000000000E+00  0.00000000000E+00  0.99999998245E-14  0.12500000000E+03  0.12500000000E+03 0.  0.
        -11    1    3    3    0    0  0.52333789215E+02 -0.21389157369E+02  0.27919963487E+01  0.56604918430E+02  0.51100000000E-03 0. -1.
         23    2    1    0    0    0  0.22483323550E+02  0.48890567455E+01  0.14180175713E+02  0.97972604695E+02  0.94170861596E+02 0.  0.
         11    1    3    3    0    0 -0.29850465665E+02  0.26278214115E+02  0.11388179364E+02  0.41367686266E+02  0.51100000000E-03 0.  1.
         22    1    1    0    0    0 -0.22483323550E+02 -0.48890567455E+01 -0.14180175713E+02  0.27027395305E+02  0.00000000000E+00 0. -1.
</event>
<event>
 5    1  0.1099741E-009  0.9118800E+02  0.7818608E-02  0.1130116E+00
         25   -1    0    0    0    0  0.00000000000E+00  0.00000000000E+00  0.99999998245E-14  0.12500000000E+03  0.12500000000E+03 0.  0.
        -11    1    3    3    0    0 -0.31647393385E+01 -0.24592195263E+02  0.24687005630E+02  0.34989139603E+02  0.51100000000E-03 0.  1.
         23    2    1    0    0    0  0.16205847236E+02  0.10999913697E+02 -0.21152827846E+02  0.96171720276E+02  0.91749278302E+02 0.  0.
         11    1    3    3    0    0  0.19370586574E+02  0.35592108960E+02 -0.45839833476E+02  0.61182580673E+02  0.51100000000E-03 0. -1.
         22    1    1    0    0    0 -0.16205847236E+02 -0.10999913697E+02  0.21152827846E+02  0.28828279724E+02  0.00000000000E+00 0. -1.
</event>
<event>
 5    1  0.1099741E-009  0.9118800E+02  0.7818608E-02  0.1130116E+00
         25   -1    0    0    0    0  0.00000000000E+00  0.00000000000E+00  0.99999998245E-14  0.12500000000E+03  0.12500000000E+03 0.  0.
        -11    1    3    3    0    0 -0.31845942893E+02 -0.16854680126E+02 -0.75946884644E+01  0.36822868085E+02  0.51100000000E-03 0. -1.
         23    2    1    0    0    0  0.18269905953E+02 -0.11059476738E+02  0.21196705326E+02  0.94910104588E+02  0.90014033056E+02 0.  0.
         11    1    3    3    0    0  0.50115848846E+02  0.57952033875E+01  0.28791393790E+02  0.58087236502E+02  0.51100000000E-03 0.  1.
         22    1    1    0    0    0 -0.18269905953E+02  0.11059476738E+02 -0.21196705326E+02  0.30089895412E+02  0.00000000000E+00 0.  1.
</event>
<event>
 5    1  0.1099741E-009  0.9118800E+02  0.7818608E-02  0.1130116E+00
         25   -1    0    0    0    0  0.00000000000E+00  0.00000000000E+00  0.99999998245E-14  0.12500000000E+03  0.12500000000E+03 0.  0.
        -11    1    3    3    0    0 -0.45395452249E+02 -0.19723296188E+02 -0.69768419495E+01  0.49984315753E+02  0.51100000000E-03 0. -1.
         23    2    1    0    0    0 -0.83773549552E+01 -0.15716083284E+01 -0.27621602349E+02  0.96093202441E+02  0.91642242499E+02 0.  0.
         11    1    3    3    0    0  0.37018097294E+02  0.18151687859E+02 -0.20644760399E+02  0.46108886688E+02  0.51100000000E-03 0.  1.
         22    1    1    0    0    0  0.83773549552E+01  0.15716083284E+01  0.27621602349E+02  0.28906797559E+02  0.00000000000E+00 0. -1.
</event>
<event>
 5    1  0.1099741E-009  0.9118800E+02  0.7818608E-02  0.1130116E+00
         25   -1    0    0    0    0  0.00000000000E+00  0.00000000000E+00  0.99999998245E-14  0.12500000000E+03  0.12500000000E+03 0.  0.
        -11    1    3    3    0    0  0.44896794645E+02  0.10556702742E+02 -0.16654244505E+02  0.49036007204E+02  0.51100000000E-03 0.  1.
         23    2    1    0    0    0  0.20373269245E+01  0.35933631135E+00 -0.29891041686E+02  0.95037453435E+02  0.90190705500E+02 0.  0.
         11    1    3    3    0    0 -0.42859467721E+02 -0.10197366430E+02 -0.13236797181E+02  0.46001446231E+02  0.51100000000E-03 0. -1.
         22    1    1    0    0    0 -0.20373269245E+01 -0.35933631135E+00  0.29891041686E+02  0.29962546565E+02  0.00000000000E+00 0. -1.
</event>
<event>
 4    1  0.1099741E-009  0.9118800E+02  0.7818608E-02  0.1130116E+00
         25   -1    0    0    0    0  0.00000000000E+00  0.00000000000E+00  0.99999998245E-14  0.12500000000E+03  0.12500000000E+03 0.  0.
        -11    1    1    0    0    0 -0.11767660104E+02  0.34479142858E+02 -0.14135283454E+02  0.39078067443E+02  0.51100000000E-03 0.  1.
         11    1    1    0    0    0 -0.15871485803E+02  0.16817348963E+02  0.15148646838E+02  0.27644326524E+02  0.51100000000E-03 0. -1.
         22    1    1    0    0    0  0.27639145906E+02 -0.51296491820E+02 -0.10133633841E+01  0.58277606032E+02  0.00000000000E+00 0. -1.
</event>
<event>
 5    1  0.1099741E-009  0.9118800E+02  0.7818608E-02  0.1130116E+00
         25   -1    0    0    0    0  0.00000000000E+00  0.00000000000E+00  0.99999998245E-14  0.12500000000E+03  0.12500000000E+03 0.  0.
        -11    1    3    3    0    0  0.63005749525E+01  0.22061442504E+02 -0.44664598465E+02  0.50212855390E+02  0.51100000000E-03 0.  1.
         23    2    1    0    0    0  0.20589525938E+02 -0.11133556898E+02 -0.22035456903E+02  0.92852744620E+02  0.87110195472E+02 0.  0.
         11    1    3    3    0    0  0.14288950985E+02 -0.33194999401E+02  0.22629141562E+02  0.42639889231E+02  0.51100000000E-03 0. -1.
         22    1    1    0    0    0 -0.20589525938E+02  0.11133556898E+02  0.22035456903E+02  0.32147255380E+02  0.00000000000E+00 0. -1.
</event>
<event>
 5    1  0.1099741E-009  0.9118800E+02  0.7818608E-02  0.1130116E+00
         25   -1    0    0    0    0  0.00000000000E+00  0.00000000000E+00  0.99999998245E-14  0.12500000000E+03  0.12500000000E+03 0.  0.
        -11    1    3    3    0    0  0.19473462250E+02 -0.12647431727E+02  0.57736279120E+02  0.62230629020E+02  0.51100000000E-03 0. -1.
         23    2    1    0    0    0  0.10324097541E+02 -0.18908215129E+01  0.25516426448E+02  0.97409236786E+02  0.93420068489E+02 0.  0.
         11    1    3    3    0    0 -0.91493647090E+01  0.10756610214E+02 -0.32219852672E+02  0.35178607766E+02  0.51100000000E-03 0.  1.
         22    1    1    0    0    0 -0.10324097541E+02  0.18908215129E+01 -0.25516426448E+02  0.27590763214E+02  0.00000000000E+00 0. -1.
</event>
<event>
 5    1  0.1099741E-009  0.9118800E+02  0.7818608E-02  0.1130116E+00
         25   -1    0    0    0    0  0.00000000000E+00  0.00000000000E+00  0.99999998245E-14  0.12500000000E+03  0.12500000000E+03 0.  0.
        -11    1    3    3    0    0 -0.35932057271E+02 -0.29783645463E+01 -0.22004528824E+02  0.42239586694E+02  0.51100000000E-03 0. -1.
         23    2    1    0    0    0  0.82448467161E+01  0.25774184263E+02 -0.68134560514E+01  0.97094637520E+02  0.92998168691E+02 0.  0.
         11    1    3    3    0    0  0.44176903987E+02  0.28752548809E+02  0.15191072772E+02  0.54855050826E+02  0.51100000000E-03 0.  1.
         22    1    1    0    0    0 -0.82448467161E+01 -0.25774184263E+02  0.68134560514E+01  0.27905362480E+02  0.00000000000E+00 0.  1.
</event>
<event>
 5    1  0.1099741E-009  0.9118800E+02  0.7818608E-02  0.1130116E+00
         25   -1    0    0    0    0  0.00000000000E+00  0.00000000000E+00  0.99999998245E-14  0.12500000000E+03  0.12500000000E+03 0.  0.
        -11    1    3    3    0    0 -0.31168193071E+02 -0.16603032661E+02 -0.10884893367E+02  0.36953996492E+02  0.51100000000E-03 0. -1.
         23    2    1    0    0    0  0.16921900162E+02 -0.15713534167E+02  0.20280226275E+02  0.94266411878E+02  0.89115671851E+02 0.  0.
         11    1    3    3    0    0  0.48090093233E+02  0.88949849400E+00  0.31165119642E+02  0.57312415386E+02  0.51100000000E-03 0.  1.
         22    1    1    0    0    0 -0.16921900162E+02  0.15713534167E+02 -0.20280226275E+02  0.30733588122E+02  0.00000000000E+00 0.  1.
</event>
<event>
 5    1  0.1099741E-009  0.9118800E+02  0.7818608E-02  0.1130116E+00
         25   -1    0    0    0    0  0.00000000000E+00  0.00000000000E+00  0.99999998245E-14  0.12500000000E+03  0.12500000000E+03 0.  0.
        -11    1    3    3    0    0  0.22198188144E+01 -0.22528520261E+02  0.30979828390E+02  0.38369409535E+02  0.51100000000E-03 0.  1.
         23    2    1    0    0    0  0.25834279459E+02  0.15913433330E+01 -0.14750737767E+02  0.95208614778E+02  0.90427615774E+02 0.  0.
         11    1    3    3    0    0  0.23614460644E+02  0.24119863594E+02 -0.45730566157E+02  0.56839205243E+02  0.51100000000E-03 0. -1.
         22    1    1    0    0    0 -0.25834279459E+02 -0.15913433330E+01  0.14750737767E+02  0.29791385222E+02  0.00000000000E+00 0. -1.
</event>
<event>
 5    1  0.1099741E-009  0.9118800E+02  0.7818608E-02  0.1130116E+00
         25   -1    0    0    0    0  0.00000000000E+00  0.00000000000E+00  0.99999998245E-14  0.12500000000E+03  0.12500000000E+03 0.  0.
        -11    1    3    3    0    0  0.37982581225E+02 -0.36717698659E+00 -0.16343546101E+01  0.38019500400E+02  0.51100000000E-03 0. -1.
         23    2    1    0    0    0 -0.11988855343E+02 -0.20132007736E+02  0.18230654404E+02  0.95311834885E+02  0.90570186712E+02 0.  0.
         11    1    3    3    0    0 -0.49971436568E+02 -0.19764830750E+02  0.19865009014E+02  0.57292334484E+02  0.51100000000E-03 0.  1.
         22    1    1    0    0    0  0.11988855343E+02  0.20132007736E+02 -0.18230654404E+02  0.29688165115E+02  0.00000000000E+00 0.  1.
</event>
<event>
 5    1  0.1099741E-009  0.9118800E+02  0.7818608E-02  0.1130116E+00
         25   -1    0    0    0    0  0.00000000000E+00  0.00000000000E+00  0.99999998245E-14  0.12500000000E+03  0.12500000000E+03 0.  0.
        -11    1    3    3    0    0  0.40566159924E+02  0.35797600974E+01  0.46772407541E+02  0.62016821273E+02  0.51100000000E-03 0. -1.
         23    2    1    0    0    0  0.17895160076E+02 -0.36341648369E+01  0.22772048756E+02  0.95810787733E+02  0.91256215861E+02 0.  0.
         11    1    3    3    0    0 -0.22670999848E+02 -0.72139249343E+01 -0.24000358785E+02  0.33793966460E+02  0.51100000000E-03 0.  1.
         22    1    1    0    0    0 -0.17895160076E+02  0.36341648369E+01 -0.22772048756E+02  0.29189212267E+02  0.00000000000E+00 0. -1.
</event>
<event>
 5    1  0.1099741E-009  0.9118800E+02  0.7818608E-02  0.1130116E+00
         25   -1    0    0    0    0  0.00000000000E+00  0.00000000000E+00  0.99999998245E-14  0.12500000000E+03  0.12500000000E+03 0.  0.
        -11    1    3    3    0    0  0.42261381540E+02 -0.75578978526E+01  0.33115846277E+02  0.54219972930E+02  0.51100000000E-03 0.  1.
         23    2    1    0    0    0  0.10472855868E+01 -0.43480523122E+01  0.28880481011E+02  0.95775275032E+02  0.91207558667E+02 0.  0.
         11    1    3    3    0    0 -0.41214095953E+02  0.32098455405E+01 -0.42353652656E+01  0.41555302102E+02  0.51100000000E-03 0. -1.
         22    1    1    0    0    0 -0.10472855868E+01  0.43480523122E+01 -0.28880481011E+02  0.29224724968E+02  0.00000000000E+00 0.  1.
</event>
<event>
 5    1  0.1099741E-009  0.9118800E+02  0.7818608E-02  0.1130116E+00
         25   -1    0    0    0    0  0.00000000000E+00  0.00000000000E+00  0.99999998245E-14  0.12500000000E+03  0.12500000000E+03 0.  0.
        -11    1    3    3    0    0 -0.10454099491E+02  0.26328747025E+02 -0.31377480425E+02  0.42273365068E+02  0.51100000000E-03 0.  1.
         23    2    1    0    0    0  0.63738068242E+01  0.23202679056E+02  0.18269589071E+02  0.94787955818E+02  0.89844248311E+02 0.  0.
         11    1    3    3    0    0  0.16827906315E+02 -0.31260679686E+01  0.49647069496E+02  0.52514590750E+02  0.51100000000E-03 0. -1.
         22    1    1    0    0    0 -0.63738068242E+01 -0.23202679056E+02 -0.18269589071E+02  0.30212044182E+02  0.00000000000E+00 0. -1.
</event>
<event>
 5    1  0.1099741E-009  0.9118800E+02  0.7818608E-02  0.1130116E+00
         25   -1    0    0    0    0  0.00000000000E+00  0.00000000000E+00  0.99999998245E-14  0.12500000000E+03  0.12500000000E+03 0.  0.
        -11    1    3    3    0    0  0.27330063293E+02 -0.34306134443E+02 -0.44070184044E+02  0.62177361973E+02  0.51100000000E-03 0.  1.
         23    2    1    0    0    0  0.13032813552E+02 -0.12195123030E+02 -0.22915777428E+02  0.95953345977E+02  0.91451279348E+02 0.  0.
         11    1    3    3    0    0 -0.14297249741E+02  0.22111011413E+02  0.21154406617E+02  0.33775984004E+02  0.51100000000E-03 0. -1.
         22    1    1    0    0    0 -0.13032813552E+02  0.12195123030E+02  0.22915777428E+02  0.29046654023E+02  0.00000000000E+00 0.  1.
</event>
<event>
 5    1  0.1099741E-009  0.9118800E+02  0.7818608E-02  0.1130116E+00
         25   -1    0    0    0    0  0.00000000000E+00  0.00000000000E+00  0.99999998245E-14  0.12500000000E+03  0.12500000000E+03 0.  0.
        -11    1    3    3    0    0 -0.15430395727E+02  0.31094252866E+02 -0.27446983411E+02  0.44252531817E+02  0.51100000000E-03 0.  1.
         23    2    1    0    0    0  0.16335376333E+02  0.19822759536E+02  0.12428202357E+02  0.96464994666E+02  0.92147971581E+02 0.  0.
         11    1    3    3    0    0  0.31765772060E+02 -0.11271493329E+02  0.39875185768E+02  0.52212462849E+02  0.51100000000E-03 0. -1.
         22    1    1    0    0    0 -0.16335376333E+02 -0.19822759536E+02 -0.12428202357E+02  0.28535005334E+02  0.00000000000E+00 0. -1.
</event>
<event>
 5    1  0.1099741E-009  0.9118800E+02  0.7818608E-02  0.1130116E+00
         25   -1    0    0    0    0  0.00000000000E+00  0.00000000000E+00  0.99999998245E-14  0.12500000000E+03  0.12500000000E+03 0.  0.
        -11    1    3    3    0    0 -0.18808900936E+02 -0.16086329961E+02  0.54903887710E+02  0.60224427370E+02  0.51100000000E-03 0.  1.
         23    2    1    0    0    0 -0.60318491886E+01  0.46294199891E+01  0.25476719438E+02  0.98412823253E+02  0.94753394732E+02 0.  0.
         11    1    3    3    0    0  0.12777051748E+02  0.20715749950E+02 -0.29427168273E+02  0.38188395883E+02  0.51100000000E-03 0. -1.
         22    1    1    0    0    0  0.60318491886E+01 -0.46294199891E+01 -0.25476719438E+02  0.26587176747E+02  0.00000000000E+00 0.  1.
</event>
<event>
 5    1  0.1099741E-009  0.9118800E+02  0.7818608E-02  0.1130116E+00
         25   -1    0    0    0    0  0.00000000000E+00  0.00000000000E+00  0.99999998245E-14  0.12500000000E+03  0.12500000000E+03 0.  0.
        -11    1    3    3    0    0  0.24440691736E+02 -0.19180125040E+02 -0.20550274837E+02  0.37249676579E+02  0.51100000000E-03 0.  1.
         23    2    1    0    0    0 -0.37598254707E+01  0.28789654842E+02 -0.20333399384E+01  0.95894760183E+02  0.91371166381E+02 0.  0.
         11    1    3    3    0    0 -0.28200517206E+02  0.47969779882E+02  0.18516934898E+02  0.58645083604E+02  0.51100000000E-03 0. -1.
         22    1    1    0    0    0  0.37598254707E+01 -0.28789654842E+02  0.20333399384E+01  0.29105239817E+02  0.00000000000E+00 0. -1.
</event>
<event>
 5    1  0.1099741E-009  0.9118800E+02  0.7818608E-02  0.1130116E+00
         25   -1    0    0    0    0  0.00000000000E+00  0.00000000000E+00  0.99999998245E-14  0.12500000000E+03  0.12500000000E+03 0.  0.
        -11    1    3    3    0    0  0.11688076311E+02  0.22330876494E+02  0.55063732780E+02  0.60558185581E+02  0.51100000000E-03 0.  1.
         23    2    1    0    0    0 -0.18120622077E+01  0.18274531210E+02  0.23118471813E+02  0.95475335745E+02  0.90795561215E+02 0.  0.
         11    1    3    3    0    0 -0.13500138519E+02 -0.40563452839E+01 -0.31945260967E+02  0.34917150165E+02  0.51100000000E-03 0. -1.
         22    1    1    0    0    0  0.18120622077E+01 -0.18274531210E+02 -0.23118471813E+02  0.29524664255E+02  0.00000000000E+00 0.  1.
</event>
<event>
 5    1  0.1099741E-009  0.9118800E+02  0.7818608E-02  0.1130116E+00
         25   -1    0    0    0    0  0.00000000000E+00  0.00000000000E+00  0.99999998245E-14  0.12500000000E+03  0.12500000000E+03 0.  0.
        -11    1    3    3    0    0 -0.10892162941E+02  0.76599646340E+01 -0.35898079753E+02  0.38288201864E+02  0.51100000000E-03 0.  1.
         23    2    1    0    0    0 -0.18061978293E+02  0.62751280684E+01  0.21545111758E+02  0.96193678944E+02  0.91779190103E+02 0.  0.
         11    1    3    3    0    0 -0.71698153517E+01 -0.13848365656E+01  0.57443191512E+02  0.57905477080E+02  0.51100000000E-03 0. -1.
         22    1    1    0    0    0  0.18061978293E+02 -0.62751280684E+01 -0.21545111758E+02  0.28806321056E+02  0.00000000000E+00 0. -1.
</event>
<event>
 5    1  0.1099741E-009  0.9118800E+02  0.7818608E-02  0.1130116E+00
         25   -1    0    0    0    0  0.00000000000E+00  0.00000000000E+00  0.99999998245E-14  0.12500000000E+03  0.12500000000E+03 0.  0.
        -11    1    3    3    0    0 -0.34682287413E+02  0.32651953377E+02  0.32689439601E+02  0.57772057097E+02  0.51100000000E-03 0. -1.
         23    2    1    0    0    0 -0.23174463670E+01  0.25385833244E+02  0.15985634359E+02  0.94910938981E+02  0.90015191747E+02 0.  0.
         11    1    3    3    0    0  0.32364841046E+02 -0.72661201327E+01 -0.16703805242E+02  0.37138881884E+02  0.51100000000E-03 0.  1.
         22    1    1    0    0    0  0.23174463670E+01 -0.25385833244E+02 -0.15985634359E+02  0.30089061019E+02  0.00000000000E+00 0. -1.
</event>
<event>
 5    1  0.1099741E-009  0.9118800E+02  0.7818608E-02  0.1130116E+00
         25   -1    0    0    0    0  0.00000000000E+00  0.00000000000E+00  0.99999998245E-14  0.12500000000E+03  0.12500000000E+03 0.  0.
        -11    1    3    3    0    0  0.14593200269E+02 -0.41200742825E+02 -0.28199386092E+02  0.52016036754E+02  0.51100000000E-03 0. -1.
         23    2    1    0    0    0 -0.47547686542E-02 -0.25856547900E+02  0.11258630933E+02  0.96798619495E+02  0.92599432362E+02 0.  0.
         11    1    3    3    0    0 -0.14597955037E+02  0.15344194925E+02  0.39458017025E+02  0.44782582741E+02  0.51100000000E-03 0.  1.
         22    1    1    0    0    0  0.47547686542E-02  0.25856547900E+02 -0.11258630933E+02  0.28201380505E+02  0.00000000000E+00 0. -1.
</event>
<event>
 5    1  0.1099741E-009  0.9118800E+02  0.7818608E-02  0.1130116E+00
         25   -1    0    0    0    0  0.00000000000E+00  0.00000000000E+00  0.99999998245E-14  0.12500000000E+03  0.12500000000E+03 0.  0.
        -11    1    3    3    0    0 -0.52548984790E+02 -0.18772951173E+02  0.14537390033E+02  0.57664158776E+02  0.51100000000E-03 0.  1.
         23    2    1    0    0    0 -0.29222521779E+02  0.34831302122E+01 -0.46847131929E+01  0.95200092066E+02  0.90415833882E+02 0.  0.
         11    1    3    3    0    0  0.23326463011E+02  0.22256081385E+02 -0.19222103226E+02  0.37535933290E+02  0.51100000000E-03 0. -1.
         22    1    1    0    0    0  0.29222521779E+02 -0.34831302122E+01  0.46847131929E+01  0.29799907934E+02  0.00000000000E+00 0.  1.
</event>
<event>
 5    1  0.1099741E-009  0.9118800E+02  0.7818608E-02  0.1130116E+00
         25   -1    0    0    0    0  0.00000000000E+00  0.00000000000E+00  0.99999998245E-14  0.12500000000E+03  0.12500000000E+03 0.  0.
        -11    1    3    3    0    0 -0.26671992908E+02  0.18320971116E+02  0.33285815218E+01  0.32528950852E+02  0.51100000000E-03 0.  1.
         23    2    1    0    0    0  0.25520975345E+02 -0.14365535324E+02 -0.67868349638E+01  0.94937566357E+02  0.90052160381E+02 0.  0.
         11    1    3    3    0    0  0.52192968253E+02 -0.32686506440E+02 -0.10115416486E+02  0.62408615505E+02  0.51100000000E-03 0. -1.
         22    1    1    0    0    0 -0.25520975345E+02  0.14365535324E+02  0.67868349638E+01  0.30062433643E+02  0.00000000000E+00 0. -1.
</event>
<event>
 5    1  0.1099741E-009  0.9118800E+02  0.7818608E-02  0.1130116E+00
         25   -1    0    0    0    0  0.00000000000E+00  0.00000000000E+00  0.99999998245E-14  0.12500000000E+03  0.12500000000E+03 0.  0.
        -11    1    3    3    0    0  0.21084525176E+02  0.43757941953E+02  0.20935711162E+01  0.48617874554E+02  0.51100000000E-03 0.  1.
         23    2    1    0    0    0  0.29784554715E+02 -0.15374277126E+01  0.46665786920E+01  0.94812911034E+02  0.89878961712E+02 0.  0.
         11    1    3    3    0    0  0.87000295394E+01 -0.45295369666E+02  0.25730075758E+01  0.46195036480E+02  0.51100000000E-03 0. -1.
         22    1    1    0    0    0 -0.29784554715E+02  0.15374277126E+01 -0.46665786920E+01  0.30187088966E+02  0.00000000000E+00 0. -1.
</event>
<event>
 5    1  0.1099741E-009  0.9118800E+02  0.7818608E-02  0.1130116E+00
         25   -1    0    0    0    0  0.00000000000E+00  0.00000000000E+00  0.99999998245E-14  0.12500000000E+03  0.12500000000E+03 0.  0.
        -11    1    3    3    0    0  0.17359100572E+02  0.42494947487E+02  0.55483526054E+01  0.46237897351E+02  0.51100000000E-03 0. -1.
         23    2    1    0    0    0  0.17979035847E+02 -0.22666981263E+01  0.24227974966E+02  0.94744778611E+02  0.89784155911E+02 0.  0.
         11    1    3    3    0    0  0.61993527433E+00 -0.44761645613E+02  0.18679622360E+02  0.48506881259E+02  0.51100000000E-03 0.  1.
         22    1    1    0    0    0 -0.17979035847E+02  0.22666981263E+01 -0.24227974966E+02  0.30255221389E+02  0.00000000000E+00 0.  1.
</event>
<event>
 5    1  0.1099741E-009  0.9118800E+02  0.7818608E-02  0.1130116E+00
         25   -1    0    0    0    0  0.00000000000E+00  0.00000000000E+00  0.99999998245E-14  0.12500000000E+03  0.12500000000E+03 0.  0.
        -11    1    3    3    0    0 -0.57169817880E+02 -0.23306854177E+02 -0.82211872346E+01  0.62283107243E+02  0.51100000000E-03 0.  1.
         23    2    1    0    0    0 -0.25332637942E+02 -0.13919477601E+02 -0.53990606536E+01  0.95595166083E+02  0.90960384348E+02 0.  0.
         11    1    3    3    0    0  0.31837179939E+02  0.93873765760E+01  0.28221265810E+01  0.33312058839E+02  0.51100000000E-03 0. -1.
         22    1    1    0    0    0  0.25332637942E+02  0.13919477601E+02  0.53990606536E+01  0.29404833917E+02  0.00000000000E+00 0.  1.
</event>
<event>
 5    1  0.1099741E-009  0.9118800E+02  0.7818608E-02  0.1130116E+00
         25   -1    0    0    0    0  0.00000000000E+00  0.00000000000E+00  0.99999998245E-14  0.12500000000E+03  0.12500000000E+03 0.  0.
        -11    1    3    3    0    0  0.41078578841E+02 -0.35844080056E+02 -0.25714148607E+02  0.60278231175E+02  0.51100000000E-03 0. -1.
         23    2    1    0    0    0  0.21326740311E+02 -0.55135703234E+01 -0.16061785016E+02  0.97738117308E+02  0.93859092937E+02 0.  0.
         11    1    3    3    0    0 -0.19751838531E+02  0.30330509733E+02  0.96523635910E+01  0.37459886134E+02  0.51100000000E-03 0.  1.
         22    1    1    0    0    0 -0.21326740311E+02  0.55135703234E+01  0.16061785016E+02  0.27261882692E+02  0.00000000000E+00 0. -1.
</event>
<event>
 5    1  0.1099741E-009  0.9118800E+02  0.7818608E-02  0.1130116E+00
         25   -1    0    0    0    0  0.00000000000E+00  0.00000000000E+00  0.99999998245E-14  0.12500000000E+03  0.12500000000E+03 0.  0.
        -11    1    3    3    0    0  0.26285984042E+02  0.24304127843E+02 -0.36639957120E+02  0.51226263238E+02  0.51100000000E-03 0.  1.
         23    2    1    0    0    0  0.88229621763E+01  0.29975874270E+02  0.16690501810E+01  0.93708093246E+02  0.88329062666E+02 0.  0.
         11    1    3    3    0    0 -0.17463021865E+02  0.56717464268E+01  0.38309007301E+02  0.42481830008E+02  0.51100000000E-03 0. -1.
         22    1    1    0    0    0 -0.88229621763E+01 -0.29975874270E+02 -0.16690501810E+01  0.31291906754E+02  0.00000000000E+00 0. -1.
</event>
<event>
 5    1  0.1099741E-009  0.9118800E+02  0.7818608E-02  0.1130116E+00
         25   -1    0    0    0    0  0.00000000000E+00  0.00000000000E+00  0.99999998245E-14  0.12500000000E+03  0.12500000000E+03 0.  0.
        -11    1    3    3    0    0  0.25635638273E+01  0.54181044489E+01 -0.61894530395E+02  0.62184086457E+02  0.51100000000E-03 0.  1.
         23    2    1    0    0    0  0.41525685613E+01  0.66031135663E+01 -0.35490907933E+02  0.88662010508E+02  0.80873374030E+02 0.  0.
         11    1    3    3    0    0  0.15890047340E+01  0.11850091174E+01  0.26403622463E+02  0.26477924051E+02  0.51100000000E-03 0. -1.
         22    1    1    0    0    0 -0.41525685613E+01 -0.66031135663E+01  0.35490907933E+02  0.36337989492E+02  0.00000000000E+00 0.  1.
</event>
<event>
 5    1  0.1099741E-009  0.9118800E+02  0.7818608E-02  0.1130116E+00
         25   -1    0    0    0    0  0.00000000000E+00  0.00000000000E+00  0.99999998245E-14  0.12500000000E+03  0.12500000000E+03 0.  0.
        -11    1    3    3    0    0 -0.23215214550E+02 -0.54934123514E+01  0.23412385928E+02  0.33425492980E+02  0.51100000000E-03 0.  1.
         23    2    1    0    0    0 -0.84226938697E+01  0.27130028285E+02 -0.20406834120E+02  0.90022591783E+02  0.82949671161E+02 0.  0.
         11    1    3    3    0    0  0.14792520680E+02  0.32623440636E+02 -0.43819220048E+02  0.56597098803E+02  0.51100000000E-03 0. -1.
         22    1    1    0    0    0  0.84226938697E+01 -0.27130028285E+02  0.20406834120E+02  0.34977408217E+02  0.00000000000E+00 0. -1.
</event>
<event>
 5    1  0.1099741E-009  0.9118800E+02  0.7818608E-02  0.1130116E+00
         25   -1    0    0    0    0  0.00000000000E+00  0.00000000000E+00  0.99999998245E-14  0.12500000000E+03  0.12500000000E+03 0.  0.
        -11    1    3    3    0    0 -0.95515533290E+00  0.25908259755E+02  0.51869241939E+02  0.57987658211E+02  0.51100000000E-03 0.  1.
         23    2    1    0    0    0  0.16182280574E+02  0.13929809653E+02  0.23221434188E+02  0.93454147543E+02  0.87968954101E+02 0.  0.
         11    1    3    3    0    0  0.17137435906E+02 -0.11978450102E+02 -0.28647807751E+02  0.35466489331E+02  0.51100000000E-03 0. -1.
         22    1    1    0    0    0 -0.16182280574E+02 -0.13929809653E+02 -0.23221434188E+02  0.31545852457E+02  0.00000000000E+00 0.  1.
</event>
<event>
 5    1  0.1099741E-009  0.9118800E+02  0.7818608E-02  0.1130116E+00
         25   -1    0    0    0    0  0.00000000000E+00  0.00000000000E+00  0.99999998245E-14  0.12500000000E+03  0.12500000000E+03 0.  0.
        -11    1    3    3    0    0 -0.46009383244E+02  0.81707020402E+01  0.35721218967E+02  0.58818612726E+02  0.51100000000E-03 0. -1.
         23    2    1    0    0    0 -0.13757352387E+02  0.17381155855E+02  0.14649766464E+02  0.98429622114E+02  0.94775553433E+02 0.  0.
         11    1    3    3    0    0  0.32252030857E+02  0.92104538153E+01 -0.21071452503E+02  0.39611009388E+02  0.51100000000E-03 0.  1.
         22    1    1    0    0    0  0.13757352387E+02 -0.17381155855E+02 -0.14649766464E+02  0.26570377886E+02  0.00000000000E+00 0. -1.
</event>
<event>
 5    1  0.1099741E-009  0.9118800E+02  0.7818608E-02  0.1130116E+00
         25   -1    0    0    0    0  0.00000000000E+00  0.00000000000E+00  0.99999998245E-14  0.12500000000E+03  0.12500000000E+03 0.  0.
        -11    1    3    3    0    0 -0.14037584584E+02  0.16906363575E+02 -0.36845921983E+02  0.42901059163E+02  0.51100000000E-03 0. -1.
         23    2    1    0    0    0 -0.65857460353E+01 -0.26366909155E+02 -0.44669530332E+01  0.97458402032E+02  0.93485830520E+02 0.  0.
         11    1    3    3    0    0  0.74518385485E+01 -0.43273272730E+02  0.32378968949E+02  0.54557342869E+02  0.51100000000E-03 0.  1.
         22    1    1    0    0    0  0.65857460353E+01  0.26366909155E+02  0.44669530332E+01  0.27541597968E+02  0.00000000000E+00 0.  1.
</event>
<event>
 5    1  0.1099741E-009  0.9118800E+02  0.7818608E-02  0.1130116E+00
         25   -1    0    0    0    0  0.00000000000E+00  0.00000000000E+00  0.99999998245E-14  0.12500000000E+03  0.12500000000E+03 0.  0.
        -11    1    3    3    0    0 -0.11689515613E+02 -0.35691292256E+02 -0.12506301550E+02  0.39584349141E+02  0.51100000000E-03 0.  1.
         23    2    1    0    0    0  0.96470972554E+01  0.16266197812E+02 -0.21387868046E+02  0.96450103743E+02  0.92127769624E+02 0.  0.
         11    1    3    3    0    0  0.21336612869E+02  0.51957490068E+02 -0.88815664969E+01  0.56865754603E+02  0.51100000000E-03 0. -1.
         22    1    1    0    0    0 -0.96470972554E+01 -0.16266197812E+02  0.21387868046E+02  0.28549896257E+02  0.00000000000E+00 0. -1.
</event>
<event>
 5    1  0.1099741E-009  0.9118800E+02  0.7818608E-02  0.1130116E+00
         25   -1    0    0    0    0  0.00000000000E+00  0.00000000000E+00  0.99999998245E-14  0.12500000000E+03  0.12500000000E+03 0.  0.
        -11    1    3    3    0    0 -0.48686691023E+01  0.43193186039E+02 -0.33953691131E+02  0.55156218151E+02  0.51100000000E-03 0.  1.
         23    2    1    0    0    0  0.18680764364E+02  0.13683426773E+02 -0.15090200762E+02  0.97360874028E+02  0.93355334646E+02 0.  0.
         11    1    3    3    0    0  0.23549433466E+02 -0.29509759266E+02  0.18863490369E+02  0.42204655877E+02  0.51100000000E-03 0. -1.
         22    1    1    0    0    0 -0.18680764364E+02 -0.13683426773E+02  0.15090200762E+02  0.27639125972E+02  0.00000000000E+00 0. -1.
</event>
<event>
 5    1  0.1099741E-009  0.9118800E+02  0.7818608E-02  0.1130116E+00
         25   -1    0    0    0    0  0.00000000000E+00  0.00000000000E+00  0.99999998245E-14  0.12500000000E+03  0.12500000000E+03 0.  0.
        -11    1    3    3    0    0 -0.36097260292E+01 -0.16839785052E+02  0.36115721379E+02  0.40011920894E+02  0.51100000000E-03 0.  1.
         23    2    1    0    0    0  0.25449282995E+02 -0.10621035363E+02 -0.10664609804E+02  0.95433020116E+02  0.90737285771E+02 0.  0.
         11    1    3    3    0    0  0.29059009024E+02  0.62187496890E+01 -0.46780331183E+02  0.55421099223E+02  0.51100000000E-03 0. -1.
         22    1    1    0    0    0 -0.25449282995E+02  0.10621035363E+02  0.10664609804E+02  0.29566979884E+02  0.00000000000E+00 0.  1.
</event>
<event>
 5    1  0.1099741E-009  0.9118800E+02  0.7818608E-02  0.1130116E+00
         25   -1    0    0    0    0  0.00000000000E+00  0.00000000000E+00  0.99999998245E-14  0.12500000000E+03  0.12500000000E+03 0.  0.
        -11    1    3    3    0    0  0.14031274116E+02  0.12974503886E+02  0.56098602105E+02  0.59264386969E+02  0.51100000000E-03 0.  1.
         23    2    1    0    0    0 -0.29798783389E+00 -0.65639857433E+01  0.27398135317E+02  0.96824966292E+02  0.92634991084E+02 0.  0.
         11    1    3    3    0    0 -0.14329261950E+02 -0.19538489629E+02 -0.28700466788E+02  0.37560579324E+02  0.51100000000E-03 0. -1.
         22    1    1    0    0    0  0.29798783389E+00  0.65639857433E+01 -0.27398135317E+02  0.28175033708E+02  0.00000000000E+00 0.  1.
</event>
<event>
 5    1  0.1099741E-009  0.9118800E+02  0.7818608E-02  0.1130116E+00
         25   -1    0    0    0    0  0.00000000000E+00  0.00000000000E+00  0.99999998245E-14  0.12500000000E+03  0.12500000000E+03 0.  0.
        -11    1    3    3    0    0 -0.45363350643E+02 -0.23583941406E+02  0.15504984319E+02  0.53426963350E+02  0.51100000000E-03 0.  1.
         23    2    1    0    0    0 -0.22496197438E+02 -0.88265409902E+01 -0.16725310203E+02  0.95610839985E+02  0.90981921261E+02 0.  0.
         11    1    3    3    0    0  0.22867153206E+02  0.14757400415E+02 -0.32230294522E+02  0.42183876635E+02  0.51100000000E-03 0. -1.
         22    1    1    0    0    0  0.22496197438E+02  0.88265409902E+01  0.16725310203E+02  0.29389160015E+02  0.00000000000E+00 0.  1.
</event>
<event>
 5    1  0.1099741E-009  0.9118800E+02  0.7818608E-02  0.1130116E+00
         25   -1    0    0    0    0  0.00000000000E+00  0.00000000000E+00  0.99999998245E-14  0.12500000000E+03  0.12500000000E+03 0.  0.
        -11    1    3    3    0    0  0.32740392791E+02  0.75552266450E+01  0.13381279747E+02  0.36167297628E+02  0.51100000000E-03 0.  1.
         23    2    1    0    0    0 -0.93944001775E+01  0.35853940578E+01 -0.27933803089E+02  0.95311497844E+02  0.90569721547E+02 0.  0.
         11    1    3    3    0    0 -0.42134792969E+02 -0.39698325873E+01 -0.41315082835E+02  0.59144200216E+02  0.51100000000E-03 0. -1.
         22    1    1    0    0    0  0.93944001775E+01 -0.35853940578E+01  0.27933803089E+02  0.29688502156E+02  0.00000000000E+00 0. -1.
</event>
<event>
 5    1  0.1099741E-009  0.9118800E+02  0.7818608E-02  0.1130116E+00
         25   -1    0    0    0    0  0.00000000000E+00  0.00000000000E+00  0.99999998245E-14  0.12500000000E+03  0.12500000000E+03 0.  0.
        -11    1    3    3    0    0  0.36351882746E+01  0.15670215329E+02  0.33479868091E+02  0.37143933689E+02  0.51100000000E-03 0. -1.
         23    2    1    0    0    0 -0.21029500108E+01  0.14625772612E+02 -0.25024693292E+02  0.95938498015E+02  0.91430982188E+02 0.  0.
         11    1    3    3    0    0 -0.57381382854E+01 -0.10444427169E+01 -0.58504561382E+02  0.58794564327E+02  0.51100000000E-03 0.  1.
         22    1    1    0    0    0  0.21029500108E+01 -0.14625772612E+02  0.25024693292E+02  0.29061501985E+02  0.00000000000E+00 0.  1.
</event>
<event>
 5    1  0.1099741E-009  0.9118800E+02  0.7818608E-02  0.1130116E+00
         25   -1    0    0    0    0  0.00000000000E+00  0.00000000000E+00  0.99999998245E-14  0.12500000000E+03  0.12500000000E+03 0.  0.
        -11    1    3    3    0    0 -0.11208375899E+02  0.46633263056E+02 -0.24665261942E+01  0.48024708903E+02  0.51100000000E-03 0.  1.
         23    2    1    0    0    0 -0.11184256058E+02  0.59712194462E+01 -0.26758166236E+02  0.95390162014E+02  0.90678225080E+02 0.  0.
         11    1    3    3    0    0  0.24119840688E-01 -0.40662043610E+02 -0.24291640041E+02  0.47365453111E+02  0.51100000000E-03 0. -1.
         22    1    1    0    0    0  0.11184256058E+02 -0.59712194462E+01  0.26758166236E+02  0.29609837986E+02  0.00000000000E+00 0.  1.
</event>
<event>
 5    1  0.1099741E-009  0.9118800E+02  0.7818608E-02  0.1130116E+00
         25   -1    0    0    0    0  0.00000000000E+00  0.00000000000E+00  0.99999998245E-14  0.12500000000E+03  0.12500000000E+03 0.  0.
        -11    1    3    3    0    0 -0.46463196015E+01 -0.13087960953E+02 -0.41441796709E+02  0.43707042024E+02  0.51100000000E-03 0.  1.
         23    2    1    0    0    0  0.24602657974E+02 -0.17054319667E+02  0.57923648793E+00  0.95058789043E+02  0.90220270786E+02 0.  0.
         11    1    3    3    0    0  0.29248977575E+02 -0.39663587138E+01  0.42021033197E+02  0.51351747019E+02  0.51100000000E-03 0. -1.
         22    1    1    0    0    0 -0.24602657974E+02  0.17054319667E+02 -0.57923648793E+00  0.29941210957E+02  0.00000000000E+00 0. -1.
</event>
<event>
 5    1  0.1099741E-009  0.9118800E+02  0.7818608E-02  0.1130116E+00
         25   -1    0    0    0    0  0.00000000000E+00  0.00000000000E+00  0.99999998245E-14  0.12500000000E+03  0.12500000000E+03 0.  0.
        -11    1    3    3    0    0 -0.55682033033E+02 -0.25117435412E+02 -0.95134364926E+01  0.61821354228E+02  0.51100000000E-03 0.  1.
         23    2    1    0    0    0 -0.27208943153E+02 -0.10073427300E+02  0.17399513581E+01  0.95934075693E+02  0.91424936004E+02 0.  0.
         11    1    3    3    0    0  0.28473089880E+02  0.15044008113E+02  0.11253387851E+02  0.34112721466E+02  0.51100000000E-03 0. -1.
         22    1    1    0    0    0  0.27208943153E+02  0.10073427300E+02 -0.17399513581E+01  0.29065924307E+02  0.00000000000E+00 0.  1.
</event>
<event>
 5    1  0.1099741E-009  0.9118800E+02  0.7818608E-02  0.1130116E+00
         25   -1    0    0    0    0  0.00000000000E+00  0.00000000000E+00  0.99999998245E-14  0.12500000000E+03  0.12500000000E+03 0.  0.
        -11    1    3    3    0    0 -0.14731263339E+02  0.24694488065E+02  0.15107619794E+02  0.32481810856E+02  0.51100000000E-03 0.  1.
         23    2    1    0    0    0  0.28712274388E+02 -0.93819548237E+01 -0.10062316134E+02  0.93161878466E+02  0.87552667672E+02 0.  0.
         11    1    3    3    0    0  0.43443537727E+02 -0.34076442889E+02 -0.25169935928E+02  0.60680067610E+02  0.51100000000E-03 0. -1.
         22    1    1    0    0    0 -0.28712274388E+02  0.93819548237E+01  0.10062316134E+02  0.31838121534E+02  0.00000000000E+00 0. -1.
</event>
<event>
 5    1  0.1099741E-009  0.9118800E+02  0.7818608E-02  0.1130116E+00
         25   -1    0    0    0    0  0.00000000000E+00  0.00000000000E+00  0.99999998245E-14  0.12500000000E+03  0.12500000000E+03 0.  0.
        -11    1    3    3    0    0  0.24677543936E+02  0.18176267979E+02 -0.48246081574E+02  0.57158046502E+02  0.51100000000E-03 0.  1.
         23    2    1    0    0    0 -0.56103232674E+01  0.48485637407E+01 -0.28187716258E+02  0.95853273848E+02  0.91314393510E+02 0.  0.
         11    1    3    3    0    0 -0.30287867203E+02 -0.13327704239E+02  0.20058365316E+02  0.38695227346E+02  0.51100000000E-03 0. -1.
         22    1    1    0    0    0  0.56103232674E+01 -0.48485637407E+01  0.28187716258E+02  0.29146726152E+02  0.00000000000E+00 0.  1.
</event>
<event>
 5    1  0.1099741E-009  0.9118800E+02  0.7818608E-02  0.1130116E+00
         25   -1    0    0    0    0  0.00000000000E+00  0.00000000000E+00  0.99999998245E-14  0.12500000000E+03  0.12500000000E+03 0.  0.
        -11    1    3    3    0    0  0.42142511042E+01 -0.11214197603E+02 -0.32539220638E+02  0.34674472169E+02  0.51100000000E-03 0.  1.
         23    2    1    0    0    0 -0.22610670816E+02 -0.15661281766E+02  0.18045279182E+02  0.92103947318E+02  0.86028988309E+02 0.  0.
         11    1    3    3    0    0 -0.26824921921E+02 -0.44470841624E+01  0.50584499820E+02  0.57429475149E+02  0.51100000000E-03 0. -1.
         22    1    1    0    0    0  0.22610670816E+02  0.15661281766E+02 -0.18045279182E+02  0.32896052682E+02  0.00000000000E+00 0. -1.
</event>
<event>
 5    1  0.1099741E-009  0.9118800E+02  0.7818608E-02  0.1130116E+00
         25   -1    0    0    0    0  0.00000000000E+00  0.00000000000E+00  0.99999998245E-14  0.12500000000E+03  0.12500000000E+03 0.  0.
        -11    1    3    3    0    0 -0.58429754072E+02 -0.75474628508E+01  0.16328200306E+02  0.61135999884E+02  0.51100000000E-03 0. -1.
         23    2    1    0    0    0 -0.28002100529E+02  0.37056047152E+01  0.17591619712E+01  0.96699049641E+02  0.92464925298E+02 0.  0.
         11    1    3    3    0    0  0.30427653542E+02  0.11253067566E+02 -0.14569038335E+02  0.35563049757E+02  0.51100000000E-03 0.  1.
         22    1    1    0    0    0  0.28002100529E+02 -0.37056047152E+01 -0.17591619712E+01  0.28300950359E+02  0.00000000000E+00 0. -1.
</event>
<event>
 5    1  0.1099741E-009  0.9118800E+02  0.7818608E-02  0.1130116E+00
         25   -1    0    0    0    0  0.00000000000E+00  0.00000000000E+00  0.99999998245E-14  0.12500000000E+03  0.12500000000E+03 0.  0.
        -11    1    3    3    0    0  0.26151452209E+02  0.44978424917E+02 -0.34510580399E+02  0.62433463146E+02  0.51100000000E-03 0.  1.
         23    2    1    0    0    0  0.10725775465E+02  0.21801524289E+02 -0.14719253492E+02  0.96592164038E+02  0.92320317426E+02 0.  0.
         11    1    3    3    0    0 -0.15425676744E+02 -0.23176900628E+02  0.19791326906E+02  0.34158700893E+02  0.51100000000E-03 0. -1.
         22    1    1    0    0    0 -0.10725775465E+02 -0.21801524289E+02  0.14719253492E+02  0.28407835962E+02  0.00000000000E+00 0.  1.
</event>
<event>
 5    1  0.1099741E-009  0.9118800E+02  0.7818608E-02  0.1130116E+00
         25   -1    0    0    0    0  0.00000000000E+00  0.00000000000E+00  0.99999998245E-14  0.12500000000E+03  0.12500000000E+03 0.  0.
        -11    1    3    3    0    0 -0.27195897364E+02 -0.41730853200E+02 -0.27485932793E+02  0.56890750074E+02  0.51100000000E-03 0.  1.
         23    2    1    0    0    0  0.21448424569E+01 -0.18685763506E+02 -0.24208988282E+02  0.94343300559E+02  0.89223456219E+02 0.  0.
         11    1    3    3    0    0  0.29340739821E+02  0.23045089693E+02  0.32769445115E+01  0.37452550485E+02  0.51100000000E-03 0. -1.
         22    1    1    0    0    0 -0.21448424569E+01  0.18685763506E+02  0.24208988282E+02  0.30656699441E+02  0.00000000000E+00 0.  1.
</event>
<event>
 5    1  0.1099741E-009  0.9118800E+02  0.7818608E-02  0.1130116E+00
         25   -1    0    0    0    0  0.00000000000E+00  0.00000000000E+00  0.99999998245E-14  0.12500000000E+03  0.12500000000E+03 0.  0.
        -11    1    3    3    0    0  0.76523341069E+01 -0.16434172275E+02  0.54960870957E+02  0.57873461727E+02  0.51100000000E-03 0. -1.
         23    2    1    0    0    0  0.11597700420E+02 -0.20639783244E+02  0.18057923639E+02  0.95224239497E+02  0.90449211573E+02 0.  0.
         11    1    3    3    0    0  0.39453663129E+01 -0.42056109687E+01 -0.36902947318E+02  0.37350777770E+02  0.51100000000E-03 0.  1.
         22    1    1    0    0    0 -0.11597700420E+02  0.20639783244E+02 -0.18057923639E+02  0.29775760503E+02  0.00000000000E+00 0. -1.
</event>
<event>
 5    1  0.1099741E-009  0.9118800E+02  0.7818608E-02  0.1130116E+00
         25   -1    0    0    0    0  0.00000000000E+00  0.00000000000E+00  0.99999998245E-14  0.12500000000E+03  0.12500000000E+03 0.  0.
        -11    1    3    3    0    0 -0.11444638787E+02 -0.32546295016E+02  0.40641265142E+02  0.53309975698E+02  0.51100000000E-03 0. -1.
         23    2    1    0    0    0 -0.22552460778E+02 -0.16156835349E+02  0.14488075182E+01  0.97219505784E+02  0.93165854507E+02 0.  0.
         11    1    3    3    0    0 -0.11107821991E+02  0.16389459667E+02 -0.39192457624E+02  0.43909530087E+02  0.51100000000E-03 0.  1.
         22    1    1    0    0    0  0.22552460778E+02  0.16156835349E+02 -0.14488075182E+01  0.27780494216E+02  0.00000000000E+00 0. -1.
</event>
<event>
 5    1  0.1099741E-009  0.9118800E+02  0.7818608E-02  0.1130116E+00
         25   -1    0    0    0    0  0.00000000000E+00  0.00000000000E+00  0.99999998245E-14  0.12500000000E+03  0.12500000000E+03 0.  0.
        -11    1    3    3    0    0 -0.40549888103E+00  0.39183720107E+02  0.18191657615E+02  0.43202601285E+02  0.51100000000E-03 0.  1.
         23    2    1    0    0    0 -0.10395022988E+02  0.89630221231E+01 -0.24776645850E+02  0.96675550348E+02  0.92433151991E+02 0.  0.
         11    1    3    3    0    0 -0.99895241071E+01 -0.30220697984E+02 -0.42968303465E+02  0.53472949063E+02  0.51100000000E-03 0. -1.
         22    1    1    0    0    0  0.10395022988E+02 -0.89630221231E+01  0.24776645850E+02  0.28324449652E+02  0.00000000000E+00 0. -1.
</event>
<event>
 5    1  0.1099741E-009  0.9118800E+02  0.7818608E-02  0.1130116E+00
         25   -1    0    0    0    0  0.00000000000E+00  0.00000000000E+00  0.99999998245E-14  0.12500000000E+03  0.12500000000E+03 0.  0.
        -11    1    3    3    0    0 -0.13082824303E+02  0.13183885660E+02 -0.31974764495E+02  0.36977840630E+02  0.51100000000E-03 0.  1.
         23    2    1    0    0    0  0.20953897132E+02 -0.17363348960E+02  0.68147059789E+01  0.96946623917E+02  0.92799008503E+02 0.  0.
         11    1    3    3    0    0  0.34036721435E+02 -0.30547234620E+02  0.38789470474E+02  0.59968783287E+02  0.51100000000E-03 0. -1.
         22    1    1    0    0    0 -0.20953897132E+02  0.17363348960E+02 -0.68147059789E+01  0.28053376083E+02  0.00000000000E+00 0. -1.
</event>
<event>
 5    1  0.1099741E-009  0.9118800E+02  0.7818608E-02  0.1130116E+00
         25   -1    0    0    0    0  0.00000000000E+00  0.00000000000E+00  0.99999998245E-14  0.12500000000E+03  0.12500000000E+03 0.  0.
        -11    1    3    3    0    0 -0.23962425933E+02  0.79034592862E+01 -0.56535419562E+02  0.61910549913E+02  0.51100000000E-03 0.  1.
         23    2    1    0    0    0 -0.56523610193E+01  0.18066935897E+01 -0.28126475661E+02  0.96254357549E+02  0.91861795036E+02 0.  0.
         11    1    3    3    0    0  0.18310064914E+02 -0.60967656966E+01  0.28408943901E+02  0.34343807636E+02  0.51100000000E-03 0. -1.
         22    1    1    0    0    0  0.56523610193E+01 -0.18066935897E+01  0.28126475661E+02  0.28745642451E+02  0.00000000000E+00 0.  1.
</event>
<event>
 5    1  0.1099741E-009  0.9118800E+02  0.7818608E-02  0.1130116E+00
         25   -1    0    0    0    0  0.00000000000E+00  0.00000000000E+00  0.99999998245E-14  0.12500000000E+03  0.12500000000E+03 0.  0.
        -11    1    3    3    0    0  0.28522837596E+01  0.52377769591E+02  0.31353380266E+02  0.61111379664E+02  0.51100000000E-03 0.  1.
         23    2    1    0    0    0 -0.79737312498E+01  0.23881508069E+02  0.13746967829E+02  0.96314011396E+02  0.91942932567E+02 0.  0.
         11    1    3    3    0    0 -0.10826015009E+02 -0.28496261522E+02 -0.17606412438E+02  0.35202631733E+02  0.51100000000E-03 0. -1.
         22    1    1    0    0    0  0.79737312498E+01 -0.23881508069E+02 -0.13746967829E+02  0.28685988604E+02  0.00000000000E+00 0.  1.
</event>
<event>
 5    1  0.1099741E-009  0.9118800E+02  0.7818608E-02  0.1130116E+00
         25   -1    0    0    0    0  0.00000000000E+00  0.00000000000E+00  0.99999998245E-14  0.12500000000E+03  0.12500000000E+03 0.  0.
        -11    1    3    3    0    0 -0.39829806522E+01 -0.34700384685E+02  0.29819475447E-01  0.34928236738E+02  0.51100000000E-03 0.  1.
         23    2    1    0    0    0 -0.92835626787E+01  0.26225432273E+02 -0.64965100880E+01  0.96431442506E+02  0.92102446366E+02 0.  0.
         11    1    3    3    0    0 -0.53005820265E+01  0.60925816959E+02 -0.65263295635E+01  0.61503205768E+02  0.51100000000E-03 0. -1.
         22    1    1    0    0    0  0.92835626787E+01 -0.26225432273E+02  0.64965100880E+01  0.28568557494E+02  0.00000000000E+00 0. -1.
</event>
<event>
 5    1  0.1099741E-009  0.9118800E+02  0.7818608E-02  0.1130116E+00
         25   -1    0    0    0    0  0.00000000000E+00  0.00000000000E+00  0.99999998245E-14  0.12500000000E+03  0.12500000000E+03 0.  0.
        -11    1    3    3    0    0 -0.94202824499E+01  0.27182684859E+02  0.20062434261E+02  0.35073370900E+02  0.51100000000E-03 0. -1.
         23    2    1    0    0    0  0.16755486889E+02 -0.24491128760E+02  0.52201650374E+01  0.94870083773E+02  0.89958440089E+02 0.  0.
         11    1    3    3    0    0  0.26175769339E+02 -0.51673813619E+02 -0.14842269224E+02  0.59796712873E+02  0.51100000000E-03 0.  1.
         22    1    1    0    0    0 -0.16755486889E+02  0.24491128760E+02 -0.52201650374E+01  0.30129916227E+02  0.00000000000E+00 0.  1.
</event>
<event>
 5    1  0.1099741E-009  0.9118800E+02  0.7818608E-02  0.1130116E+00
         25   -1    0    0    0    0  0.00000000000E+00  0.00000000000E+00  0.99999998245E-14  0.12500000000E+03  0.12500000000E+03 0.  0.
        -11    1    3    3    0    0  0.22751844859E+02 -0.12065563698E+02  0.56123126026E+02  0.61749733174E+02  0.51100000000E-03 0. -1.
         23    2    1    0    0    0  0.16985137974E+02 -0.27397720389E+01  0.25843664507E+02  0.93953321305E+02  0.88675421207E+02 0.  0.
         11    1    3    3    0    0 -0.57667068845E+01  0.93257916589E+01 -0.30279461520E+02  0.32203588131E+02  0.51100000000E-03 0.  1.
         22    1    1    0    0    0 -0.16985137974E+02  0.27397720389E+01 -0.25843664507E+02  0.31046678695E+02  0.00000000000E+00 0. -1.
</event>
<event>
 5    1  0.1099741E-009  0.9118800E+02  0.7818608E-02  0.1130116E+00
         25   -1    0    0    0    0  0.00000000000E+00  0.00000000000E+00  0.99999998245E-14  0.12500000000E+03  0.12500000000E+03 0.  0.
        -11    1    3    3    0    0  0.27992419270E+02  0.14817286277E+02  0.50085629219E+02  0.59259579510E+02  0.51100000000E-03 0.  1.
         23    2    1    0    0    0  0.14707251051E+01  0.14810287725E+02  0.25770693755E+02  0.95240357673E+02  0.90471484006E+02 0.  0.
         11    1    3    3    0    0 -0.26521694164E+02 -0.69985518480E-02 -0.24314935464E+02  0.35980778163E+02  0.51100000000E-03 0. -1.
         22    1    1    0    0    0 -0.14707251051E+01 -0.14810287725E+02 -0.25770693755E+02  0.29759642327E+02  0.00000000000E+00 0.  1.
</event>
<event>
 5    1  0.1099741E-009  0.9118800E+02  0.7818608E-02  0.1130116E+00
         25   -1    0    0    0    0  0.00000000000E+00  0.00000000000E+00  0.99999998245E-14  0.12500000000E+03  0.12500000000E+03 0.  0.
        -11    1    3    3    0    0 -0.29753962296E+02  0.77934599399E+01  0.37127869615E+02  0.48213224250E+02  0.51100000000E-03 0. -1.
         23    2    1    0    0    0 -0.86626068091E+01  0.16466171979E+02 -0.12332726077E+02  0.10267799944E+03  0.10022225232E+03 0.  0.
         11    1    3    3    0    0  0.21091355487E+02  0.86727120391E+01 -0.49460595692E+02  0.54464775193E+02  0.51100000000E-03 0.  1.
         22    1    1    0    0    0  0.86626068091E+01 -0.16466171979E+02  0.12332726077E+02  0.22322000557E+02  0.00000000000E+00 0.  1.
</event>
<event>
 5    1  0.1099741E-009  0.9118800E+02  0.7818608E-02  0.1130116E+00
         25   -1    0    0    0    0  0.00000000000E+00  0.00000000000E+00  0.99999998245E-14  0.12500000000E+03  0.12500000000E+03 0.  0.
        -11    1    3    3    0    0  0.20055733119E+02 -0.89152690298E+01  0.31991094682E+02  0.38796193009E+02  0.51100000000E-03 0.  1.
         23    2    1    0    0    0  0.14826109415E+01 -0.24217967365E+02 -0.18340322287E+02  0.94584946160E+02  0.89561356287E+02 0.  0.
         11    1    3    3    0    0 -0.18573122177E+02 -0.15302698336E+02 -0.50331416969E+02  0.55788753151E+02  0.51100000000E-03 0. -1.
         22    1    1    0    0    0 -0.14826109415E+01  0.24217967365E+02  0.18340322287E+02  0.30415053840E+02  0.00000000000E+00 0. -1.
</event>
<event>
 5    1  0.1099741E-009  0.9118800E+02  0.7818608E-02  0.1130116E+00
         25   -1    0    0    0    0  0.00000000000E+00  0.00000000000E+00  0.99999998245E-14  0.12500000000E+03  0.12500000000E+03 0.  0.
        -11    1    3    3    0    0 -0.30109499412E+02 -0.21538929456E+01 -0.37158047959E+02  0.47874228329E+02  0.51100000000E-03 0. -1.
         23    2    1    0    0    0  0.65363553806E+01 -0.11934208894E+02  0.97960148672E+01  0.10823362917E+03  0.10692711205E+03 0.  0.
         11    1    3    3    0    0  0.36645854793E+02 -0.97803159487E+01  0.46954062826E+02  0.60359400839E+02  0.51100000000E-03 0.  1.
         22    1    1    0    0    0 -0.65363553806E+01  0.11934208894E+02 -0.97960148672E+01  0.16766370832E+02  0.00000000000E+00 0.  1.
</event>
<event>
 5    1  0.1099741E-009  0.9118800E+02  0.7818608E-02  0.1130116E+00
         25   -1    0    0    0    0  0.00000000000E+00  0.00000000000E+00  0.99999998245E-14  0.12500000000E+03  0.12500000000E+03 0.  0.
        -11    1    3    3    0    0 -0.35664281999E+02  0.91598148543E+01  0.15622660719E+02  0.39998884320E+02  0.51100000000E-03 0. -1.
         23    2    1    0    0    0  0.23328351898E+02 -0.19860014224E+01  0.62975165535E+01  0.10075510531E+03  0.97794561846E+02 0.  0.
         11    1    3    3    0    0  0.58992633897E+02 -0.11145816277E+02 -0.93251441653E+01  0.60756220987E+02  0.51100000000E-03 0.  1.
         22    1    1    0    0    0 -0.23328351898E+02  0.19860014224E+01 -0.62975165535E+01  0.24244894693E+02  0.00000000000E+00 0.  1.
</event>
<event>
 5    1  0.1099741E-009  0.9118800E+02  0.7818608E-02  0.1130116E+00
         25   -1    0    0    0    0  0.00000000000E+00  0.00000000000E+00  0.99999998245E-14  0.12500000000E+03  0.12500000000E+03 0.  0.
        -11    1    3    3    0    0  0.41880704130E+02  0.22689893729E+02 -0.78365738678E+00  0.47638626922E+02  0.51100000000E-03 0. -1.
         23    2    1    0    0    0  0.13601311351E+02 -0.14577864564E+02  0.18084061431E+02  0.98082662028E+02  0.94316835755E+02 0.  0.
         11    1    3    3    0    0 -0.28279392780E+02 -0.37267758292E+02  0.18867718818E+02  0.50444035106E+02  0.51100000000E-03 0.  1.
         22    1    1    0    0    0 -0.13601311351E+02  0.14577864564E+02 -0.18084061431E+02  0.26917337972E+02  0.00000000000E+00 0.  1.
</event>
<event>
 5    1  0.1099741E-009  0.9118800E+02  0.7818608E-02  0.1130116E+00
         25   -1    0    0    0    0  0.00000000000E+00  0.00000000000E+00  0.99999998245E-14  0.12500000000E+03  0.12500000000E+03 0.  0.
        -11    1    3    3    0    0 -0.20464886760E+02  0.42992678622E+02 -0.26714400081E+02  0.54597080299E+02  0.51100000000E-03 0. -1.
         23    2    1    0    0    0 -0.28858793542E+02  0.14487753046E+02 -0.30855827544E+01  0.92561661973E+02  0.86691496084E+02 0.  0.
         11    1    3    3    0    0 -0.83939067821E+01 -0.28504925576E+02  0.23628817326E+02  0.37964581674E+02  0.51100000000E-03 0.  1.
         22    1    1    0    0    0  0.28858793542E+02 -0.14487753046E+02  0.30855827544E+01  0.32438338027E+02  0.00000000000E+00 0. -1.
</event>
<event>
 5    1  0.1099741E-009  0.9118800E+02  0.7818608E-02  0.1130116E+00
         25   -1    0    0    0    0  0.00000000000E+00  0.00000000000E+00  0.99999998245E-14  0.12500000000E+03  0.12500000000E+03 0.  0.
        -11    1    3    3    0    0  0.35436313031E+02  0.63264722142E+01  0.55363319735E+01  0.36419877867E+02  0.51100000000E-03 0.  1.
         23    2    1    0    0    0 -0.10129620198E+02 -0.25322840382E+02 -0.12828909577E+02  0.94859721778E+02  0.89944040628E+02 0.  0.
         11    1    3    3    0    0 -0.45565933229E+02 -0.31649312597E+02 -0.18365241550E+02  0.58439843911E+02  0.51100000000E-03 0. -1.
         22    1    1    0    0    0  0.10129620198E+02  0.25322840382E+02  0.12828909577E+02  0.30140278222E+02  0.00000000000E+00 0. -1.
</event>
<event>
 5    1  0.1099741E-009  0.9118800E+02  0.7818608E-02  0.1130116E+00
         25   -1    0    0    0    0  0.00000000000E+00  0.00000000000E+00  0.99999998245E-14  0.12500000000E+03  0.12500000000E+03 0.  0.
        -11    1    3    3    0    0 -0.27192429918E+02  0.21184343467E+02  0.49126215584E+02  0.60013246128E+02  0.51100000000E-03 0.  1.
         23    2    1    0    0    0 -0.17174920616E+02  0.15691597930E+01  0.96001231845E+01  0.10526164835E+03  0.10339444902E+03 0.  0.
         11    1    3    3    0    0  0.10017509301E+02 -0.19615183674E+02 -0.39526092399E+02  0.45248402224E+02  0.51100000000E-03 0. -1.
         22    1    1    0    0    0  0.17174920616E+02 -0.15691597930E+01 -0.96001231845E+01  0.19738351648E+02  0.00000000000E+00 0.  1.
</event>
<event>
 5    1  0.1099741E-009  0.9118800E+02  0.7818608E-02  0.1130116E+00
         25   -1    0    0    0    0  0.00000000000E+00  0.00000000000E+00  0.99999998245E-14  0.12500000000E+03  0.12500000000E+03 0.  0.
        -11    1    3    3    0    0 -0.22572614788E+02 -0.66504653247E+01  0.47525093131E+02  0.53031934763E+02  0.51100000000E-03 0. -1.
         23    2    1    0    0    0  0.22695793747E+01 -0.23249444018E+02  0.14790589250E+02  0.97351326107E+02  0.93342549391E+02 0.  0.
         11    1    3    3    0    0  0.24842194163E+02 -0.16598978693E+02 -0.32734503881E+02  0.44319391344E+02  0.51100000000E-03 0.  1.
         22    1    1    0    0    0 -0.22695793747E+01  0.23249444018E+02 -0.14790589250E+02  0.27648673893E+02  0.00000000000E+00 0.  1.
</event>
<event>
 5    1  0.1099741E-009  0.9118800E+02  0.7818608E-02  0.1130116E+00
         25   -1    0    0    0    0  0.00000000000E+00  0.00000000000E+00  0.99999998245E-14  0.12500000000E+03  0.12500000000E+03 0.  0.
        -11    1    3    3    0    0 -0.33216852319E+02  0.10001286706E+02 -0.11744684966E+02  0.36624071851E+02  0.51100000000E-03 0. -1.
         23    2    1    0    0    0  0.17043930678E+02 -0.19892420052E+02  0.67335824842E+01  0.97952909924E+02  0.94144715630E+02 0.  0.
         11    1    3    3    0    0  0.50260782997E+02 -0.29893706759E+02  0.18478267450E+02  0.61328838073E+02  0.51100000000E-03 0.  1.
         22    1    1    0    0    0 -0.17043930678E+02  0.19892420052E+02 -0.67335824842E+01  0.27047090076E+02  0.00000000000E+00 0.  1.
</event>
<event>
 5    1  0.1099741E-009  0.9118800E+02  0.7818608E-02  0.1130116E+00
         25   -1    0    0    0    0  0.00000000000E+00  0.00000000000E+00  0.99999998245E-14  0.12500000000E+03  0.12500000000E+03 0.  0.
        -11    1    3    3    0    0 -0.35638310944E+02  0.41657989891E+00  0.27889752309E+01  0.35749701101E+02  0.51100000000E-03 0. -1.
         23    2    1    0    0    0  0.20561807788E+02  0.20967025311E+02  0.78874481407E+00  0.95622692291E+02  0.90998203678E+02 0.  0.
         11    1    3    3    0    0  0.56200118731E+02  0.20550445412E+02 -0.20002304168E+01  0.59872991190E+02  0.51100000000E-03 0.  1.
         22    1    1    0    0    0 -0.20561807788E+02 -0.20967025311E+02 -0.78874481407E+00  0.29377307709E+02  0.00000000000E+00 0.  1.
</event>
<event>
 5    1  0.1099741E-009  0.9118800E+02  0.7818608E-02  0.1130116E+00
         25   -1    0    0    0    0  0.00000000000E+00  0.00000000000E+00  0.99999998245E-14  0.12500000000E+03  0.12500000000E+03 0.  0.
        -11    1    3    3    0    0  0.26949699488E+01 -0.11766304170E+02 -0.31662621294E+02  0.33885548016E+02  0.51100000000E-03 0.  1.
         23    2    1    0    0    0  0.35482431826E+01  0.95141819862E+01  0.26924874261E+02  0.96223993632E+02  0.91820468350E+02 0.  0.
         11    1    3    3    0    0  0.85327323378E+00  0.21280486157E+02  0.58587495554E+02  0.62338445616E+02  0.51100000000E-03 0. -1.
         22    1    1    0    0    0 -0.35482431826E+01 -0.95141819862E+01 -0.26924874261E+02  0.28776006368E+02  0.00000000000E+00 0. -1.
</event>
<event>
 5    1  0.1099741E-009  0.9118800E+02  0.7818608E-02  0.1130116E+00
         25   -1    0    0    0    0  0.00000000000E+00  0.00000000000E+00  0.99999998245E-14  0.12500000000E+03  0.12500000000E+03 0.  0.
        -11    1    3    3    0    0  0.90284432950E+00 -0.83995317313E+01 -0.30312226046E+02  0.31467416629E+02  0.51100000000E-03 0.  1.
         23    2    1    0    0    0  0.10730314505E+02  0.84011145107E+01  0.28496014788E+02  0.93412957828E+02  0.87910405851E+02 0.  0.
         11    1    3    3    0    0  0.98274701757E+01  0.16800646242E+02  0.58808240834E+02  0.61945541199E+02  0.51100000000E-03 0. -1.
         22    1    1    0    0    0 -0.10730314505E+02 -0.84011145107E+01 -0.28496014788E+02  0.31587042172E+02  0.00000000000E+00 0. -1.
</event>
<event>
 5    1  0.1099741E-009  0.9118800E+02  0.7818608E-02  0.1130116E+00
         25   -1    0    0    0    0  0.00000000000E+00  0.00000000000E+00  0.99999998245E-14  0.12500000000E+03  0.12500000000E+03 0.  0.
        -11    1    3    3    0    0 -0.20626815964E+02  0.43449724066E+02 -0.32027067655E+02  0.57784748170E+02  0.51100000000E-03 0. -1.
         23    2    1    0    0    0  0.40390523023E+01  0.16276188024E+02 -0.24600195874E+02  0.95227565146E+02  0.90453807474E+02 0.  0.
         11    1    3    3    0    0  0.24665868266E+02 -0.27173536043E+02  0.74268717810E+01  0.37442816976E+02  0.51100000000E-03 0.  1.
         22    1    1    0    0    0 -0.40390523023E+01 -0.16276188024E+02  0.24600195874E+02  0.29772434854E+02  0.00000000000E+00 0. -1.
</event>
<event>
 5    1  0.1099741E-009  0.9118800E+02  0.7818608E-02  0.1130116E+00
         25   -1    0    0    0    0  0.00000000000E+00  0.00000000000E+00  0.99999998245E-14  0.12500000000E+03  0.12500000000E+03 0.  0.
        -11    1    3    3    0    0 -0.54986280658E+02  0.21259798977E+02 -0.11095105664E+02  0.59988094512E+02  0.51100000000E-03 0.  1.
         23    2    1    0    0    0 -0.28867510280E+02  0.55631258798E+01  0.60968476250E+01  0.94975791929E+02  0.90105205079E+02 0.  0.
         11    1    3    3    0    0  0.26118770378E+02 -0.15696673097E+02  0.17191953289E+02  0.34987697417E+02  0.51100000000E-03 0. -1.
         22    1    1    0    0    0  0.28867510280E+02 -0.55631258798E+01 -0.60968476250E+01  0.30024208071E+02  0.00000000000E+00 0.  1.
</event>
<event>
 5    1  0.1099741E-009  0.9118800E+02  0.7818608E-02  0.1130116E+00
         25   -1    0    0    0    0  0.00000000000E+00  0.00000000000E+00  0.99999998245E-14  0.12500000000E+03  0.12500000000E+03 0.  0.
        -11    1    3    3    0    0  0.93728893599E+01 -0.19298254540E+02  0.35956364264E+02  0.41870440822E+02  0.51100000000E-03 0. -1.
         23    2    1    0    0    0 -0.16443300936E+02 -0.27324048468E+02 -0.67391073743E+01  0.92405501406E+02  0.86466035826E+02 0.  0.
         11    1    3    3    0    0 -0.25816190296E+02 -0.80257939283E+01 -0.42695471638E+02  0.50535060585E+02  0.51100000000E-03 0.  1.
         22    1    1    0    0    0  0.16443300936E+02  0.27324048468E+02  0.67391073743E+01  0.32594498594E+02  0.00000000000E+00 0.  1.
</event>
<event>
 5    1  0.1099741E-009  0.9118800E+02  0.7818608E-02  0.1130116E+00
         25   -1    0    0    0    0  0.00000000000E+00  0.00000000000E+00  0.99999998245E-14  0.12500000000E+03  0.12500000000E+03 0.  0.
        -11    1    3    3    0    0  0.28460563383E+02  0.28213923722E+02  0.20018130253E+02  0.44796815724E+02  0.51100000000E-03 0.  1.
         23    2    1    0    0    0 -0.17050075498E+02  0.44599925791E+01  0.22768945438E+02  0.96207266808E+02  0.91797694426E+02 0.  0.
         11    1    3    3    0    0 -0.45510638882E+02 -0.23753931143E+02  0.27508151850E+01  0.51410451084E+02  0.51100000000E-03 0. -1.
         22    1    1    0    0    0  0.17050075498E+02 -0.44599925791E+01 -0.22768945438E+02  0.28792733192E+02  0.00000000000E+00 0. -1.
</event>
<event>
 5    1  0.1099741E-009  0.9118800E+02  0.7818608E-02  0.1130116E+00
         25   -1    0    0    0    0  0.00000000000E+00  0.00000000000E+00  0.99999998245E-14  0.12500000000E+03  0.12500000000E+03 0.  0.
        -11    1    3    3    0    0  0.10850294193E+02 -0.27048309062E+02 -0.48672509946E+02  0.56730530862E+02  0.51100000000E-03 0.  1.
         23    2    1    0    0    0  0.21147545815E+02 -0.14739221581E+02 -0.12398439290E+02  0.96396072933E+02  0.92054430819E+02 0.  0.
         11    1    3    3    0    0  0.10297251623E+02  0.12309087481E+02  0.36274070656E+02  0.39665542072E+02  0.51100000000E-03 0. -1.
         22    1    1    0    0    0 -0.21147545815E+02  0.14739221581E+02  0.12398439290E+02  0.28603927067E+02  0.00000000000E+00 0.  1.
</event>
<event>
 5    1  0.1099741E-009  0.9118800E+02  0.7818608E-02  0.1130116E+00
         25   -1    0    0    0    0  0.00000000000E+00  0.00000000000E+00  0.99999998245E-14  0.12500000000E+03  0.12500000000E+03 0.  0.
        -11    1    3    3    0    0 -0.29704617630E+02  0.63111928738E+01  0.20404481896E+02  0.36586040313E+02  0.51100000000E-03 0.  1.
         23    2    1    0    0    0  0.24548711302E+02  0.14838654540E+02 -0.27429355054E+01  0.96184230179E+02  0.91766320319E+02 0.  0.
         11    1    3    3    0    0  0.54253328933E+02  0.85274616664E+01 -0.23147417401E+02  0.59598189867E+02  0.51100000000E-03 0. -1.
         22    1    1    0    0    0 -0.24548711302E+02 -0.14838654540E+02  0.27429355054E+01  0.28815769821E+02  0.00000000000E+00 0. -1.
</event>
<event>
 5    1  0.1099741E-009  0.9118800E+02  0.7818608E-02  0.1130116E+00
         25   -1    0    0    0    0  0.00000000000E+00  0.00000000000E+00  0.99999998245E-14  0.12500000000E+03  0.12500000000E+03 0.  0.
        -11    1    3    3    0    0  0.18337219178E+02 -0.72767702842E-01 -0.56515430989E+02  0.59415930881E+02  0.51100000000E-03 0.  1.
         23    2    1    0    0    0  0.21212467335E+02  0.67012615050E+01 -0.26114489710E+02  0.90694865559E+02  0.83956633983E+02 0.  0.
         11    1    3    3    0    0  0.28752481575E+01  0.67740292079E+01  0.30400941279E+02  0.31278934678E+02  0.51100000000E-03 0. -1.
         22    1    1    0    0    0 -0.21212467335E+02 -0.67012615050E+01  0.26114489710E+02  0.34305134441E+02  0.00000000000E+00 0.  1.
</event>
<event>
 5    1  0.1099741E-009  0.9118800E+02  0.7818608E-02  0.1130116E+00
         25   -1    0    0    0    0  0.00000000000E+00  0.00000000000E+00  0.99999998245E-14  0.12500000000E+03  0.12500000000E+03 0.  0.
        -11    1    3    3    0    0 -0.20596836038E+01 -0.36117793600E+02  0.73809583545E+01  0.36921753175E+02  0.51100000000E-03 0.  1.
         23    2    1    0    0    0 -0.13630576378E+02  0.22090739797E+02  0.11907571613E+02  0.96441574643E+02  0.92116196517E+02 0.  0.
         11    1    3    3    0    0 -0.11570892774E+02  0.58208533396E+02  0.45266132581E+01  0.59519821468E+02  0.51100000000E-03 0. -1.
         22    1    1    0    0    0  0.13630576378E+02 -0.22090739797E+02 -0.11907571613E+02  0.28558425357E+02  0.00000000000E+00 0. -1.
</event>
<event>
 5    1  0.1099741E-009  0.9118800E+02  0.7818608E-02  0.1130116E+00
         25   -1    0    0    0    0  0.00000000000E+00  0.00000000000E+00  0.99999998245E-14  0.12500000000E+03  0.12500000000E+03 0.  0.
        -11    1    3    3    0    0 -0.19642952547E+02  0.43544447617E+02  0.80217978305E+01  0.48438762823E+02  0.51100000000E-03 0. -1.
         23    2    1    0    0    0 -0.26311373398E+01  0.13361298565E+02 -0.25146492971E+02  0.96402914627E+02  0.92063720633E+02 0.  0.
         11    1    3    3    0    0  0.17011815208E+02 -0.30183149052E+02 -0.33168290802E+02  0.47964151805E+02  0.51100000000E-03 0.  1.
         22    1    1    0    0    0  0.26311373398E+01 -0.13361298565E+02  0.25146492971E+02  0.28597085373E+02  0.00000000000E+00 0.  1.
</event>
<event>
 5    1  0.1099741E-009  0.9118800E+02  0.7818608E-02  0.1130116E+00
         25   -1    0    0    0    0  0.00000000000E+00  0.00000000000E+00  0.99999998245E-14  0.12500000000E+03  0.12500000000E+03 0.  0.
        -11    1    3    3    0    0 -0.16956911794E+02  0.16299710021E+02  0.30435541994E+02  0.38464784167E+02  0.51100000000E-03 0. -1.
         23    2    1    0    0    0 -0.21366380348E+02 -0.28023317805E+02  0.60504497342E+01  0.89244769726E+02  0.81769141071E+02 0.  0.
         11    1    3    3    0    0 -0.44094685546E+01 -0.44323027825E+02 -0.24385092259E+02  0.50779985558E+02  0.51100000000E-03 0.  1.
         22    1    1    0    0    0  0.21366380348E+02  0.28023317805E+02 -0.60504497342E+01  0.35755230274E+02  0.00000000000E+00 0.  1.
</event>
<event>
 5    1  0.1099741E-009  0.9118800E+02  0.7818608E-02  0.1130116E+00
         25   -1    0    0    0    0  0.00000000000E+00  0.00000000000E+00  0.99999998245E-14  0.12500000000E+03  0.12500000000E+03 0.  0.
        -11    1    3    3    0    0 -0.37315952435E+02 -0.49438989670E+01  0.43087921746E+02  0.57214433876E+02  0.51100000000E-03 0.  1.
         23    2    1    0    0    0 -0.26090858763E+02 -0.19957846521E+02  0.21821903128E+02  0.85563417936E+02  0.75933223848E+02 0.  0.
         11    1    3    3    0    0  0.11225093673E+02 -0.15013947554E+02 -0.21266018617E+02  0.28348984060E+02  0.51100000000E-03 0. -1.
         22    1    1    0    0    0  0.26090858763E+02  0.19957846521E+02 -0.21821903128E+02  0.39436582064E+02  0.00000000000E+00 0.  1.
</event>
<event>
 5    1  0.1099741E-009  0.9118800E+02  0.7818608E-02  0.1130116E+00
         25   -1    0    0    0    0  0.00000000000E+00  0.00000000000E+00  0.99999998245E-14  0.12500000000E+03  0.12500000000E+03 0.  0.
        -11    1    3    3    0    0  0.61704604993E+00  0.18391540443E+02  0.51849536709E+02  0.55018214828E+02  0.51100000000E-03 0. -1.
         23    2    1    0    0    0  0.13103498211E+02  0.22163363447E+02  0.12685197735E+02  0.96297550867E+02  0.91920551112E+02 0.  0.
         11    1    3    3    0    0  0.12486452161E+02  0.37718230040E+01 -0.39164338974E+02  0.41279336039E+02  0.51100000000E-03 0.  1.
         22    1    1    0    0    0 -0.13103498211E+02 -0.22163363447E+02 -0.12685197735E+02  0.28702449133E+02  0.00000000000E+00 0. -1.
</event>
<event>
 5    1  0.1099741E-009  0.9118800E+02  0.7818608E-02  0.1130116E+00
         25   -1    0    0    0    0  0.00000000000E+00  0.00000000000E+00  0.99999998245E-14  0.12500000000E+03  0.12500000000E+03 0.  0.
        -11    1    3    3    0    0  0.43249609294E+01  0.43167045016E+02  0.41626069385E+02  0.60123445636E+02  0.51100000000E-03 0.  1.
         23    2    1    0    0    0 -0.97487946529E+01  0.14172447501E+02  0.18126737520E+02  0.10001048463E+03  0.96838118308E+02 0.  0.
         11    1    3    3    0    0 -0.14073755582E+02 -0.28994597516E+02 -0.23499331865E+02  0.39887038993E+02  0.51100000000E-03 0. -1.
         22    1    1    0    0    0  0.97487946529E+01 -0.14172447501E+02 -0.18126737520E+02  0.24989515371E+02  0.00000000000E+00 0.  1.
</event>
<event>
 5    1  0.1099741E-009  0.9118800E+02  0.7818608E-02  0.1130116E+00
         25   -1    0    0    0    0  0.00000000000E+00  0.00000000000E+00  0.99999998245E-14  0.12500000000E+03  0.12500000000E+03 0.  0.
        -11    1    3    3    0    0 -0.89241909179E+01  0.21485703032E+02  0.47514247405E+02  0.52904445229E+02  0.51100000000E-03 0.  1.
         23    2    1    0    0    0 -0.91770107793E+01  0.29784447882E+02  0.86358412663E+01  0.92659489539E+02  0.86832438551E+02 0.  0.
         11    1    3    3    0    0 -0.25281986134E+00  0.82987448502E+01 -0.38878406138E+02  0.39755044310E+02  0.51100000000E-03 0. -1.
         22    1    1    0    0    0  0.91770107793E+01 -0.29784447882E+02 -0.86358412663E+01  0.32340510461E+02  0.00000000000E+00 0.  1.
</event>
<event>
 5    1  0.1099741E-009  0.9118800E+02  0.7818608E-02  0.1130116E+00
         25   -1    0    0    0    0  0.00000000000E+00  0.00000000000E+00  0.99999998245E-14  0.12500000000E+03  0.12500000000E+03 0.  0.
        -11    1    3    3    0    0 -0.27091837968E+02  0.76047507027E+01  0.35256437502E+02  0.45108938176E+02  0.51100000000E-03 0. -1.
         23    2    1    0    0    0  0.84432587058E+01  0.22207751363E+02 -0.49624691891E+01  0.10072863954E+03  0.97760727722E+02 0.  0.
         11    1    3    3    0    0  0.35535096674E+02  0.14603000661E+02 -0.40218906692E+02  0.55619701363E+02  0.51100000000E-03 0.  1.
         22    1    1    0    0    0 -0.84432587058E+01 -0.22207751363E+02  0.49624691891E+01  0.24271360461E+02  0.00000000000E+00 0.  1.
</event>
<event>
 5    1  0.1099741E-009  0.9118800E+02  0.7818608E-02  0.1130116E+00
         25   -1    0    0    0    0  0.00000000000E+00  0.00000000000E+00  0.99999998245E-14  0.12500000000E+03  0.12500000000E+03 0.  0.
        -11    1    3    3    0    0 -0.12614160277E+02  0.32217925175E+02 -0.11432838802E+01  0.34618186555E+02  0.51100000000E-03 0. -1.
         23    2    1    0    0    0  0.40681725574E+01 -0.20613310717E+02  0.21926306766E+02  0.94631899383E+02  0.89626864532E+02 0.  0.
         11    1    3    3    0    0  0.16682332834E+02 -0.52831235892E+02  0.23069590646E+02  0.60013712829E+02  0.51100000000E-03 0.  1.
         22    1    1    0    0    0 -0.40681725574E+01  0.20613310717E+02 -0.21926306766E+02  0.30368100617E+02  0.00000000000E+00 0.  1.
</event>
<event>
 5    1  0.1099741E-009  0.9118800E+02  0.7818608E-02  0.1130116E+00
         25   -1    0    0    0    0  0.00000000000E+00  0.00000000000E+00  0.99999998245E-14  0.12500000000E+03  0.12500000000E+03 0.  0.
        -11    1    3    3    0    0  0.50299588017E+01  0.89319970707E+01  0.36831595093E+02  0.38231498199E+02  0.51100000000E-03 0. -1.
         23    2    1    0    0    0 -0.24650102578E+02 -0.29968593429E+01 -0.12634415362E+02  0.97138966736E+02  0.93057733069E+02 0.  0.
         11    1    3    3    0    0 -0.29680061379E+02 -0.11928856414E+02 -0.49466010455E+02  0.58907468537E+02  0.51100000000E-03 0.  1.
         22    1    1    0    0    0  0.24650102578E+02  0.29968593429E+01  0.12634415362E+02  0.27861033264E+02  0.00000000000E+00 0.  1.
</event>
<event>
 5    1  0.1099741E-009  0.9118800E+02  0.7818608E-02  0.1130116E+00
         25   -1    0    0    0    0  0.00000000000E+00  0.00000000000E+00  0.99999998245E-14  0.12500000000E+03  0.12500000000E+03 0.  0.
        -11    1    3    3    0    0  0.41640027658E+02 -0.16988553511E+02 -0.32850556363E+01  0.45092066315E+02  0.51100000000E-03 0. -1.
         23    2    1    0    0    0  0.55468841440E+00 -0.26744447427E+01 -0.29160016013E+02  0.95712342740E+02  0.91121269114E+02 0.  0.
         11    1    3    3    0    0 -0.41085339244E+02  0.14314108768E+02 -0.25874960376E+02  0.50620276425E+02  0.51100000000E-03 0.  1.
         22    1    1    0    0    0 -0.55468841440E+00  0.26744447427E+01  0.29160016013E+02  0.29287657260E+02  0.00000000000E+00 0.  1.
</event>
<event>
 5    1  0.1099741E-009  0.9118800E+02  0.7818608E-02  0.1130116E+00
         25   -1    0    0    0    0  0.00000000000E+00  0.00000000000E+00  0.99999998245E-14  0.12500000000E+03  0.12500000000E+03 0.  0.
        -11    1    3    3    0    0  0.45636844953E+02  0.34548494546E+02  0.16550319674E+02  0.59583833161E+02  0.51100000000E-03 0. -1.
         23    2    1    0    0    0  0.20793341190E+02  0.74491554162E+01  0.18193557662E+02  0.96384296362E+02  0.92038438114E+02 0.  0.
         11    1    3    3    0    0 -0.24843503762E+02 -0.27099339130E+02  0.16432379882E+01  0.36800463201E+02  0.51100000000E-03 0.  1.
         22    1    1    0    0    0 -0.20793341190E+02 -0.74491554162E+01 -0.18193557662E+02  0.28615703638E+02  0.00000000000E+00 0. -1.
</event>
<event>
 5    1  0.1099741E-009  0.9118800E+02  0.7818608E-02  0.1130116E+00
         25   -1    0    0    0    0  0.00000000000E+00  0.00000000000E+00  0.99999998245E-14  0.12500000000E+03  0.12500000000E+03 0.  0.
        -11    1    3    3    0    0 -0.44581424205E+02  0.12614007931E+02  0.15916067785E+02  0.48989159967E+02  0.51100000000E-03 0.  1.
         23    2    1    0    0    0 -0.30251950602E+01  0.58629041312E+01 -0.19756570520E+02  0.10417099309E+03  0.10206737125E+03 0.  0.
         11    1    3    3    0    0  0.41556229145E+02 -0.67511037993E+01 -0.35672638305E+02  0.55181833126E+02  0.51100000000E-03 0. -1.
         22    1    1    0    0    0  0.30251950602E+01 -0.58629041312E+01  0.19756570520E+02  0.20829006907E+02  0.00000000000E+00 0. -1.
</event>
<event>
 5    1  0.1099741E-009  0.9118800E+02  0.7818608E-02  0.1130116E+00
         25   -1    0    0    0    0  0.00000000000E+00  0.00000000000E+00  0.99999998245E-14  0.12500000000E+03  0.12500000000E+03 0.  0.
        -11    1    3    3    0    0 -0.34225801214E+02 -0.27741197720E+02  0.28674504298E+02  0.52566212691E+02  0.51100000000E-03 0.  1.
         23    2    1    0    0    0 -0.11982566003E+02  0.46578300999E+01  0.30492831647E+02  0.91907855145E+02  0.85743593267E+02 0.  0.
         11    1    3    3    0    0  0.22243235211E+02  0.32399027820E+02  0.18183273483E+01  0.39341642454E+02  0.51100000000E-03 0. -1.
         22    1    1    0    0    0  0.11982566003E+02 -0.46578300999E+01 -0.30492831647E+02  0.33092144855E+02  0.00000000000E+00 0.  1.
</event>
<event>
 5    1  0.1099741E-009  0.9118800E+02  0.7818608E-02  0.1130116E+00
         25   -1    0    0    0    0  0.00000000000E+00  0.00000000000E+00  0.99999998245E-14  0.12500000000E+03  0.12500000000E+03 0.  0.
        -11    1    3    3    0    0 -0.23910092652E+02  0.31711052286E+02 -0.95986899896E+01  0.40858514627E+02  0.51100000000E-03 0.  1.
         23    2    1    0    0    0  0.16481025859E+02 -0.67457280801E+01  0.14907485258E+02  0.10177582773E+03  0.99090650082E+02 0.  0.
         11    1    3    3    0    0  0.40391118511E+02 -0.38456780367E+02  0.24506175247E+02  0.60917313108E+02  0.51100000000E-03 0. -1.
         22    1    1    0    0    0 -0.16481025859E+02  0.67457280801E+01 -0.14907485258E+02  0.23224172265E+02  0.00000000000E+00 0. -1.
</event>
<event>
 5    1  0.1099741E-009  0.9118800E+02  0.7818608E-02  0.1130116E+00
         25   -1    0    0    0    0  0.00000000000E+00  0.00000000000E+00  0.99999998245E-14  0.12500000000E+03  0.12500000000E+03 0.  0.
        -11    1    3    3    0    0  0.53044209582E+02 -0.22100458665E+02  0.22900797691E+02  0.61859235192E+02  0.51100000000E-03 0. -1.
         23    2    1    0    0    0  0.20764196747E+02 -0.15342581464E+02  0.11269481670E+02  0.96830017933E+02  0.92641807427E+02 0.  0.
         11    1    3    3    0    0 -0.32280012835E+02  0.67578772010E+01 -0.11631316021E+02  0.34970782741E+02  0.51100000000E-03 0.  1.
         22    1    1    0    0    0 -0.20764196747E+02  0.15342581464E+02 -0.11269481670E+02  0.28169982067E+02  0.00000000000E+00 0. -1.
</event>
<event>
 5    1  0.1099741E-009  0.9118800E+02  0.7818608E-02  0.1130116E+00
         25   -1    0    0    0    0  0.00000000000E+00  0.00000000000E+00  0.99999998245E-14  0.12500000000E+03  0.12500000000E+03 0.  0.
        -11    1    3    3    0    0 -0.21796585064E+02  0.55699304889E+01  0.13812770702E+02  0.26399012876E+02  0.51100000000E-03 0. -1.
         23    2    1    0    0    0  0.26419955984E+02  0.20035103635E+02 -0.19282535832E+02  0.86643310363E+02  0.77690588816E+02 0.  0.
         11    1    3    3    0    0  0.48216541048E+02  0.14465173146E+02 -0.33095306534E+02  0.60244297486E+02  0.51100000000E-03 0.  1.
         22    1    1    0    0    0 -0.26419955984E+02 -0.20035103635E+02  0.19282535832E+02  0.38356689637E+02  0.00000000000E+00 0.  1.
</event>
<event>
 5    1  0.1099741E-009  0.9118800E+02  0.7818608E-02  0.1130116E+00
         25   -1    0    0    0    0  0.00000000000E+00  0.00000000000E+00  0.99999998245E-14  0.12500000000E+03  0.12500000000E+03 0.  0.
        -11    1    3    3    0    0 -0.28079617756E+02 -0.18514589447E+02  0.22501298995E+02  0.40466818660E+02  0.51100000000E-03 0. -1.
         23    2    1    0    0    0  0.60866266181E+01 -0.15932179799E+02 -0.22335897230E+02  0.96897087663E+02  0.92732259305E+02 0.  0.
         11    1    3    3    0    0  0.34166244374E+02  0.25824096480E+01 -0.44837196225E+02  0.56430269004E+02  0.51100000000E-03 0.  1.
         22    1    1    0    0    0 -0.60866266181E+01  0.15932179799E+02  0.22335897230E+02  0.28102912337E+02  0.00000000000E+00 0.  1.
</event>
<event>
 5    1  0.1099741E-009  0.9118800E+02  0.7818608E-02  0.1130116E+00
         25   -1    0    0    0    0  0.00000000000E+00  0.00000000000E+00  0.99999998245E-14  0.12500000000E+03  0.12500000000E+03 0.  0.
        -11    1    3    3    0    0  0.43975899077E+02 -0.21043061400E+02 -0.83057817345E+00  0.48758383824E+02  0.51100000000E-03 0. -1.
         23    2    1    0    0    0  0.19873354101E+02  0.19888235726E+02 -0.50060548385E+01  0.96442116525E+02  0.92116931838E+02 0.  0.
         11    1    3    3    0    0 -0.24102544975E+02  0.40931297126E+02 -0.41754766650E+01  0.47683732702E+02  0.51100000000E-03 0.  1.
         22    1    1    0    0    0 -0.19873354101E+02 -0.19888235726E+02  0.50060548385E+01  0.28557883475E+02  0.00000000000E+00 0. -1.
</event>
<event>
 5    1  0.1099741E-009  0.9118800E+02  0.7818608E-02  0.1130116E+00
         25   -1    0    0    0    0  0.00000000000E+00  0.00000000000E+00  0.99999998245E-14  0.12500000000E+03  0.12500000000E+03 0.  0.
        -11    1    3    3    0    0  0.18349294261E+02  0.95878224136E+01  0.28950085035E+02  0.35591155675E+02  0.51100000000E-03 0. -1.
         23    2    1    0    0    0 -0.28778715621E+02  0.16402182677E+01 -0.69291362196E+01  0.95353453532E+02  0.90627608282E+02 0.  0.
         11    1    3    3    0    0 -0.47128009881E+02 -0.79476041459E+01 -0.35879221254E+02  0.59762297857E+02  0.51100000000E-03 0.  1.
         22    1    1    0    0    0  0.28778715621E+02 -0.16402182677E+01  0.69291362196E+01  0.29646546468E+02  0.00000000000E+00 0.  1.
</event>
<event>
 5    1  0.1099741E-009  0.9118800E+02  0.7818608E-02  0.1130116E+00
         25   -1    0    0    0    0  0.00000000000E+00  0.00000000000E+00  0.99999998245E-14  0.12500000000E+03  0.12500000000E+03 0.  0.
        -11    1    3    3    0    0 -0.13305962817E+02  0.29311608788E+02 -0.12055501724E+02  0.34373742570E+02  0.51100000000E-03 0. -1.
         23    2    1    0    0    0 -0.16405482019E+02 -0.67814891994E+01  0.30161132105E+02  0.90002538294E+02  0.82919446292E+02 0.  0.
         11    1    3    3    0    0 -0.30995192024E+01 -0.36093097987E+02  0.42216633828E+02  0.55628795724E+02  0.51100000000E-03 0.  1.
         22    1    1    0    0    0  0.16405482019E+02  0.67814891994E+01 -0.30161132105E+02  0.34997461706E+02  0.00000000000E+00 0.  1.
</event>
<event>
 5    1  0.1099741E-009  0.9118800E+02  0.7818608E-02  0.1130116E+00
         25   -1    0    0    0    0  0.00000000000E+00  0.00000000000E+00  0.99999998245E-14  0.12500000000E+03  0.12500000000E+03 0.  0.
        -11    1    3    3    0    0  0.33146532955E+02 -0.35353730861E+02 -0.13706245015E+02  0.50363082564E+02  0.51100000000E-03 0. -1.
         23    2    1    0    0    0  0.27043133570E+02  0.90713090141E+01 -0.51154828603E+01  0.96020906063E+02  0.91543577141E+02 0.  0.
         11    1    3    3    0    0 -0.61033993847E+01  0.44425039875E+02  0.85907621550E+01  0.45657823499E+02  0.51100000000E-03 0.  1.
         22    1    1    0    0    0 -0.27043133570E+02 -0.90713090141E+01  0.51154828603E+01  0.28979093937E+02  0.00000000000E+00 0. -1.
</event>
<event>
 5    1  0.1099741E-009  0.9118800E+02  0.7818608E-02  0.1130116E+00
         25   -1    0    0    0    0  0.00000000000E+00  0.00000000000E+00  0.99999998245E-14  0.12500000000E+03  0.12500000000E+03 0.  0.
        -11    1    3    3    0    0 -0.28505002387E+02 -0.10550860893E+02 -0.36734398587E+02  0.47678840868E+02  0.51100000000E-03 0.  1.
         23    2    1    0    0    0  0.33441451474E+01  0.20745998055E+02 -0.21695707242E+02  0.94795969561E+02  0.89855397112E+02 0.  0.
         11    1    3    3    0    0  0.31849147534E+02  0.31296858948E+02  0.15038691345E+02  0.47117128693E+02  0.51100000000E-03 0. -1.
         22    1    1    0    0    0 -0.33441451474E+01 -0.20745998055E+02  0.21695707242E+02  0.30204030439E+02  0.00000000000E+00 0. -1.
</event>
<event>
 5    1  0.1099741E-009  0.9118800E+02  0.7818608E-02  0.1130116E+00
         25   -1    0    0    0    0  0.00000000000E+00  0.00000000000E+00  0.99999998245E-14  0.12500000000E+03  0.12500000000E+03 0.  0.
        -11    1    3    3    0    0  0.11083811375E+02 -0.55253234892E+02 -0.44346991433E+01  0.56528200019E+02  0.51100000000E-03 0.  1.
         23    2    1    0    0    0  0.21076328224E+02 -0.20495165818E+02  0.75845229656E+01  0.94639031275E+02  0.89636810623E+02 0.  0.
         11    1    3    3    0    0  0.99925168488E+01  0.34758069073E+02  0.12019222109E+02  0.38110831256E+02  0.51100000000E-03 0. -1.
         22    1    1    0    0    0 -0.21076328224E+02  0.20495165818E+02 -0.75845229656E+01  0.30360968725E+02  0.00000000000E+00 0.  1.
</event>
<event>
 5    1  0.1099741E-009  0.9118800E+02  0.7818608E-02  0.1130116E+00
         25   -1    0    0    0    0  0.00000000000E+00  0.00000000000E+00  0.99999998245E-14  0.12500000000E+03  0.12500000000E+03 0.  0.
        -11    1    3    3    0    0  0.17846924527E+02  0.38655672208E+01  0.35616307795E+02  0.40024701201E+02  0.51100000000E-03 0.  1.
         23    2    1    0    0    0 -0.27354879881E+02 -0.75555643783E+01  0.40376536417E+01  0.96335062301E+02  0.91971547639E+02 0.  0.
         11    1    3    3    0    0 -0.45201804408E+02 -0.11421131599E+02 -0.31578654154E+02  0.56310361099E+02  0.51100000000E-03 0. -1.
         22    1    1    0    0    0  0.27354879881E+02  0.75555643783E+01 -0.40376536417E+01  0.28664937699E+02  0.00000000000E+00 0. -1.
</event>
<event>
 5    1  0.1099741E-009  0.9118800E+02  0.7818608E-02  0.1130116E+00
         25   -1    0    0    0    0  0.00000000000E+00  0.00000000000E+00  0.99999998245E-14  0.12500000000E+03  0.12500000000E+03 0.  0.
        -11    1    3    3    0    0  0.45818401897E+02  0.22130660261E+02 -0.33674632843E+02  0.61016989220E+02  0.51100000000E-03 0. -1.
         23    2    1    0    0    0  0.19385201672E+02  0.19716209437E+02 -0.19995049151E+02  0.90877911128E+02  0.84228723022E+02 0.  0.
         11    1    3    3    0    0 -0.26433200226E+02 -0.24144508237E+01  0.13679583692E+02  0.29860921908E+02  0.51100000000E-03 0.  1.
         22    1    1    0    0    0 -0.19385201672E+02 -0.19716209437E+02  0.19995049151E+02  0.34122088872E+02  0.00000000000E+00 0. -1.
</event>
<event>
 5    1  0.1099741E-009  0.9118800E+02  0.7818608E-02  0.1130116E+00
         25   -1    0    0    0    0  0.00000000000E+00  0.00000000000E+00  0.99999998245E-14  0.12500000000E+03  0.12500000000E+03 0.  0.
        -11    1    3    3    0    0 -0.70013137011E+01 -0.57054656390E+02 -0.16029292438E+02  0.59675710517E+02  0.51100000000E-03 0. -1.
         23    2    1    0    0    0  0.79129191533E+01 -0.29444615712E+02 -0.93895216117E+00  0.94496208185E+02  0.89437419720E+02 0.  0.
         11    1    3    3    0    0  0.14914232854E+02  0.27610040678E+02  0.15090340277E+02  0.34820497668E+02  0.51100000000E-03 0.  1.
         22    1    1    0    0    0 -0.79129191533E+01  0.29444615712E+02  0.93895216117E+00  0.30503791815E+02  0.00000000000E+00 0. -1.
</event>
<event>
 5    1  0.1099741E-009  0.9118800E+02  0.7818608E-02  0.1130116E+00
         25   -1    0    0    0    0  0.00000000000E+00  0.00000000000E+00  0.99999998245E-14  0.12500000000E+03  0.12500000000E+03 0.  0.
        -11    1    3    3    0    0  0.10169039994E+02 -0.14032644384E+02  0.48578805854E+02  0.51577367723E+02  0.51100000000E-03 0. -1.
         23    2    1    0    0    0  0.18720735240E+01  0.19939974296E+02  0.19290567704E+02  0.97192928300E+02  0.93130188848E+02 0.  0.
         11    1    3    3    0    0 -0.82969664697E+01  0.33972618680E+02 -0.29288238149E+02  0.45615560577E+02  0.51100000000E-03 0.  1.
         22    1    1    0    0    0 -0.18720735240E+01 -0.19939974296E+02 -0.19290567704E+02  0.27807071700E+02  0.00000000000E+00 0.  1.
</event>
<event>
 5    1  0.1099741E-009  0.9118800E+02  0.7818608E-02  0.1130116E+00
         25   -1    0    0    0    0  0.00000000000E+00  0.00000000000E+00  0.99999998245E-14  0.12500000000E+03  0.12500000000E+03 0.  0.
        -11    1    3    3    0    0 -0.34261192239E+02  0.92359079941E+00 -0.35883235934E+02  0.49621456397E+02  0.51100000000E-03 0.  1.
         23    2    1    0    0    0  0.18142294830E+01  0.23110214054E+02 -0.18247129385E+02  0.95498624557E+02  0.90827617711E+02 0.  0.
         11    1    3    3    0    0  0.36075421722E+02  0.22186623255E+02  0.17636106549E+02  0.45877168159E+02  0.51100000000E-03 0. -1.
         22    1    1    0    0    0 -0.18142294830E+01 -0.23110214054E+02  0.18247129385E+02  0.29501375443E+02  0.00000000000E+00 0.  1.
</event>
<event>
 5    1  0.1099741E-009  0.9118800E+02  0.7818608E-02  0.1130116E+00
         25   -1    0    0    0    0  0.00000000000E+00  0.00000000000E+00  0.99999998245E-14  0.12500000000E+03  0.12500000000E+03 0.  0.
        -11    1    3    3    0    0 -0.28970029956E+02 -0.20930594415E+02  0.37799398883E+02  0.52020639888E+02  0.51100000000E-03 0.  1.
         23    2    1    0    0    0 -0.27553002322E+02 -0.76793364482E+01 -0.42058595984E+01  0.96089285719E+02  0.91636899936E+02 0.  0.
         11    1    3    3    0    0  0.14170276339E+01  0.13251257967E+02 -0.42005258481E+02  0.44068645831E+02  0.51100000000E-03 0. -1.
         22    1    1    0    0    0  0.27553002322E+02  0.76793364482E+01  0.42058595984E+01  0.28910714281E+02  0.00000000000E+00 0.  1.
</event>
<event>
 5    1  0.1099741E-009  0.9118800E+02  0.7818608E-02  0.1130116E+00
         25   -1    0    0    0    0  0.00000000000E+00  0.00000000000E+00  0.99999998245E-14  0.12500000000E+03  0.12500000000E+03 0.  0.
        -11    1    3    3    0    0  0.50611507627E+02 -0.48490389757E+01 -0.22733192676E+02  0.55694128351E+02  0.51100000000E-03 0.  1.
         23    2    1    0    0    0  0.25948868046E+02 -0.66505892093E+01  0.97275557979E+01  0.96500887181E+02  0.92196647418E+02 0.  0.
         11    1    3    3    0    0 -0.24662639581E+02 -0.18015502336E+01  0.32460748474E+02  0.40806758829E+02  0.51100000000E-03 0. -1.
         22    1    1    0    0    0 -0.25948868046E+02  0.66505892093E+01 -0.97275557979E+01  0.28499112819E+02  0.00000000000E+00 0.  1.
</event>
<event>
 5    1  0.1099741E-009  0.9118800E+02  0.7818608E-02  0.1130116E+00
         25   -1    0    0    0    0  0.00000000000E+00  0.00000000000E+00  0.99999998245E-14  0.12500000000E+03  0.12500000000E+03 0.  0.
        -11    1    3    3    0    0 -0.27535293771E+02  0.32781314633E+02  0.50013976411E+01  0.43102447387E+02  0.51100000000E-03 0.  1.
         23    2    1    0    0    0 -0.11254909929E+02 -0.88928626024E+01 -0.24439934727E+02  0.96661573576E+02  0.92414248868E+02 0.  0.
         11    1    3    3    0    0  0.16280383842E+02 -0.41674177235E+02 -0.29441332368E+02  0.53559126189E+02  0.51100000000E-03 0. -1.
         22    1    1    0    0    0  0.11254909929E+02  0.88928626024E+01  0.24439934727E+02  0.28338426424E+02  0.00000000000E+00 0. -1.
</event>
<event>
 5    1  0.1099741E-009  0.9118800E+02  0.7818608E-02  0.1130116E+00
         25   -1    0    0    0    0  0.00000000000E+00  0.00000000000E+00  0.99999998245E-14  0.12500000000E+03  0.12500000000E+03 0.  0.
        -11    1    3    3    0    0 -0.24832057726E+02  0.32744824591E+02 -0.19500884729E+02  0.45487791042E+02  0.51100000000E-03 0.  1.
         23    2    1    0    0    0 -0.51408568662E+01  0.27389305760E+02  0.20507579885E+02  0.90399952137E+02  0.83516393806E+02 0.  0.
         11    1    3    3    0    0  0.19691200859E+02 -0.53555188310E+01  0.40008464614E+02  0.44912161096E+02  0.51100000000E-03 0. -1.
         22    1    1    0    0    0  0.51408568662E+01 -0.27389305760E+02 -0.20507579885E+02  0.34600047863E+02  0.00000000000E+00 0.  1.
</event>
<event>
 5    1  0.1099741E-009  0.9118800E+02  0.7818608E-02  0.1130116E+00
         25   -1    0    0    0    0  0.00000000000E+00  0.00000000000E+00  0.99999998245E-14  0.12500000000E+03  0.12500000000E+03 0.  0.
        -11    1    3    3    0    0 -0.28572410181E+02 -0.48434320347E+02  0.12411571887E+01  0.56247724242E+02  0.51100000000E-03 0.  1.
         23    2    1    0    0    0 -0.25299047854E+02 -0.99999918052E+01  0.10370168786E+02  0.95886737403E+02  0.91360190185E+02 0.  0.
         11    1    3    3    0    0  0.32733623275E+01  0.38434328541E+02  0.91290115970E+01  0.39639013161E+02  0.51100000000E-03 0. -1.
         22    1    1    0    0    0  0.25299047854E+02  0.99999918052E+01 -0.10370168786E+02  0.29113262597E+02  0.00000000000E+00 0.  1.
</event>
<event>
 5    1  0.1099741E-009  0.9118800E+02  0.7818608E-02  0.1130116E+00
         25   -1    0    0    0    0  0.00000000000E+00  0.00000000000E+00  0.99999998245E-14  0.12500000000E+03  0.12500000000E+03 0.  0.
        -11    1    3    3    0    0 -0.46348702981E+01  0.21436559755E+02  0.57687095417E+02  0.61715549862E+02  0.51100000000E-03 0. -1.
         23    2    1    0    0    0 -0.78116927050E+01  0.57288166990E+01  0.26613002309E+02  0.96678739866E+02  0.92437465167E+02 0.  0.
         11    1    3    3    0    0 -0.31768224069E+01 -0.15707743056E+02 -0.31074093108E+02  0.34963190004E+02  0.51100000000E-03 0.  1.
         22    1    1    0    0    0  0.78116927050E+01 -0.57288166990E+01 -0.26613002309E+02  0.28321260134E+02  0.00000000000E+00 0. -1.
</event>
<event>
 5    1  0.1099741E-009  0.9118800E+02  0.7818608E-02  0.1130116E+00
         25   -1    0    0    0    0  0.00000000000E+00  0.00000000000E+00  0.99999998245E-14  0.12500000000E+03  0.12500000000E+03 0.  0.
        -11    1    3    3    0    0 -0.17792079067E+02 -0.41793102515E+02 -0.63104265419E+01  0.45858946551E+02  0.51100000000E-03 0. -1.
         23    2    1    0    0    0 -0.21438207543E+02  0.27077005196E+01  0.18159237308E+02  0.96774368309E+02  0.92566689890E+02 0.  0.
         11    1    3    3    0    0 -0.36461284762E+01  0.44500803035E+02  0.24469663849E+02  0.50915421758E+02  0.51100000000E-03 0.  1.
         22    1    1    0    0    0  0.21438207543E+02 -0.27077005196E+01 -0.18159237308E+02  0.28225631691E+02  0.00000000000E+00 0.  1.
</event>
<event>
 5    1  0.1099741E-009  0.9118800E+02  0.7818608E-02  0.1130116E+00
         25   -1    0    0    0    0  0.00000000000E+00  0.00000000000E+00  0.99999998245E-14  0.12500000000E+03  0.12500000000E+03 0.  0.
        -11    1    3    3    0    0  0.42646406857E+02  0.20005674106E+02  0.82793316187E+01  0.47827715256E+02  0.51100000000E-03 0.  1.
         23    2    1    0    0    0 -0.16435613169E+01  0.27200561673E+02 -0.95701078499E+01  0.96118192345E+02  0.91676322387E+02 0.  0.
         11    1    3    3    0    0 -0.44289968174E+02  0.71948875668E+01 -0.17849439469E+02  0.48290477090E+02  0.51100000000E-03 0. -1.
         22    1    1    0    0    0  0.16435613169E+01 -0.27200561673E+02  0.95701078499E+01  0.28881807655E+02  0.00000000000E+00 0. -1.
</event>
<event>
 5    1  0.1099741E-009  0.9118800E+02  0.7818608E-02  0.1130116E+00
         25   -1    0    0    0    0  0.00000000000E+00  0.00000000000E+00  0.99999998245E-14  0.12500000000E+03  0.12500000000E+03 0.  0.
        -11    1    3    3    0    0 -0.14556179939E+02 -0.53724180204E+02 -0.25446737600E+02  0.61202176168E+02  0.51100000000E-03 0. -1.
         23    2    1    0    0    0 -0.64289602275E+01 -0.28304482420E+02 -0.34812263605E+01  0.95766556966E+02  0.91195609771E+02 0.  0.
         11    1    3    3    0    0  0.81272197112E+01  0.25419697784E+02  0.21965511239E+02  0.34564380798E+02  0.51100000000E-03 0.  1.
         22    1    1    0    0    0  0.64289602275E+01  0.28304482420E+02  0.34812263605E+01  0.29233443034E+02  0.00000000000E+00 0. -1.
</event>
<event>
 5    1  0.1099741E-009  0.9118800E+02  0.7818608E-02  0.1130116E+00
         25   -1    0    0    0    0  0.00000000000E+00  0.00000000000E+00  0.99999998245E-14  0.12500000000E+03  0.12500000000E+03 0.  0.
        -11    1    3    3    0    0 -0.15696902065E+02  0.24788557144E+02  0.20172712433E+02  0.35606230170E+02  0.51100000000E-03 0.  1.
         23    2    1    0    0    0  0.26473323646E+02 -0.12757729605E+02 -0.14274183935E+00  0.95612640391E+02  0.90984394804E+02 0.  0.
         11    1    3    3    0    0  0.42170225711E+02 -0.37546286749E+02 -0.20315454273E+02  0.60006410222E+02  0.51100000000E-03 0. -1.
         22    1    1    0    0    0 -0.26473323646E+02  0.12757729605E+02  0.14274183935E+00  0.29387359609E+02  0.00000000000E+00 0. -1.
</event>
<event>
 5    1  0.1099741E-009  0.9118800E+02  0.7818608E-02  0.1130116E+00
         25   -1    0    0    0    0  0.00000000000E+00  0.00000000000E+00  0.99999998245E-14  0.12500000000E+03  0.12500000000E+03 0.  0.
        -11    1    3    3    0    0  0.49072375050E+01  0.17972341132E+02 -0.49496596106E+02  0.52886662326E+02  0.51100000000E-03 0. -1.
         23    2    1    0    0    0  0.22416101801E+02  0.14723553021E+02 -0.97090197620E+01  0.96477557990E+02  0.92165012328E+02 0.  0.
         11    1    3    3    0    0  0.17508864296E+02 -0.32487881110E+01  0.39787576344E+02  0.43590895663E+02  0.51100000000E-03 0.  1.
         22    1    1    0    0    0 -0.22416101801E+02 -0.14723553021E+02  0.97090197620E+01  0.28522442010E+02  0.00000000000E+00 0. -1.
</event>
<event>
 5    1  0.1099741E-009  0.9118800E+02  0.7818608E-02  0.1130116E+00
         25   -1    0    0    0    0  0.00000000000E+00  0.00000000000E+00  0.99999998245E-14  0.12500000000E+03  0.12500000000E+03 0.  0.
        -11    1    3    3    0    0 -0.29293106042E+02  0.19359285355E+02  0.11351188058E+02  0.36901456091E+02  0.51100000000E-03 0.  1.
         23    2    1    0    0    0  0.12899131376E+02 -0.61804204444E+01 -0.23637468706E+02  0.97371842009E+02  0.93370019290E+02 0.  0.
         11    1    3    3    0    0  0.42192237418E+02 -0.25539705799E+02 -0.34988656764E+02  0.60470385918E+02  0.51100000000E-03 0. -1.
         22    1    1    0    0    0 -0.12899131376E+02  0.61804204444E+01  0.23637468706E+02  0.27628157991E+02  0.00000000000E+00 0. -1.
</event>
<event>
 5    1  0.1099741E-009  0.9118800E+02  0.7818608E-02  0.1130116E+00
         25   -1    0    0    0    0  0.00000000000E+00  0.00000000000E+00  0.99999998245E-14  0.12500000000E+03  0.12500000000E+03 0.  0.
        -11    1    3    3    0    0 -0.41461502123E+02 -0.27502356601E+02 -0.97549106476E+01  0.50701026212E+02  0.51100000000E-03 0.  1.
         23    2    1    0    0    0 -0.63643323862E+01 -0.20758728029E+02  0.18668960312E+02  0.96365063380E+02  0.92012313550E+02 0.  0.
         11    1    3    3    0    0  0.35097169737E+02  0.67436285720E+01  0.28423870960E+02  0.45664037168E+02  0.51100000000E-03 0. -1.
         22    1    1    0    0    0  0.63643323862E+01  0.20758728029E+02 -0.18668960312E+02  0.28634936620E+02  0.00000000000E+00 0.  1.
</event>
<event>
 5    1  0.1099741E-009  0.9118800E+02  0.7818608E-02  0.1130116E+00
         25   -1    0    0    0    0  0.00000000000E+00  0.00000000000E+00  0.99999998245E-14  0.12500000000E+03  0.12500000000E+03 0.  0.
        -11    1    3    3    0    0 -0.67571163780E+00 -0.13574485214E+02 -0.31199930264E+02  0.34031733482E+02  0.51100000000E-03 0. -1.
         23    2    1    0    0    0  0.17505984853E+00 -0.55018676726E+01  0.29357554111E+02  0.95130832332E+02  0.90320031460E+02 0.  0.
         11    1    3    3    0    0  0.85077148634E+00  0.80726175418E+01  0.60557484375E+02  0.61099098849E+02  0.51100000000E-03 0.  1.
         22    1    1    0    0    0 -0.17505984853E+00  0.55018676726E+01 -0.29357554111E+02  0.29869167668E+02  0.00000000000E+00 0.  1.
</event>
<event>
 5    1  0.1099741E-009  0.9118800E+02  0.7818608E-02  0.1130116E+00
         25   -1    0    0    0    0  0.00000000000E+00  0.00000000000E+00  0.99999998245E-14  0.12500000000E+03  0.12500000000E+03 0.  0.
        -11    1    3    3    0    0  0.14161997766E+02  0.16443386723E+02  0.49418885350E+02  0.53973821220E+02  0.51100000000E-03 0. -1.
         23    2    1    0    0    0  0.40447504531E+01 -0.15217431273E+02  0.25893073811E+02  0.94695190281E+02  0.89715091095E+02 0.  0.
         11    1    3    3    0    0 -0.10117247313E+02 -0.31660817995E+02 -0.23525811539E+02  0.40721369060E+02  0.51100000000E-03 0.  1.
         22    1    1    0    0    0 -0.40447504531E+01  0.15217431273E+02 -0.25893073811E+02  0.30304809719E+02  0.00000000000E+00 0. -1.
</event>
<event>
 5    1  0.1099741E-009  0.9118800E+02  0.7818608E-02  0.1130116E+00
         25   -1    0    0    0    0  0.00000000000E+00  0.00000000000E+00  0.99999998245E-14  0.12500000000E+03  0.12500000000E+03 0.  0.
        -11    1    3    3    0    0  0.28941377283E+02 -0.27720650385E+02 -0.34804080149E+02  0.53078826024E+02  0.51100000000E-03 0. -1.
         23    2    1    0    0    0 -0.30917800201E+01 -0.42926819053E+00 -0.29316631395E+02  0.95517662046E+02  0.90853813963E+02 0.  0.
         11    1    3    3    0    0 -0.32033157303E+02  0.27291382194E+02  0.54874487536E+01  0.42438836023E+02  0.51100000000E-03 0.  1.
         22    1    1    0    0    0  0.30917800201E+01  0.42926819053E+00  0.29316631395E+02  0.29482337954E+02  0.00000000000E+00 0. -1.
</event>
<event>
 5    1  0.1099741E-009  0.9118800E+02  0.7818608E-02  0.1130116E+00
         25   -1    0    0    0    0  0.00000000000E+00  0.00000000000E+00  0.99999998245E-14  0.12500000000E+03  0.12500000000E+03 0.  0.
        -11    1    3    3    0    0  0.24534566587E+02  0.31174295638E+02 -0.44824547144E+02  0.59858346895E+02  0.51100000000E-03 0.  1.
         23    2    1    0    0    0  0.20773659450E+02  0.60455342833E+01 -0.17480448071E+02  0.97185265120E+02  0.93119902706E+02 0.  0.
         11    1    3    3    0    0 -0.37609071367E+01 -0.25128761355E+02  0.27344099073E+02  0.37326918224E+02  0.51100000000E-03 0. -1.
         22    1    1    0    0    0 -0.20773659450E+02 -0.60455342833E+01  0.17480448071E+02  0.27814734880E+02  0.00000000000E+00 0.  1.
</event>
<event>
 5    1  0.1099741E-009  0.9118800E+02  0.7818608E-02  0.1130116E+00
         25   -1    0    0    0    0  0.00000000000E+00  0.00000000000E+00  0.99999998245E-14  0.12500000000E+03  0.12500000000E+03 0.  0.
        -11    1    3    3    0    0 -0.30222322154E+02 -0.55656859990E+01 -0.30582983621E+02  0.43355328444E+02  0.51100000000E-03 0.  1.
         23    2    1    0    0    0  0.18432790127E+02  0.10765325467E+02 -0.19980288392E+02  0.95761807366E+02  0.91189099357E+02 0.  0.
         11    1    3    3    0    0  0.48655112281E+02  0.16331011466E+02  0.10602695229E+02  0.52406478922E+02  0.51100000000E-03 0. -1.
         22    1    1    0    0    0 -0.18432790127E+02 -0.10765325467E+02  0.19980288392E+02  0.29238192634E+02  0.00000000000E+00 0. -1.
</event>
<event>
 5    1  0.1099741E-009  0.9118800E+02  0.7818608E-02  0.1130116E+00
         25   -1    0    0    0    0  0.00000000000E+00  0.00000000000E+00  0.99999998245E-14  0.12500000000E+03  0.12500000000E+03 0.  0.
        -11    1    3    3    0    0  0.22896260140E+02 -0.14521970550E+02  0.21621748882E+02  0.34678903992E+02  0.51100000000E-03 0.  1.
         23    2    1    0    0    0 -0.20983518986E+02  0.21559379637E+02  0.17480866411E+01  0.94864128911E+02  0.89950165246E+02 0.  0.
         11    1    3    3    0    0 -0.43879779126E+02  0.36081350187E+02 -0.19873662241E+02  0.60185224920E+02  0.51100000000E-03 0. -1.
         22    1    1    0    0    0  0.20983518986E+02 -0.21559379637E+02 -0.17480866411E+01  0.30135871089E+02  0.00000000000E+00 0. -1.
</event>
<event>
 5    1  0.1099741E-009  0.9118800E+02  0.7818608E-02  0.1130116E+00
         25   -1    0    0    0    0  0.00000000000E+00  0.00000000000E+00  0.99999998245E-14  0.12500000000E+03  0.12500000000E+03 0.  0.
        -11    1    3    3    0    0 -0.19438029581E+02  0.50513915133E+02  0.10130228927E+02  0.55064636151E+02  0.51100000000E-03 0.  1.
         23    2    1    0    0    0 -0.24490026394E+02  0.14965568790E+02 -0.78845240569E+01  0.95236005618E+02  0.90465470786E+02 0.  0.
         11    1    3    3    0    0 -0.50519968127E+01 -0.35548346343E+02 -0.18014752983E+02  0.40171369467E+02  0.51100000000E-03 0. -1.
         22    1    1    0    0    0  0.24490026394E+02 -0.14965568790E+02  0.78845240569E+01  0.29763994382E+02  0.00000000000E+00 0.  1.
</event>
<event>
 5    1  0.1099741E-009  0.9118800E+02  0.7818608E-02  0.1130116E+00
         25   -1    0    0    0    0  0.00000000000E+00  0.00000000000E+00  0.99999998245E-14  0.12500000000E+03  0.12500000000E+03 0.  0.
        -11    1    3    3    0    0 -0.38126558464E+02  0.27320369142E+02  0.10405765365E+02  0.48044947533E+02  0.51100000000E-03 0. -1.
         23    2    1    0    0    0 -0.22207567430E+02 -0.17756258420E+02  0.44793759324E+01  0.96215879847E+02  0.91809421966E+02 0.  0.
         11    1    3    3    0    0  0.15918991034E+02 -0.45076627563E+02 -0.59263894331E+01  0.48170932313E+02  0.51100000000E-03 0.  1.
         22    1    1    0    0    0  0.22207567430E+02  0.17756258420E+02 -0.44793759324E+01  0.28784120153E+02  0.00000000000E+00 0.  1.
</event>
<event>
 5    1  0.1099741E-009  0.9118800E+02  0.7818608E-02  0.1130116E+00
         25   -1    0    0    0    0  0.00000000000E+00  0.00000000000E+00  0.99999998245E-14  0.12500000000E+03  0.12500000000E+03 0.  0.
        -11    1    3    3    0    0  0.93484267281E+01  0.36913118391E+02  0.31979446643E+01  0.38212540376E+02  0.51100000000E-03 0. -1.
         23    2    1    0    0    0  0.26980277503E+02 -0.11314843334E+02  0.16705980289E+02  0.91309484551E+02  0.84866784655E+02 0.  0.
         11    1    3    3    0    0  0.17631850775E+02 -0.48227961726E+02  0.13508035625E+02  0.53096944174E+02  0.51100000000E-03 0.  1.
         22    1    1    0    0    0 -0.26980277503E+02  0.11314843334E+02 -0.16705980289E+02  0.33690515449E+02  0.00000000000E+00 0.  1.
</event>
<event>
 5    1  0.1099741E-009  0.9118800E+02  0.7818608E-02  0.1130116E+00
         25   -1    0    0    0    0  0.00000000000E+00  0.00000000000E+00  0.99999998245E-14  0.12500000000E+03  0.12500000000E+03 0.  0.
        -11    1    3    3    0    0 -0.37925385900E+02  0.25252169729E+02  0.34799609030E+02  0.57332536667E+02  0.51100000000E-03 0.  1.
         23    2    1    0    0    0 -0.18150625525E+02  0.22930309295E+02  0.20194233788E+01  0.95685799310E+02  0.91084849604E+02 0.  0.
         11    1    3    3    0    0  0.19774760375E+02 -0.23218604335E+01 -0.32780185651E+02  0.38353262643E+02  0.51100000000E-03 0. -1.
         22    1    1    0    0    0  0.18150625525E+02 -0.22930309295E+02 -0.20194233788E+01  0.29314200690E+02  0.00000000000E+00 0.  1.
</event>
<event>
 5    1  0.1099741E-009  0.9118800E+02  0.7818608E-02  0.1130116E+00
         25   -1    0    0    0    0  0.00000000000E+00  0.00000000000E+00  0.99999998245E-14  0.12500000000E+03  0.12500000000E+03 0.  0.
        -11    1    3    3    0    0 -0.28812412042E+02 -0.37915931800E+02  0.19167059577E+01  0.47659697166E+02  0.51100000000E-03 0. -1.
         23    2    1    0    0    0 -0.29693712036E+02  0.50653538253E+01 -0.11594131572E+02  0.92723100663E+02  0.86923961977E+02 0.  0.
         11    1    3    3    0    0 -0.88129999436E+00  0.42981285626E+02 -0.13510837530E+02  0.45063403497E+02  0.51100000000E-03 0.  1.
         22    1    1    0    0    0  0.29693712036E+02 -0.50653538253E+01  0.11594131572E+02  0.32276899337E+02  0.00000000000E+00 0.  1.
</event>
<event>
 5    1  0.1099741E-009  0.9118800E+02  0.7818608E-02  0.1130116E+00
         25   -1    0    0    0    0  0.00000000000E+00  0.00000000000E+00  0.99999998245E-14  0.12500000000E+03  0.12500000000E+03 0.  0.
        -11    1    3    3    0    0  0.51260284826E+01  0.33998668051E+02 -0.33353835687E+01  0.34544324875E+02  0.51100000000E-03 0. -1.
         23    2    1    0    0    0  0.18341995500E+02  0.57959844873E+00  0.33998910963E+02  0.86364644690E+02  0.77240929386E+02 0.  0.
         11    1    3    3    0    0  0.13215967017E+02 -0.33419069602E+02  0.37334294532E+02  0.51820319815E+02  0.51100000000E-03 0.  1.
         22    1    1    0    0    0 -0.18341995500E+02 -0.57959844873E+00 -0.33998910963E+02  0.38635355310E+02  0.00000000000E+00 0.  1.
</event>
<event>
 5    1  0.1099741E-009  0.9118800E+02  0.7818608E-02  0.1130116E+00
         25   -1    0    0    0    0  0.00000000000E+00  0.00000000000E+00  0.99999998245E-14  0.12500000000E+03  0.12500000000E+03 0.  0.
        -11    1    3    3    0    0  0.19896913597E+01  0.33262580605E+02 -0.23555361328E+01  0.33405189581E+02  0.51100000000E-03 0.  1.
         23    2    1    0    0    0  0.35706368389E+01 -0.28958379002E+02 -0.31622363227E+01  0.95651458292E+02  0.91037709621E+02 0.  0.
         11    1    3    3    0    0  0.15809454792E+01 -0.62220959607E+02 -0.80670018986E+00  0.62246268711E+02  0.51100000000E-03 0. -1.
         22    1    1    0    0    0 -0.35706368389E+01  0.28958379002E+02  0.31622363227E+01  0.29348541708E+02  0.00000000000E+00 0. -1.
</event>
<event>
 5    1  0.1099741E-009  0.9118800E+02  0.7818608E-02  0.1130116E+00
         25   -1    0    0    0    0  0.00000000000E+00  0.00000000000E+00  0.99999998245E-14  0.12500000000E+03  0.12500000000E+03 0.  0.
        -11    1    3    3    0    0 -0.31893226756E+02 -0.11318707307E+01  0.30768822950E+02  0.44330345253E+02  0.51100000000E-03 0. -1.
         23    2    1    0    0    0  0.13149633956E+02 -0.15938107717E+02  0.25713920796E+02  0.92013004479E+02  0.85896746852E+02 0.  0.
         11    1    3    3    0    0  0.45042860712E+02 -0.14806236987E+02 -0.50549021544E+01  0.47682659226E+02  0.51100000000E-03 0.  1.
         22    1    1    0    0    0 -0.13149633956E+02  0.15938107717E+02 -0.25713920796E+02  0.32986995521E+02  0.00000000000E+00 0. -1.
</event>
<event>
 5    1  0.1099741E-009  0.9118800E+02  0.7818608E-02  0.1130116E+00
         25   -1    0    0    0    0  0.00000000000E+00  0.00000000000E+00  0.99999998245E-14  0.12500000000E+03  0.12500000000E+03 0.  0.
        -11    1    3    3    0    0 -0.40807599159E+02 -0.92838054332E+01 -0.28465409267E+02  0.50613523068E+02  0.51100000000E-03 0. -1.
         23    2    1    0    0    0 -0.26018076217E+02  0.60916518471E+01  0.11493887199E+02  0.95911205677E+02  0.91393661810E+02 0.  0.
         11    1    3    3    0    0  0.14789522942E+02  0.15375457280E+02  0.39959296465E+02  0.45297682608E+02  0.51100000000E-03 0.  1.
         22    1    1    0    0    0  0.26018076217E+02 -0.60916518471E+01 -0.11493887199E+02  0.29088794323E+02  0.00000000000E+00 0.  1.
</event>
<event>
 5    1  0.1099741E-009  0.9118800E+02  0.7818608E-02  0.1130116E+00
         25   -1    0    0    0    0  0.00000000000E+00  0.00000000000E+00  0.99999998245E-14  0.12500000000E+03  0.12500000000E+03 0.  0.
        -11    1    3    3    0    0  0.29121760839E+02  0.47086346504E+01  0.15230942708E+02  0.33199846546E+02  0.51100000000E-03 0. -1.
         23    2    1    0    0    0 -0.21435181734E+02  0.36179260107E+01 -0.20501455090E+02  0.95119135465E+02  0.90303841924E+02 0.  0.
         11    1    3    3    0    0 -0.50556942572E+02 -0.10907086397E+01 -0.35732397798E+02  0.61919288919E+02  0.51100000000E-03 0.  1.
         22    1    1    0    0    0  0.21435181734E+02 -0.36179260107E+01  0.20501455090E+02  0.29880864535E+02  0.00000000000E+00 0.  1.
</event>
<event>
 5    1  0.1099741E-009  0.9118800E+02  0.7818608E-02  0.1130116E+00
         25   -1    0    0    0    0  0.00000000000E+00  0.00000000000E+00  0.99999998245E-14  0.12500000000E+03  0.12500000000E+03 0.  0.
        -11    1    3    3    0    0  0.44362005194E+00  0.54650297514E+02  0.22305856924E+01  0.54697598941E+02  0.51100000000E-03 0.  1.
         23    2    1    0    0    0 -0.16639674012E+02  0.20758592536E+02 -0.12746606461E+02  0.95499595061E+02  0.90828953343E+02 0.  0.
         11    1    3    3    0    0 -0.17083294064E+02 -0.33891704978E+02 -0.14977192153E+02  0.40801996121E+02  0.51100000000E-03 0. -1.
         22    1    1    0    0    0  0.16639674012E+02 -0.20758592536E+02  0.12746606461E+02  0.29500404939E+02  0.00000000000E+00 0. -1.
</event>
<event>
 5    1  0.1099741E-009  0.9118800E+02  0.7818608E-02  0.1130116E+00
         25   -1    0    0    0    0  0.00000000000E+00  0.00000000000E+00  0.99999998245E-14  0.12500000000E+03  0.12500000000E+03 0.  0.
        -11    1    3    3    0    0 -0.15876909574E+02 -0.24536791139E+02  0.30736107896E+02  0.42412718681E+02  0.51100000000E-03 0.  1.
         23    2    1    0    0    0 -0.10914565323E+02 -0.18801465173E+02 -0.21042769050E+02  0.94744075653E+02  0.89783177228E+02 0.  0.
         11    1    3    3    0    0  0.49623442505E+01  0.57353259667E+01 -0.51778876946E+02  0.52331356972E+02  0.51100000000E-03 0. -1.
         22    1    1    0    0    0  0.10914565323E+02  0.18801465173E+02  0.21042769050E+02  0.30255924347E+02  0.00000000000E+00 0. -1.
</event>
<event>
 5    1  0.1099741E-009  0.9118800E+02  0.7818608E-02  0.1130116E+00
         25   -1    0    0    0    0  0.00000000000E+00  0.00000000000E+00  0.99999998245E-14  0.12500000000E+03  0.12500000000E+03 0.  0.
        -11    1    3    3    0    0  0.18779798881E+02 -0.24904627605E+02  0.16427017071E+02  0.35252917784E+02  0.51100000000E-03 0. -1.
         23    2    1    0    0    0 -0.51469727692E+01  0.28879716346E+02  0.43667643989E+01  0.95341982935E+02  0.90611785843E+02 0.  0.
         11    1    3    3    0    0 -0.23926771651E+02  0.53784343952E+02 -0.12060252672E+02  0.60089065151E+02  0.51100000000E-03 0.  1.
         22    1    1    0    0    0  0.51469727692E+01 -0.28879716346E+02 -0.43667643989E+01  0.29658017065E+02  0.00000000000E+00 0.  1.
</event>
<event>
 5    1  0.1099741E-009  0.9118800E+02  0.7818608E-02  0.1130116E+00
         25   -1    0    0    0    0  0.00000000000E+00  0.00000000000E+00  0.99999998245E-14  0.12500000000E+03  0.12500000000E+03 0.  0.
        -11    1    3    3    0    0 -0.29757025250E+02  0.48368313325E+02 -0.23413892970E+02  0.61426253914E+02  0.51100000000E-03 0. -1.
         23    2    1    0    0    0 -0.75849048583E+01  0.27251071902E+02 -0.86433788904E+01  0.95421972680E+02  0.90722065507E+02 0.  0.
         11    1    3    3    0    0  0.22172120391E+02 -0.21117241423E+02  0.14770514080E+02  0.33995718766E+02  0.51100000000E-03 0.  1.
         22    1    1    0    0    0  0.75849048583E+01 -0.27251071902E+02  0.86433788904E+01  0.29578027320E+02  0.00000000000E+00 0. -1.
</event>
<event>
 5    1  0.1099741E-009  0.9118800E+02  0.7818608E-02  0.1130116E+00
         25   -1    0    0    0    0  0.00000000000E+00  0.00000000000E+00  0.99999998245E-14  0.12500000000E+03  0.12500000000E+03 0.  0.
        -11    1    3    3    0    0 -0.19530467818E+02  0.48540398534E+02  0.25229961180E+02  0.58087523656E+02  0.51100000000E-03 0.  1.
         23    2    1    0    0    0 -0.10369827414E+02  0.11585005533E+02  0.24274029985E+02  0.96173376793E+02  0.91751535128E+02 0.  0.
         11    1    3    3    0    0  0.91606404035E+01 -0.36955393002E+02 -0.95593119479E+00  0.38085853137E+02  0.51100000000E-03 0. -1.
         22    1    1    0    0    0  0.10369827414E+02 -0.11585005533E+02 -0.24274029985E+02  0.28826623207E+02  0.00000000000E+00 0.  1.
</event>
<event>
 5    1  0.1099741E-009  0.9118800E+02  0.7818608E-02  0.1130116E+00
         25   -1    0    0    0    0  0.00000000000E+00  0.00000000000E+00  0.99999998245E-14  0.12500000000E+03  0.12500000000E+03 0.  0.
        -11    1    3    3    0    0  0.37613694154E+02  0.91466012760E+01  0.70324479093E+01  0.39343431811E+02  0.51100000000E-03 0. -1.
         23    2    1    0    0    0 -0.67581601114E+01 -0.19371110218E+02 -0.17980719141E+02  0.97719624269E+02  0.93834460980E+02 0.  0.
         11    1    3    3    0    0 -0.44371854265E+02 -0.28517711494E+02 -0.25013167050E+02  0.58376192458E+02  0.51100000000E-03 0.  1.
         22    1    1    0    0    0  0.67581601114E+01  0.19371110218E+02  0.17980719141E+02  0.27280375731E+02  0.00000000000E+00 0.  1.
</event>
<event>
 5    1  0.1099741E-009  0.9118800E+02  0.7818608E-02  0.1130116E+00
         25   -1    0    0    0    0  0.00000000000E+00  0.00000000000E+00  0.99999998245E-14  0.12500000000E+03  0.12500000000E+03 0.  0.
        -11    1    3    3    0    0  0.16117841230E+02 -0.49142314633E+02 -0.29476318048E+02  0.59528188443E+02  0.51100000000E-03 0. -1.
         23    2    1    0    0    0  0.22224277673E+01 -0.28640030263E+02 -0.24763022223E+01  0.96167334647E+02  0.91743303089E+02 0.  0.
         11    1    3    3    0    0 -0.13895413463E+02  0.20502284370E+02  0.27000015826E+02  0.36639146204E+02  0.51100000000E-03 0.  1.
         22    1    1    0    0    0 -0.22224277673E+01  0.28640030263E+02  0.24763022223E+01  0.28832665353E+02  0.00000000000E+00 0. -1.
</event>
<event>
 5    1  0.1099741E-009  0.9118800E+02  0.7818608E-02  0.1130116E+00
         25   -1    0    0    0    0  0.00000000000E+00  0.00000000000E+00  0.99999998245E-14  0.12500000000E+03  0.12500000000E+03 0.  0.
        -11    1    3    3    0    0  0.39120846713E+02 -0.14675058035E+02 -0.16738551366E+02  0.45010855112E+02  0.51100000000E-03 0. -1.
         23    2    1    0    0    0 -0.26438120276E+00  0.18016363439E+02 -0.22110849803E+02  0.96477220893E+02  0.92164555135E+02 0.  0.
         11    1    3    3    0    0 -0.39385227915E+02  0.32691421474E+02 -0.53722984372E+01  0.51466365781E+02  0.51100000000E-03 0.  1.
         22    1    1    0    0    0  0.26438120276E+00 -0.18016363439E+02  0.22110849803E+02  0.28522779107E+02  0.00000000000E+00 0. -1.
</event>
<event>
 5    1  0.1099741E-009  0.9118800E+02  0.7818608E-02  0.1130116E+00
         25   -1    0    0    0    0  0.00000000000E+00  0.00000000000E+00  0.99999998245E-14  0.12500000000E+03  0.12500000000E+03 0.  0.
        -11    1    3    3    0    0 -0.12338819522E+02  0.31670562006E+02  0.18940022350E+01  0.34042006546E+02  0.51100000000E-03 0. -1.
         23    2    1    0    0    0  0.11028485899E+02 -0.22638566761E+02 -0.15199685060E+02  0.95586352961E+02  0.90948272332E+02 0.  0.
         11    1    3    3    0    0  0.23367305421E+02 -0.54309128767E+02 -0.17093687295E+02  0.61544346415E+02  0.51100000000E-03 0.  1.
         22    1    1    0    0    0 -0.11028485899E+02  0.22638566761E+02  0.15199685060E+02  0.29413647039E+02  0.00000000000E+00 0.  1.
</event>
<event>
 5    1  0.1099741E-009  0.9118800E+02  0.7818608E-02  0.1130116E+00
         25   -1    0    0    0    0  0.00000000000E+00  0.00000000000E+00  0.99999998245E-14  0.12500000000E+03  0.12500000000E+03 0.  0.
        -11    1    3    3    0    0  0.92055872762E+01 -0.20848382081E+02 -0.28116107534E+02  0.36192725452E+02  0.51100000000E-03 0. -1.
         23    2    1    0    0    0 -0.26468050057E+02  0.22029552640E+01  0.13107716556E+02  0.95382050729E+02  0.90667042977E+02 0.  0.
         11    1    3    3    0    0 -0.35673637333E+02  0.23051337345E+02  0.41223824090E+02  0.59189325277E+02  0.51100000000E-03 0.  1.
         22    1    1    0    0    0  0.26468050057E+02 -0.22029552640E+01 -0.13107716556E+02  0.29617949271E+02  0.00000000000E+00 0.  1.
</event>
<event>
 5    1  0.1099741E-009  0.9118800E+02  0.7818608E-02  0.1130116E+00
         25   -1    0    0    0    0  0.00000000000E+00  0.00000000000E+00  0.99999998245E-14  0.12500000000E+03  0.12500000000E+03 0.  0.
        -11    1    3    3    0    0  0.16365335224E+00  0.48684391567E+02 -0.98010883441E+00  0.48694531297E+02  0.51100000000E-03 0.  1.
         23    2    1    0    0    0 -0.80186674756E-01  0.13998906133E+02 -0.28681150784E+02  0.93084733855E+02  0.87442458015E+02 0.  0.
         11    1    3    3    0    0 -0.24384002700E+00 -0.34685485434E+02 -0.27701041949E+02  0.44390202557E+02  0.51100000000E-03 0. -1.
         22    1    1    0    0    0  0.80186674756E-01 -0.13998906133E+02  0.28681150784E+02  0.31915266145E+02  0.00000000000E+00 0.  1.
</event>
<event>
 5    1  0.1099741E-009  0.9118800E+02  0.7818608E-02  0.1130116E+00
         25   -1    0    0    0    0  0.00000000000E+00  0.00000000000E+00  0.99999998245E-14  0.12500000000E+03  0.12500000000E+03 0.  0.
        -11    1    3    3    0    0  0.31028547844E+02 -0.41387499580E+01 -0.27963907142E+02  0.41974755930E+02  0.51100000000E-03 0.  1.
         23    2    1    0    0    0 -0.33623244149E+01  0.27655036418E+02  0.11426006583E+01  0.97117894610E+02  0.93029423584E+02 0.  0.
         11    1    3    3    0    0 -0.34390872259E+02  0.31793786376E+02  0.29106507800E+02  0.55143138679E+02  0.51100000000E-03 0. -1.
         22    1    1    0    0    0  0.33623244149E+01 -0.27655036418E+02 -0.11426006583E+01  0.27882105390E+02  0.00000000000E+00 0. -1.
</event>
<event>
 5    1  0.1099741E-009  0.9118800E+02  0.7818608E-02  0.1130116E+00
         25   -1    0    0    0    0  0.00000000000E+00  0.00000000000E+00  0.99999998245E-14  0.12500000000E+03  0.12500000000E+03 0.  0.
        -11    1    3    3    0    0  0.14555767382E+02 -0.19021675849E+02 -0.35657720178E+02  0.42955413218E+02  0.51100000000E-03 0.  1.
         23    2    1    0    0    0 -0.26426077224E+02 -0.12988116330E+02 -0.35990320332E+01  0.95335513576E+02  0.90602860849E+02 0.  0.
         11    1    3    3    0    0 -0.40981844605E+02  0.60335595194E+01  0.32058688144E+02  0.52380100358E+02  0.51100000000E-03 0. -1.
         22    1    1    0    0    0  0.26426077224E+02  0.12988116330E+02  0.35990320332E+01  0.29664486424E+02  0.00000000000E+00 0. -1.
</event>
<event>
 5    1  0.1099741E-009  0.9118800E+02  0.7818608E-02  0.1130116E+00
         25   -1    0    0    0    0  0.00000000000E+00  0.00000000000E+00  0.99999998245E-14  0.12500000000E+03  0.12500000000E+03 0.  0.
        -11    1    3    3    0    0 -0.16004974091E+02  0.14031625183E+00 -0.30332062501E+02  0.34295960405E+02  0.51100000000E-03 0.  1.
         23    2    1    0    0    0  0.10648511934E+01 -0.76621746349E+01  0.28197227766E+02  0.95760874126E+02  0.91187820083E+02 0.  0.
         11    1    3    3    0    0  0.17069825284E+02 -0.78024908868E+01  0.58529290267E+02  0.61464913721E+02  0.51100000000E-03 0. -1.
         22    1    1    0    0    0 -0.10648511934E+01  0.76621746349E+01 -0.28197227766E+02  0.29239125874E+02  0.00000000000E+00 0. -1.
</event>
<event>
 5    1  0.1099741E-009  0.9118800E+02  0.7818608E-02  0.1130116E+00
         25   -1    0    0    0    0  0.00000000000E+00  0.00000000000E+00  0.99999998245E-14  0.12500000000E+03  0.12500000000E+03 0.  0.
        -11    1    3    3    0    0  0.31460658860E+02 -0.27045595024E+02 -0.29246380261E+02  0.50760102686E+02  0.51100000000E-03 0. -1.
         23    2    1    0    0    0  0.14949611710E+02 -0.23677784029E+02  0.11403871799E+02  0.94764645880E+02  0.89811811417E+02 0.  0.
         11    1    3    3    0    0 -0.16511047150E+02  0.33678109958E+01  0.40650252059E+02  0.44004543193E+02  0.51100000000E-03 0.  1.
         22    1    1    0    0    0 -0.14949611710E+02  0.23677784029E+02 -0.11403871799E+02  0.30235354120E+02  0.00000000000E+00 0. -1.
</event>
<event>
 5    1  0.1099741E-009  0.9118800E+02  0.7818608E-02  0.1130116E+00
         25   -1    0    0    0    0  0.00000000000E+00  0.00000000000E+00  0.99999998245E-14  0.12500000000E+03  0.12500000000E+03 0.  0.
        -11    1    3    3    0    0  0.14471842534E+02  0.30179859182E+02 -0.33914364590E+02  0.47649157940E+02  0.51100000000E-03 0. -1.
         23    2    1    0    0    0  0.71535019877E+01  0.23648387986E+02  0.14030685996E+02  0.96587344465E+02  0.92313791582E+02 0.  0.
         11    1    3    3    0    0 -0.73183405466E+01 -0.65314711959E+01  0.47945050587E+02  0.48938186525E+02  0.51100000000E-03 0.  1.
         22    1    1    0    0    0 -0.71535019877E+01 -0.23648387986E+02 -0.14030685996E+02  0.28412655535E+02  0.00000000000E+00 0.  1.
</event>
<event>
 4    1  0.1099741E-009  0.9118800E+02  0.7818608E-02  0.1130116E+00
         25   -1    0    0    0    0  0.00000000000E+00  0.00000000000E+00  0.99999998245E-14  0.12500000000E+03  0.12500000000E+03 0.  0.
        -11    1    1    0    0    0  0.12117689485E+02  0.29848954904E+02 -0.95402725620E+01  0.33597846778E+02  0.51100000000E-03 0.  1.
         11    1    1    0    0    0 -0.30209775934E+02  0.16438482507E+02 -0.13083712652E+02  0.36797252698E+02  0.51100000000E-03 0. -1.
         22    1    1    0    0    0  0.18092086449E+02 -0.46287437411E+02  0.22623985214E+02  0.54604900523E+02  0.00000000000E+00 0. -1.
</event>
<event>
 5    1  0.1099741E-009  0.9118800E+02  0.7818608E-02  0.1130116E+00
         25   -1    0    0    0    0  0.00000000000E+00  0.00000000000E+00  0.99999998245E-14  0.12500000000E+03  0.12500000000E+03 0.  0.
        -11    1    3    3    0    0 -0.38840539486E+02 -0.19629836067E+02  0.36562714832E+01  0.43672488972E+02  0.51100000000E-03 0.  1.
         23    2    1    0    0    0  0.12036155275E+02 -0.23685252077E+02  0.12777303964E+02  0.95519163914E+02  0.90855880263E+02 0.  0.
         11    1    3    3    0    0  0.50876694761E+02 -0.40554160102E+01  0.91210324804E+01  0.51846674942E+02  0.51100000000E-03 0. -1.
         22    1    1    0    0    0 -0.12036155275E+02  0.23685252077E+02 -0.12777303964E+02  0.29480836086E+02  0.00000000000E+00 0. -1.
</event>
<event>
 5    1  0.1099741E-009  0.9118800E+02  0.7818608E-02  0.1130116E+00
         25   -1    0    0    0    0  0.00000000000E+00  0.00000000000E+00  0.99999998245E-14  0.12500000000E+03  0.12500000000E+03 0.  0.
        -11    1    3    3    0    0  0.39583951154E+01  0.32488108059E+02  0.29989628829E+02  0.44390583401E+02  0.51100000000E-03 0.  1.
         23    2    1    0    0    0  0.73916782088E+01 -0.17290046494E+02  0.23798009976E+02  0.94669686891E+02  0.89679550192E+02 0.  0.
         11    1    3    3    0    0  0.34332830933E+01 -0.49778154552E+02 -0.61916188534E+01  0.50279103490E+02  0.51100000000E-03 0. -1.
         22    1    1    0    0    0 -0.73916782088E+01  0.17290046494E+02 -0.23798009976E+02  0.30330313109E+02  0.00000000000E+00 0. -1.
</event>
<event>
 5    1  0.1099741E-009  0.9118800E+02  0.7818608E-02  0.1130116E+00
         25   -1    0    0    0    0  0.00000000000E+00  0.00000000000E+00  0.99999998245E-14  0.12500000000E+03  0.12500000000E+03 0.  0.
        -11    1    3    3    0    0 -0.92644487338E+01  0.28602981300E+02 -0.12538836762E+02  0.32575803554E+02  0.51100000000E-03 0. -1.
         23    2    1    0    0    0  0.19221467185E+02 -0.19342794892E+02  0.14010241764E+02  0.94342286627E+02  0.89222035712E+02 0.  0.
         11    1    3    3    0    0  0.28485915919E+02 -0.47945776192E+02  0.26549078526E+02  0.61766483073E+02  0.51100000000E-03 0.  1.
         22    1    1    0    0    0 -0.19221467185E+02  0.19342794892E+02 -0.14010241764E+02  0.30657713373E+02  0.00000000000E+00 0.  1.
</event>
<event>
 5    1  0.1099741E-009  0.9118800E+02  0.7818608E-02  0.1130116E+00
         25   -1    0    0    0    0  0.00000000000E+00  0.00000000000E+00  0.99999998245E-14  0.12500000000E+03  0.12500000000E+03 0.  0.
        -11    1    3    3    0    0 -0.32691187113E+02 -0.42044664000E+02  0.32232583100E+02  0.62252766198E+02  0.51100000000E-03 0. -1.
         23    2    1    0    0    0 -0.17171870782E+02 -0.20574274223E+02  0.11754965273E+02  0.95736488342E+02  0.91154385992E+02 0.  0.
         11    1    3    3    0    0  0.15519316331E+02  0.21470389777E+02 -0.20477617826E+02  0.33483722145E+02  0.51100000000E-03 0.  1.
         22    1    1    0    0    0  0.17171870782E+02  0.20574274223E+02 -0.11754965273E+02  0.29263511658E+02  0.00000000000E+00 0. -1.
</event>
<event>
 5    1  0.1099741E-009  0.9118800E+02  0.7818608E-02  0.1130116E+00
         25   -1    0    0    0    0  0.00000000000E+00  0.00000000000E+00  0.99999998245E-14  0.12500000000E+03  0.12500000000E+03 0.  0.
        -11    1    3    3    0    0  0.32189492233E+02  0.96804952376E+01  0.17850729610E+01  0.33660984596E+02  0.51100000000E-03 0.  1.
         23    2    1    0    0    0 -0.93033781415E+00 -0.33268804536E+02  0.13391333980E+02  0.89125124258E+02  0.81586034740E+02 0.  0.
         11    1    3    3    0    0 -0.33119830047E+02 -0.42949299774E+02  0.11606261019E+02  0.55464139662E+02  0.51100000000E-03 0. -1.
         22    1    1    0    0    0  0.93033781415E+00  0.33268804536E+02 -0.13391333980E+02  0.35874875742E+02  0.00000000000E+00 0. -1.
</event>
<event>
 5    1  0.1099741E-009  0.9118800E+02  0.7818608E-02  0.1130116E+00
         25   -1    0    0    0    0  0.00000000000E+00  0.00000000000E+00  0.99999998245E-14  0.12500000000E+03  0.12500000000E+03 0.  0.
        -11    1    3    3    0    0 -0.37703485773E+02  0.14714974948E+02  0.31437285386E+02  0.51248280360E+02  0.51100000000E-03 0.  1.
         23    2    1    0    0    0 -0.78669643862E+01  0.29108676112E+02  0.33841374151E+01  0.94657677418E+02  0.89662809205E+02 0.  0.
         11    1    3    3    0    0  0.29836521386E+02  0.14393701164E+02 -0.28053147971E+02  0.43409397058E+02  0.51100000000E-03 0. -1.
         22    1    1    0    0    0  0.78669643862E+01 -0.29108676112E+02 -0.33841374151E+01  0.30342322582E+02  0.00000000000E+00 0.  1.
</event>
<event>
 5    1  0.1099741E-009  0.9118800E+02  0.7818608E-02  0.1130116E+00
         25   -1    0    0    0    0  0.00000000000E+00  0.00000000000E+00  0.99999998245E-14  0.12500000000E+03  0.12500000000E+03 0.  0.
        -11    1    3    3    0    0 -0.16813299664E+01  0.99443414034E+01  0.31666166467E+02  0.33233460479E+02  0.51100000000E-03 0. -1.
         23    2    1    0    0    0  0.59950655612E+01 -0.89471003890E+01 -0.27314107322E+02  0.95639280062E+02  0.91020986676E+02 0.  0.
         11    1    3    3    0    0  0.76763955276E+01 -0.18891441792E+02 -0.58980273790E+02  0.62405819583E+02  0.51100000000E-03 0.  1.
         22    1    1    0    0    0 -0.59950655612E+01  0.89471003890E+01  0.27314107322E+02  0.29360719938E+02  0.00000000000E+00 0.  1.
</event>
<event>
 5    1  0.1099741E-009  0.9118800E+02  0.7818608E-02  0.1130116E+00
         25   -1    0    0    0    0  0.00000000000E+00  0.00000000000E+00  0.99999998245E-14  0.12500000000E+03  0.12500000000E+03 0.  0.
        -11    1    3    3    0    0  0.41434975818E+02  0.25174618450E+01  0.28460256651E+02  0.50330716705E+02  0.51100000000E-03 0.  1.
         23    2    1    0    0    0  0.25621470341E+02  0.53790666098E+01 -0.13701486465E+02  0.95451314220E+02  0.90762484292E+02 0.  0.
         11    1    3    3    0    0 -0.15813505477E+02  0.28616047648E+01 -0.42161743115E+02  0.45120597515E+02  0.51100000000E-03 0. -1.
         22    1    1    0    0    0 -0.25621470341E+02 -0.53790666098E+01  0.13701486465E+02  0.29548685780E+02  0.00000000000E+00 0. -1.
</event>
<event>
 5    1  0.1099741E-009  0.9118800E+02  0.7818608E-02  0.1130116E+00
         25   -1    0    0    0    0  0.00000000000E+00  0.00000000000E+00  0.99999998245E-14  0.12500000000E+03  0.12500000000E+03 0.  0.
        -11    1    3    3    0    0 -0.30999394702E+01 -0.14492435151E+02  0.35106910292E+02  0.38106895070E+02  0.51100000000E-03 0. -1.
         23    2    1    0    0    0  0.28420920851E+02  0.53583868326E+01 -0.79151084677E+01  0.95014837110E+02  0.90159354909E+02 0.  0.
         11    1    3    3    0    0  0.31520860321E+02  0.19850821984E+02 -0.43022018760E+02  0.56907942040E+02  0.51100000000E-03 0.  1.
         22    1    1    0    0    0 -0.28420920851E+02 -0.53583868326E+01  0.79151084677E+01  0.29985162890E+02  0.00000000000E+00 0.  1.
</event>
<event>
 5    1  0.1099741E-009  0.9118800E+02  0.7818608E-02  0.1130116E+00
         25   -1    0    0    0    0  0.00000000000E+00  0.00000000000E+00  0.99999998245E-14  0.12500000000E+03  0.12500000000E+03 0.  0.
        -11    1    3    3    0    0  0.43226910184E+02  0.84621509565E+01 -0.43734950745E+02  0.62071891221E+02  0.51100000000E-03 0.  1.
         23    2    1    0    0    0  0.23622807323E+02  0.53668662836E+01 -0.16840053447E+02  0.95496988635E+02  0.90825366273E+02 0.  0.
         11    1    3    3    0    0 -0.19604102861E+02 -0.30952846729E+01  0.26894897297E+02  0.33425097413E+02  0.51100000000E-03 0. -1.
         22    1    1    0    0    0 -0.23622807323E+02 -0.53668662836E+01  0.16840053447E+02  0.29503011365E+02  0.00000000000E+00 0.  1.
</event>
<event>
 5    1  0.1099741E-009  0.9118800E+02  0.7818608E-02  0.1130116E+00
         25   -1    0    0    0    0  0.00000000000E+00  0.00000000000E+00  0.99999998245E-14  0.12500000000E+03  0.12500000000E+03 0.  0.
        -11    1    3    3    0    0 -0.45928934662E+01 -0.10080953930E+02 -0.60950363344E+02  0.61948907130E+02  0.51100000000E-03 0.  1.
         23    2    1    0    0    0  0.51314741990E+00  0.77248123576E+00 -0.27493560689E+02  0.97490802867E+02  0.93529143676E+02 0.  0.
         11    1    3    3    0    0  0.51060408861E+01  0.10853435165E+02  0.33456802656E+02  0.35541895738E+02  0.51100000000E-03 0. -1.
         22    1    1    0    0    0 -0.51314741990E+00 -0.77248123576E+00  0.27493560689E+02  0.27509197133E+02  0.00000000000E+00 0.  1.
</event>
<event>
 5    1  0.1099741E-009  0.9118800E+02  0.7818608E-02  0.1130116E+00
         25   -1    0    0    0    0  0.00000000000E+00  0.00000000000E+00  0.99999998245E-14  0.12500000000E+03  0.12500000000E+03 0.  0.
        -11    1    3    3    0    0  0.16421281319E+02  0.58328180308E+02 -0.26799513233E+01  0.60654902832E+02  0.51100000000E-03 0.  1.
         23    2    1    0    0    0  0.16331046138E+02  0.24274518770E+02 -0.68184976851E+01  0.94959240353E+02  0.90082240693E+02 0.  0.
         11    1    3    3    0    0 -0.90235181317E-01 -0.34053661538E+02 -0.41385463618E+01  0.34304337521E+02  0.51100000000E-03 0. -1.
         22    1    1    0    0    0 -0.16331046138E+02 -0.24274518770E+02  0.68184976851E+01  0.30040759647E+02  0.00000000000E+00 0.  1.
</event>
<event>
 5    1  0.1099741E-009  0.9118800E+02  0.7818608E-02  0.1130116E+00
         25   -1    0    0    0    0  0.00000000000E+00  0.00000000000E+00  0.99999998245E-14  0.12500000000E+03  0.12500000000E+03 0.  0.
        -11    1    3    3    0    0 -0.31317079354E+02 -0.10461730594E+02  0.30897805838E+02  0.45220367890E+02  0.51100000000E-03 0.  1.
         23    2    1    0    0    0  0.16877170098E+02 -0.22296477111E+01  0.25402720554E+02  0.94420457640E+02  0.89331486107E+02 0.  0.
         11    1    3    3    0    0  0.48194249452E+02  0.82320828825E+01 -0.54950852842E+01  0.49200089750E+02  0.51100000000E-03 0. -1.
         22    1    1    0    0    0 -0.16877170098E+02  0.22296477111E+01 -0.25402720554E+02  0.30579542360E+02  0.00000000000E+00 0.  1.
</event>
<event>
 5    1  0.1099741E-009  0.9118800E+02  0.7818608E-02  0.1130116E+00
         25   -1    0    0    0    0  0.00000000000E+00  0.00000000000E+00  0.99999998245E-14  0.12500000000E+03  0.12500000000E+03 0.  0.
        -11    1    3    3    0    0  0.13162972044E+02  0.94855766728E+01 -0.35480407947E+02  0.39014091636E+02  0.51100000000E-03 0.  1.
         23    2    1    0    0    0  0.62580868083E+01 -0.27754796972E+02  0.67682267696E+01  0.95754465314E+02  0.91179034479E+02 0.  0.
         11    1    3    3    0    0 -0.69048852357E+01 -0.37240373645E+02  0.42248634717E+02  0.56740373677E+02  0.51100000000E-03 0. -1.
         22    1    1    0    0    0 -0.62580868083E+01  0.27754796972E+02 -0.67682267696E+01  0.29245534686E+02  0.00000000000E+00 0. -1.
</event>
<event>
 5    1  0.1099741E-009  0.9118800E+02  0.7818608E-02  0.1130116E+00
         25   -1    0    0    0    0  0.00000000000E+00  0.00000000000E+00  0.99999998245E-14  0.12500000000E+03  0.12500000000E+03 0.  0.
        -11    1    3    3    0    0  0.34970962688E+02  0.28484257058E+01 -0.66947228480E+01  0.35719757482E+02  0.51100000000E-03 0.  1.
         23    2    1    0    0    0 -0.17407061442E+02 -0.12319477197E+02  0.19398839410E+02  0.96171363596E+02  0.91748792357E+02 0.  0.
         11    1    3    3    0    0 -0.52378024130E+02 -0.15167902903E+02  0.26093562258E+02  0.60451606114E+02  0.51100000000E-03 0. -1.
         22    1    1    0    0    0  0.17407061442E+02  0.12319477197E+02 -0.19398839410E+02  0.28828636404E+02  0.00000000000E+00 0. -1.
</event>
<event>
 5    1  0.1099741E-009  0.9118800E+02  0.7818608E-02  0.1130116E+00
         25   -1    0    0    0    0  0.00000000000E+00  0.00000000000E+00  0.99999998245E-14  0.12500000000E+03  0.12500000000E+03 0.  0.
        -11    1    3    3    0    0  0.22260415744E+02  0.26837838819E+02  0.91938889755E+01  0.36059995789E+02  0.51100000000E-03 0. -1.
         23    2    1    0    0    0  0.30843176900E+02 -0.54689097723E+01  0.34807974960E+02  0.78172597165E+02  0.62595121945E+02 0.  0.
         11    1    3    3    0    0  0.85827611566E+01 -0.32306748591E+02  0.25614085985E+02  0.42112601376E+02  0.51100000000E-03 0.  1.
         22    1    1    0    0    0 -0.30843176900E+02  0.54689097723E+01 -0.34807974960E+02  0.46827402835E+02  0.00000000000E+00 0.  1.
</event>
<event>
 5    1  0.1099741E-009  0.9118800E+02  0.7818608E-02  0.1130116E+00
         25   -1    0    0    0    0  0.00000000000E+00  0.00000000000E+00  0.99999998245E-14  0.12500000000E+03  0.12500000000E+03 0.  0.
        -11    1    3    3    0    0 -0.10125975150E+02 -0.14972875054E+02  0.34728938284E+02  0.39151264535E+02  0.51100000000E-03 0.  1.
         23    2    1    0    0    0  0.27634434723E+02 -0.35472513181E+01 -0.66846770386E+01  0.96348126039E+02  0.91989301061E+02 0.  0.
         11    1    3    3    0    0  0.37760409872E+02  0.11425623735E+02 -0.41413615323E+02  0.57196861504E+02  0.51100000000E-03 0. -1.
         22    1    1    0    0    0 -0.27634434723E+02  0.35472513181E+01  0.66846770386E+01  0.28651873961E+02  0.00000000000E+00 0. -1.
</event>
<event>
 5    1  0.1099741E-009  0.9118800E+02  0.7818608E-02  0.1130116E+00
         25   -1    0    0    0    0  0.00000000000E+00  0.00000000000E+00  0.99999998245E-14  0.12500000000E+03  0.12500000000E+03 0.  0.
        -11    1    3    3    0    0 -0.44478904454E+01  0.76479883251E+00 -0.62134145500E+02  0.62297838518E+02  0.51100000000E-03 0.  1.
         23    2    1    0    0    0  0.11764377156E+01  0.16884152927E+01 -0.29685465211E+02  0.95243293248E+02  0.90475539855E+02 0.  0.
         11    1    3    3    0    0  0.56243281610E+01  0.92361646016E+00  0.32448680289E+02  0.32945454730E+02  0.51100000000E-03 0. -1.
         22    1    1    0    0    0 -0.11764377156E+01 -0.16884152927E+01  0.29685465211E+02  0.29756706752E+02  0.00000000000E+00 0.  1.
</event>
<event>
 5    1  0.1099741E-009  0.9118800E+02  0.7818608E-02  0.1130116E+00
         25   -1    0    0    0    0  0.00000000000E+00  0.00000000000E+00  0.99999998245E-14  0.12500000000E+03  0.12500000000E+03 0.  0.
        -11    1    3    3    0    0  0.64312093793E+01  0.25174613690E+02  0.39178867997E+02  0.47011757320E+02  0.51100000000E-03 0.  1.
         23    2    1    0    0    0 -0.22644276203E+02 -0.68619202220E+01  0.18510025838E+02  0.94958857372E+02  0.90081709258E+02 0.  0.
         11    1    3    3    0    0 -0.29075485582E+02 -0.32036533911E+02 -0.20668842159E+02  0.47947100052E+02  0.51100000000E-03 0. -1.
         22    1    1    0    0    0  0.22644276203E+02  0.68619202220E+01 -0.18510025838E+02  0.30041142628E+02  0.00000000000E+00 0. -1.
</event>
<event>
 5    1  0.1099741E-009  0.9118800E+02  0.7818608E-02  0.1130116E+00
         25   -1    0    0    0    0  0.00000000000E+00  0.00000000000E+00  0.99999998245E-14  0.12500000000E+03  0.12500000000E+03 0.  0.
        -11    1    3    3    0    0 -0.59850364895E+02  0.14392081593E+02 -0.30886400001E+01  0.61633902099E+02  0.51100000000E-03 0.  1.
         23    2    1    0    0    0 -0.28400256923E+02  0.12624692199E+01 -0.63525850868E+01  0.95870568850E+02  0.91338065517E+02 0.  0.
         11    1    3    3    0    0  0.31450107971E+02 -0.13129612373E+02 -0.32639450867E+01  0.34236666751E+02  0.51100000000E-03 0. -1.
         22    1    1    0    0    0  0.28400256923E+02 -0.12624692199E+01  0.63525850868E+01  0.29129431150E+02  0.00000000000E+00 0.  1.
</event>
<event>
 5    1  0.1099741E-009  0.9118800E+02  0.7818608E-02  0.1130116E+00
         25   -1    0    0    0    0  0.00000000000E+00  0.00000000000E+00  0.99999998245E-14  0.12500000000E+03  0.12500000000E+03 0.  0.
        -11    1    3    3    0    0  0.46967595900E+02 -0.31748358967E+02 -0.22657837006E+02  0.61051543304E+02  0.51100000000E-03 0. -1.
         23    2    1    0    0    0  0.25607514649E+02 -0.87663193853E+01 -0.37736739345E+01  0.97671740322E+02  0.93770651489E+02 0.  0.
         11    1    3    3    0    0 -0.21360081252E+02  0.22982039582E+02  0.18884163072E+02  0.36620197018E+02  0.51100000000E-03 0.  1.
         22    1    1    0    0    0 -0.25607514649E+02  0.87663193853E+01  0.37736739345E+01  0.27328259678E+02  0.00000000000E+00 0. -1.
</event>
<event>
 5    1  0.1099741E-009  0.9118800E+02  0.7818608E-02  0.1130116E+00
         25   -1    0    0    0    0  0.00000000000E+00  0.00000000000E+00  0.99999998245E-14  0.12500000000E+03  0.12500000000E+03 0.  0.
        -11    1    3    3    0    0  0.37636688169E+02 -0.24693997087E+02  0.24504057175E+02  0.51251952224E+02  0.51100000000E-03 0. -1.
         23    2    1    0    0    0  0.20033494881E+02  0.15377674055E+02  0.13417886364E+02  0.96401862806E+02  0.92062292506E+02 0.  0.
         11    1    3    3    0    0 -0.17603193288E+02  0.40071671142E+02 -0.11086170811E+02  0.45149910582E+02  0.51100000000E-03 0.  1.
         22    1    1    0    0    0 -0.20033494881E+02 -0.15377674055E+02 -0.13417886364E+02  0.28598137194E+02  0.00000000000E+00 0.  1.
</event>
<event>
 5    1  0.1099741E-009  0.9118800E+02  0.7818608E-02  0.1130116E+00
         25   -1    0    0    0    0  0.00000000000E+00  0.00000000000E+00  0.99999998245E-14  0.12500000000E+03  0.12500000000E+03 0.  0.
        -11    1    3    3    0    0 -0.24094703811E+02 -0.30484842063E+02  0.63674045630E+01  0.39375426200E+02  0.51100000000E-03 0. -1.
         23    2    1    0    0    0 -0.14085439594E+02  0.22667797783E+02 -0.10930020365E+02  0.96160894431E+02  0.91734527892E+02 0.  0.
         11    1    3    3    0    0  0.10009264217E+02  0.53152639845E+02 -0.17297424929E+02  0.56785468230E+02  0.51100000000E-03 0.  1.
         22    1    1    0    0    0  0.14085439594E+02 -0.22667797783E+02  0.10930020365E+02  0.28839105569E+02  0.00000000000E+00 0.  1.
</event>
<event>
 5    1  0.1099741E-009  0.9118800E+02  0.7818608E-02  0.1130116E+00
         25   -1    0    0    0    0  0.00000000000E+00  0.00000000000E+00  0.99999998245E-14  0.12500000000E+03  0.12500000000E+03 0.  0.
        -11    1    3    3    0    0 -0.46093617028E+02  0.16867362629E+02 -0.86667076445E+01  0.49842163621E+02  0.51100000000E-03 0.  1.
         23    2    1    0    0    0 -0.15745822299E+02 -0.82926457647E+01  0.19732927861E+02  0.98427696080E+02  0.94773013142E+02 0.  0.
         11    1    3    3    0    0  0.30347794728E+02 -0.25160008394E+02  0.28399635505E+02  0.48585532459E+02  0.51100000000E-03 0. -1.
         22    1    1    0    0    0  0.15745822299E+02  0.82926457647E+01 -0.19732927861E+02  0.26572303920E+02  0.00000000000E+00 0.  1.
</event>
<event>
 5    1  0.1099741E-009  0.9118800E+02  0.7818608E-02  0.1130116E+00
         25   -1    0    0    0    0  0.00000000000E+00  0.00000000000E+00  0.99999998245E-14  0.12500000000E+03  0.12500000000E+03 0.  0.
        -11    1    3    3    0    0 -0.82424163041E+01 -0.41328274007E+02  0.12701024437E+02  0.44014539427E+02  0.51100000000E-03 0. -1.
         23    2    1    0    0    0  0.28371351363E+02 -0.69734229009E+01  0.81052490390E-01  0.95784100653E+02  0.91219653383E+02 0.  0.
         11    1    3    3    0    0  0.36613767667E+02  0.34354851106E+02 -0.12619971947E+02  0.51769561226E+02  0.51100000000E-03 0.  1.
         22    1    1    0    0    0 -0.28371351363E+02  0.69734229009E+01 -0.81052490390E-01  0.29215899347E+02  0.00000000000E+00 0.  1.
</event>
<event>
 5    1  0.1099741E-009  0.9118800E+02  0.7818608E-02  0.1130116E+00
         25   -1    0    0    0    0  0.00000000000E+00  0.00000000000E+00  0.99999998245E-14  0.12500000000E+03  0.12500000000E+03 0.  0.
        -11    1    3    3    0    0 -0.10851959670E+02  0.23384088738E+02  0.31684570413E+02  0.40847186406E+02  0.51100000000E-03 0.  1.
         23    2    1    0    0    0  0.28928164094E+02  0.26045227890E+01 -0.29108317564E+00  0.95953366008E+02  0.91451306727E+02 0.  0.
         11    1    3    3    0    0  0.39780123764E+02 -0.20779565949E+02 -0.31975653588E+02  0.55106179602E+02  0.51100000000E-03 0. -1.
         22    1    1    0    0    0 -0.28928164094E+02 -0.26045227890E+01  0.29108317564E+00  0.29046633992E+02  0.00000000000E+00 0. -1.
</event>
<event>
 5    1  0.1099741E-009  0.9118800E+02  0.7818608E-02  0.1130116E+00
         25   -1    0    0    0    0  0.00000000000E+00  0.00000000000E+00  0.99999998245E-14  0.12500000000E+03  0.12500000000E+03 0.  0.
        -11    1    3    3    0    0  0.36757169325E+02  0.37686686142E+02  0.28294172615E+02  0.59765675880E+02  0.51100000000E-03 0.  1.
         23    2    1    0    0    0  0.15298342082E+02  0.24147544726E+02  0.19405629856E+01  0.96348490939E+02  0.91989796906E+02 0.  0.
         11    1    3    3    0    0 -0.21458827243E+02 -0.13539141416E+02 -0.26353609630E+02  0.36582815060E+02  0.51100000000E-03 0. -1.
         22    1    1    0    0    0 -0.15298342082E+02 -0.24147544726E+02 -0.19405629856E+01  0.28651509061E+02  0.00000000000E+00 0.  1.
</event>
<event>
 5    1  0.1099741E-009  0.9118800E+02  0.7818608E-02  0.1130116E+00
         25   -1    0    0    0    0  0.00000000000E+00  0.00000000000E+00  0.99999998245E-14  0.12500000000E+03  0.12500000000E+03 0.  0.
        -11    1    3    3    0    0  0.14144032341E+02 -0.77162035401E+01 -0.26224986582E+02  0.30778943605E+02  0.51100000000E-03 0.  1.
         23    2    1    0    0    0  0.17047797337E+01 -0.20158595404E+02  0.29507942124E+02  0.89222997736E+02  0.81735851583E+02 0.  0.
         11    1    3    3    0    0 -0.12439252608E+02 -0.12442391864E+02  0.55732928707E+02  0.58444054131E+02  0.51100000000E-03 0. -1.
         22    1    1    0    0    0 -0.17047797337E+01  0.20158595404E+02 -0.29507942124E+02  0.35777002264E+02  0.00000000000E+00 0. -1.
</event>
<event>
 5    1  0.1099741E-009  0.9118800E+02  0.7818608E-02  0.1130116E+00
         25   -1    0    0    0    0  0.00000000000E+00  0.00000000000E+00  0.99999998245E-14  0.12500000000E+03  0.12500000000E+03 0.  0.
        -11    1    3    3    0    0 -0.75468040708E+01  0.35627274425E+02 -0.23553575134E+02  0.43370817798E+02  0.51100000000E-03 0.  1.
         23    2    1    0    0    0 -0.22567872715E+02  0.13375345000E+02  0.18242679154E+02  0.93046845610E+02  0.87388279549E+02 0.  0.
         11    1    3    3    0    0 -0.15021068645E+02 -0.22251929425E+02  0.41796254288E+02  0.49676027811E+02  0.51100000000E-03 0. -1.
         22    1    1    0    0    0  0.22567872715E+02 -0.13375345000E+02 -0.18242679154E+02  0.31953154390E+02  0.00000000000E+00 0. -1.
</event>
<event>
 5    1  0.1099741E-009  0.9118800E+02  0.7818608E-02  0.1130116E+00
         25   -1    0    0    0    0  0.00000000000E+00  0.00000000000E+00  0.99999998245E-14  0.12500000000E+03  0.12500000000E+03 0.  0.
        -11    1    3    3    0    0  0.92983005238E+01 -0.27606502184E+02 -0.35337667787E+02  0.45796595073E+02  0.51100000000E-03 0. -1.
         23    2    1    0    0    0  0.63654285918E+01  0.20047011730E+02 -0.20084307690E+02  0.95917689641E+02  0.91402529561E+02 0.  0.
         11    1    3    3    0    0 -0.29328719321E+01  0.47653513914E+02  0.15253360097E+02  0.50121094567E+02  0.51100000000E-03 0.  1.
         22    1    1    0    0    0 -0.63654285918E+01 -0.20047011730E+02  0.20084307690E+02  0.29082310359E+02  0.00000000000E+00 0.  1.
</event>
<event>
 5    1  0.1099741E-009  0.9118800E+02  0.7818608E-02  0.1130116E+00
         25   -1    0    0    0    0  0.00000000000E+00  0.00000000000E+00  0.99999998245E-14  0.12500000000E+03  0.12500000000E+03 0.  0.
        -11    1    3    3    0    0  0.12468888803E+02 -0.98593179312E+01 -0.30298250362E+02  0.34214957450E+02  0.51100000000E-03 0. -1.
         23    2    1    0    0    0 -0.22826372595E+01  0.53404714537E+01  0.28084525098E+02  0.96321234019E+02  0.91952751480E+02 0.  0.
         11    1    3    3    0    0 -0.14751526063E+02  0.15199789385E+02  0.58382775460E+02  0.62106276569E+02  0.51100000000E-03 0.  1.
         22    1    1    0    0    0  0.22826372595E+01 -0.53404714537E+01 -0.28084525098E+02  0.28678765981E+02  0.00000000000E+00 0.  1.
</event>
<event>
 5    1  0.1099741E-009  0.9118800E+02  0.7818608E-02  0.1130116E+00
         25   -1    0    0    0    0  0.00000000000E+00  0.00000000000E+00  0.99999998245E-14  0.12500000000E+03  0.12500000000E+03 0.  0.
        -11    1    3    3    0    0  0.90069107866E+01 -0.23784745126E+02  0.21651246475E+02  0.33400823594E+02  0.51100000000E-03 0.  1.
         23    2    1    0    0    0  0.94965365705E+00  0.18840404958E+02 -0.22730136822E+02  0.95461519657E+02  0.90776538346E+02 0.  0.
         11    1    3    3    0    0 -0.80572571296E+01  0.42625150084E+02 -0.44381383297E+02  0.62060696062E+02  0.51100000000E-03 0. -1.
         22    1    1    0    0    0 -0.94965365705E+00 -0.18840404958E+02  0.22730136822E+02  0.29538480343E+02  0.00000000000E+00 0. -1.
</event>
<event>
 5    1  0.1099741E-009  0.9118800E+02  0.7818608E-02  0.1130116E+00
         25   -1    0    0    0    0  0.00000000000E+00  0.00000000000E+00  0.99999998245E-14  0.12500000000E+03  0.12500000000E+03 0.  0.
        -11    1    3    3    0    0  0.48478793058E+02 -0.10060701943E+02  0.82292707370E+01  0.50190955331E+02  0.51100000000E-03 0. -1.
         23    2    1    0    0    0  0.21009225327E+02  0.11072956726E+02 -0.19256529306E+02  0.94425307190E+02  0.89338271740E+02 0.  0.
         11    1    3    3    0    0 -0.27469567731E+02  0.21133658670E+02 -0.27485800043E+02  0.44234351859E+02  0.51100000000E-03 0.  1.
         22    1    1    0    0    0 -0.21009225327E+02 -0.11072956726E+02  0.19256529306E+02  0.30574692810E+02  0.00000000000E+00 0. -1.
</event>
<event>
 5    1  0.1099741E-009  0.9118800E+02  0.7818608E-02  0.1130116E+00
         25   -1    0    0    0    0  0.00000000000E+00  0.00000000000E+00  0.99999998245E-14  0.12500000000E+03  0.12500000000E+03 0.  0.
        -11    1    3    3    0    0  0.30206749052E+02 -0.63114135341E+01  0.40355436049E+02  0.50801996497E+02  0.51100000000E-03 0.  1.
         23    2    1    0    0    0  0.29234558570E+02 -0.75312607230E+01 -0.34313510650E+01  0.94616559231E+02  0.89605467510E+02 0.  0.
         11    1    3    3    0    0 -0.97219048249E+00 -0.12198471889E+01 -0.43786787114E+02  0.43814562734E+02  0.51100000000E-03 0. -1.
         22    1    1    0    0    0 -0.29234558570E+02  0.75312607230E+01  0.34313510650E+01  0.30383440769E+02  0.00000000000E+00 0.  1.
</event>
<event>
 5    1  0.1099741E-009  0.9118800E+02  0.7818608E-02  0.1130116E+00
         25   -1    0    0    0    0  0.00000000000E+00  0.00000000000E+00  0.99999998245E-14  0.12500000000E+03  0.12500000000E+03 0.  0.
        -11    1    3    3    0    0  0.24039350934E+02 -0.45874318231E+02  0.31034799636E+02  0.60377994792E+02  0.51100000000E-03 0. -1.
         23    2    1    0    0    0  0.29336184422E+01 -0.19661704701E+02  0.22257732980E+02  0.95157154520E+02  0.90356453173E+02 0.  0.
         11    1    3    3    0    0 -0.21105732491E+02  0.26212613529E+02 -0.87770666555E+01  0.34779159728E+02  0.51100000000E-03 0.  1.
         22    1    1    0    0    0 -0.29336184422E+01  0.19661704701E+02 -0.22257732980E+02  0.29842845480E+02  0.00000000000E+00 0. -1.
</event>
<event>
 5    1  0.1099741E-009  0.9118800E+02  0.7818608E-02  0.1130116E+00
         25   -1    0    0    0    0  0.00000000000E+00  0.00000000000E+00  0.99999998245E-14  0.12500000000E+03  0.12500000000E+03 0.  0.
        -11    1    3    3    0    0 -0.50684578111E+02  0.10272935162E+02 -0.13651012583E+02  0.53486538493E+02  0.51100000000E-03 0.  1.
         23    2    1    0    0    0 -0.19835396808E+02 -0.17261346863E+02 -0.14750137071E+02  0.94850976704E+02  0.89931886315E+02 0.  0.
         11    1    3    3    0    0  0.30849181303E+02 -0.27534282025E+02 -0.10991244876E+01  0.41364438212E+02  0.51100000000E-03 0. -1.
         22    1    1    0    0    0  0.19835396808E+02  0.17261346863E+02  0.14750137071E+02  0.30149023296E+02  0.00000000000E+00 0.  1.
</event>
<event>
 5    1  0.1099741E-009  0.9118800E+02  0.7818608E-02  0.1130116E+00
         25   -1    0    0    0    0  0.00000000000E+00  0.00000000000E+00  0.99999998245E-14  0.12500000000E+03  0.12500000000E+03 0.  0.
        -11    1    3    3    0    0  0.30632201223E+02 -0.24134747812E+02  0.40864644542E+02  0.56486608833E+02  0.51100000000E-03 0. -1.
         23    2    1    0    0    0  0.19031464856E+01 -0.25903297414E+02  0.16227433022E+02  0.94374318523E+02  0.89266901092E+02 0.  0.
         11    1    3    3    0    0 -0.28729054737E+02 -0.17685496021E+01 -0.24637211520E+02  0.37887709689E+02  0.51100000000E-03 0.  1.
         22    1    1    0    0    0 -0.19031464856E+01  0.25903297414E+02 -0.16227433022E+02  0.30625681477E+02  0.00000000000E+00 0. -1.
</event>
<event>
 5    1  0.1099741E-009  0.9118800E+02  0.7818608E-02  0.1130116E+00
         25   -1    0    0    0    0  0.00000000000E+00  0.00000000000E+00  0.99999998245E-14  0.12500000000E+03  0.12500000000E+03 0.  0.
        -11    1    3    3    0    0 -0.18466602998E+02  0.45117107641E+02  0.19874491989E+01  0.48790560386E+02  0.51100000000E-03 0.  1.
         23    2    1    0    0    0 -0.16302417450E+02  0.41365932012E+01 -0.22750348719E+02  0.96707623202E+02  0.92476514860E+02 0.  0.
         11    1    3    3    0    0  0.21641855478E+01 -0.40980514440E+02 -0.24737797918E+02  0.47917062816E+02  0.51100000000E-03 0. -1.
         22    1    1    0    0    0  0.16302417450E+02 -0.41365932012E+01  0.22750348719E+02  0.28292376798E+02  0.00000000000E+00 0.  1.
</event>
<event>
 5    1  0.1099741E-009  0.9118800E+02  0.7818608E-02  0.1130116E+00
         25   -1    0    0    0    0  0.00000000000E+00  0.00000000000E+00  0.99999998245E-14  0.12500000000E+03  0.12500000000E+03 0.  0.
        -11    1    3    3    0    0 -0.28949980596E+01 -0.48800624753E+02  0.26094137051E+02  0.55414672955E+02  0.51100000000E-03 0. -1.
         23    2    1    0    0    0 -0.27972497582E+01 -0.82087466516E+01  0.27635304967E+02  0.96035915198E+02  0.91564069369E+02 0.  0.
         11    1    3    3    0    0  0.97748301379E-01  0.40591878101E+02  0.15411679164E+01  0.40621242243E+02  0.51100000000E-03 0.  1.
         22    1    1    0    0    0  0.27972497582E+01  0.82087466516E+01 -0.27635304967E+02  0.28964084802E+02  0.00000000000E+00 0. -1.
</event>
<event>
 5    1  0.1099741E-009  0.9118800E+02  0.7818608E-02  0.1130116E+00
         25   -1    0    0    0    0  0.00000000000E+00  0.00000000000E+00  0.99999998245E-14  0.12500000000E+03  0.12500000000E+03 0.  0.
        -11    1    3    3    0    0  0.12638227896E+02 -0.43713661356E+02  0.89250154757E+00  0.45512696610E+02  0.51100000000E-03 0.  1.
         23    2    1    0    0    0  0.19768509060E+02  0.54758820499E+00 -0.21636835590E+02  0.95687094009E+02  0.91086626363E+02 0.  0.
         11    1    3    3    0    0  0.71302811648E+01  0.44261249561E+02 -0.22529337138E+02  0.50174397398E+02  0.51100000000E-03 0. -1.
         22    1    1    0    0    0 -0.19768509060E+02 -0.54758820499E+00  0.21636835590E+02  0.29312905991E+02  0.00000000000E+00 0. -1.
</event>
<event>
 5    1  0.1099741E-009  0.9118800E+02  0.7818608E-02  0.1130116E+00
         25   -1    0    0    0    0  0.00000000000E+00  0.00000000000E+00  0.99999998245E-14  0.12500000000E+03  0.12500000000E+03 0.  0.
        -11    1    3    3    0    0  0.23071442116E+02  0.30540900242E+02 -0.12620951095E+02  0.40302933339E+02  0.51100000000E-03 0.  1.
         23    2    1    0    0    0 -0.22689725997E+02 -0.30395878074E+00 -0.18393231010E+02  0.95789950296E+02  0.91227668906E+02 0.  0.
         11    1    3    3    0    0 -0.45761168112E+02 -0.30844859022E+02 -0.57722799147E+01  0.55487016957E+02  0.51100000000E-03 0. -1.
         22    1    1    0    0    0  0.22689725997E+02  0.30395878074E+00  0.18393231010E+02  0.29210049704E+02  0.00000000000E+00 0. -1.
</event>
<event>
 5    1  0.1099741E-009  0.9118800E+02  0.7818608E-02  0.1130116E+00
         25   -1    0    0    0    0  0.00000000000E+00  0.00000000000E+00  0.99999998245E-14  0.12500000000E+03  0.12500000000E+03 0.  0.
        -11    1    3    3    0    0  0.14765756426E+02 -0.28065007482E+02 -0.20749296503E+02  0.37897302192E+02  0.51100000000E-03 0.  1.
         23    2    1    0    0    0  0.14693981169E+01  0.55454937475E+01  0.26781894147E+02  0.97610558862E+02  0.93689058675E+02 0.  0.
         11    1    3    3    0    0 -0.13296358309E+02  0.33610501230E+02  0.47531190650E+02  0.59713256670E+02  0.51100000000E-03 0. -1.
         22    1    1    0    0    0 -0.14693981169E+01 -0.55454937475E+01 -0.26781894147E+02  0.27389441138E+02  0.00000000000E+00 0. -1.
</event>
<event>
 5    1  0.1099741E-009  0.9118800E+02  0.7818608E-02  0.1130116E+00
         25   -1    0    0    0    0  0.00000000000E+00  0.00000000000E+00  0.99999998245E-14  0.12500000000E+03  0.12500000000E+03 0.  0.
        -11    1    3    3    0    0 -0.44302300628E+02  0.13068486485E+02 -0.37051748642E+02  0.59214113669E+02  0.51100000000E-03 0.  1.
         23    2    1    0    0    0 -0.27804178918E+02 -0.44027981101E+01 -0.10680882997E+02  0.94891226227E+02  0.89987813379E+02 0.  0.
         11    1    3    3    0    0  0.16498121710E+02 -0.17471284595E+02  0.26370865645E+02  0.35677112558E+02  0.51100000000E-03 0. -1.
         22    1    1    0    0    0  0.27804178918E+02  0.44027981101E+01  0.10680882997E+02  0.30108773773E+02  0.00000000000E+00 0.  1.
</event>
<event>
 5    1  0.1099741E-009  0.9118800E+02  0.7818608E-02  0.1130116E+00
         25   -1    0    0    0    0  0.00000000000E+00  0.00000000000E+00  0.99999998245E-14  0.12500000000E+03  0.12500000000E+03 0.  0.
        -11    1    3    3    0    0 -0.33509368040E+02  0.19555229971E+02 -0.15573684653E+01  0.38829243651E+02  0.51100000000E-03 0.  1.
         23    2    1    0    0    0  0.22924776463E+02  0.17112565785E+02 -0.69117972486E+01  0.95569433834E+02  0.90925015581E+02 0.  0.
         11    1    3    3    0    0  0.56434144504E+02 -0.24426641861E+01 -0.53544287834E+01  0.56740190183E+02  0.51100000000E-03 0. -1.
         22    1    1    0    0    0 -0.22924776463E+02 -0.17112565785E+02  0.69117972486E+01  0.29430566166E+02  0.00000000000E+00 0. -1.
</event>
<event>
 5    1  0.1099741E-009  0.9118800E+02  0.7818608E-02  0.1130116E+00
         25   -1    0    0    0    0  0.00000000000E+00  0.00000000000E+00  0.99999998245E-14  0.12500000000E+03  0.12500000000E+03 0.  0.
        -11    1    3    3    0    0  0.22791949935E+01 -0.22415229087E+01 -0.37543602260E+02  0.37679453627E+02  0.51100000000E-03 0.  1.
         23    2    1    0    0    0  0.20878562553E+02  0.12351088520E+02  0.15815826954E+02  0.96041337321E+02  0.91571471159E+02 0.  0.
         11    1    3    3    0    0  0.18599367560E+02  0.14592611429E+02  0.53359429214E+02  0.58361883693E+02  0.51100000000E-03 0. -1.
         22    1    1    0    0    0 -0.20878562553E+02 -0.12351088520E+02 -0.15815826954E+02  0.28958662679E+02  0.00000000000E+00 0. -1.
</event>
<event>
 5    1  0.1099741E-009  0.9118800E+02  0.7818608E-02  0.1130116E+00
         25   -1    0    0    0    0  0.00000000000E+00  0.00000000000E+00  0.99999998245E-14  0.12500000000E+03  0.12500000000E+03 0.  0.
        -11    1    3    3    0    0 -0.22054509430E+02 -0.51940144489E+02  0.15577865493E+02  0.58539302091E+02  0.51100000000E-03 0.  1.
         23    2    1    0    0    0 -0.25850601902E+02 -0.20787048682E+02  0.66449957779E+01  0.91169378065E+02  0.84660170778E+02 0.  0.
         11    1    3    3    0    0 -0.37960924721E+01  0.31153095807E+02 -0.89328697155E+01  0.32630075973E+02  0.51100000000E-03 0. -1.
         22    1    1    0    0    0  0.25850601902E+02  0.20787048682E+02 -0.66449957779E+01  0.33830621935E+02  0.00000000000E+00 0.  1.
</event>
<event>
 5    1  0.1099741E-009  0.9118800E+02  0.7818608E-02  0.1130116E+00
         25   -1    0    0    0    0  0.00000000000E+00  0.00000000000E+00  0.99999998245E-14  0.12500000000E+03  0.12500000000E+03 0.  0.
        -11    1    3    3    0    0 -0.43088712515E+02  0.42988043957E+02 -0.55573519830E+01  0.61118681520E+02  0.51100000000E-03 0.  1.
         23    2    1    0    0    0 -0.28824821171E+02  0.16605978931E+02 -0.64101432516E+01  0.91122001413E+02  0.84590190644E+02 0.  0.
         11    1    3    3    0    0  0.14263891344E+02 -0.26382065027E+02 -0.85279126869E+00  0.30003319892E+02  0.51100000000E-03 0. -1.
         22    1    1    0    0    0  0.28824821171E+02 -0.16605978931E+02  0.64101432516E+01  0.33877998587E+02  0.00000000000E+00 0.  1.
</event>
<event>
 5    1  0.1099741E-009  0.9118800E+02  0.7818608E-02  0.1130116E+00
         25   -1    0    0    0    0  0.00000000000E+00  0.00000000000E+00  0.99999998245E-14  0.12500000000E+03  0.12500000000E+03 0.  0.
        -11    1    3    3    0    0  0.21140621571E+01 -0.30112561242E+00 -0.27005107721E+02  0.27089403440E+02  0.51100000000E-03 0. -1.
         23    2    1    0    0    0  0.13587872861E+02  0.20397171558E+02  0.28489248149E+02  0.87419258169E+02  0.78929174215E+02 0.  0.
         11    1    3    3    0    0  0.11473810704E+02  0.20698297171E+02  0.55494355871E+02  0.60329854729E+02  0.51100000000E-03 0.  1.
         22    1    1    0    0    0 -0.13587872861E+02 -0.20397171558E+02 -0.28489248149E+02  0.37580741831E+02  0.00000000000E+00 0.  1.
</event>
<event>
 5    1  0.1099741E-009  0.9118800E+02  0.7818608E-02  0.1130116E+00
         25   -1    0    0    0    0  0.00000000000E+00  0.00000000000E+00  0.99999998245E-14  0.12500000000E+03  0.12500000000E+03 0.  0.
        -11    1    3    3    0    0 -0.13945093636E+02 -0.45029355331E+02  0.32448964814E+02  0.57227998356E+02  0.51100000000E-03 0. -1.
         23    2    1    0    0    0 -0.89586820830E+01 -0.69402511567E+01  0.26602272108E+02  0.96084503254E+02  0.91630376041E+02 0.  0.
         11    1    3    3    0    0  0.49864115531E+01  0.38089104174E+02 -0.58466927065E+01  0.38856504898E+02  0.51100000000E-03 0.  1.
         22    1    1    0    0    0  0.89586820830E+01  0.69402511567E+01 -0.26602272108E+02  0.28915496746E+02  0.00000000000E+00 0. -1.
</event>
<event>
 5    1  0.1099741E-009  0.9118800E+02  0.7818608E-02  0.1130116E+00
         25   -1    0    0    0    0  0.00000000000E+00  0.00000000000E+00  0.99999998245E-14  0.12500000000E+03  0.12500000000E+03 0.  0.
        -11    1    3    3    0    0 -0.18354452909E+02  0.27429430608E+02  0.11815721004E+02  0.35055254502E+02  0.51100000000E-03 0.  1.
         23    2    1    0    0    0 -0.21721168277E+01 -0.29496240325E+02  0.80092300905E+01  0.94358621907E+02  0.89244918493E+02 0.  0.
         11    1    3    3    0    0  0.16182336081E+02 -0.56925670933E+02 -0.38064909137E+01  0.59303367405E+02  0.51100000000E-03 0. -1.
         22    1    1    0    0    0  0.21721168277E+01  0.29496240325E+02 -0.80092300905E+01  0.30641378093E+02  0.00000000000E+00 0. -1.
</event>
<event>
 5    1  0.1099741E-009  0.9118800E+02  0.7818608E-02  0.1130116E+00
         25   -1    0    0    0    0  0.00000000000E+00  0.00000000000E+00  0.99999998245E-14  0.12500000000E+03  0.12500000000E+03 0.  0.
        -11    1    3    3    0    0 -0.43542276965E+01  0.20477261156E+02  0.24124877791E+02  0.31941935632E+02  0.51100000000E-03 0. -1.
         23    2    1    0    0    0 -0.12685199474E+02 -0.65811106191E+01 -0.29297597995E+02  0.92402844435E+02  0.86462194679E+02 0.  0.
         11    1    3    3    0    0 -0.83309717772E+01 -0.27058371775E+02 -0.53422475786E+02  0.60460908802E+02  0.51100000000E-03 0.  1.
         22    1    1    0    0    0  0.12685199474E+02  0.65811106191E+01  0.29297597995E+02  0.32597155565E+02  0.00000000000E+00 0.  1.
</event>
<event>
 5    1  0.1099741E-009  0.9118800E+02  0.7818608E-02  0.1130116E+00
         25   -1    0    0    0    0  0.00000000000E+00  0.00000000000E+00  0.99999998245E-14  0.12500000000E+03  0.12500000000E+03 0.  0.
        -11    1    3    3    0    0 -0.49335257184E+01  0.11428982725E+02 -0.32507663249E+02  0.34809617813E+02  0.51100000000E-03 0.  1.
         23    2    1    0    0    0 -0.32224549261E+01  0.11197002211E+02  0.27651709143E+02  0.94993765768E+02  0.90130136148E+02 0.  0.
         11    1    3    3    0    0  0.17110707923E+01 -0.23198051376E+00  0.60159372392E+02  0.60184147955E+02  0.51100000000E-03 0. -1.
         22    1    1    0    0    0  0.32224549261E+01 -0.11197002211E+02 -0.27651709143E+02  0.30006234232E+02  0.00000000000E+00 0. -1.
</event>
<event>
 5    1  0.1099741E-009  0.9118800E+02  0.7818608E-02  0.1130116E+00
         25   -1    0    0    0    0  0.00000000000E+00  0.00000000000E+00  0.99999998245E-14  0.12500000000E+03  0.12500000000E+03 0.  0.
        -11    1    3    3    0    0 -0.31386926689E+02 -0.26423623545E+02  0.86042021316E+00  0.41037633599E+02  0.51100000000E-03 0.  1.
         23    2    1    0    0    0  0.21989194038E+02 -0.62637816456E+01  0.12010723093E+02  0.99173326111E+02  0.95751404835E+02 0.  0.
         11    1    3    3    0    0  0.53376120727E+02  0.20159841899E+02  0.11150302880E+02  0.58135692512E+02  0.51100000000E-03 0. -1.
         22    1    1    0    0    0 -0.21989194038E+02  0.62637816456E+01 -0.12010723093E+02  0.25826673889E+02  0.00000000000E+00 0. -1.
</event>
<event>
 5    1  0.1099741E-009  0.9118800E+02  0.7818608E-02  0.1130116E+00
         25   -1    0    0    0    0  0.00000000000E+00  0.00000000000E+00  0.99999998245E-14  0.12500000000E+03  0.12500000000E+03 0.  0.
        -11    1    3    3    0    0 -0.75779354864E+01 -0.28711940224E+02 -0.11879094938E+02  0.31983019158E+02  0.51100000000E-03 0. -1.
         23    2    1    0    0    0 -0.16062845845E+01  0.29282513283E+02  0.96414833029E+01  0.94129238192E+02  0.88923054086E+02 0.  0.
         11    1    3    3    0    0  0.59716509018E+01  0.57994453507E+02  0.21520578241E+02  0.62146219034E+02  0.51100000000E-03 0.  1.
         22    1    1    0    0    0  0.16062845845E+01 -0.29282513283E+02 -0.96414833029E+01  0.30870761808E+02  0.00000000000E+00 0.  1.
</event>
<event>
 5    1  0.1099741E-009  0.9118800E+02  0.7818608E-02  0.1130116E+00
         25   -1    0    0    0    0  0.00000000000E+00  0.00000000000E+00  0.99999998245E-14  0.12500000000E+03  0.12500000000E+03 0.  0.
        -11    1    3    3    0    0 -0.31792473275E+02  0.74401477152E+01 -0.22142649882E+02  0.39451414411E+02  0.51100000000E-03 0. -1.
         23    2    1    0    0    0  0.22020651660E+02  0.17038278318E+02 -0.97371664637E+01  0.95503823327E+02  0.90834772152E+02 0.  0.
         11    1    3    3    0    0  0.53813124934E+02  0.95981306029E+01  0.12405483418E+02  0.56052408917E+02  0.51100000000E-03 0.  1.
         22    1    1    0    0    0 -0.22020651660E+02 -0.17038278318E+02  0.97371664637E+01  0.29496176673E+02  0.00000000000E+00 0.  1.
</event>
<event>
 5    1  0.1099741E-009  0.9118800E+02  0.7818608E-02  0.1130116E+00
         25   -1    0    0    0    0  0.00000000000E+00  0.00000000000E+00  0.99999998245E-14  0.12500000000E+03  0.12500000000E+03 0.  0.
        -11    1    3    3    0    0  0.18895604766E+02  0.28231876557E+02 -0.36600429837E+02  0.49936701913E+02  0.51100000000E-03 0.  1.
         23    2    1    0    0    0  0.32530696581E+02  0.11010630051E+01 -0.83821315791E+01  0.91388711872E+02  0.84983398190E+02 0.  0.
         11    1    3    3    0    0  0.13635091816E+02 -0.27130813552E+02  0.28218298258E+02  0.41452009959E+02  0.51100000000E-03 0. -1.
         22    1    1    0    0    0 -0.32530696581E+02 -0.11010630051E+01  0.83821315791E+01  0.33611288128E+02  0.00000000000E+00 0.  1.
</event>
<event>
 5    1  0.1099741E-009  0.9118800E+02  0.7818608E-02  0.1130116E+00
         25   -1    0    0    0    0  0.00000000000E+00  0.00000000000E+00  0.99999998245E-14  0.12500000000E+03  0.12500000000E+03 0.  0.
        -11    1    3    3    0    0 -0.21410217087E+02 -0.35218344694E+02  0.28007540121E+02  0.49831230194E+02  0.51100000000E-03 0.  1.
         23    2    1    0    0    0 -0.19156316152E+02 -0.19279425225E+02 -0.13719169377E+02  0.94555356893E+02  0.89520049282E+02 0.  0.
         11    1    3    3    0    0  0.22539009349E+01  0.15938919470E+02 -0.41726709498E+02  0.44724126700E+02  0.51100000000E-03 0. -1.
         22    1    1    0    0    0  0.19156316152E+02  0.19279425225E+02  0.13719169377E+02  0.30444643107E+02  0.00000000000E+00 0.  1.
</event>
<event>
 5    1  0.1099741E-009  0.9118800E+02  0.7818608E-02  0.1130116E+00
         25   -1    0    0    0    0  0.00000000000E+00  0.00000000000E+00  0.99999998245E-14  0.12500000000E+03  0.12500000000E+03 0.  0.
        -11    1    3    3    0    0 -0.32287454407E+02  0.14990465108E+00  0.21932767435E+02  0.39032659032E+02  0.51100000000E-03 0. -1.
         23    2    1    0    0    0 -0.61901629278E+01  0.13141566566E+02 -0.26047906138E+02  0.95175307159E+02  0.90381562222E+02 0.  0.
         11    1    3    3    0    0  0.26097291479E+02  0.12991661915E+02 -0.47980673573E+02  0.56142648127E+02  0.51100000000E-03 0.  1.
         22    1    1    0    0    0  0.61901629278E+01 -0.13141566566E+02  0.26047906138E+02  0.29824692841E+02  0.00000000000E+00 0.  1.
</event>
<event>
 5    1  0.1099741E-009  0.9118800E+02  0.7818608E-02  0.1130116E+00
         25   -1    0    0    0    0  0.00000000000E+00  0.00000000000E+00  0.99999998245E-14  0.12500000000E+03  0.12500000000E+03 0.  0.
        -11    1    3    3    0    0  0.37604862074E+02  0.24333880353E+02  0.12093474109E+01  0.44807654548E+02  0.51100000000E-03 0.  1.
         23    2    1    0    0    0 -0.68730654294E+01  0.16752491750E+02 -0.22773509885E+02  0.95905021726E+02  0.91385203570E+02 0.  0.
         11    1    3    3    0    0 -0.44477927504E+02 -0.75813886029E+01 -0.23982857296E+02  0.51097367178E+02  0.51100000000E-03 0. -1.
         22    1    1    0    0    0  0.68730654294E+01 -0.16752491750E+02  0.22773509885E+02  0.29094978274E+02  0.00000000000E+00 0.  1.
</event>
<event>
 5    1  0.1099741E-009  0.9118800E+02  0.7818608E-02  0.1130116E+00
         25   -1    0    0    0    0  0.00000000000E+00  0.00000000000E+00  0.99999998245E-14  0.12500000000E+03  0.12500000000E+03 0.  0.
        -11    1    3    3    0    0  0.35498575607E+02  0.97520547433E+01  0.19737318965E+02  0.41770961229E+02  0.51100000000E-03 0.  1.
         23    2    1    0    0    0  0.10528047592E+02 -0.15848416849E+02 -0.21456736130E+02  0.96322419418E+02  0.91954362889E+02 0.  0.
         11    1    3    3    0    0 -0.24970528015E+02 -0.25600471593E+02 -0.41194055094E+02  0.54551458188E+02  0.51100000000E-03 0. -1.
         22    1    1    0    0    0 -0.10528047592E+02  0.15848416849E+02  0.21456736130E+02  0.28677580582E+02  0.00000000000E+00 0. -1.
</event>
<event>
 5    1  0.1099741E-009  0.9118800E+02  0.7818608E-02  0.1130116E+00
         25   -1    0    0    0    0  0.00000000000E+00  0.00000000000E+00  0.99999998245E-14  0.12500000000E+03  0.12500000000E+03 0.  0.
        -11    1    3    3    0    0  0.12921371379E+02  0.29353815580E+02 -0.23461283655E+02  0.39737138277E+02  0.51100000000E-03 0.  1.
         23    2    1    0    0    0 -0.88271972817E+00  0.11660042739E+02  0.27334470520E+02  0.95269391708E+02  0.90511590015E+02 0.  0.
         11    1    3    3    0    0 -0.13804091108E+02 -0.17693772841E+02  0.50795754175E+02  0.55532253431E+02  0.51100000000E-03 0. -1.
         22    1    1    0    0    0  0.88271972817E+00 -0.11660042739E+02 -0.27334470520E+02  0.29730608292E+02  0.00000000000E+00 0. -1.
</event>
<event>
 5    1  0.1099741E-009  0.9118800E+02  0.7818608E-02  0.1130116E+00
         25   -1    0    0    0    0  0.00000000000E+00  0.00000000000E+00  0.99999998245E-14  0.12500000000E+03  0.12500000000E+03 0.  0.
        -11    1    3    3    0    0  0.34197645864E+02  0.43950516920E+02 -0.49923636177E+01  0.55911095634E+02  0.51100000000E-03 0. -1.
         23    2    1    0    0    0  0.23003654641E+01  0.27128207970E+02  0.11350715452E+02  0.95503049476E+02  0.90833707229E+02 0.  0.
         11    1    3    3    0    0 -0.31897280400E+02 -0.16822308950E+02  0.16343079069E+02  0.39591953842E+02  0.51100000000E-03 0.  1.
         22    1    1    0    0    0 -0.23003654641E+01 -0.27128207970E+02 -0.11350715452E+02  0.29496950524E+02  0.00000000000E+00 0. -1.
</event>
<event>
 5    1  0.1099741E-009  0.9118800E+02  0.7818608E-02  0.1130116E+00
         25   -1    0    0    0    0  0.00000000000E+00  0.00000000000E+00  0.99999998245E-14  0.12500000000E+03  0.12500000000E+03 0.  0.
        -11    1    3    3    0    0  0.44986544630E+01 -0.14855199420E+02 -0.26664475600E+02  0.30853024180E+02  0.51100000000E-03 0.  1.
         23    2    1    0    0    0 -0.13740708683E+02 -0.18705031913E+02  0.28013231843E+02  0.88621071315E+02  0.80810072569E+02 0.  0.
         11    1    3    3    0    0 -0.18239363146E+02 -0.38498324931E+01  0.54677707443E+02  0.57768047134E+02  0.51100000000E-03 0. -1.
         22    1    1    0    0    0  0.13740708683E+02  0.18705031913E+02 -0.28013231843E+02  0.36378928685E+02  0.00000000000E+00 0. -1.
</event>
<event>
 5    1  0.1099741E-009  0.9118800E+02  0.7818608E-02  0.1130116E+00
         25   -1    0    0    0    0  0.00000000000E+00  0.00000000000E+00  0.99999998245E-14  0.12500000000E+03  0.12500000000E+03 0.  0.
        -11    1    3    3    0    0 -0.49589301900E+02  0.23284963390E+02  0.26383256024E+01  0.54847508104E+02  0.51100000000E-03 0.  1.
         23    2    1    0    0    0 -0.95208667309E+01  0.27790281366E+02  0.48376618491E+01  0.95228375693E+02  0.90454927578E+02 0.  0.
         11    1    3    3    0    0  0.40068435169E+02  0.45053179766E+01  0.21993362467E+01  0.40380867588E+02  0.51100000000E-03 0. -1.
         22    1    1    0    0    0  0.95208667309E+01 -0.27790281366E+02 -0.48376618491E+01  0.29771624307E+02  0.00000000000E+00 0.  1.
</event>
<event>
 5    1  0.1099741E-009  0.9118800E+02  0.7818608E-02  0.1130116E+00
         25   -1    0    0    0    0  0.00000000000E+00  0.00000000000E+00  0.99999998245E-14  0.12500000000E+03  0.12500000000E+03 0.  0.
        -11    1    3    3    0    0  0.90756248136E+01 -0.15610055887E+02 -0.36584828229E+02  0.40798167451E+02  0.51100000000E-03 0.  1.
         23    2    1    0    0    0  0.26986951072E+02 -0.10232474214E+01  0.12646423736E+02  0.95179292484E+02  0.90387073860E+02 0.  0.
         11    1    3    3    0    0  0.17911326258E+02  0.14586808466E+02  0.49231251965E+02  0.54381125033E+02  0.51100000000E-03 0. -1.
         22    1    1    0    0    0 -0.26986951072E+02  0.10232474214E+01 -0.12646423736E+02  0.29820707516E+02  0.00000000000E+00 0. -1.
</event>
<event>
 5    1  0.1099741E-009  0.9118800E+02  0.7818608E-02  0.1130116E+00
         25   -1    0    0    0    0  0.00000000000E+00  0.00000000000E+00  0.99999998245E-14  0.12500000000E+03  0.12500000000E+03 0.  0.
        -11    1    3    3    0    0  0.28356427209E+01  0.22631402675E+02 -0.24954450497E+02  0.33807482257E+02  0.51100000000E-03 0. -1.
         23    2    1    0    0    0  0.25596506179E+02 -0.19999293799E+02  0.70370128778E+01  0.91763387187E+02  0.85532723544E+02 0.  0.
         11    1    3    3    0    0  0.22760863458E+02 -0.42630696474E+02  0.31991463375E+02  0.57955904931E+02  0.51100000000E-03 0.  1.
         22    1    1    0    0    0 -0.25596506179E+02  0.19999293799E+02 -0.70370128778E+01  0.33236612813E+02  0.00000000000E+00 0.  1.
</event>
<event>
 5    1  0.1099741E-009  0.9118800E+02  0.7818608E-02  0.1130116E+00
         25   -1    0    0    0    0  0.00000000000E+00  0.00000000000E+00  0.99999998245E-14  0.12500000000E+03  0.12500000000E+03 0.  0.
        -11    1    3    3    0    0 -0.41329490705E+02 -0.18155161243E+02  0.22576972201E+02  0.50472332576E+02  0.51100000000E-03 0.  1.
         23    2    1    0    0    0 -0.40688939578E+00  0.16936543470E+01  0.28595889873E+02  0.96351109243E+02  0.91993354709E+02 0.  0.
         11    1    3    3    0    0  0.40922601309E+02  0.19848815590E+02  0.60189176716E+01  0.45878776666E+02  0.51100000000E-03 0. -1.
         22    1    1    0    0    0  0.40688939578E+00 -0.16936543470E+01 -0.28595889873E+02  0.28648890757E+02  0.00000000000E+00 0. -1.
</event>
<event>
 5    1  0.1099741E-009  0.9118800E+02  0.7818608E-02  0.1130116E+00
         25   -1    0    0    0    0  0.00000000000E+00  0.00000000000E+00  0.99999998245E-14  0.12500000000E+03  0.12500000000E+03 0.  0.
        -11    1    3    3    0    0  0.57048800951E+01 -0.46783889449E+02 -0.19648061051E+02  0.51061965025E+02  0.51100000000E-03 0.  1.
         23    2    1    0    0    0  0.29657501959E+00 -0.11094725590E+02  0.18402221314E+02  0.10350994086E+03  0.10125455651E+03 0.  0.
         11    1    3    3    0    0 -0.54083050756E+01  0.35689163859E+02  0.38050282364E+02  0.52447975833E+02  0.51100000000E-03 0. -1.
         22    1    1    0    0    0 -0.29657501959E+00  0.11094725590E+02 -0.18402221314E+02  0.21490059142E+02  0.00000000000E+00 0. -1.
</event>
<event>
 5    1  0.1099741E-009  0.9118800E+02  0.7818608E-02  0.1130116E+00
         25   -1    0    0    0    0  0.00000000000E+00  0.00000000000E+00  0.99999998245E-14  0.12500000000E+03  0.12500000000E+03 0.  0.
        -11    1    3    3    0    0 -0.96184150059E+01 -0.51527231814E+02 -0.32531055365E+02  0.61691483116E+02  0.51100000000E-03 0.  1.
         23    2    1    0    0    0 -0.11090326515E+02 -0.21241292351E+02 -0.15357170650E+02  0.96538964647E+02  0.92248258313E+02 0.  0.
         11    1    3    3    0    0 -0.14719115093E+01  0.30285939462E+02  0.17173884715E+02  0.34847481531E+02  0.51100000000E-03 0. -1.
         22    1    1    0    0    0  0.11090326515E+02  0.21241292351E+02  0.15357170650E+02  0.28461035353E+02  0.00000000000E+00 0.  1.
</event>
<event>
 5    1  0.1099741E-009  0.9118800E+02  0.7818608E-02  0.1130116E+00
         25   -1    0    0    0    0  0.00000000000E+00  0.00000000000E+00  0.99999998245E-14  0.12500000000E+03  0.12500000000E+03 0.  0.
        -11    1    3    3    0    0  0.18007393992E+02 -0.28820990283E-01  0.47681666001E+02  0.50968699630E+02  0.51100000000E-03 0.  1.
         23    2    1    0    0    0 -0.18654219114E+02 -0.42187477492E+01  0.21563972847E+02  0.96176699560E+02  0.91756061871E+02 0.  0.
         11    1    3    3    0    0 -0.36661613106E+02 -0.41899267589E+01 -0.26117693155E+02  0.45207999931E+02  0.51100000000E-03 0. -1.
         22    1    1    0    0    0  0.18654219114E+02  0.42187477492E+01 -0.21563972847E+02  0.28823300440E+02  0.00000000000E+00 0.  1.
</event>
<event>
 5    1  0.1099741E-009  0.9118800E+02  0.7818608E-02  0.1130116E+00
         25   -1    0    0    0    0  0.00000000000E+00  0.00000000000E+00  0.99999998245E-14  0.12500000000E+03  0.12500000000E+03 0.  0.
        -11    1    3    3    0    0  0.10924627077E+02 -0.96855108222E+01 -0.46524367952E+02  0.48761392620E+02  0.51100000000E-03 0.  1.
         23    2    1    0    0    0  0.28601853449E+02  0.65962437510E+01 -0.73156698027E+01  0.94749454930E+02  0.89790666178E+02 0.  0.
         11    1    3    3    0    0  0.17677226372E+02  0.16281754573E+02  0.39208698150E+02  0.45988062310E+02  0.51100000000E-03 0. -1.
         22    1    1    0    0    0 -0.28601853449E+02 -0.65962437510E+01  0.73156698027E+01  0.30250545070E+02  0.00000000000E+00 0.  1.
</event>
<event>
 5    1  0.1099741E-009  0.9118800E+02  0.7818608E-02  0.1130116E+00
         25   -1    0    0    0    0  0.00000000000E+00  0.00000000000E+00  0.99999998245E-14  0.12500000000E+03  0.12500000000E+03 0.  0.
        -11    1    3    3    0    0  0.30936518422E+02  0.41541680246E+02 -0.27231767076E+02  0.58517933218E+02  0.51100000000E-03 0.  1.
         23    2    1    0    0    0  0.26042619032E+02  0.12673602949E+02 -0.42771570445E+01  0.95723178278E+02  0.91136132075E+02 0.  0.
         11    1    3    3    0    0 -0.48938993906E+01 -0.28868077297E+02  0.22954610032E+02  0.37205245061E+02  0.51100000000E-03 0. -1.
         22    1    1    0    0    0 -0.26042619032E+02 -0.12673602949E+02  0.42771570445E+01  0.29276821722E+02  0.00000000000E+00 0.  1.
</event>
<event>
 5    1  0.1099741E-009  0.9118800E+02  0.7818608E-02  0.1130116E+00
         25   -1    0    0    0    0  0.00000000000E+00  0.00000000000E+00  0.99999998245E-14  0.12500000000E+03  0.12500000000E+03 0.  0.
        -11    1    3    3    0    0 -0.66036649927E+01 -0.34830063593E+02 -0.58430533124E+01  0.35928860175E+02  0.51100000000E-03 0. -1.
         23    2    1    0    0    0 -0.15805450795E+01  0.24933226623E+02 -0.13849217802E+02  0.96434903355E+02  0.92107143256E+02 0.  0.
         11    1    3    3    0    0  0.50231199132E+01  0.59763290216E+02 -0.80061644898E+01  0.60506043180E+02  0.51100000000E-03 0.  1.
         22    1    1    0    0    0  0.15805450795E+01 -0.24933226623E+02  0.13849217802E+02  0.28565096645E+02  0.00000000000E+00 0.  1.
</event>
<event>
 5    1  0.1099741E-009  0.9118800E+02  0.7818608E-02  0.1130116E+00
         25   -1    0    0    0    0  0.00000000000E+00  0.00000000000E+00  0.99999998245E-14  0.12500000000E+03  0.12500000000E+03 0.  0.
        -11    1    3    3    0    0  0.32030949458E+02 -0.46511928635E+02  0.22501977823E+02  0.60792106681E+02  0.51100000000E-03 0.  1.
         23    2    1    0    0    0  0.13457628474E+02 -0.15963579227E+02  0.19095355894E+02  0.96705543960E+02  0.92473704316E+02 0.  0.
         11    1    3    3    0    0 -0.18573320984E+02  0.30548349408E+02 -0.34066219293E+01  0.35913437278E+02  0.51100000000E-03 0. -1.
         22    1    1    0    0    0 -0.13457628474E+02  0.15963579227E+02 -0.19095355894E+02  0.28294456040E+02  0.00000000000E+00 0.  1.
</event>
<event>
 5    1  0.1099741E-009  0.9118800E+02  0.7818608E-02  0.1130116E+00
         25   -1    0    0    0    0  0.00000000000E+00  0.00000000000E+00  0.99999998245E-14  0.12500000000E+03  0.12500000000E+03 0.  0.
        -11    1    3    3    0    0 -0.24155193528E+02 -0.11056097671E+02  0.56546188044E+02  0.62475451600E+02  0.51100000000E-03 0.  1.
         23    2    1    0    0    0 -0.11237775208E+02 -0.38078263515E+01  0.25619871293E+02  0.96765890518E+02  0.92555240962E+02 0.  0.
         11    1    3    3    0    0  0.12917418320E+02  0.72482713190E+01 -0.30926316751E+02  0.34290438918E+02  0.51100000000E-03 0. -1.
         22    1    1    0    0    0  0.11237775208E+02  0.38078263515E+01 -0.25619871293E+02  0.28234109482E+02  0.00000000000E+00 0.  1.
</event>
<event>
 5    1  0.1099741E-009  0.9118800E+02  0.7818608E-02  0.1130116E+00
         25   -1    0    0    0    0  0.00000000000E+00  0.00000000000E+00  0.99999998245E-14  0.12500000000E+03  0.12500000000E+03 0.  0.
        -11    1    3    3    0    0  0.30839423204E+02 -0.28192342588E+02 -0.45035475186E+02  0.61433478085E+02  0.51100000000E-03 0.  1.
         23    2    1    0    0    0  0.12091303214E+02 -0.20239828147E+02 -0.17711108393E+02  0.95512144579E+02  0.90846222512E+02 0.  0.
         11    1    3    3    0    0 -0.18748119990E+02  0.79525144418E+01  0.27324366793E+02  0.34078666494E+02  0.51100000000E-03 0. -1.
         22    1    1    0    0    0 -0.12091303214E+02  0.20239828147E+02  0.17711108393E+02  0.29487855421E+02  0.00000000000E+00 0.  1.
</event>
<event>
 5    1  0.1099741E-009  0.9118800E+02  0.7818608E-02  0.1130116E+00
         25   -1    0    0    0    0  0.00000000000E+00  0.00000000000E+00  0.99999998245E-14  0.12500000000E+03  0.12500000000E+03 0.  0.
        -11    1    3    3    0    0  0.21410952831E+02  0.14941438807E+02 -0.43188055290E+02  0.50466658447E+02  0.51100000000E-03 0.  1.
         23    2    1    0    0    0 -0.14442230814E+02  0.32750233118E+01 -0.31910511367E+02  0.89820680162E+02  0.82644842794E+02 0.  0.
         11    1    3    3    0    0 -0.35853183645E+02 -0.11666415495E+02  0.11277543924E+02  0.39354021716E+02  0.51100000000E-03 0. -1.
         22    1    1    0    0    0  0.14442230814E+02 -0.32750233118E+01  0.31910511367E+02  0.35179319838E+02  0.00000000000E+00 0.  1.
</event>
<event>
 5    1  0.1099741E-009  0.9118800E+02  0.7818608E-02  0.1130116E+00
         25   -1    0    0    0    0  0.00000000000E+00  0.00000000000E+00  0.99999998245E-14  0.12500000000E+03  0.12500000000E+03 0.  0.
        -11    1    3    3    0    0  0.53908163310E+02 -0.72352358768E+01  0.22043062082E+02  0.58688459648E+02  0.51100000000E-03 0.  1.
         23    2    1    0    0    0  0.15869415258E+02  0.27537559882E+01  0.21646201932E+02  0.98018903456E+02  0.94232297350E+02 0.  0.
         11    1    3    3    0    0 -0.38038748052E+02  0.99889918649E+01 -0.39686015027E+00  0.39330443808E+02  0.51100000000E-03 0. -1.
         22    1    1    0    0    0 -0.15869415258E+02 -0.27537559882E+01 -0.21646201932E+02  0.26981096544E+02  0.00000000000E+00 0.  1.
</event>
<event>
 5    1  0.1099741E-009  0.9118800E+02  0.7818608E-02  0.1130116E+00
         25   -1    0    0    0    0  0.00000000000E+00  0.00000000000E+00  0.99999998245E-14  0.12500000000E+03  0.12500000000E+03 0.  0.
        -11    1    3    3    0    0 -0.15338392981E+02 -0.10409354924E+02 -0.12208832237E+02  0.22196318479E+02  0.51100000000E-03 0.  1.
         23    2    1    0    0    0  0.31625315943E+02  0.23410773259E+02 -0.20452522699E+02  0.80654418508E+02  0.67369166738E+02 0.  0.
         11    1    3    3    0    0  0.46963708924E+02  0.33820128183E+02 -0.82436904621E+01  0.58458100029E+02  0.51100000000E-03 0. -1.
         22    1    1    0    0    0 -0.31625315943E+02 -0.23410773259E+02  0.20452522699E+02  0.44345581492E+02  0.00000000000E+00 0. -1.
</event>
<event>
 5    1  0.1099741E-009  0.9118800E+02  0.7818608E-02  0.1130116E+00
         25   -1    0    0    0    0  0.00000000000E+00  0.00000000000E+00  0.99999998245E-14  0.12500000000E+03  0.12500000000E+03 0.  0.
        -11    1    3    3    0    0 -0.21600477766E+02 -0.86044404706E+01 -0.34040760170E+02  0.41223662971E+02  0.51100000000E-03 0. -1.
         23    2    1    0    0    0  0.20993730408E+02 -0.17492986621E+02  0.18260350097E+01  0.97612490051E+02  0.93691635233E+02 0.  0.
         11    1    3    3    0    0  0.42594208174E+02 -0.88885461499E+01  0.35866795180E+02  0.56388827080E+02  0.51100000000E-03 0.  1.
         22    1    1    0    0    0 -0.20993730408E+02  0.17492986621E+02 -0.18260350097E+01  0.27387509949E+02  0.00000000000E+00 0.  1.
</event>
<event>
 5    1  0.1099741E-009  0.9118800E+02  0.7818608E-02  0.1130116E+00
         25   -1    0    0    0    0  0.00000000000E+00  0.00000000000E+00  0.99999998245E-14  0.12500000000E+03  0.12500000000E+03 0.  0.
        -11    1    3    3    0    0 -0.49771754168E+02  0.14145983242E+02 -0.19739872084E+02  0.55380492098E+02  0.51100000000E-03 0.  1.
         23    2    1    0    0    0 -0.17490702619E+01 -0.93837515004E+01 -0.12388347696E+02  0.10936078015E+03  0.10823675455E+03 0.  0.
         11    1    3    3    0    0  0.48022683906E+02 -0.23529734743E+02  0.73515243884E+01  0.53980288048E+02  0.51100000000E-03 0. -1.
         22    1    1    0    0    0  0.17490702619E+01  0.93837515004E+01  0.12388347696E+02  0.15639219854E+02  0.00000000000E+00 0. -1.
</event>
<event>
 5    1  0.1099741E-009  0.9118800E+02  0.7818608E-02  0.1130116E+00
         25   -1    0    0    0    0  0.00000000000E+00  0.00000000000E+00  0.99999998245E-14  0.12500000000E+03  0.12500000000E+03 0.  0.
        -11    1    3    3    0    0 -0.33191712484E+02  0.70675287808E+01 -0.13605639063E+02  0.36561635019E+02  0.51100000000E-03 0.  1.
         23    2    1    0    0    0  0.18696997332E+01 -0.21268925136E+02  0.22250155156E+02  0.94162808850E+02  0.88970232171E+02 0.  0.
         11    1    3    3    0    0  0.35061412218E+02 -0.28336453917E+02  0.35855794219E+02  0.57601173831E+02  0.51100000000E-03 0. -1.
         22    1    1    0    0    0 -0.18696997332E+01  0.21268925136E+02 -0.22250155156E+02  0.30837191150E+02  0.00000000000E+00 0. -1.
</event>
<event>
 5    1  0.1099741E-009  0.9118800E+02  0.7818608E-02  0.1130116E+00
         25   -1    0    0    0    0  0.00000000000E+00  0.00000000000E+00  0.99999998245E-14  0.12500000000E+03  0.12500000000E+03 0.  0.
        -11    1    3    3    0    0  0.13565919999E+02 -0.49215130628E+02  0.22865689298E+02  0.55937492038E+02  0.51100000000E-03 0.  1.
         23    2    1    0    0    0 -0.86362527703E+01 -0.15548873717E+02  0.22566607749E+02  0.96266672294E+02  0.91878550671E+02 0.  0.
         11    1    3    3    0    0 -0.22202172769E+02  0.33666256911E+02 -0.29908154983E+00  0.40329180256E+02  0.51100000000E-03 0. -1.
         22    1    1    0    0    0  0.86362527703E+01  0.15548873717E+02 -0.22566607749E+02  0.28733327706E+02  0.00000000000E+00 0.  1.
</event>
<event>
 5    1  0.1099741E-009  0.9118800E+02  0.7818608E-02  0.1130116E+00
         25   -1    0    0    0    0  0.00000000000E+00  0.00000000000E+00  0.99999998245E-14  0.12500000000E+03  0.12500000000E+03 0.  0.
        -11    1    3    3    0    0 -0.23852735479E+02 -0.48110383046E+01  0.49784645776E+02  0.55413085410E+02  0.51100000000E-03 0.  1.
         23    2    1    0    0    0 -0.25926425196E+02  0.52178059965E+01  0.96269690496E+01  0.96856020964E+02  0.92676886229E+02 0.  0.
         11    1    3    3    0    0 -0.20736897177E+01  0.10028844301E+02 -0.40157676726E+02  0.41442935554E+02  0.51100000000E-03 0. -1.
         22    1    1    0    0    0  0.25926425196E+02 -0.52178059965E+01 -0.96269690496E+01  0.28143979036E+02  0.00000000000E+00 0.  1.
</event>
<event>
 5    1  0.1099741E-009  0.9118800E+02  0.7818608E-02  0.1130116E+00
         25   -1    0    0    0    0  0.00000000000E+00  0.00000000000E+00  0.99999998245E-14  0.12500000000E+03  0.12500000000E+03 0.  0.
        -11    1    3    3    0    0 -0.21055861079E+02  0.53197763509E+02  0.22473418874E+02  0.61468739082E+02  0.51100000000E-03 0.  1.
         23    2    1    0    0    0 -0.27159003930E+01  0.28410523459E+02  0.95123524996E+01  0.94916469485E+02  0.90022871379E+02 0.  0.
         11    1    3    3    0    0  0.18339960686E+02 -0.24787240050E+02 -0.12961066375E+02  0.33447730403E+02  0.51100000000E-03 0. -1.
         22    1    1    0    0    0  0.27159003930E+01 -0.28410523459E+02 -0.95123524996E+01  0.30083530515E+02  0.00000000000E+00 0.  1.
</event>
<event>
 5    1  0.1099741E-009  0.9118800E+02  0.7818608E-02  0.1130116E+00
         25   -1    0    0    0    0  0.00000000000E+00  0.00000000000E+00  0.99999998245E-14  0.12500000000E+03  0.12500000000E+03 0.  0.
        -11    1    3    3    0    0 -0.36034493088E+00  0.22284870090E+02  0.42532660932E+02  0.48018460301E+02  0.51100000000E-03 0. -1.
         23    2    1    0    0    0  0.18026518148E+02 -0.14179645825E+02  0.11290301664E+02  0.99436576444E+02  0.96094454111E+02 0.  0.
         11    1    3    3    0    0  0.18386863079E+02 -0.36464515915E+02 -0.31242359268E+02  0.51418116143E+02  0.51100000000E-03 0.  1.
         22    1    1    0    0    0 -0.18026518148E+02  0.14179645825E+02 -0.11290301664E+02  0.25563423556E+02  0.00000000000E+00 0. -1.
</event>
<event>
 5    1  0.1099741E-009  0.9118800E+02  0.7818608E-02  0.1130116E+00
         25   -1    0    0    0    0  0.00000000000E+00  0.00000000000E+00  0.99999998245E-14  0.12500000000E+03  0.12500000000E+03 0.  0.
        -11    1    3    3    0    0 -0.40583421816E+01 -0.45605750681E+02  0.46018141054E+01  0.46016641879E+02  0.51100000000E-03 0. -1.
         23    2    1    0    0    0 -0.86561282659E+01  0.19497295507E+00  0.26594479072E+02  0.97031573370E+02  0.92913364715E+02 0.  0.
         11    1    3    3    0    0 -0.45977860842E+01  0.45800723636E+02  0.21992664967E+02  0.51014931492E+02  0.51100000000E-03 0.  1.
         22    1    1    0    0    0  0.86561282659E+01 -0.19497295507E+00 -0.26594479072E+02  0.27968426630E+02  0.00000000000E+00 0.  1.
</event>
<event>
 5    1  0.1099741E-009  0.9118800E+02  0.7818608E-02  0.1130116E+00
         25   -1    0    0    0    0  0.00000000000E+00  0.00000000000E+00  0.99999998245E-14  0.12500000000E+03  0.12500000000E+03 0.  0.
        -11    1    3    3    0    0 -0.31506302955E+02 -0.47596336499E+01 -0.37616298618E+02  0.49297942760E+02  0.51100000000E-03 0.  1.
         23    2    1    0    0    0  0.60521939758E+01  0.15720607991E+02 -0.26669761937E+02  0.93455701477E+02  0.87971162146E+02 0.  0.
         11    1    3    3    0    0  0.37558496931E+02  0.20480241641E+02  0.10946536681E+02  0.44157758717E+02  0.51100000000E-03 0. -1.
         22    1    1    0    0    0 -0.60521939758E+01 -0.15720607991E+02  0.26669761937E+02  0.31544298523E+02  0.00000000000E+00 0.  1.
</event>
<event>
 5    1  0.1099741E-009  0.9118800E+02  0.7818608E-02  0.1130116E+00
         25   -1    0    0    0    0  0.00000000000E+00  0.00000000000E+00  0.99999998245E-14  0.12500000000E+03  0.12500000000E+03 0.  0.
        -11    1    3    3    0    0  0.17060494167E+02 -0.31639897172E+02 -0.70177091710E+01  0.36625015994E+02  0.51100000000E-03 0.  1.
         23    2    1    0    0    0  0.10287263407E+02  0.26725565344E+02 -0.75491395307E+01  0.95384579371E+02  0.90670529075E+02 0.  0.
         11    1    3    3    0    0 -0.67732307604E+01  0.58365462517E+02 -0.53143035977E+00  0.58759563377E+02  0.51100000000E-03 0. -1.
         22    1    1    0    0    0 -0.10287263407E+02 -0.26725565344E+02  0.75491395307E+01  0.29615420629E+02  0.00000000000E+00 0. -1.
</event>
<event>
 5    1  0.1099741E-009  0.9118800E+02  0.7818608E-02  0.1130116E+00
         25   -1    0    0    0    0  0.00000000000E+00  0.00000000000E+00  0.99999998245E-14  0.12500000000E+03  0.12500000000E+03 0.  0.
        -11    1    3    3    0    0  0.30214257762E+02 -0.24640043629E+02  0.39293465791E+02  0.55353496514E+02  0.51100000000E-03 0.  1.
         23    2    1    0    0    0 -0.38474072427E+01 -0.14538296562E+02  0.28983356067E+02  0.92347288959E+02  0.86381839757E+02 0.  0.
         11    1    3    3    0    0 -0.34061665005E+02  0.10101747067E+02 -0.10310109724E+02  0.36993792445E+02  0.51100000000E-03 0. -1.
         22    1    1    0    0    0  0.38474072427E+01  0.14538296562E+02 -0.28983356067E+02  0.32652711041E+02  0.00000000000E+00 0.  1.
</event>
<event>
 5    1  0.1099741E-009  0.9118800E+02  0.7818608E-02  0.1130116E+00
         25   -1    0    0    0    0  0.00000000000E+00  0.00000000000E+00  0.99999998245E-14  0.12500000000E+03  0.12500000000E+03 0.  0.
        -11    1    3    3    0    0 -0.27256087067E+02  0.40976838883E+01 -0.20791877251E+02  0.34525171330E+02  0.51100000000E-03 0.  1.
         23    2    1    0    0    0  0.78389082515E+01 -0.57137448139E+01  0.27967997092E+02  0.95397563889E+02  0.90688427995E+02 0.  0.
         11    1    3    3    0    0  0.35094995318E+02 -0.98114287022E+01  0.48759874344E+02  0.60872392559E+02  0.51100000000E-03 0. -1.
         22    1    1    0    0    0 -0.78389082515E+01  0.57137448139E+01 -0.27967997092E+02  0.29602436111E+02  0.00000000000E+00 0. -1.
</event>
<event>
 5    1  0.1099741E-009  0.9118800E+02  0.7818608E-02  0.1130116E+00
         25   -1    0    0    0    0  0.00000000000E+00  0.00000000000E+00  0.99999998245E-14  0.12500000000E+03  0.12500000000E+03 0.  0.
        -11    1    3    3    0    0  0.20661230034E+02 -0.52787266572E+02 -0.18444285575E+02  0.59611857959E+02  0.51100000000E-03 0.  1.
         23    2    1    0    0    0 -0.28774702727E+01 -0.28269314673E+02 -0.11739392469E+02  0.94255125260E+02  0.89099839029E+02 0.  0.
         11    1    3    3    0    0 -0.23538700307E+02  0.24517951899E+02  0.67048931061E+01  0.34643267301E+02  0.51100000000E-03 0. -1.
         22    1    1    0    0    0  0.28774702727E+01  0.28269314673E+02  0.11739392469E+02  0.30744874740E+02  0.00000000000E+00 0.  1.
</event>
<event>
 5    1  0.1099741E-009  0.9118800E+02  0.7818608E-02  0.1130116E+00
         25   -1    0    0    0    0  0.00000000000E+00  0.00000000000E+00  0.99999998245E-14  0.12500000000E+03  0.12500000000E+03 0.  0.
        -11    1    3    3    0    0  0.37540099842E+02  0.39090483043E+02 -0.55250683908E+01  0.54477989515E+02  0.51100000000E-03 0. -1.
         23    2    1    0    0    0  0.23227323015E+02  0.10871581300E+01  0.12146847825E+02  0.98765740733E+02  0.95217830175E+02 0.  0.
         11    1    3    3    0    0 -0.14312776827E+02 -0.38003324913E+02  0.17671916215E+02  0.44287751218E+02  0.51100000000E-03 0.  1.
         22    1    1    0    0    0 -0.23227323015E+02 -0.10871581300E+01 -0.12146847825E+02  0.26234259267E+02  0.00000000000E+00 0. -1.
</event>
<event>
 5    1  0.1099741E-009  0.9118800E+02  0.7818608E-02  0.1130116E+00
         25   -1    0    0    0    0  0.00000000000E+00  0.00000000000E+00  0.99999998245E-14  0.12500000000E+03  0.12500000000E+03 0.  0.
        -11    1    3    3    0    0  0.60580461035E+02  0.20789272193E-01 -0.13634094489E+02  0.62095742400E+02  0.51100000000E-03 0. -1.
         23    2    1    0    0    0  0.26192169737E+02 -0.48445445611E+01 -0.70684163174E+01  0.97441664115E+02  0.93463447554E+02 0.  0.
         11    1    3    3    0    0 -0.34388291298E+02 -0.48653338333E+01  0.65656781715E+01  0.35345921714E+02  0.51100000000E-03 0.  1.
         22    1    1    0    0    0 -0.26192169737E+02  0.48445445611E+01  0.70684163174E+01  0.27558335885E+02  0.00000000000E+00 0. -1.
</event>
<event>
 5    1  0.1099741E-009  0.9118800E+02  0.7818608E-02  0.1130116E+00
         25   -1    0    0    0    0  0.00000000000E+00  0.00000000000E+00  0.99999998245E-14  0.12500000000E+03  0.12500000000E+03 0.  0.
        -11    1    3    3    0    0 -0.17509190163E+02  0.11859510870E+02  0.58309637676E+02  0.62026071812E+02  0.51100000000E-03 0.  1.
         23    2    1    0    0    0 -0.14364393589E+02  0.49295035606E+01  0.29544996917E+02  0.91780387549E+02  0.85557564758E+02 0.  0.
         11    1    3    3    0    0  0.31447965746E+01 -0.69300073098E+01 -0.28764640758E+02  0.29754315738E+02  0.51100000000E-03 0. -1.
         22    1    1    0    0    0  0.14364393589E+02 -0.49295035606E+01 -0.29544996917E+02  0.33219612451E+02  0.00000000000E+00 0.  1.
</event>
<event>
 5    1  0.1099741E-009  0.9118800E+02  0.7818608E-02  0.1130116E+00
         25   -1    0    0    0    0  0.00000000000E+00  0.00000000000E+00  0.99999998245E-14  0.12500000000E+03  0.12500000000E+03 0.  0.
        -11    1    3    3    0    0  0.22413476516E+02 -0.24729427005E+02 -0.12157702519E+02  0.35520673141E+02  0.51100000000E-03 0.  1.
         23    2    1    0    0    0  0.43119126244E+01  0.30358612908E+02 -0.43309360335E+01  0.94032355997E+02  0.88786761397E+02 0.  0.
         11    1    3    3    0    0 -0.18101563892E+02  0.55088039913E+02  0.78267664859E+01  0.58511682856E+02  0.51100000000E-03 0. -1.
         22    1    1    0    0    0 -0.43119126244E+01 -0.30358612908E+02  0.43309360335E+01  0.30967644003E+02  0.00000000000E+00 0. -1.
</event>
<event>
 5    1  0.1099741E-009  0.9118800E+02  0.7818608E-02  0.1130116E+00
         25   -1    0    0    0    0  0.00000000000E+00  0.00000000000E+00  0.99999998245E-14  0.12500000000E+03  0.12500000000E+03 0.  0.
        -11    1    3    3    0    0 -0.18959878577E+02  0.19541189809E+02  0.56158703176E+02  0.62411016956E+02  0.51100000000E-03 0. -1.
         23    2    1    0    0    0 -0.10045615884E+02  0.11563381407E+02  0.26498127465E+02  0.94393187895E+02  0.89293319872E+02 0.  0.
         11    1    3    3    0    0  0.89142626931E+01 -0.79778084022E+01 -0.29660575710E+02  0.31982170939E+02  0.51100000000E-03 0.  1.
         22    1    1    0    0    0  0.10045615884E+02 -0.11563381407E+02 -0.26498127465E+02  0.30606812105E+02  0.00000000000E+00 0. -1.
</event>
<event>
 5    1  0.1099741E-009  0.9118800E+02  0.7818608E-02  0.1130116E+00
         25   -1    0    0    0    0  0.00000000000E+00  0.00000000000E+00  0.99999998245E-14  0.12500000000E+03  0.12500000000E+03 0.  0.
        -11    1    3    3    0    0  0.41796512163E+02  0.17366930629E+02  0.13610204121E+02  0.47263054968E+02  0.51100000000E-03 0.  1.
         23    2    1    0    0    0  0.10151225611E+02  0.30022949120E+02 -0.13241689688E+02  0.90652260612E+02  0.83893177035E+02 0.  0.
         11    1    3    3    0    0 -0.31645286552E+02  0.12656018492E+02 -0.26851893809E+02  0.43389205644E+02  0.51100000000E-03 0. -1.
         22    1    1    0    0    0 -0.10151225611E+02 -0.30022949120E+02  0.13241689688E+02  0.34347739388E+02  0.00000000000E+00 0.  1.
</event>
<event>
 5    1  0.1099741E-009  0.9118800E+02  0.7818608E-02  0.1130116E+00
         25   -1    0    0    0    0  0.00000000000E+00  0.00000000000E+00  0.99999998245E-14  0.12500000000E+03  0.12500000000E+03 0.  0.
        -11    1    3    3    0    0 -0.21424653222E+02  0.14019548836E+02  0.47860673610E+02  0.54278979301E+02  0.51100000000E-03 0.  1.
         23    2    1    0    0    0 -0.11329852242E+02 -0.16138807092E+02  0.13475929342E+02  0.10111637972E+03  0.98255253953E+02 0.  0.
         11    1    3    3    0    0  0.10094800980E+02 -0.30158355928E+02 -0.34384744269E+02  0.46837400417E+02  0.51100000000E-03 0. -1.
         22    1    1    0    0    0  0.11329852242E+02  0.16138807092E+02 -0.13475929342E+02  0.23883620282E+02  0.00000000000E+00 0.  1.
</event>
<event>
 5    1  0.1099741E-009  0.9118800E+02  0.7818608E-02  0.1130116E+00
         25   -1    0    0    0    0  0.00000000000E+00  0.00000000000E+00  0.99999998245E-14  0.12500000000E+03  0.12500000000E+03 0.  0.
        -11    1    3    3    0    0  0.12560636895E+02  0.34892464522E+02  0.25177581353E+02  0.44823702242E+02  0.51100000000E-03 0.  1.
         23    2    1    0    0    0  0.29098214101E+02 -0.22621157817E+01 -0.48987661562E+01  0.95405724514E+02  0.90699675460E+02 0.  0.
         11    1    3    3    0    0  0.16537577205E+02 -0.37154580304E+02 -0.30076347509E+02  0.50582022272E+02  0.51100000000E-03 0. -1.
         22    1    1    0    0    0 -0.29098214101E+02  0.22621157817E+01  0.48987661562E+01  0.29594275486E+02  0.00000000000E+00 0. -1.
</event>
<event>
 5    1  0.1099741E-009  0.9118800E+02  0.7818608E-02  0.1130116E+00
         25   -1    0    0    0    0  0.00000000000E+00  0.00000000000E+00  0.99999998245E-14  0.12500000000E+03  0.12500000000E+03 0.  0.
        -11    1    3    3    0    0 -0.43298214321E+02  0.17923028993E+02 -0.22904224786E+00  0.46861741243E+02  0.51100000000E-03 0.  1.
         23    2    1    0    0    0 -0.14717300145E+02 -0.19055930114E+02  0.15720343303E+02  0.96244885853E+02  0.91848905618E+02 0.  0.
         11    1    3    3    0    0  0.28580914176E+02 -0.36978959108E+02  0.15949385551E+02  0.49383144610E+02  0.51100000000E-03 0. -1.
         22    1    1    0    0    0  0.14717300145E+02  0.19055930114E+02 -0.15720343303E+02  0.28755114147E+02  0.00000000000E+00 0. -1.
</event>
<event>
 5    1  0.1099741E-009  0.9118800E+02  0.7818608E-02  0.1130116E+00
         25   -1    0    0    0    0  0.00000000000E+00  0.00000000000E+00  0.99999998245E-14  0.12500000000E+03  0.12500000000E+03 0.  0.
        -11    1    3    3    0    0  0.27001752142E+02 -0.11688105946E+02  0.19544610465E+01  0.29487732324E+02  0.51100000000E-03 0.  1.
         23    2    1    0    0    0 -0.22454232031E+02  0.12526091274E+02  0.24959870035E+02  0.89165789937E+02  0.81648315869E+02 0.  0.
         11    1    3    3    0    0 -0.49455984173E+02  0.24214197220E+02  0.23005408988E+02  0.59678057613E+02  0.51100000000E-03 0. -1.
         22    1    1    0    0    0  0.22454232031E+02 -0.12526091274E+02 -0.24959870035E+02  0.35834210063E+02  0.00000000000E+00 0. -1.
</event>
<event>
 5    1  0.1099741E-009  0.9118800E+02  0.7818608E-02  0.1130116E+00
         25   -1    0    0    0    0  0.00000000000E+00  0.00000000000E+00  0.99999998245E-14  0.12500000000E+03  0.12500000000E+03 0.  0.
        -11    1    3    3    0    0  0.26070304039E+02  0.48307947100E+01 -0.31191763273E+02  0.40938043756E+02  0.51100000000E-03 0. -1.
         23    2    1    0    0    0  0.11152780955E+02  0.69352655414E+01  0.23724334003E+02  0.97883096507E+02  0.94051975666E+02 0.  0.
         11    1    3    3    0    0 -0.14917523084E+02  0.21044708314E+01  0.54916097277E+02  0.56945052751E+02  0.51100000000E-03 0.  1.
         22    1    1    0    0    0 -0.11152780955E+02 -0.69352655414E+01 -0.23724334003E+02  0.27116903493E+02  0.00000000000E+00 0. -1.
</event>
<event>
 5    1  0.1099741E-009  0.9118800E+02  0.7818608E-02  0.1130116E+00
         25   -1    0    0    0    0  0.00000000000E+00  0.00000000000E+00  0.99999998245E-14  0.12500000000E+03  0.12500000000E+03 0.  0.
        -11    1    3    3    0    0 -0.26908092317E+02 -0.25943971462E+02 -0.11412251932E+02  0.39081639958E+02  0.51100000000E-03 0.  1.
         23    2    1    0    0    0 -0.95226734054E+00  0.22288384740E+02 -0.20617974920E+02  0.94622709186E+02  0.89614046312E+02 0.  0.
         11    1    3    3    0    0  0.25955824977E+02  0.48232356202E+02 -0.92057229879E+01  0.55541069228E+02  0.51100000000E-03 0. -1.
         22    1    1    0    0    0  0.95226734054E+00 -0.22288384740E+02  0.20617974920E+02  0.30377290814E+02  0.00000000000E+00 0. -1.
</event>
<event>
 5    1  0.1099741E-009  0.9118800E+02  0.7818608E-02  0.1130116E+00
         25   -1    0    0    0    0  0.00000000000E+00  0.00000000000E+00  0.99999998245E-14  0.12500000000E+03  0.12500000000E+03 0.  0.
        -11    1    3    3    0    0  0.30379661042E+02  0.44280726920E+02  0.56051187942E+01  0.53991887710E+02  0.51100000000E-03 0. -1.
         23    2    1    0    0    0  0.33282741916E+02  0.92401846510E+01  0.89687921435E+01  0.89313011414E+02  0.81873395273E+02 0.  0.
         11    1    3    3    0    0  0.29030808742E+01 -0.35040542269E+02  0.33636733494E+01  0.35321123704E+02  0.51100000000E-03 0.  1.
         22    1    1    0    0    0 -0.33282741916E+02 -0.92401846510E+01 -0.89687921435E+01  0.35686988586E+02  0.00000000000E+00 0.  1.
</event>
<event>
 5    1  0.1099741E-009  0.9118800E+02  0.7818608E-02  0.1130116E+00
         25   -1    0    0    0    0  0.00000000000E+00  0.00000000000E+00  0.99999998245E-14  0.12500000000E+03  0.12500000000E+03 0.  0.
        -11    1    3    3    0    0  0.46908193945E+01 -0.20124430628E+02 -0.47329194848E+02  0.51643481485E+02  0.51100000000E-03 0. -1.
         23    2    1    0    0    0 -0.23107347920E+02 -0.35271004073E+01 -0.23591629152E+02  0.91789234709E+02  0.85570489524E+02 0.  0.
         11    1    3    3    0    0 -0.27798167314E+02  0.16597330220E+02  0.23737565697E+02  0.40145753224E+02  0.51100000000E-03 0.  1.
         22    1    1    0    0    0  0.23107347920E+02  0.35271004073E+01  0.23591629152E+02  0.33210765291E+02  0.00000000000E+00 0. -1.
</event>
<event>
 5    1  0.1099741E-009  0.9118800E+02  0.7818608E-02  0.1130116E+00
         25   -1    0    0    0    0  0.00000000000E+00  0.00000000000E+00  0.99999998245E-14  0.12500000000E+03  0.12500000000E+03 0.  0.
        -11    1    3    3    0    0 -0.68750004698E+01 -0.20516831577E+02 -0.26843275580E+02  0.34478507124E+02  0.51100000000E-03 0. -1.
         23    2    1    0    0    0  0.19709246828E+02  0.11855003646E+02  0.17963689665E+02  0.95816277338E+02  0.91263735046E+02 0.  0.
         11    1    3    3    0    0  0.26584247298E+02  0.32371835223E+02  0.44806965245E+02  0.61337770214E+02  0.51100000000E-03 0.  1.
         22    1    1    0    0    0 -0.19709246828E+02 -0.11855003646E+02 -0.17963689665E+02  0.29183722662E+02  0.00000000000E+00 0.  1.
</event>
<event>
 5    1  0.1099741E-009  0.9118800E+02  0.7818608E-02  0.1130116E+00
         25   -1    0    0    0    0  0.00000000000E+00  0.00000000000E+00  0.99999998245E-14  0.12500000000E+03  0.12500000000E+03 0.  0.
        -11    1    3    3    0    0  0.29001461466E+02 -0.68391914477E+01 -0.17856728735E+02  0.34737905352E+02  0.51100000000E-03 0.  1.
         23    2    1    0    0    0 -0.26143646706E+02  0.10841141945E+02  0.35458277991E+01  0.96476439273E+02  0.92163495041E+02 0.  0.
         11    1    3    3    0    0 -0.55145108172E+02  0.17680333393E+02  0.21402556534E+02  0.61738533921E+02  0.51100000000E-03 0. -1.
         22    1    1    0    0    0  0.26143646706E+02 -0.10841141945E+02 -0.35458277991E+01  0.28523560727E+02  0.00000000000E+00 0. -1.
</event>
<event>
 5    1  0.1099741E-009  0.9118800E+02  0.7818608E-02  0.1130116E+00
         25   -1    0    0    0    0  0.00000000000E+00  0.00000000000E+00  0.99999998245E-14  0.12500000000E+03  0.12500000000E+03 0.  0.
        -11    1    3    3    0    0 -0.27638255961E+02  0.38991387215E+02  0.77098540233E+01  0.48411190017E+02  0.51100000000E-03 0. -1.
         23    2    1    0    0    0 -0.13073120136E+02 -0.25190099931E+01  0.25792406172E+02  0.95974147772E+02  0.91479707821E+02 0.  0.
         11    1    3    3    0    0  0.14565135825E+02 -0.41510397208E+02  0.18082552149E+02  0.47562957755E+02  0.51100000000E-03 0.  1.
         22    1    1    0    0    0  0.13073120136E+02  0.25190099931E+01 -0.25792406172E+02  0.29025852228E+02  0.00000000000E+00 0.  1.
</event>
<event>
 5    1  0.1099741E-009  0.9118800E+02  0.7818608E-02  0.1130116E+00
         25   -1    0    0    0    0  0.00000000000E+00  0.00000000000E+00  0.99999998245E-14  0.12500000000E+03  0.12500000000E+03 0.  0.
        -11    1    3    3    0    0 -0.15221962132E+01 -0.28128736204E+02  0.40046704144E+02  0.48962040346E+02  0.51100000000E-03 0. -1.
         23    2    1    0    0    0 -0.24647414336E+02 -0.17583415386E+02  0.20781763389E+01  0.94652177228E+02  0.89655140996E+02 0.  0.
         11    1    3    3    0    0 -0.23125218123E+02  0.10545320818E+02 -0.37968527805E+02  0.45690136883E+02  0.51100000000E-03 0.  1.
         22    1    1    0    0    0  0.24647414336E+02  0.17583415386E+02 -0.20781763389E+01  0.30347822772E+02  0.00000000000E+00 0. -1.
</event>
<event>
 5    1  0.1099741E-009  0.9118800E+02  0.7818608E-02  0.1130116E+00
         25   -1    0    0    0    0  0.00000000000E+00  0.00000000000E+00  0.99999998245E-14  0.12500000000E+03  0.12500000000E+03 0.  0.
        -11    1    3    3    0    0  0.34493795709E+02 -0.41985296340E+02 -0.11600422206E+02  0.55562189003E+02  0.51100000000E-03 0.  1.
         23    2    1    0    0    0  0.21995320610E+02 -0.12547069336E+02  0.13579213384E+02  0.96266428802E+02  0.91878219402E+02 0.  0.
         11    1    3    3    0    0 -0.12498475099E+02  0.29438227004E+02  0.25179635590E+02  0.40704239799E+02  0.51100000000E-03 0. -1.
         22    1    1    0    0    0 -0.21995320610E+02  0.12547069336E+02 -0.13579213384E+02  0.28733571198E+02  0.00000000000E+00 0.  1.
</event>
<event>
 5    1  0.1099741E-009  0.9118800E+02  0.7818608E-02  0.1130116E+00
         25   -1    0    0    0    0  0.00000000000E+00  0.00000000000E+00  0.99999998245E-14  0.12500000000E+03  0.12500000000E+03 0.  0.
        -11    1    3    3    0    0 -0.44258383154E+02 -0.52925041836E+00 -0.29714345477E+02  0.53310664157E+02  0.51100000000E-03 0.  1.
         23    2    1    0    0    0 -0.28337387337E+01  0.10706621608E+02 -0.26413165974E+02  0.96358820586E+02  0.92003832238E+02 0.  0.
         11    1    3    3    0    0  0.41424644421E+02  0.11235872026E+02  0.33011795028E+01  0.43048156429E+02  0.51100000000E-03 0. -1.
         22    1    1    0    0    0  0.28337387337E+01 -0.10706621608E+02  0.26413165974E+02  0.28641179414E+02  0.00000000000E+00 0.  1.
</event>
<event>
 5    1  0.1099741E-009  0.9118800E+02  0.7818608E-02  0.1130116E+00
         25   -1    0    0    0    0  0.00000000000E+00  0.00000000000E+00  0.99999998245E-14  0.12500000000E+03  0.12500000000E+03 0.  0.
        -11    1    3    3    0    0  0.68238641029E+00 -0.43765518952E+02  0.32395110152E+02  0.54454838742E+02  0.51100000000E-03 0. -1.
         23    2    1    0    0    0 -0.21471708985E+02 -0.18217492733E+02  0.95427131814E+01  0.95268287923E+02  0.90510065632E+02 0.  0.
         11    1    3    3    0    0 -0.22154095395E+02  0.25548026219E+02 -0.22852396971E+02  0.40813449181E+02  0.51100000000E-03 0.  1.
         22    1    1    0    0    0  0.21471708985E+02  0.18217492733E+02 -0.95427131814E+01  0.29731712077E+02  0.00000000000E+00 0. -1.
</event>
<event>
 5    1  0.1099741E-009  0.9118800E+02  0.7818608E-02  0.1130116E+00
         25   -1    0    0    0    0  0.00000000000E+00  0.00000000000E+00  0.99999998245E-14  0.12500000000E+03  0.12500000000E+03 0.  0.
        -11    1    3    3    0    0  0.51374921082E+02  0.25165867912E+01  0.17815362575E+02  0.54434390501E+02  0.51100000000E-03 0. -1.
         23    2    1    0    0    0  0.16855738685E+02 -0.18146524314E+02  0.17512958858E+02  0.94666586092E+02  0.89675228035E+02 0.  0.
         11    1    3    3    0    0 -0.34519182396E+02 -0.20663111105E+02 -0.30240371695E+00  0.40232195592E+02  0.51100000000E-03 0.  1.
         22    1    1    0    0    0 -0.16855738685E+02  0.18146524314E+02 -0.17512958858E+02  0.30333413908E+02  0.00000000000E+00 0. -1.
</event>
<event>
 5    1  0.1099741E-009  0.9118800E+02  0.7818608E-02  0.1130116E+00
         25   -1    0    0    0    0  0.00000000000E+00  0.00000000000E+00  0.99999998245E-14  0.12500000000E+03  0.12500000000E+03 0.  0.
        -11    1    3    3    0    0  0.19262275319E+02  0.16579508983E+02  0.50828144105E+02  0.56827947368E+02  0.51100000000E-03 0.  1.
         23    2    1    0    0    0  0.20590204267E+02  0.20316644907E+02  0.15877759999E+02  0.92002638975E+02  0.85881661277E+02 0.  0.
         11    1    3    3    0    0  0.13279289481E+01  0.37371359240E+01 -0.34950384107E+02  0.35174691607E+02  0.51100000000E-03 0. -1.
         22    1    1    0    0    0 -0.20590204267E+02 -0.20316644907E+02 -0.15877759999E+02  0.32997361025E+02  0.00000000000E+00 0.  1.
</event>
<event>
 5    1  0.1099741E-009  0.9118800E+02  0.7818608E-02  0.1130116E+00
         25   -1    0    0    0    0  0.00000000000E+00  0.00000000000E+00  0.99999998245E-14  0.12500000000E+03  0.12500000000E+03 0.  0.
        -11    1    3    3    0    0 -0.59598038622E+01 -0.35118491494E+02 -0.10163327157E+02  0.37042150667E+02  0.51100000000E-03 0.  1.
         23    2    1    0    0    0  0.28091484492E+02  0.10816811507E+02 -0.53707709106E+01  0.94422555824E+02  0.89334422011E+02 0.  0.
         11    1    3    3    0    0  0.34051288354E+02  0.45935303001E+02  0.47925562469E+01  0.57380405157E+02  0.51100000000E-03 0. -1.
         22    1    1    0    0    0 -0.28091484492E+02 -0.10816811507E+02  0.53707709106E+01  0.30577444176E+02  0.00000000000E+00 0. -1.
</event>
<event>
 5    1  0.1099741E-009  0.9118800E+02  0.7818608E-02  0.1130116E+00
         25   -1    0    0    0    0  0.00000000000E+00  0.00000000000E+00  0.99999998245E-14  0.12500000000E+03  0.12500000000E+03 0.  0.
        -11    1    3    3    0    0 -0.37995191786E+02  0.16646858342E+02  0.44498079873E+02  0.60834460663E+02  0.51100000000E-03 0. -1.
         23    2    1    0    0    0 -0.12320280562E+02  0.16448996911E+02  0.20089660723E+02  0.96260597075E+02  0.91870285015E+02 0.  0.
         11    1    3    3    0    0  0.25674911224E+02 -0.19786143121E+00 -0.24408419149E+02  0.35426136413E+02  0.51100000000E-03 0.  1.
         22    1    1    0    0    0  0.12320280562E+02 -0.16448996911E+02 -0.20089660723E+02  0.28739402925E+02  0.00000000000E+00 0. -1.
</event>
<event>
 5    1  0.1099741E-009  0.9118800E+02  0.7818608E-02  0.1130116E+00
         25   -1    0    0    0    0  0.00000000000E+00  0.00000000000E+00  0.99999998245E-14  0.12500000000E+03  0.12500000000E+03 0.  0.
        -11    1    3    3    0    0  0.47843086394E+02  0.14548368872E+02  0.14547371984E+01  0.50027314670E+02  0.51100000000E-03 0.  1.
         23    2    1    0    0    0  0.19241400879E+02 -0.17194155988E+02 -0.14216990871E+02  0.95538273347E+02  0.90882167320E+02 0.  0.
         11    1    3    3    0    0 -0.28601685515E+02 -0.31742524860E+02 -0.15671728069E+02  0.45510958677E+02  0.51100000000E-03 0. -1.
         22    1    1    0    0    0 -0.19241400879E+02  0.17194155988E+02  0.14216990871E+02  0.29461726653E+02  0.00000000000E+00 0.  1.
</event>
<event>
 5    1  0.1099741E-009  0.9118800E+02  0.7818608E-02  0.1130116E+00
         25   -1    0    0    0    0  0.00000000000E+00  0.00000000000E+00  0.99999998245E-14  0.12500000000E+03  0.12500000000E+03 0.  0.
        -11    1    3    3    0    0  0.19218205198E+02  0.30469940307E+02  0.53611238942E+01  0.36421124681E+02  0.51100000000E-03 0. -1.
         23    2    1    0    0    0  0.12620213667E+02 -0.27236334789E+02  0.53811026907E+01  0.94503377368E+02  0.89447438991E+02 0.  0.
         11    1    3    3    0    0 -0.65979915309E+01 -0.57706275097E+02  0.19978796496E-01  0.58082252687E+02  0.51100000000E-03 0.  1.
         22    1    1    0    0    0 -0.12620213667E+02  0.27236334789E+02 -0.53811026907E+01  0.30496622632E+02  0.00000000000E+00 0.  1.
</event>
<event>
 5    1  0.1099741E-009  0.9118800E+02  0.7818608E-02  0.1130116E+00
         25   -1    0    0    0    0  0.00000000000E+00  0.00000000000E+00  0.99999998245E-14  0.12500000000E+03  0.12500000000E+03 0.  0.
        -11    1    3    3    0    0 -0.22031341257E+02 -0.11869710007E+02  0.22791363801E+02  0.33848430945E+02  0.51100000000E-03 0.  1.
         23    2    1    0    0    0  0.16818959927E+02 -0.77510010923E+01 -0.23923270283E+02  0.94746433401E+02  0.89786459726E+02 0.  0.
         11    1    3    3    0    0  0.38850301185E+02  0.41187089149E+01 -0.46714634084E+02  0.60898002456E+02  0.51100000000E-03 0. -1.
         22    1    1    0    0    0 -0.16818959927E+02  0.77510010923E+01  0.23923270283E+02  0.30253566599E+02  0.00000000000E+00 0. -1.
</event>
<event>
 5    1  0.1099741E-009  0.9118800E+02  0.7818608E-02  0.1130116E+00
         25   -1    0    0    0    0  0.00000000000E+00  0.00000000000E+00  0.99999998245E-14  0.12500000000E+03  0.12500000000E+03 0.  0.
        -11    1    3    3    0    0 -0.38446777660E+02 -0.26981667825E+02 -0.13046931652E+02  0.48748205473E+02  0.51100000000E-03 0. -1.
         23    2    1    0    0    0 -0.10674425005E+02 -0.15904318610E+02  0.22665451853E+02  0.95324868874E+02  0.90588173723E+02 0.  0.
         11    1    3    3    0    0  0.27772352655E+02  0.11077349216E+02  0.35712383505E+02  0.46576663401E+02  0.51100000000E-03 0.  1.
         22    1    1    0    0    0  0.10674425005E+02  0.15904318610E+02 -0.22665451853E+02  0.29675131126E+02  0.00000000000E+00 0. -1.
</event>
<event>
 5    1  0.1099741E-009  0.9118800E+02  0.7818608E-02  0.1130116E+00
         25   -1    0    0    0    0  0.00000000000E+00  0.00000000000E+00  0.99999998245E-14  0.12500000000E+03  0.12500000000E+03 0.  0.
        -11    1    3    3    0    0  0.31121359774E+02  0.19491111890E+02 -0.15469337744E+02  0.39846491531E+02  0.51100000000E-03 0.  1.
         23    2    1    0    0    0 -0.24381527245E+02  0.37010841593E+01 -0.11781391572E+02  0.97669466121E+02  0.93767619839E+02 0.  0.
         11    1    3    3    0    0 -0.55502887019E+02 -0.15790027730E+02  0.36879461720E+01  0.57822974590E+02  0.51100000000E-03 0. -1.
         22    1    1    0    0    0  0.24381527245E+02 -0.37010841593E+01  0.11781391572E+02  0.27330533879E+02  0.00000000000E+00 0. -1.
</event>
<event>
 5    1  0.1099741E-009  0.9118800E+02  0.7818608E-02  0.1130116E+00
         25   -1    0    0    0    0  0.00000000000E+00  0.00000000000E+00  0.99999998245E-14  0.12500000000E+03  0.12500000000E+03 0.  0.
        -11    1    3    3    0    0 -0.17120821521E+02  0.20177352851E+02 -0.32053904819E+02  0.41565621757E+02  0.51100000000E-03 0. -1.
         23    2    1    0    0    0 -0.21806203831E+02 -0.73087908874E+00  0.18449768169E+02  0.96426609315E+02  0.92095886600E+02 0.  0.
         11    1    3    3    0    0 -0.46853823097E+01 -0.20908231939E+02  0.50503672988E+02  0.54860987558E+02  0.51100000000E-03 0.  1.
         22    1    1    0    0    0  0.21806203831E+02  0.73087908874E+00 -0.18449768169E+02  0.28573390685E+02  0.00000000000E+00 0.  1.
</event>
<event>
 5    1  0.1099741E-009  0.9118800E+02  0.7818608E-02  0.1130116E+00
         25   -1    0    0    0    0  0.00000000000E+00  0.00000000000E+00  0.99999998245E-14  0.12500000000E+03  0.12500000000E+03 0.  0.
        -11    1    3    3    0    0  0.22334005036E+02  0.26157291866E+02  0.34802142717E+02  0.48930571596E+02  0.51100000000E-03 0.  1.
         23    2    1    0    0    0  0.28334099595E+02  0.29690197800E+01 -0.56632024961E+01  0.95953345446E+02  0.91451278621E+02 0.  0.
         11    1    3    3    0    0  0.60000945590E+01 -0.23188272086E+02 -0.40465345213E+02  0.47022773850E+02  0.51100000000E-03 0. -1.
         22    1    1    0    0    0 -0.28334099595E+02 -0.29690197800E+01  0.56632024961E+01  0.29046654554E+02  0.00000000000E+00 0. -1.
</event>
<event>
 5    1  0.1099741E-009  0.9118800E+02  0.7818608E-02  0.1130116E+00
         25   -1    0    0    0    0  0.00000000000E+00  0.00000000000E+00  0.99999998245E-14  0.12500000000E+03  0.12500000000E+03 0.  0.
        -11    1    3    3    0    0  0.27817449550E+02  0.28362562614E+02  0.13166306903E+02  0.41852085913E+02  0.51100000000E-03 0.  1.
         23    2    1    0    0    0  0.35973874517E+02  0.27010922687E+02 -0.19807583784E+02  0.75846668806E+02  0.57763891848E+02 0.  0.
         11    1    3    3    0    0  0.81564249667E+01 -0.13516399275E+01 -0.32973890687E+02  0.33994582893E+02  0.51100000000E-03 0. -1.
         22    1    1    0    0    0 -0.35973874517E+02 -0.27010922687E+02  0.19807583784E+02  0.49153331194E+02  0.00000000000E+00 0. -1.
</event>
<event>
 5    1  0.1099741E-009  0.9118800E+02  0.7818608E-02  0.1130116E+00
         25   -1    0    0    0    0  0.00000000000E+00  0.00000000000E+00  0.99999998245E-14  0.12500000000E+03  0.12500000000E+03 0.  0.
        -11    1    3    3    0    0  0.11799568501E+01 -0.35033456078E+02 -0.10335330122E+02  0.36545237609E+02  0.51100000000E-03 0. -1.
         23    2    1    0    0    0 -0.25172594496E+02  0.10950816945E+02  0.13204669524E+02  0.94537839823E+02  0.89495586235E+02 0.  0.
         11    1    3    3    0    0 -0.26352551346E+02  0.45984273023E+02  0.23539999646E+02  0.57992602213E+02  0.51100000000E-03 0.  1.
         22    1    1    0    0    0  0.25172594496E+02 -0.10950816945E+02 -0.13204669524E+02  0.30462160177E+02  0.00000000000E+00 0.  1.
</event>
<event>
 5    1  0.1099741E-009  0.9118800E+02  0.7818608E-02  0.1130116E+00
         25   -1    0    0    0    0  0.00000000000E+00  0.00000000000E+00  0.99999998245E-14  0.12500000000E+03  0.12500000000E+03 0.  0.
        -11    1    3    3    0    0 -0.30585584351E+02 -0.40474693130E+02 -0.65190263317E+00  0.50735625860E+02  0.51100000000E-03 0.  1.
         23    2    1    0    0    0 -0.11260297110E+02 -0.92714412493E+01  0.25375924272E+02  0.95730708131E+02  0.91146459244E+02 0.  0.
         11    1    3    3    0    0  0.19325287241E+02  0.31203251881E+02  0.26027826906E+02  0.44995082271E+02  0.51100000000E-03 0. -1.
         22    1    1    0    0    0  0.11260297110E+02  0.92714412493E+01 -0.25375924272E+02  0.29269291869E+02  0.00000000000E+00 0.  1.
</event>
<event>
 5    1  0.1099741E-009  0.9118800E+02  0.7818608E-02  0.1130116E+00
         25   -1    0    0    0    0  0.00000000000E+00  0.00000000000E+00  0.99999998245E-14  0.12500000000E+03  0.12500000000E+03 0.  0.
        -11    1    3    3    0    0 -0.12851032977E+02 -0.14243459489E+02  0.54238066509E+02  0.57530800844E+02  0.51100000000E-03 0.  1.
         23    2    1    0    0    0 -0.11483643208E+02 -0.20567689313E+02  0.15509144075E+02  0.96796499243E+02  0.92596570189E+02 0.  0.
         11    1    3    3    0    0  0.13673897696E+01 -0.63242298241E+01 -0.38728922434E+02  0.39265698400E+02  0.51100000000E-03 0. -1.
         22    1    1    0    0    0  0.11483643208E+02  0.20567689313E+02 -0.15509144075E+02  0.28203500757E+02  0.00000000000E+00 0.  1.
</event>
<event>
 5    1  0.1099741E-009  0.9118800E+02  0.7818608E-02  0.1130116E+00
         25   -1    0    0    0    0  0.00000000000E+00  0.00000000000E+00  0.99999998245E-14  0.12500000000E+03  0.12500000000E+03 0.  0.
        -11    1    3    3    0    0  0.39449216786E+02  0.22361998068E+01 -0.17605197331E+01  0.39551747428E+02  0.51100000000E-03 0. -1.
         23    2    1    0    0    0 -0.74769236729E+01 -0.26268550281E+02 -0.11591358870E+02  0.95330137817E+02  0.90595443894E+02 0.  0.
         11    1    3    3    0    0 -0.46926140459E+02 -0.28504750088E+02 -0.98308391369E+01  0.55778390389E+02  0.51100000000E-03 0.  1.
         22    1    1    0    0    0  0.74769236729E+01  0.26268550281E+02  0.11591358870E+02  0.29669862183E+02  0.00000000000E+00 0. -1.
</event>
<event>
 5    1  0.1099741E-009  0.9118800E+02  0.7818608E-02  0.1130116E+00
         25   -1    0    0    0    0  0.00000000000E+00  0.00000000000E+00  0.99999998245E-14  0.12500000000E+03  0.12500000000E+03 0.  0.
        -11    1    3    3    0    0  0.34703275538E+02  0.14121160225E+02 -0.14821241295E+02  0.40291360028E+02  0.51100000000E-03 0.  1.
         23    2    1    0    0    0  0.38643254241E+01 -0.29319325131E+02 -0.64141840631E+00  0.95420154587E+02  0.90719560441E+02 0.  0.
         11    1    3    3    0    0 -0.30838950113E+02 -0.43440485356E+02  0.14179822889E+02  0.55128794558E+02  0.51100000000E-03 0. -1.
         22    1    1    0    0    0 -0.38643254241E+01  0.29319325131E+02  0.64141840631E+00  0.29579845413E+02  0.00000000000E+00 0.  1.
</event>
<event>
 5    1  0.1099741E-009  0.9118800E+02  0.7818608E-02  0.1130116E+00
         25   -1    0    0    0    0  0.00000000000E+00  0.00000000000E+00  0.99999998245E-14  0.12500000000E+03  0.12500000000E+03 0.  0.
        -11    1    3    3    0    0  0.11443453439E+02 -0.72504289406E+01 -0.30953677459E+02  0.33788333711E+02  0.51100000000E-03 0. -1.
         23    2    1    0    0    0 -0.66312801175E+00  0.21799553841E+02  0.21124324177E+02  0.94637237306E+02  0.89634308870E+02 0.  0.
         11    1    3    3    0    0 -0.12106581451E+02  0.29049982782E+02  0.52078001637E+02  0.60848903596E+02  0.51100000000E-03 0.  1.
         22    1    1    0    0    0  0.66312801175E+00 -0.21799553841E+02 -0.21124324177E+02  0.30362762694E+02  0.00000000000E+00 0.  1.
</event>
<event>
 5    1  0.1099741E-009  0.9118800E+02  0.7818608E-02  0.1130116E+00
         25   -1    0    0    0    0  0.00000000000E+00  0.00000000000E+00  0.99999998245E-14  0.12500000000E+03  0.12500000000E+03 0.  0.
        -11    1    3    3    0    0 -0.34431770315E+02  0.37622478277E+02 -0.27126397453E+02  0.57765379924E+02  0.51100000000E-03 0. -1.
         23    2    1    0    0    0 -0.69071123502E+01  0.27861559124E+02 -0.21129187112E+01  0.96217381924E+02  0.91811467045E+02 0.  0.
         11    1    3    3    0    0  0.27524657965E+02 -0.97609191525E+01  0.25013478742E+02  0.38452002000E+02  0.51100000000E-03 0.  1.
         22    1    1    0    0    0  0.69071123502E+01 -0.27861559124E+02  0.21129187112E+01  0.28782618076E+02  0.00000000000E+00 0. -1.
</event>
<event>
 5    1  0.1099741E-009  0.9118800E+02  0.7818608E-02  0.1130116E+00
         25   -1    0    0    0    0  0.00000000000E+00  0.00000000000E+00  0.99999998245E-14  0.12500000000E+03  0.12500000000E+03 0.  0.
        -11    1    3    3    0    0 -0.30729695301E+02  0.29049320407E+02  0.22392491911E+02  0.47849774123E+02  0.51100000000E-03 0.  1.
         23    2    1    0    0    0 -0.14741128970E+02  0.13838864046E+02 -0.20575066518E+02  0.96153017427E+02  0.91723793841E+02 0.  0.
         11    1    3    3    0    0  0.15988566331E+02 -0.15210456362E+02 -0.42967558429E+02  0.48303243304E+02  0.51100000000E-03 0. -1.
         22    1    1    0    0    0  0.14741128970E+02 -0.13838864046E+02  0.20575066518E+02  0.28846982573E+02  0.00000000000E+00 0.  1.
</event>
<event>
 5    1  0.1099741E-009  0.9118800E+02  0.7818608E-02  0.1130116E+00
         25   -1    0    0    0    0  0.00000000000E+00  0.00000000000E+00  0.99999998245E-14  0.12500000000E+03  0.12500000000E+03 0.  0.
        -11    1    3    3    0    0 -0.48431007334E+00 -0.40107279814E+02 -0.37184951991E+02  0.54695055582E+02  0.51100000000E-03 0.  1.
         23    2    1    0    0    0  0.12143905335E+02 -0.30618181392E+01 -0.27151369666E+02  0.95099397300E+02  0.90276515910E+02 0.  0.
         11    1    3    3    0    0  0.12628215408E+02  0.37045461675E+02  0.10033582325E+02  0.40404341717E+02  0.51100000000E-03 0. -1.
         22    1    1    0    0    0 -0.12143905335E+02  0.30618181392E+01  0.27151369666E+02  0.29900602700E+02  0.00000000000E+00 0.  1.
</event>
<event>
 5    1  0.1099741E-009  0.9118800E+02  0.7818608E-02  0.1130116E+00
         25   -1    0    0    0    0  0.00000000000E+00  0.00000000000E+00  0.99999998245E-14  0.12500000000E+03  0.12500000000E+03 0.  0.
        -11    1    3    3    0    0 -0.41300197394E+02 -0.98449100092E+01 -0.18608418559E+02  0.46356248763E+02  0.51100000000E-03 0. -1.
         23    2    1    0    0    0  0.46435072554E+01 -0.26137999602E+02 -0.13047785555E+02  0.95419569126E+02  0.90718753747E+02 0.  0.
         11    1    3    3    0    0  0.45943704649E+02 -0.16293089593E+02  0.55606330043E+01  0.49063320363E+02  0.51100000000E-03 0.  1.
         22    1    1    0    0    0 -0.46435072554E+01  0.26137999602E+02  0.13047785555E+02  0.29580430874E+02  0.00000000000E+00 0.  1.
</event>
<event>
 5    1  0.1099741E-009  0.9118800E+02  0.7818608E-02  0.1130116E+00
         25   -1    0    0    0    0  0.00000000000E+00  0.00000000000E+00  0.99999998245E-14  0.12500000000E+03  0.12500000000E+03 0.  0.
        -11    1    3    3    0    0 -0.39492884957E+02 -0.21162800867E+01  0.43833381950E+02  0.59038394093E+02  0.51100000000E-03 0. -1.
         23    2    1    0    0    0 -0.29522201734E+02  0.40053387208E+01  0.12128500772E+02  0.92833190017E+02  0.87082130798E+02 0.  0.
         11    1    3    3    0    0  0.99706832234E+01  0.61216188075E+01 -0.31704881178E+02  0.33794795924E+02  0.51100000000E-03 0.  1.
         22    1    1    0    0    0  0.29522201734E+02 -0.40053387208E+01 -0.12128500772E+02  0.32166809983E+02  0.00000000000E+00 0. -1.
</event>
<event>
 5    1  0.1099741E-009  0.9118800E+02  0.7818608E-02  0.1130116E+00
         25   -1    0    0    0    0  0.00000000000E+00  0.00000000000E+00  0.99999998245E-14  0.12500000000E+03  0.12500000000E+03 0.  0.
        -11    1    3    3    0    0  0.26100715287E+01 -0.69259685365E+01 -0.60790161063E+02  0.61239082258E+02  0.51100000000E-03 0. -1.
         23    2    1    0    0    0  0.61676094733E+00  0.55624393562E+01 -0.29235606192E+02  0.95233545809E+02  0.90462071899E+02 0.  0.
         11    1    3    3    0    0 -0.19933105814E+01  0.12488407893E+02  0.31554554870E+02  0.33994463551E+02  0.51100000000E-03 0.  1.
         22    1    1    0    0    0 -0.61676094733E+00 -0.55624393562E+01  0.29235606192E+02  0.29766454191E+02  0.00000000000E+00 0. -1.
</event>
<event>
 5    1  0.1099741E-009  0.9118800E+02  0.7818608E-02  0.1130116E+00
         25   -1    0    0    0    0  0.00000000000E+00  0.00000000000E+00  0.99999998245E-14  0.12500000000E+03  0.12500000000E+03 0.  0.
        -11    1    3    3    0    0  0.35997577995E+02 -0.37273552058E+02  0.56648909345E+01  0.52127097503E+02  0.51100000000E-03 0. -1.
         23    2    1    0    0    0 -0.26606920907E+01 -0.20076206181E+02  0.19741555633E+02  0.96718162085E+02  0.92490759113E+02 0.  0.
         11    1    3    3    0    0 -0.38658270086E+02  0.17197345877E+02  0.14076664699E+02  0.44591064582E+02  0.51100000000E-03 0.  1.
         22    1    1    0    0    0  0.26606920907E+01  0.20076206181E+02 -0.19741555633E+02  0.28281837915E+02  0.00000000000E+00 0. -1.
</event>
<event>
 5    1  0.1099741E-009  0.9118800E+02  0.7818608E-02  0.1130116E+00
         25   -1    0    0    0    0  0.00000000000E+00  0.00000000000E+00  0.99999998245E-14  0.12500000000E+03  0.12500000000E+03 0.  0.
        -11    1    3    3    0    0 -0.93619393579E+01  0.18569197415E+02  0.14092415221E+02  0.25120851263E+02  0.51100000000E-03 0.  1.
         23    2    1    0    0    0 -0.19600640886E+02 -0.32311849535E+02  0.26940496341E+02  0.78588459554E+02  0.63420145762E+02 0.  0.
         11    1    3    3    0    0 -0.10238701528E+02 -0.50881046949E+02  0.12848081120E+02  0.53467608291E+02  0.51100000000E-03 0. -1.
         22    1    1    0    0    0  0.19600640886E+02  0.32311849535E+02 -0.26940496341E+02  0.46411540446E+02  0.00000000000E+00 0. -1.
</event>
<event>
 5    1  0.1099741E-009  0.9118800E+02  0.7818608E-02  0.1130116E+00
         25   -1    0    0    0    0  0.00000000000E+00  0.00000000000E+00  0.99999998245E-14  0.12500000000E+03  0.12500000000E+03 0.  0.
        -11    1    3    3    0    0 -0.36578622941E+01 -0.31384535795E+02  0.14323790068E+02  0.34692074106E+02  0.51100000000E-03 0. -1.
         23    2    1    0    0    0 -0.27901437744E+01  0.28819306095E+02  0.44977559271E+01  0.95698684084E+02  0.91102530266E+02 0.  0.
         11    1    3    3    0    0  0.86771851972E+00  0.60203841890E+02 -0.98260341413E+01  0.61006609977E+02  0.51100000000E-03 0.  1.
         22    1    1    0    0    0  0.27901437744E+01 -0.28819306095E+02 -0.44977559271E+01  0.29301315916E+02  0.00000000000E+00 0.  1.
</event>
<event>
 5    1  0.1099741E-009  0.9118800E+02  0.7818608E-02  0.1130116E+00
         25   -1    0    0    0    0  0.00000000000E+00  0.00000000000E+00  0.99999998245E-14  0.12500000000E+03  0.12500000000E+03 0.  0.
        -11    1    3    3    0    0  0.30453503717E+02  0.27895722416E+02  0.23023309044E+02  0.47282766177E+02  0.51100000000E-03 0. -1.
         23    2    1    0    0    0 -0.14583820983E+02  0.25184471299E+02  0.95668269281E+01  0.94365548698E+02  0.89254619906E+02 0.  0.
         11    1    3    3    0    0 -0.45037324700E+02 -0.27112511168E+01 -0.13456482116E+02  0.47082782521E+02  0.51100000000E-03 0.  1.
         22    1    1    0    0    0  0.14583820983E+02 -0.25184471299E+02 -0.95668269281E+01  0.30634451302E+02  0.00000000000E+00 0. -1.
</event>
<event>
 5    1  0.1099741E-009  0.9118800E+02  0.7818608E-02  0.1130116E+00
         25   -1    0    0    0    0  0.00000000000E+00  0.00000000000E+00  0.99999998245E-14  0.12500000000E+03  0.12500000000E+03 0.  0.
        -11    1    3    3    0    0  0.26646614943E+02 -0.22187903888E+02  0.60149647875E+01  0.35192683451E+02  0.51100000000E-03 0. -1.
         23    2    1    0    0    0 -0.14643768652E+02  0.10677755052E+02 -0.23237044826E+02  0.95531123783E+02  0.90872333225E+02 0.  0.
         11    1    3    3    0    0 -0.41290383594E+02  0.32865658940E+02 -0.29252009613E+02  0.60338440331E+02  0.51100000000E-03 0.  1.
         22    1    1    0    0    0  0.14643768652E+02 -0.10677755052E+02  0.23237044826E+02  0.29468876217E+02  0.00000000000E+00 0.  1.
</event>
<event>
 5    1  0.1099741E-009  0.9118800E+02  0.7818608E-02  0.1130116E+00
         25   -1    0    0    0    0  0.00000000000E+00  0.00000000000E+00  0.99999998245E-14  0.12500000000E+03  0.12500000000E+03 0.  0.
        -11    1    3    3    0    0  0.93797879265E+01 -0.33660580701E+01 -0.54063856334E+02  0.54974642613E+02  0.51100000000E-03 0. -1.
         23    2    1    0    0    0  0.12717846360E+02  0.16984740296E+02 -0.15443016046E+02  0.98756681545E+02  0.95205936717E+02 0.  0.
         11    1    3    3    0    0  0.33380584337E+01  0.20350798366E+02  0.38620840288E+02  0.43782038932E+02  0.51100000000E-03 0.  1.
         22    1    1    0    0    0 -0.12717846360E+02 -0.16984740296E+02  0.15443016046E+02  0.26243318455E+02  0.00000000000E+00 0.  1.
</event>
<event>
 5    1  0.1099741E-009  0.9118800E+02  0.7818608E-02  0.1130116E+00
         25   -1    0    0    0    0  0.00000000000E+00  0.00000000000E+00  0.99999998245E-14  0.12500000000E+03  0.12500000000E+03 0.  0.
        -11    1    3    3    0    0  0.10492294712E+02 -0.39314770002E+02 -0.39085873115E+02  0.56422024654E+02  0.51100000000E-03 0.  1.
         23    2    1    0    0    0 -0.32559541368E+01 -0.50187789732E+01 -0.29915719065E+02  0.94491974386E+02  0.89431502260E+02 0.  0.
         11    1    3    3    0    0 -0.13748248849E+02  0.34295991028E+02  0.91701540504E+01  0.38069949732E+02  0.51100000000E-03 0. -1.
         22    1    1    0    0    0  0.32559541368E+01  0.50187789732E+01  0.29915719065E+02  0.30508025614E+02  0.00000000000E+00 0.  1.
</event>
<event>
 5    1  0.1099741E-009  0.9118800E+02  0.7818608E-02  0.1130116E+00
         25   -1    0    0    0    0  0.00000000000E+00  0.00000000000E+00  0.99999998245E-14  0.12500000000E+03  0.12500000000E+03 0.  0.
        -11    1    3    3    0    0 -0.61085477160E+02 -0.15428989265E+01  0.49209238753E+01  0.61302785818E+02  0.51100000000E-03 0. -1.
         23    2    1    0    0    0 -0.29546833542E+02 -0.40394173349E+01 -0.56269706452E+01  0.94652099522E+02  0.89655032656E+02 0.  0.
         11    1    3    3    0    0  0.31538643618E+02 -0.24965184084E+01 -0.10547894521E+02  0.33349313704E+02  0.51100000000E-03 0.  1.
         22    1    1    0    0    0  0.29546833542E+02  0.40394173349E+01  0.56269706452E+01  0.30347900478E+02  0.00000000000E+00 0. -1.
</event>
<event>
 5    1  0.1099741E-009  0.9118800E+02  0.7818608E-02  0.1130116E+00
         25   -1    0    0    0    0  0.00000000000E+00  0.00000000000E+00  0.99999998245E-14  0.12500000000E+03  0.12500000000E+03 0.  0.
        -11    1    3    3    0    0  0.45936421711E+02 -0.57142949128E+01  0.34519994727E+02  0.57744593186E+02  0.51100000000E-03 0.  1.
         23    2    1    0    0    0  0.30702996265E+02  0.67338841505E+01  0.50699396760E+01  0.93160975773E+02  0.87551378877E+02 0.  0.
         11    1    3    3    0    0 -0.15233425446E+02  0.12448179063E+02 -0.29450055051E+02  0.35416382587E+02  0.51100000000E-03 0. -1.
         22    1    1    0    0    0 -0.30702996265E+02 -0.67338841505E+01 -0.50699396760E+01  0.31839024227E+02  0.00000000000E+00 0.  1.
</event>
<event>
 5    1  0.1099741E-009  0.9118800E+02  0.7818608E-02  0.1130116E+00
         25   -1    0    0    0    0  0.00000000000E+00  0.00000000000E+00  0.99999998245E-14  0.12500000000E+03  0.12500000000E+03 0.  0.
        -11    1    3    3    0    0 -0.42679928595E+02 -0.12737753319E+02 -0.31854608740E+01  0.44653934045E+02  0.51100000000E-03 0. -1.
         23    2    1    0    0    0 -0.76768408442E+01  0.20703147999E+02 -0.19298054180E+02  0.95674769949E+02  0.91069712239E+02 0.  0.
         11    1    3    3    0    0  0.35003087751E+02  0.33440901318E+02 -0.16112593306E+02  0.51020835904E+02  0.51100000000E-03 0.  1.
         22    1    1    0    0    0  0.76768408442E+01 -0.20703147999E+02  0.19298054180E+02  0.29325230051E+02  0.00000000000E+00 0.  1.
</event>
<event>
 5    1  0.1099741E-009  0.9118800E+02  0.7818608E-02  0.1130116E+00
         25   -1    0    0    0    0  0.00000000000E+00  0.00000000000E+00  0.99999998245E-14  0.12500000000E+03  0.12500000000E+03 0.  0.
        -11    1    3    3    0    0  0.19859032750E+02 -0.36672572708E+02 -0.20436231248E+01  0.41754462833E+02  0.51100000000E-03 0. -1.
         23    2    1    0    0    0  0.32789604775E+01  0.77978348487E+01  0.26530877854E+02  0.97153181693E+02  0.93076825382E+02 0.  0.
         11    1    3    3    0    0 -0.16580072273E+02  0.44470407556E+02  0.28574500979E+02  0.55398718859E+02  0.51100000000E-03 0.  1.
         22    1    1    0    0    0 -0.32789604775E+01 -0.77978348487E+01 -0.26530877854E+02  0.27846818307E+02  0.00000000000E+00 0.  1.
</event>
<event>
 5    1  0.1099741E-009  0.9118800E+02  0.7818608E-02  0.1130116E+00
         25   -1    0    0    0    0  0.00000000000E+00  0.00000000000E+00  0.99999998245E-14  0.12500000000E+03  0.12500000000E+03 0.  0.
        -11    1    3    3    0    0  0.28054104884E+02  0.39486375093E+02 -0.38709765983E+02  0.62005262692E+02  0.51100000000E-03 0.  1.
         23    2    1    0    0    0  0.12439277805E+02  0.21999664219E+02 -0.13829003310E+02  0.96190935617E+02  0.91775453713E+02 0.  0.
         11    1    3    3    0    0 -0.15614827079E+02 -0.17486710874E+02  0.24880762672E+02  0.34185672925E+02  0.51100000000E-03 0. -1.
         22    1    1    0    0    0 -0.12439277805E+02 -0.21999664219E+02  0.13829003310E+02  0.28809064383E+02  0.00000000000E+00 0.  1.
</event>
<event>
 5    1  0.1099741E-009  0.9118800E+02  0.7818608E-02  0.1130116E+00
         25   -1    0    0    0    0  0.00000000000E+00  0.00000000000E+00  0.99999998245E-14  0.12500000000E+03  0.12500000000E+03 0.  0.
        -11    1    3    3    0    0 -0.65099690324E+01 -0.90757897681E+01  0.56203377171E+02  0.57302436793E+02  0.51100000000E-03 0. -1.
         23    2    1    0    0    0  0.52245448670E+01 -0.19828286378E+02  0.22601797402E+02  0.94482823598E+02  0.89418711126E+02 0.  0.
         11    1    3    3    0    0  0.11734513899E+02 -0.10752496610E+02 -0.33601579768E+02  0.37180386805E+02  0.51100000000E-03 0.  1.
         22    1    1    0    0    0 -0.52245448670E+01  0.19828286378E+02 -0.22601797402E+02  0.30517176402E+02  0.00000000000E+00 0. -1.
</event>
<event>
 5    1  0.1099741E-009  0.9118800E+02  0.7818608E-02  0.1130116E+00
         25   -1    0    0    0    0  0.00000000000E+00  0.00000000000E+00  0.99999998245E-14  0.12500000000E+03  0.12500000000E+03 0.  0.
        -11    1    3    3    0    0  0.37018249976E+02  0.27066863213E+02  0.13569281693E+01  0.45878177490E+02  0.51100000000E-03 0. -1.
         23    2    1    0    0    0 -0.14366444364E+02  0.23183676827E+02 -0.28313328179E+01  0.97579313641E+02  0.93647362003E+02 0.  0.
         11    1    3    3    0    0 -0.51384694340E+02 -0.38831863863E+01 -0.41882609872E+01  0.51701136151E+02  0.51100000000E-03 0.  1.
         22    1    1    0    0    0  0.14366444364E+02 -0.23183676827E+02  0.28313328179E+01  0.27420686359E+02  0.00000000000E+00 0.  1.
</event>
<event>
 5    1  0.1099741E-009  0.9118800E+02  0.7818608E-02  0.1130116E+00
         25   -1    0    0    0    0  0.00000000000E+00  0.00000000000E+00  0.99999998245E-14  0.12500000000E+03  0.12500000000E+03 0.  0.
        -11    1    3    3    0    0  0.32769834423E+02  0.77894544062E+01  0.25732562403E+02  0.42387526657E+02  0.51100000000E-03 0. -1.
         23    2    1    0    0    0  0.12249570450E+02 -0.13194055242E+02 -0.20854767691E+02  0.97449021698E+02  0.93473287225E+02 0.  0.
         11    1    3    3    0    0 -0.20520263972E+02 -0.20983509649E+02 -0.46587330094E+02  0.55061495041E+02  0.51100000000E-03 0.  1.
         22    1    1    0    0    0 -0.12249570450E+02  0.13194055242E+02  0.20854767691E+02  0.27550978302E+02  0.00000000000E+00 0.  1.
</event>
<event>
 5    1  0.1099741E-009  0.9118800E+02  0.7818608E-02  0.1130116E+00
         25   -1    0    0    0    0  0.00000000000E+00  0.00000000000E+00  0.99999998245E-14  0.12500000000E+03  0.12500000000E+03 0.  0.
        -11    1    3    3    0    0  0.10762502422E+02  0.27945028952E+02  0.51680216207E+02  0.59729396857E+02  0.51100000000E-03 0.  1.
         23    2    1    0    0    0  0.10463537812E+02  0.21751059080E+02  0.15777202305E+02  0.96164010209E+02  0.91738773440E+02 0.  0.
         11    1    3    3    0    0 -0.29896460975E+00 -0.61939698718E+01 -0.35903013902E+02  0.36434613352E+02  0.51100000000E-03 0. -1.
         22    1    1    0    0    0 -0.10463537812E+02 -0.21751059080E+02 -0.15777202305E+02  0.28835989791E+02  0.00000000000E+00 0. -1.
</event>
<event>
 5    1  0.1099741E-009  0.9118800E+02  0.7818608E-02  0.1130116E+00
         25   -1    0    0    0    0  0.00000000000E+00  0.00000000000E+00  0.99999998245E-14  0.12500000000E+03  0.12500000000E+03 0.  0.
        -11    1    3    3    0    0 -0.21337537923E+02 -0.34366858818E+02  0.35519864325E+02  0.53833375071E+02  0.51100000000E-03 0.  1.
         23    2    1    0    0    0 -0.99981824048E+01 -0.25642536628E+02 -0.51971061270E+01  0.96990836353E+02  0.92858543431E+02 0.  0.
         11    1    3    3    0    0  0.11339355518E+02  0.87243221898E+01 -0.40716970452E+02  0.43157461281E+02  0.51100000000E-03 0. -1.
         22    1    1    0    0    0  0.99981824048E+01  0.25642536628E+02  0.51971061270E+01  0.28009163647E+02  0.00000000000E+00 0.  1.
</event>
<event>
 5    1  0.1099741E-009  0.9118800E+02  0.7818608E-02  0.1130116E+00
         25   -1    0    0    0    0  0.00000000000E+00  0.00000000000E+00  0.99999998245E-14  0.12500000000E+03  0.12500000000E+03 0.  0.
        -11    1    3    3    0    0 -0.17747764703E+01 -0.27590272307E+02  0.19201826618E+02  0.33661299785E+02  0.51100000000E-03 0.  1.
         23    2    1    0    0    0  0.78083594434E+01  0.29930203909E+02  0.81453242670E+01  0.93013535821E+02  0.87340620306E+02 0.  0.
         11    1    3    3    0    0  0.95831359137E+01  0.57520476216E+02 -0.11056502351E+02  0.59352236037E+02  0.51100000000E-03 0. -1.
         22    1    1    0    0    0 -0.78083594434E+01 -0.29930203909E+02 -0.81453242670E+01  0.31986464179E+02  0.00000000000E+00 0. -1.
</event>
<event>
 5    1  0.1099741E-009  0.9118800E+02  0.7818608E-02  0.1130116E+00
         25   -1    0    0    0    0  0.00000000000E+00  0.00000000000E+00  0.99999998245E-14  0.12500000000E+03  0.12500000000E+03 0.  0.
        -11    1    3    3    0    0  0.11973336562E+02  0.49325559483E+01 -0.39368529964E+02  0.41443600814E+02  0.51100000000E-03 0.  1.
         23    2    1    0    0    0 -0.89409084138E+01  0.28005175869E+02  0.45190586832E+01  0.95256906514E+02  0.90494345838E+02 0.  0.
         11    1    3    3    0    0 -0.20914244976E+02  0.23072619921E+02  0.43887588647E+02  0.53813305701E+02  0.51100000000E-03 0. -1.
         22    1    1    0    0    0  0.89409084138E+01 -0.28005175869E+02 -0.45190586832E+01  0.29743093486E+02  0.00000000000E+00 0.  1.
</event>
<event>
 5    1  0.1099741E-009  0.9118800E+02  0.7818608E-02  0.1130116E+00
         25   -1    0    0    0    0  0.00000000000E+00  0.00000000000E+00  0.99999998245E-14  0.12500000000E+03  0.12500000000E+03 0.  0.
        -11    1    3    3    0    0 -0.27472301438E+02 -0.40863914707E+01 -0.36637075029E+02  0.45975006346E+02  0.51100000000E-03 0. -1.
         23    2    1    0    0    0  0.18792115816E+02  0.64669652211E-01 -0.24753561635E+02  0.93921283607E+02  0.88630248232E+02 0.  0.
         11    1    3    3    0    0  0.46264417254E+02  0.41510611229E+01  0.11883513394E+02  0.47946277261E+02  0.51100000000E-03 0.  1.
         22    1    1    0    0    0 -0.18792115816E+02 -0.64669652211E-01  0.24753561635E+02  0.31078716393E+02  0.00000000000E+00 0.  1.
</event>
<event>
 5    1  0.1099741E-009  0.9118800E+02  0.7818608E-02  0.1130116E+00
         25   -1    0    0    0    0  0.00000000000E+00  0.00000000000E+00  0.99999998245E-14  0.12500000000E+03  0.12500000000E+03 0.  0.
        -11    1    3    3    0    0  0.36262735286E+02  0.24741354109E+02  0.22982119783E+02  0.49550967736E+02  0.51100000000E-03 0.  1.
         23    2    1    0    0    0 -0.23632279869E+01 -0.89893476539E+01  0.22304519631E+02  0.10083629139E+03  0.97898278064E+02 0.  0.
         11    1    3    3    0    0 -0.38625963273E+02 -0.33730701763E+02 -0.67760015197E+00  0.51285323656E+02  0.51100000000E-03 0. -1.
         22    1    1    0    0    0  0.23632279869E+01  0.89893476539E+01 -0.22304519631E+02  0.24163708609E+02  0.00000000000E+00 0. -1.
</event>
<event>
 5    1  0.1099741E-009  0.9118800E+02  0.7818608E-02  0.1130116E+00
         25   -1    0    0    0    0  0.00000000000E+00  0.00000000000E+00  0.99999998245E-14  0.12500000000E+03  0.12500000000E+03 0.  0.
        -11    1    3    3    0    0  0.26583712138E+02 -0.30464317686E+02  0.31855768836E+01  0.40557567771E+02  0.51100000000E-03 0. -1.
         23    2    1    0    0    0  0.17314863429E+02  0.23582120138E+02  0.44486181823E+01  0.95407583919E+02  0.90702238009E+02 0.  0.
         11    1    3    3    0    0 -0.92688487095E+01  0.54046437824E+02  0.12630412987E+01  0.54850016149E+02  0.51100000000E-03 0.  1.
         22    1    1    0    0    0 -0.17314863429E+02 -0.23582120138E+02 -0.44486181823E+01  0.29592416081E+02  0.00000000000E+00 0.  1.
</event>
<event>
 5    1  0.1099741E-009  0.9118800E+02  0.7818608E-02  0.1130116E+00
         25   -1    0    0    0    0  0.00000000000E+00  0.00000000000E+00  0.99999998245E-14  0.12500000000E+03  0.12500000000E+03 0.  0.
        -11    1    3    3    0    0  0.10661221049E+02  0.45669740085E+02  0.31244231579E+02  0.56352362870E+02  0.51100000000E-03 0. -1.
         23    2    1    0    0    0 -0.14870686199E+02  0.19972129369E+02  0.12683065126E+02  0.97055708981E+02  0.92945829628E+02 0.  0.
         11    1    3    3    0    0 -0.25531907248E+02 -0.25697610717E+02 -0.18561166453E+02  0.40703346111E+02  0.51100000000E-03 0.  1.
         22    1    1    0    0    0  0.14870686199E+02 -0.19972129369E+02 -0.12683065126E+02  0.27944291019E+02  0.00000000000E+00 0. -1.
</event>
<event>
 5    1  0.1099741E-009  0.9118800E+02  0.7818608E-02  0.1130116E+00
         25   -1    0    0    0    0  0.00000000000E+00  0.00000000000E+00  0.99999998245E-14  0.12500000000E+03  0.12500000000E+03 0.  0.
        -11    1    3    3    0    0  0.10522591767E+02 -0.11614938032E+01  0.33544654969E+02  0.35175529600E+02  0.51100000000E-03 0.  1.
         23    2    1    0    0    0 -0.15969322487E+01  0.14736737127E+02 -0.24388150939E+02  0.96460491946E+02  0.92141863376E+02 0.  0.
         11    1    3    3    0    0 -0.12119524015E+02  0.15898230930E+02 -0.57932805909E+02  0.61284962346E+02  0.51100000000E-03 0. -1.
         22    1    1    0    0    0  0.15969322487E+01 -0.14736737127E+02  0.24388150939E+02  0.28539508054E+02  0.00000000000E+00 0. -1.
</event>
<event>
 5    1  0.1099741E-009  0.9118800E+02  0.7818608E-02  0.1130116E+00
         25   -1    0    0    0    0  0.00000000000E+00  0.00000000000E+00  0.99999998245E-14  0.12500000000E+03  0.12500000000E+03 0.  0.
        -11    1    3    3    0    0 -0.26146235238E+02  0.23115898481E+02  0.22485582971E+01  0.34971794269E+02  0.51100000000E-03 0.  1.
         23    2    1    0    0    0  0.21270870925E+02 -0.49871006237E+01 -0.20909760176E+02  0.94758650937E+02  0.89803467273E+02 0.  0.
         11    1    3    3    0    0  0.47417106163E+02 -0.28102999104E+02 -0.23158318473E+02  0.59786856668E+02  0.51100000000E-03 0. -1.
         22    1    1    0    0    0 -0.21270870925E+02  0.49871006237E+01  0.20909760176E+02  0.30241349063E+02  0.00000000000E+00 0. -1.
</event>
<event>
 5    1  0.1099741E-009  0.9118800E+02  0.7818608E-02  0.1130116E+00
         25   -1    0    0    0    0  0.00000000000E+00  0.00000000000E+00  0.99999998245E-14  0.12500000000E+03  0.12500000000E+03 0.  0.
        -11    1    3    3    0    0 -0.35835681242E+02  0.45781159319E+01  0.15560137043E+02  0.39335391960E+02  0.51100000000E-03 0.  1.
         23    2    1    0    0    0  0.16549043842E+02 -0.16209822523E+02  0.17872671540E+02  0.95741469854E+02  0.91161216883E+02 0.  0.
         11    1    3    3    0    0  0.52384725084E+02 -0.20787938455E+02  0.23125344973E+01  0.56406077894E+02  0.51100000000E-03 0. -1.
         22    1    1    0    0    0 -0.16549043842E+02  0.16209822523E+02 -0.17872671540E+02  0.29258530146E+02  0.00000000000E+00 0. -1.
</event>
<event>
 5    1  0.1099741E-009  0.9118800E+02  0.7818608E-02  0.1130116E+00
         25   -1    0    0    0    0  0.00000000000E+00  0.00000000000E+00  0.99999998245E-14  0.12500000000E+03  0.12500000000E+03 0.  0.
        -11    1    3    3    0    0  0.24621272938E+02 -0.29219973866E+02  0.66823595743E+01  0.38790048770E+02  0.51100000000E-03 0. -1.
         23    2    1    0    0    0 -0.22874603436E+02 -0.39560928064E+01 -0.15612751507E+02  0.97024007394E+02  0.92903185352E+02 0.  0.
         11    1    3    3    0    0 -0.47495876374E+02  0.25263881059E+02 -0.22295111081E+02  0.58233958625E+02  0.51100000000E-03 0.  1.
         22    1    1    0    0    0  0.22874603436E+02  0.39560928064E+01  0.15612751507E+02  0.27975992606E+02  0.00000000000E+00 0.  1.
</event>
<event>
 5    1  0.1099741E-009  0.9118800E+02  0.7818608E-02  0.1130116E+00
         25   -1    0    0    0    0  0.00000000000E+00  0.00000000000E+00  0.99999998245E-14  0.12500000000E+03  0.12500000000E+03 0.  0.
        -11    1    3    3    0    0  0.86776595311E+01  0.35247093883E+02 -0.26849494984E+02  0.45150357510E+02  0.51100000000E-03 0.  1.
         23    2    1    0    0    0  0.12526918949E+02  0.25547269091E+02  0.18088284657E+02  0.91283940055E+02  0.84829151910E+02 0.  0.
         11    1    3    3    0    0  0.38492594177E+01 -0.96998247915E+01  0.44937779641E+02  0.46133582545E+02  0.51100000000E-03 0. -1.
         22    1    1    0    0    0 -0.12526918949E+02 -0.25547269091E+02 -0.18088284657E+02  0.33716059945E+02  0.00000000000E+00 0. -1.
</event>
<event>
 5    1  0.1099741E-009  0.9118800E+02  0.7818608E-02  0.1130116E+00
         25   -1    0    0    0    0  0.00000000000E+00  0.00000000000E+00  0.99999998245E-14  0.12500000000E+03  0.12500000000E+03 0.  0.
        -11    1    3    3    0    0  0.14702722145E+02  0.32420542240E+02 -0.46977564224E+02  0.58941947188E+02  0.51100000000E-03 0.  1.
         23    2    1    0    0    0  0.21403741624E+02  0.12491185214E+02 -0.19944641400E+02  0.93189017869E+02  0.87591406355E+02 0.  0.
         11    1    3    3    0    0  0.67010194788E+01 -0.19929357026E+02  0.27032922824E+02  0.34247070681E+02  0.51100000000E-03 0. -1.
         22    1    1    0    0    0 -0.21403741624E+02 -0.12491185214E+02  0.19944641400E+02  0.31810982131E+02  0.00000000000E+00 0.  1.
</event>
<event>
 5    1  0.1099741E-009  0.9118800E+02  0.7818608E-02  0.1130116E+00
         25   -1    0    0    0    0  0.00000000000E+00  0.00000000000E+00  0.99999998245E-14  0.12500000000E+03  0.12500000000E+03 0.  0.
        -11    1    3    3    0    0  0.28195839685E+02 -0.36999025905E+02  0.39882875877E+01  0.46688753803E+02  0.51100000000E-03 0.  1.
         23    2    1    0    0    0  0.83065019920E+01  0.15288361793E+01  0.27653564204E+02  0.96085385553E+02  0.91631579645E+02 0.  0.
         11    1    3    3    0    0 -0.19889337693E+02  0.38527862084E+02  0.23665276617E+02  0.49396631750E+02  0.51100000000E-03 0. -1.
         22    1    1    0    0    0 -0.83065019920E+01 -0.15288361793E+01 -0.27653564204E+02  0.28914614447E+02  0.00000000000E+00 0. -1.
</event>
<event>
 5    1  0.1099741E-009  0.9118800E+02  0.7818608E-02  0.1130116E+00
         25   -1    0    0    0    0  0.00000000000E+00  0.00000000000E+00  0.99999998245E-14  0.12500000000E+03  0.12500000000E+03 0.  0.
        -11    1    3    3    0    0  0.53601253004E+02 -0.27471893605E+02 -0.12353103775E+02  0.61484944783E+02  0.51100000000E-03 0. -1.
         23    2    1    0    0    0  0.20389758085E+02 -0.18705972400E+02 -0.85226987635E+01  0.96046726741E+02  0.91578827712E+02 0.  0.
         11    1    3    3    0    0 -0.33211494919E+02  0.87659212044E+01  0.38304050118E+01  0.34561781958E+02  0.51100000000E-03 0.  1.
         22    1    1    0    0    0 -0.20389758085E+02  0.18705972400E+02  0.85226987635E+01  0.28953273259E+02  0.00000000000E+00 0. -1.
</event>
<event>
 5    1  0.1099741E-009  0.9118800E+02  0.7818608E-02  0.1130116E+00
         25   -1    0    0    0    0  0.00000000000E+00  0.00000000000E+00  0.99999998245E-14  0.12500000000E+03  0.12500000000E+03 0.  0.
        -11    1    3    3    0    0 -0.86646679120E+01  0.31686575981E+02 -0.10131888508E+02  0.34376892419E+02  0.51100000000E-03 0. -1.
         23    2    1    0    0    0 -0.21541298464E+01 -0.14014708776E+02  0.27582045324E+02  0.93986751835E+02  0.88722533546E+02 0.  0.
         11    1    3    3    0    0  0.65105380657E+01 -0.45701284756E+02  0.37713933832E+02  0.59609859416E+02  0.51100000000E-03 0.  1.
         22    1    1    0    0    0  0.21541298464E+01  0.14014708776E+02 -0.27582045324E+02  0.31013248165E+02  0.00000000000E+00 0.  1.
</event>
<event>
 5    1  0.1099741E-009  0.9118800E+02  0.7818608E-02  0.1130116E+00
         25   -1    0    0    0    0  0.00000000000E+00  0.00000000000E+00  0.99999998245E-14  0.12500000000E+03  0.12500000000E+03 0.  0.
        -11    1    3    3    0    0  0.35223468270E+02  0.25566284035E+02  0.14665856498E+02  0.45928367524E+02  0.51100000000E-03 0. -1.
         23    2    1    0    0    0 -0.12660881104E+02  0.25616863976E+02 -0.12758486734E+01  0.96396688651E+02  0.92055266893E+02 0.  0.
         11    1    3    3    0    0 -0.47884349374E+02  0.50579940319E-01 -0.15941705171E+02  0.50468321127E+02  0.51100000000E-03 0.  1.
         22    1    1    0    0    0  0.12660881104E+02 -0.25616863976E+02  0.12758486734E+01  0.28603311349E+02  0.00000000000E+00 0.  1.
</event>
<event>
 5    1  0.1099741E-009  0.9118800E+02  0.7818608E-02  0.1130116E+00
         25   -1    0    0    0    0  0.00000000000E+00  0.00000000000E+00  0.99999998245E-14  0.12500000000E+03  0.12500000000E+03 0.  0.
        -11    1    3    3    0    0  0.32532634732E+02 -0.36040277903E+01 -0.12819489222E+02  0.35152533950E+02  0.51100000000E-03 0.  1.
         23    2    1    0    0    0 -0.15898645956E+02 -0.91939520788E+01  0.22940041395E+02  0.95613928516E+02  0.90986164492E+02 0.  0.
         11    1    3    3    0    0 -0.48431280688E+02 -0.55899242885E+01  0.35759530617E+02  0.60461394566E+02  0.51100000000E-03 0. -1.
         22    1    1    0    0    0  0.15898645956E+02  0.91939520788E+01 -0.22940041395E+02  0.29386071484E+02  0.00000000000E+00 0. -1.
</event>
<event>
 5    1  0.1099741E-009  0.9118800E+02  0.7818608E-02  0.1130116E+00
         25   -1    0    0    0    0  0.00000000000E+00  0.00000000000E+00  0.99999998245E-14  0.12500000000E+03  0.12500000000E+03 0.  0.
        -11    1    3    3    0    0 -0.54385191881E+02 -0.56348434512E+01 -0.19977683403E+02  0.58211754750E+02  0.51100000000E-03 0.  1.
         23    2    1    0    0    0 -0.20614792029E+02 -0.18132533320E+02 -0.56280678611E+01  0.96974412355E+02  0.92836431904E+02 0.  0.
         11    1    3    3    0    0  0.33770399851E+02 -0.12497689869E+02  0.14349615542E+02  0.38762657605E+02  0.51100000000E-03 0. -1.
         22    1    1    0    0    0  0.20614792029E+02  0.18132533320E+02  0.56280678611E+01  0.28025587645E+02  0.00000000000E+00 0.  1.
</event>
<event>
 5    1  0.1099741E-009  0.9118800E+02  0.7818608E-02  0.1130116E+00
         25   -1    0    0    0    0  0.00000000000E+00  0.00000000000E+00  0.99999998245E-14  0.12500000000E+03  0.12500000000E+03 0.  0.
        -11    1    3    3    0    0  0.29110836180E+02 -0.22984181565E+02 -0.66106727420E+01  0.37675116187E+02  0.51100000000E-03 0.  1.
         23    2    1    0    0    0 -0.70010352087E+01  0.54724131573E+01  0.28257594972E+02  0.95378158846E+02  0.90661677193E+02 0.  0.
         11    1    3    3    0    0 -0.36111871389E+02  0.28456594723E+02  0.34868267714E+02  0.57703042659E+02  0.51100000000E-03 0. -1.
         22    1    1    0    0    0  0.70010352087E+01 -0.54724131573E+01 -0.28257594972E+02  0.29621841154E+02  0.00000000000E+00 0. -1.
</event>
<event>
 5    1  0.1099741E-009  0.9118800E+02  0.7818608E-02  0.1130116E+00
         25   -1    0    0    0    0  0.00000000000E+00  0.00000000000E+00  0.99999998245E-14  0.12500000000E+03  0.12500000000E+03 0.  0.
        -11    1    3    3    0    0  0.11981817064E+02 -0.29279666103E+02 -0.53336409039E+02  0.62013186635E+02  0.51100000000E-03 0. -1.
         23    2    1    0    0    0  0.10757139509E+02 -0.11820357966E+02 -0.26549274599E+02  0.94011277945E+02  0.88757081330E+02 0.  0.
         11    1    3    3    0    0 -0.12246775543E+01  0.17459308136E+02  0.26787134439E+02  0.31998091310E+02  0.51100000000E-03 0.  1.
         22    1    1    0    0    0 -0.10757139509E+02  0.11820357966E+02  0.26549274599E+02  0.30988722055E+02  0.00000000000E+00 0. -1.
</event>
<event>
 5    1  0.1099741E-009  0.9118800E+02  0.7818608E-02  0.1130116E+00
         25   -1    0    0    0    0  0.00000000000E+00  0.00000000000E+00  0.99999998245E-14  0.12500000000E+03  0.12500000000E+03 0.  0.
        -11    1    3    3    0    0 -0.29968012226E+02  0.45747149499E+01  0.19628009579E+02  0.36114658159E+02  0.51100000000E-03 0.  1.
         23    2    1    0    0    0  0.98041789786E+01 -0.17246848611E+02 -0.20348826919E+02  0.96580808079E+02  0.92304940387E+02 0.  0.
         11    1    3    3    0    0  0.39772191205E+02 -0.21821563561E+02 -0.39976836499E+02  0.60466149920E+02  0.51100000000E-03 0. -1.
         22    1    1    0    0    0 -0.98041789786E+01  0.17246848611E+02  0.20348826919E+02  0.28419191921E+02  0.00000000000E+00 0. -1.
</event>
<event>
 5    1  0.1099741E-009  0.9118800E+02  0.7818608E-02  0.1130116E+00
         25   -1    0    0    0    0  0.00000000000E+00  0.00000000000E+00  0.99999998245E-14  0.12500000000E+03  0.12500000000E+03 0.  0.
        -11    1    3    3    0    0  0.37178085177E+02  0.17552198099E+02 -0.20056495593E+02  0.45744427980E+02  0.51100000000E-03 0.  1.
         23    2    1    0    0    0  0.16697476830E+02 -0.23880394164E+02 -0.69880620545E+00  0.95852662419E+02  0.91313556523E+02 0.  0.
         11    1    3    3    0    0 -0.20480608347E+02 -0.41432592263E+02  0.19357689387E+02  0.50108234439E+02  0.51100000000E-03 0. -1.
         22    1    1    0    0    0 -0.16697476830E+02  0.23880394164E+02  0.69880620545E+00  0.29147337581E+02  0.00000000000E+00 0. -1.
</event>
<event>
 5    1  0.1099741E-009  0.9118800E+02  0.7818608E-02  0.1130116E+00
         25   -1    0    0    0    0  0.00000000000E+00  0.00000000000E+00  0.99999998245E-14  0.12500000000E+03  0.12500000000E+03 0.  0.
        -11    1    3    3    0    0 -0.11973850953E+02 -0.54105184695E+02  0.20392132503E+02  0.59047296177E+02  0.51100000000E-03 0.  1.
         23    2    1    0    0    0  0.63724716989E+00 -0.28368373963E+02 -0.35643292322E+01  0.96401483113E+02  0.92061776966E+02 0.  0.
         11    1    3    3    0    0  0.12611098123E+02  0.25736810731E+02 -0.23956461736E+02  0.37354186936E+02  0.51100000000E-03 0. -1.
         22    1    1    0    0    0 -0.63724716989E+00  0.28368373963E+02  0.35643292322E+01  0.28598516887E+02  0.00000000000E+00 0.  1.
</event>
<event>
 5    1  0.1099741E-009  0.9118800E+02  0.7818608E-02  0.1130116E+00
         25   -1    0    0    0    0  0.00000000000E+00  0.00000000000E+00  0.99999998245E-14  0.12500000000E+03  0.12500000000E+03 0.  0.
        -11    1    3    3    0    0 -0.55487296078E+01  0.40921057492E+02  0.15400102058E+02  0.44073625789E+02  0.51100000000E-03 0. -1.
         23    2    1    0    0    0 -0.26895809761E+02  0.35046340540E+01 -0.12225961281E+02  0.95248677814E+02  0.90482978806E+02 0.  0.
         11    1    3    3    0    0 -0.21347080153E+02 -0.37416423438E+02 -0.27626063339E+02  0.51175052026E+02  0.51100000000E-03 0.  1.
         22    1    1    0    0    0  0.26895809761E+02 -0.35046340540E+01  0.12225961281E+02  0.29751322186E+02  0.00000000000E+00 0.  1.
</event>
<event>
 5    1  0.1099741E-009  0.9118800E+02  0.7818608E-02  0.1130116E+00
         25   -1    0    0    0    0  0.00000000000E+00  0.00000000000E+00  0.99999998245E-14  0.12500000000E+03  0.12500000000E+03 0.  0.
        -11    1    3    3    0    0  0.15959196087E+02 -0.30395071114E+02 -0.94174592589E+01  0.35598382364E+02  0.51100000000E-03 0.  1.
         23    2    1    0    0    0  0.66690900990E+01  0.27560797471E+02  0.53969303258E+01  0.96134775647E+02  0.91698930810E+02 0.  0.
         11    1    3    3    0    0 -0.92901059878E+01  0.57955868585E+02  0.14814389585E+02  0.60536393283E+02  0.51100000000E-03 0. -1.
         22    1    1    0    0    0 -0.66690900990E+01 -0.27560797471E+02 -0.53969303258E+01  0.28865224353E+02  0.00000000000E+00 0. -1.
</event>
<event>
 5    1  0.1099741E-009  0.9118800E+02  0.7818608E-02  0.1130116E+00
         25   -1    0    0    0    0  0.00000000000E+00  0.00000000000E+00  0.99999998245E-14  0.12500000000E+03  0.12500000000E+03 0.  0.
        -11    1    3    3    0    0  0.26212417790E+02 -0.29311520006E+02 -0.38613438587E+02  0.55111284609E+02  0.51100000000E-03 0.  1.
         23    2    1    0    0    0  0.10678375377E+02 -0.26985696265E+02 -0.90057001027E+00  0.95964392034E+02  0.91466376382E+02 0.  0.
         11    1    3    3    0    0 -0.15534042412E+02  0.23258237410E+01  0.37712868577E+02  0.40853107425E+02  0.51100000000E-03 0. -1.
         22    1    1    0    0    0 -0.10678375377E+02  0.26985696265E+02  0.90057001027E+00  0.29035607966E+02  0.00000000000E+00 0. -1.
</event>
<event>
 5    1  0.1099741E-009  0.9118800E+02  0.7818608E-02  0.1130116E+00
         25   -1    0    0    0    0  0.00000000000E+00  0.00000000000E+00  0.99999998245E-14  0.12500000000E+03  0.12500000000E+03 0.  0.
        -11    1    3    3    0    0  0.57702999616E+01  0.39495779231E+02  0.20351889385E+02  0.44804155393E+02  0.51100000000E-03 0.  1.
         23    2    1    0    0    0  0.21691880061E+02 -0.70633969485E+01  0.20968715945E+02  0.94014256740E+02  0.88761276382E+02 0.  0.
         11    1    3    3    0    0  0.15921580099E+02 -0.46559176179E+02  0.61682656002E+00  0.49210101347E+02  0.51100000000E-03 0. -1.
         22    1    1    0    0    0 -0.21691880061E+02  0.70633969485E+01 -0.20968715945E+02  0.30985743260E+02  0.00000000000E+00 0. -1.
</event>
<event>
 5    1  0.1099741E-009  0.9118800E+02  0.7818608E-02  0.1130116E+00
         25   -1    0    0    0    0  0.00000000000E+00  0.00000000000E+00  0.99999998245E-14  0.12500000000E+03  0.12500000000E+03 0.  0.
        -11    1    3    3    0    0  0.47795971966E+02  0.17605294583E+01  0.29193452389E+02  0.56034025938E+02  0.51100000000E-03 0. -1.
         23    2    1    0    0    0  0.11901727242E+02 -0.13953672737E+02  0.22805894340E+02  0.95734578239E+02  0.91151766630E+02 0.  0.
         11    1    3    3    0    0 -0.35894244724E+02 -0.15714202195E+02 -0.63875580487E+01  0.39700552301E+02  0.51100000000E-03 0.  1.
         22    1    1    0    0    0 -0.11901727242E+02  0.13953672737E+02 -0.22805894340E+02  0.29265421761E+02  0.00000000000E+00 0. -1.
</event>
<event>
 5    1  0.1099741E-009  0.9118800E+02  0.7818608E-02  0.1130116E+00
         25   -1    0    0    0    0  0.00000000000E+00  0.00000000000E+00  0.99999998245E-14  0.12500000000E+03  0.12500000000E+03 0.  0.
        -11    1    3    3    0    0  0.41047204686E+02  0.24557069720E+01 -0.87979599963E+01  0.42051249799E+02  0.51100000000E-03 0. -1.
         23    2    1    0    0    0 -0.11005704003E+02 -0.91903978963E+01 -0.23581196657E+02  0.97401779589E+02  0.93410089911E+02 0.  0.
         11    1    3    3    0    0 -0.52052908689E+02 -0.11646104868E+02 -0.14783236660E+02  0.55350529790E+02  0.51100000000E-03 0.  1.
         22    1    1    0    0    0  0.11005704003E+02  0.91903978963E+01  0.23581196657E+02  0.27598220411E+02  0.00000000000E+00 0.  1.
</event>
<event>
 5    1  0.1099741E-009  0.9118800E+02  0.7818608E-02  0.1130116E+00
         25   -1    0    0    0    0  0.00000000000E+00  0.00000000000E+00  0.99999998245E-14  0.12500000000E+03  0.12500000000E+03 0.  0.
        -11    1    3    3    0    0  0.15241790576E+02  0.31762247184E+02  0.34915825848E+02  0.49601082862E+02  0.51100000000E-03 0.  1.
         23    2    1    0    0    0 -0.19388236225E+02  0.47167847489E+01  0.21778465116E+02  0.95462679453E+02  0.90778135381E+02 0.  0.
         11    1    3    3    0    0 -0.34630026801E+02 -0.27045462436E+02 -0.13137360732E+02  0.45861596591E+02  0.51100000000E-03 0. -1.
         22    1    1    0    0    0  0.19388236225E+02 -0.47167847489E+01 -0.21778465116E+02  0.29537320547E+02  0.00000000000E+00 0.  1.
</event>
<event>
 5    1  0.1099741E-009  0.9118800E+02  0.7818608E-02  0.1130116E+00
         25   -1    0    0    0    0  0.00000000000E+00  0.00000000000E+00  0.99999998245E-14  0.12500000000E+03  0.12500000000E+03 0.  0.
        -11    1    3    3    0    0  0.17297098287E+02 -0.58768465359E+01  0.28967654688E+02  0.34246926180E+02  0.51100000000E-03 0.  1.
         23    2    1    0    0    0 -0.22123109023E+02 -0.16218407258E+01 -0.18514285318E+02  0.96106383386E+02  0.91660219543E+02 0.  0.
         11    1    3    3    0    0 -0.39420207311E+02  0.42550058101E+01 -0.47481940006E+02  0.61859457206E+02  0.51100000000E-03 0. -1.
         22    1    1    0    0    0  0.22123109023E+02  0.16218407258E+01  0.18514285318E+02  0.28893616614E+02  0.00000000000E+00 0. -1.
</event>
<event>
 5    1  0.1099741E-009  0.9118800E+02  0.7818608E-02  0.1130116E+00
         25   -1    0    0    0    0  0.00000000000E+00  0.00000000000E+00  0.99999998245E-14  0.12500000000E+03  0.12500000000E+03 0.  0.
        -11    1    3    3    0    0 -0.16254699387E+02 -0.48400741826E+01  0.42402124812E+02  0.45668170087E+02  0.51100000000E-03 0. -1.
         23    2    1    0    0    0 -0.29243900653E+02  0.11131623147E+01 -0.51187050438E+01  0.95290641254E+02  0.90540931702E+02 0.  0.
         11    1    3    3    0    0 -0.12989201267E+02  0.59532364973E+01 -0.47520829856E+02  0.49622471167E+02  0.51100000000E-03 0.  1.
         22    1    1    0    0    0  0.29243900653E+02 -0.11131623147E+01  0.51187050438E+01  0.29709358746E+02  0.00000000000E+00 0. -1.
</event>
<event>
 5    1  0.1099741E-009  0.9118800E+02  0.7818608E-02  0.1130116E+00
         25   -1    0    0    0    0  0.00000000000E+00  0.00000000000E+00  0.99999998245E-14  0.12500000000E+03  0.12500000000E+03 0.  0.
        -11    1    3    3    0    0 -0.26230012521E+01 -0.70816912777E+01 -0.37624264017E+02  0.38374675634E+02  0.51100000000E-03 0.  1.
         23    2    1    0    0    0 -0.18427128578E+02  0.20752211802E+02  0.97811723745E+01  0.95574081232E+02  0.90931404411E+02 0.  0.
         11    1    3    3    0    0 -0.15804127326E+02  0.27833903080E+02  0.47405436391E+02  0.57199405599E+02  0.51100000000E-03 0. -1.
         22    1    1    0    0    0  0.18427128578E+02 -0.20752211802E+02 -0.97811723745E+01  0.29425918768E+02  0.00000000000E+00 0. -1.
</event>
<event>
 5    1  0.1099741E-009  0.9118800E+02  0.7818608E-02  0.1130116E+00
         25   -1    0    0    0    0  0.00000000000E+00  0.00000000000E+00  0.99999998245E-14  0.12500000000E+03  0.12500000000E+03 0.  0.
        -11    1    3    3    0    0 -0.18049999942E+02  0.53768963256E+02  0.10367366207E+02  0.57657490319E+02  0.51100000000E-03 0.  1.
         23    2    1    0    0    0 -0.14098235217E+02  0.16419080168E+02  0.19007304721E+02  0.96196804647E+02  0.91783447101E+02 0.  0.
         11    1    3    3    0    0  0.39517647243E+01 -0.37349883088E+02  0.86399385135E+01  0.38539314329E+02  0.51100000000E-03 0. -1.
         22    1    1    0    0    0  0.14098235217E+02 -0.16419080168E+02 -0.19007304721E+02  0.28803195353E+02  0.00000000000E+00 0.  1.
</event>
<event>
 5    1  0.1099741E-009  0.9118800E+02  0.7818608E-02  0.1130116E+00
         25   -1    0    0    0    0  0.00000000000E+00  0.00000000000E+00  0.99999998245E-14  0.12500000000E+03  0.12500000000E+03 0.  0.
        -11    1    3    3    0    0 -0.25483908629E+02  0.39971184892E+02 -0.20690245006E+02  0.51722446379E+02  0.51100000000E-03 0. -1.
         23    2    1    0    0    0 -0.47329985096E+01  0.21903235188E+02  0.15914508547E+02  0.97515011936E+02  0.93561493061E+02 0.  0.
         11    1    3    3    0    0  0.20750910120E+02 -0.18067949704E+02  0.36604753553E+02  0.45792565557E+02  0.51100000000E-03 0.  1.
         22    1    1    0    0    0  0.47329985096E+01 -0.21903235188E+02 -0.15914508547E+02  0.27484988064E+02  0.00000000000E+00 0. -1.
</event>
<event>
 5    1  0.1099741E-009  0.9118800E+02  0.7818608E-02  0.1130116E+00
         25   -1    0    0    0    0  0.00000000000E+00  0.00000000000E+00  0.99999998245E-14  0.12500000000E+03  0.12500000000E+03 0.  0.
        -11    1    3    3    0    0 -0.32758845369E+02  0.43528582715E+02 -0.28779394818E+02  0.61612766773E+02  0.51100000000E-03 0. -1.
         23    2    1    0    0    0 -0.19838714656E+02  0.15359046858E+02 -0.91666751091E+01  0.98288525833E+02  0.94589277713E+02 0.  0.
         11    1    3    3    0    0  0.12920130713E+02 -0.28169535857E+02  0.19612719708E+02  0.36675759060E+02  0.51100000000E-03 0.  1.
         22    1    1    0    0    0  0.19838714656E+02 -0.15359046858E+02  0.91666751091E+01  0.26711474167E+02  0.00000000000E+00 0. -1.
</event>
<event>
 5    1  0.1099741E-009  0.9118800E+02  0.7818608E-02  0.1130116E+00
         25   -1    0    0    0    0  0.00000000000E+00  0.00000000000E+00  0.99999998245E-14  0.12500000000E+03  0.12500000000E+03 0.  0.
        -11    1    3    3    0    0  0.18117873332E+02 -0.10546490419E+01 -0.27808814725E+02  0.33206923907E+02  0.51100000000E-03 0.  1.
         23    2    1    0    0    0 -0.11937670540E+02 -0.19213678383E+02  0.21533692062E+02  0.93769032856E+02  0.88415260074E+02 0.  0.
         11    1    3    3    0    0 -0.30055543872E+02 -0.18159029341E+02  0.49342506787E+02  0.60562108949E+02  0.51100000000E-03 0. -1.
         22    1    1    0    0    0  0.11937670540E+02  0.19213678383E+02 -0.21533692062E+02  0.31230967144E+02  0.00000000000E+00 0. -1.
</event>
<event>
 5    1  0.1099741E-009  0.9118800E+02  0.7818608E-02  0.1130116E+00
         25   -1    0    0    0    0  0.00000000000E+00  0.00000000000E+00  0.99999998245E-14  0.12500000000E+03  0.12500000000E+03 0.  0.
        -11    1    3    3    0    0  0.22026834280E+02 -0.29267689922E+02  0.20253057489E+02  0.41856486232E+02  0.51100000000E-03 0. -1.
         23    2    1    0    0    0  0.21429309273E+02  0.20043377203E+02 -0.11956317138E+01  0.95633662115E+02  0.91013271168E+02 0.  0.
         11    1    3    3    0    0 -0.59752500776E+00  0.49311067125E+02 -0.21448689203E+02  0.53777175883E+02  0.51100000000E-03 0.  1.
         22    1    1    0    0    0 -0.21429309273E+02 -0.20043377203E+02  0.11956317138E+01  0.29366337885E+02  0.00000000000E+00 0.  1.
</event>
<event>
 5    1  0.1099741E-009  0.9118800E+02  0.7818608E-02  0.1130116E+00
         25   -1    0    0    0    0  0.00000000000E+00  0.00000000000E+00  0.99999998245E-14  0.12500000000E+03  0.12500000000E+03 0.  0.
        -11    1    3    3    0    0  0.21093822567E+02  0.43953187702E+02 -0.22848903245E+02  0.53841475086E+02  0.51100000000E-03 0. -1.
         23    2    1    0    0    0 -0.11159164670E+02  0.27706948806E+02 -0.31868174688E+01  0.94960729472E+02  0.90084307002E+02 0.  0.
         11    1    3    3    0    0 -0.32252987236E+02 -0.16246238896E+02  0.19662085777E+02  0.41119254386E+02  0.51100000000E-03 0.  1.
         22    1    1    0    0    0  0.11159164670E+02 -0.27706948806E+02  0.31868174688E+01  0.30039270528E+02  0.00000000000E+00 0. -1.
</event>
<event>
 5    1  0.1099741E-009  0.9118800E+02  0.7818608E-02  0.1130116E+00
         25   -1    0    0    0    0  0.00000000000E+00  0.00000000000E+00  0.99999998245E-14  0.12500000000E+03  0.12500000000E+03 0.  0.
        -11    1    3    3    0    0 -0.48167068339E+00  0.10243979796E+02  0.57927626253E+02  0.58828403108E+02  0.51100000000E-03 0.  1.
         23    2    1    0    0    0 -0.10878525334E+02 -0.60197988131E+01  0.26819243163E+02  0.95439010588E+02  0.90745537890E+02 0.  0.
         11    1    3    3    0    0 -0.10396854651E+02 -0.16263778609E+02 -0.31108383090E+02  0.36610607479E+02  0.51100000000E-03 0. -1.
         22    1    1    0    0    0  0.10878525334E+02  0.60197988131E+01 -0.26819243163E+02  0.29560989412E+02  0.00000000000E+00 0.  1.
</event>
<event>
 5    1  0.1099741E-009  0.9118800E+02  0.7818608E-02  0.1130116E+00
         25   -1    0    0    0    0  0.00000000000E+00  0.00000000000E+00  0.99999998245E-14  0.12500000000E+03  0.12500000000E+03 0.  0.
        -11    1    3    3    0    0 -0.42048321056E+02  0.40547496166E+02  0.19143478983E+02  0.61470590828E+02  0.51100000000E-03 0. -1.
         23    2    1    0    0    0 -0.17704596962E+02  0.15259989745E+02  0.15921357464E+02  0.96719093648E+02  0.92492018099E+02 0.  0.
         11    1    3    3    0    0  0.24343724094E+02 -0.25287506421E+02 -0.32221215196E+01  0.35248502820E+02  0.51100000000E-03 0.  1.
         22    1    1    0    0    0  0.17704596962E+02 -0.15259989745E+02 -0.15921357464E+02  0.28280906352E+02  0.00000000000E+00 0. -1.
</event>
<event>
 5    1  0.1099741E-009  0.9118800E+02  0.7818608E-02  0.1130116E+00
         25   -1    0    0    0    0  0.00000000000E+00  0.00000000000E+00  0.99999998245E-14  0.12500000000E+03  0.12500000000E+03 0.  0.
        -11    1    3    3    0    0  0.10069587952E+02  0.20800704535E+02  0.36358266342E+02  0.43081195926E+02  0.51100000000E-03 0.  1.
         23    2    1    0    0    0  0.27388700312E+02  0.68937041695E+01 -0.10444938775E+02  0.94887530689E+02  0.89982679846E+02 0.  0.
         11    1    3    3    0    0  0.17319112360E+02 -0.13907000366E+02 -0.46803205118E+02  0.51806334764E+02  0.51100000000E-03 0. -1.
         22    1    1    0    0    0 -0.27388700312E+02 -0.68937041695E+01  0.10444938775E+02  0.30112469311E+02  0.00000000000E+00 0. -1.
</event>
<event>
 5    1  0.1099741E-009  0.9118800E+02  0.7818608E-02  0.1130116E+00
         25   -1    0    0    0    0  0.00000000000E+00  0.00000000000E+00  0.99999998245E-14  0.12500000000E+03  0.12500000000E+03 0.  0.
        -11    1    3    3    0    0  0.28778026613E+01 -0.36851469234E+02  0.16845138396E+02  0.40621068680E+02  0.51100000000E-03 0.  1.
         23    2    1    0    0    0 -0.22913407605E+01  0.22199189223E+02  0.10805920240E+02  0.10020439239E+03  0.97088094517E+02 0.  0.
         11    1    3    3    0    0 -0.51691434218E+01  0.59050658457E+02 -0.60392181560E+01  0.59583323708E+02  0.51100000000E-03 0. -1.
         22    1    1    0    0    0  0.22913407605E+01 -0.22199189223E+02 -0.10805920240E+02  0.24795607613E+02  0.00000000000E+00 0. -1.
</event>
<event>
 5    1  0.1099741E-009  0.9118800E+02  0.7818608E-02  0.1130116E+00
         25   -1    0    0    0    0  0.00000000000E+00  0.00000000000E+00  0.99999998245E-14  0.12500000000E+03  0.12500000000E+03 0.  0.
        -11    1    3    3    0    0  0.43602762191E+02 -0.13836537081E+02  0.31066932280E+01  0.45850868827E+02  0.51100000000E-03 0. -1.
         23    2    1    0    0    0  0.15165747987E+01 -0.17523667572E+02 -0.23400977667E+02  0.95725699324E+02  0.91139589811E+02 0.  0.
         11    1    3    3    0    0 -0.42086187393E+02 -0.36871304906E+01 -0.26507670895E+02  0.49874830497E+02  0.51100000000E-03 0.  1.
         22    1    1    0    0    0 -0.15165747987E+01  0.17523667572E+02  0.23400977667E+02  0.29274300676E+02  0.00000000000E+00 0.  1.
</event>
<event>
 5    1  0.1099741E-009  0.9118800E+02  0.7818608E-02  0.1130116E+00
         25   -1    0    0    0    0  0.00000000000E+00  0.00000000000E+00  0.99999998245E-14  0.12500000000E+03  0.12500000000E+03 0.  0.
        -11    1    3    3    0    0 -0.34295851425E+02 -0.21860669517E+02  0.34495982710E+02  0.53329795800E+02  0.51100000000E-03 0. -1.
         23    2    1    0    0    0 -0.14905173554E+00 -0.14300012544E+01  0.31750936455E+02  0.93216528103E+02  0.87630656884E+02 0.  0.
         11    1    3    3    0    0  0.34146799689E+02  0.20430668263E+02 -0.27450462541E+01  0.39886732304E+02  0.51100000000E-03 0.  1.
         22    1    1    0    0    0  0.14905173554E+00  0.14300012544E+01 -0.31750936455E+02  0.31783471897E+02  0.00000000000E+00 0.  1.
</event>
<event>
 5    1  0.1099741E-009  0.9118800E+02  0.7818608E-02  0.1130116E+00
         25   -1    0    0    0    0  0.00000000000E+00  0.00000000000E+00  0.99999998245E-14  0.12500000000E+03  0.12500000000E+03 0.  0.
        -11    1    3    3    0    0 -0.15142981704E+02 -0.22426700371E+02 -0.42328080623E+02  0.50238761867E+02  0.51100000000E-03 0. -1.
         23    2    1    0    0    0 -0.48676824097E+01  0.17330008275E+02 -0.23461479541E+02  0.95428653377E+02  0.90731269936E+02 0.  0.
         11    1    3    3    0    0  0.10275299294E+02  0.39756708647E+02  0.18866601082E+02  0.45189891510E+02  0.51100000000E-03 0.  1.
         22    1    1    0    0    0  0.48676824097E+01 -0.17330008275E+02  0.23461479541E+02  0.29571346623E+02  0.00000000000E+00 0. -1.
</event>
<event>
 5    1  0.1099741E-009  0.9118800E+02  0.7818608E-02  0.1130116E+00
         25   -1    0    0    0    0  0.00000000000E+00  0.00000000000E+00  0.99999998245E-14  0.12500000000E+03  0.12500000000E+03 0.  0.
        -11    1    3    3    0    0 -0.19873661983E+01 -0.81361070664E+01  0.52792649968E+02  0.53452874137E+02  0.51100000000E-03 0. -1.
         23    2    1    0    0    0  0.14483815921E+02 -0.19845832898E+02  0.15268335087E+02  0.96073194725E+02  0.91614947914E+02 0.  0.
         11    1    3    3    0    0  0.16471182119E+02 -0.11709725832E+02 -0.37524314881E+02  0.42620320588E+02  0.51100000000E-03 0.  1.
         22    1    1    0    0    0 -0.14483815921E+02  0.19845832898E+02 -0.15268335087E+02  0.28926805275E+02  0.00000000000E+00 0. -1.
</event>
<event>
 5    1  0.1099741E-009  0.9118800E+02  0.7818608E-02  0.1130116E+00
         25   -1    0    0    0    0  0.00000000000E+00  0.00000000000E+00  0.99999998245E-14  0.12500000000E+03  0.12500000000E+03 0.  0.
        -11    1    3    3    0    0  0.31415933240E+02  0.11096757574E+02  0.22707345599E+02  0.40320248442E+02  0.51100000000E-03 0.  1.
         23    2    1    0    0    0 -0.17594031644E+02 -0.14368363496E+02  0.18487320943E+02  0.95712103956E+02  0.91120941551E+02 0.  0.
         11    1    3    3    0    0 -0.49009964883E+02 -0.25465121070E+02 -0.42200246565E+01  0.55391855515E+02  0.51100000000E-03 0. -1.
         22    1    1    0    0    0  0.17594031644E+02  0.14368363496E+02 -0.18487320943E+02  0.29287896044E+02  0.00000000000E+00 0. -1.
</event>
<event>
 5    1  0.1099741E-009  0.9118800E+02  0.7818608E-02  0.1130116E+00
         25   -1    0    0    0    0  0.00000000000E+00  0.00000000000E+00  0.99999998245E-14  0.12500000000E+03  0.12500000000E+03 0.  0.
        -11    1    3    3    0    0  0.31019979769E+02  0.33873937837E+02 -0.30706664070E+02  0.55250176724E+02  0.51100000000E-03 0.  1.
         23    2    1    0    0    0  0.27482703104E+02  0.53610627978E+01 -0.42089722343E+00  0.96996123149E+02  0.92865659892E+02 0.  0.
         11    1    3    3    0    0 -0.35372766646E+01 -0.28512875039E+02  0.30285766846E+02  0.41745946425E+02  0.51100000000E-03 0. -1.
         22    1    1    0    0    0 -0.27482703104E+02 -0.53610627978E+01  0.42089722343E+00  0.28003876851E+02  0.00000000000E+00 0.  1.
</event>
<event>
 5    1  0.1099741E-009  0.9118800E+02  0.7818608E-02  0.1130116E+00
         25   -1    0    0    0    0  0.00000000000E+00  0.00000000000E+00  0.99999998245E-14  0.12500000000E+03  0.12500000000E+03 0.  0.
        -11    1    3    3    0    0 -0.17130912937E+02  0.21708402243E+02 -0.54629970922E+02  0.61230357089E+02  0.51100000000E-03 0. -1.
         23    2    1    0    0    0 -0.86331515032E-01  0.14214065603E+02 -0.25603973619E+02  0.95715011026E+02  0.91124929391E+02 0.  0.
         11    1    3    3    0    0  0.17044581422E+02 -0.74943366404E+01  0.29025997303E+02  0.34484653938E+02  0.51100000000E-03 0.  1.
         22    1    1    0    0    0  0.86331515032E-01 -0.14214065603E+02  0.25603973619E+02  0.29284988974E+02  0.00000000000E+00 0. -1.
</event>
<event>
 5    1  0.1099741E-009  0.9118800E+02  0.7818608E-02  0.1130116E+00
         25   -1    0    0    0    0  0.00000000000E+00  0.00000000000E+00  0.99999998245E-14  0.12500000000E+03  0.12500000000E+03 0.  0.
        -11    1    3    3    0    0  0.10542570489E+02 -0.81354514991E+01 -0.32127983225E+02  0.34778422477E+02  0.51100000000E-03 0. -1.
         23    2    1    0    0    0 -0.18696879827E+01 -0.22581198173E+01  0.28199073573E+02  0.96648940256E+02  0.92397159393E+02 0.  0.
         11    1    3    3    0    0 -0.12412258472E+02  0.58773316818E+01  0.60327056798E+02  0.61870517779E+02  0.51100000000E-03 0.  1.
         22    1    1    0    0    0  0.18696879827E+01  0.22581198173E+01 -0.28199073573E+02  0.28351059744E+02  0.00000000000E+00 0.  1.
</event>
<event>
 5    1  0.1099741E-009  0.9118800E+02  0.7818608E-02  0.1130116E+00
         25   -1    0    0    0    0  0.00000000000E+00  0.00000000000E+00  0.99999998245E-14  0.12500000000E+03  0.12500000000E+03 0.  0.
        -11    1    3    3    0    0  0.15289708128E+02  0.18777116096E+02  0.43589201617E+02  0.49863551432E+02  0.51100000000E-03 0. -1.
         23    2    1    0    0    0 -0.12170708863E+02  0.23990485302E+02  0.48002566738E+01  0.97673968392E+02  0.93773621547E+02 0.  0.
         11    1    3    3    0    0 -0.27460416992E+02  0.52133692067E+01 -0.38788944943E+02  0.47810416960E+02  0.51100000000E-03 0.  1.
         22    1    1    0    0    0  0.12170708863E+02 -0.23990485302E+02 -0.48002566738E+01  0.27326031608E+02  0.00000000000E+00 0.  1.
</event>
<event>
 5    1  0.1099741E-009  0.9118800E+02  0.7818608E-02  0.1130116E+00
         25   -1    0    0    0    0  0.00000000000E+00  0.00000000000E+00  0.99999998245E-14  0.12500000000E+03  0.12500000000E+03 0.  0.
        -11    1    3    3    0    0 -0.38274016685E+02 -0.41057969918E+02  0.19031917592E+01  0.56162971663E+02  0.51100000000E-03 0.  1.
         23    2    1    0    0    0 -0.26897073858E+02 -0.26204616026E+01 -0.66905945577E+01  0.97159679300E+02  0.93085551108E+02 0.  0.
         11    1    3    3    0    0  0.11376942827E+02  0.38437508315E+02 -0.85937863169E+01  0.40996707637E+02  0.51100000000E-03 0. -1.
         22    1    1    0    0    0  0.26897073858E+02  0.26204616026E+01  0.66905945577E+01  0.27840320700E+02  0.00000000000E+00 0.  1.
</event>
<event>
 5    1  0.1099741E-009  0.9118800E+02  0.7818608E-02  0.1130116E+00
         25   -1    0    0    0    0  0.00000000000E+00  0.00000000000E+00  0.99999998245E-14  0.12500000000E+03  0.12500000000E+03 0.  0.
        -11    1    3    3    0    0  0.19592351137E+02 -0.13460338909E+02 -0.53944800871E+02  0.58949830262E+02  0.51100000000E-03 0.  1.
         23    2    1    0    0    0  0.74606386252E+01  0.82100619543E+01 -0.28082718582E+02  0.94805541420E+02  0.89868711769E+02 0.  0.
         11    1    3    3    0    0 -0.12131712512E+02  0.21670400864E+02  0.25862082289E+02  0.35855711158E+02  0.51100000000E-03 0. -1.
         22    1    1    0    0    0 -0.74606386252E+01 -0.82100619543E+01  0.28082718582E+02  0.30194458580E+02  0.00000000000E+00 0.  1.
</event>
<event>
 5    1  0.1099741E-009  0.9118800E+02  0.7818608E-02  0.1130116E+00
         25   -1    0    0    0    0  0.00000000000E+00  0.00000000000E+00  0.99999998245E-14  0.12500000000E+03  0.12500000000E+03 0.  0.
        -11    1    3    3    0    0  0.92000456839E+01 -0.10525817055E+02  0.93023057371E+01  0.16791859860E+02  0.51100000000E-03 0. -1.
         23    2    1    0    0    0 -0.43766186879E+01  0.25957141244E+02 -0.38451276133E+02  0.78401409796E+02  0.63050396105E+02 0.  0.
         11    1    3    3    0    0 -0.13576664372E+02  0.36482958299E+02 -0.47753581870E+02  0.61609549937E+02  0.51100000000E-03 0.  1.
         22    1    1    0    0    0  0.43766186879E+01 -0.25957141244E+02  0.38451276133E+02  0.46598590204E+02  0.00000000000E+00 0.  1.
</event>
<event>
 5    1  0.1099741E-009  0.9118800E+02  0.7818608E-02  0.1130116E+00
         25   -1    0    0    0    0  0.00000000000E+00  0.00000000000E+00  0.99999998245E-14  0.12500000000E+03  0.12500000000E+03 0.  0.
        -11    1    3    3    0    0  0.25635740507E+01  0.73666367903E+00 -0.20519726091E+02  0.20692359566E+02  0.51100000000E-03 0.  1.
         23    2    1    0    0    0 -0.16646668863E+01 -0.34799455499E+02  0.27524316048E+02  0.80599986568E+02  0.67268095275E+02 0.  0.
         11    1    3    3    0    0 -0.42282409370E+01 -0.35536119178E+02  0.48044042139E+02  0.59907627002E+02  0.51100000000E-03 0. -1.
         22    1    1    0    0    0  0.16646668863E+01  0.34799455499E+02 -0.27524316048E+02  0.44400013432E+02  0.00000000000E+00 0. -1.
</event>
<event>
 5    1  0.1099741E-009  0.9118800E+02  0.7818608E-02  0.1130116E+00
         25   -1    0    0    0    0  0.00000000000E+00  0.00000000000E+00  0.99999998245E-14  0.12500000000E+03  0.12500000000E+03 0.  0.
        -11    1    3    3    0    0  0.12398099903E+02 -0.29202230462E+02  0.15532867679E+02  0.35323549139E+02  0.51100000000E-03 0. -1.
         23    2    1    0    0    0 -0.26351087713E+02  0.71431000938E+01 -0.12018488545E+02  0.95169683718E+02  0.90373784526E+02 0.  0.
         11    1    3    3    0    0 -0.38749187616E+02  0.36345330556E+02 -0.27551356223E+02  0.59846134579E+02  0.51100000000E-03 0.  1.
         22    1    1    0    0    0  0.26351087713E+02 -0.71431000938E+01  0.12018488545E+02  0.29830316282E+02  0.00000000000E+00 0.  1.
</event>
<event>
 5    1  0.1099741E-009  0.9118800E+02  0.7818608E-02  0.1130116E+00
         25   -1    0    0    0    0  0.00000000000E+00  0.00000000000E+00  0.99999998245E-14  0.12500000000E+03  0.12500000000E+03 0.  0.
        -11    1    3    3    0    0  0.35097100805E+02 -0.84872128602E+01  0.52450181574E+01  0.36487662062E+02  0.51100000000E-03 0. -1.
         23    2    1    0    0    0 -0.23764443670E+02  0.99854434659E+01  0.72841573530E+01  0.98213495702E+02  0.94490073159E+02 0.  0.
         11    1    3    3    0    0 -0.58861544474E+02  0.18472656326E+02  0.20391391955E+01  0.61725833640E+02  0.51100000000E-03 0.  1.
         22    1    1    0    0    0  0.23764443670E+02 -0.99854434659E+01 -0.72841573530E+01  0.26786504298E+02  0.00000000000E+00 0.  1.
</event>
<event>
 5    1  0.1099741E-009  0.9118800E+02  0.7818608E-02  0.1130116E+00
         25   -1    0    0    0    0  0.00000000000E+00  0.00000000000E+00  0.99999998245E-14  0.12500000000E+03  0.12500000000E+03 0.  0.
        -11    1    3    3    0    0 -0.20183244842E+01 -0.58647026466E+01  0.39690388678E+02  0.40172071449E+02  0.51100000000E-03 0.  1.
         23    2    1    0    0    0 -0.29500584299E+02  0.39390520440E+01 -0.62432891483E+01  0.94589816436E+02  0.89568153431E+02 0.  0.
         11    1    3    3    0    0 -0.27482259815E+02  0.98037546906E+01 -0.45933677826E+02  0.54417744987E+02  0.51100000000E-03 0. -1.
         22    1    1    0    0    0  0.29500584299E+02 -0.39390520440E+01  0.62432891483E+01  0.30410183564E+02  0.00000000000E+00 0. -1.
</event>
<event>
 5    1  0.1099741E-009  0.9118800E+02  0.7818608E-02  0.1130116E+00
         25   -1    0    0    0    0  0.00000000000E+00  0.00000000000E+00  0.99999998245E-14  0.12500000000E+03  0.12500000000E+03 0.  0.
        -11    1    3    3    0    0 -0.13068246497E+02  0.54836194062E+01 -0.45001833174E+02  0.47180654272E+02  0.51100000000E-03 0. -1.
         23    2    1    0    0    0 -0.15481024309E+02  0.26621363783E+02 -0.32588037899E+01  0.94032615133E+02  0.88787126225E+02 0.  0.
         11    1    3    3    0    0 -0.24127778128E+01  0.21137744377E+02  0.41743029384E+02  0.46851960861E+02  0.51100000000E-03 0.  1.
         22    1    1    0    0    0  0.15481024309E+02 -0.26621363783E+02  0.32588037899E+01  0.30967384867E+02  0.00000000000E+00 0. -1.
</event>
<event>
 5    1  0.1099741E-009  0.9118800E+02  0.7818608E-02  0.1130116E+00
         25   -1    0    0    0    0  0.00000000000E+00  0.00000000000E+00  0.99999998245E-14  0.12500000000E+03  0.12500000000E+03 0.  0.
        -11    1    3    3    0    0 -0.36331481548E+02  0.12785928638E+02  0.57711380831E+01  0.38945635925E+02  0.51100000000E-03 0.  1.
         23    2    1    0    0    0  0.93444613213E+01  0.24703012027E+00 -0.26923729543E+02  0.96499698357E+02  0.92195035599E+02 0.  0.
         11    1    3    3    0    0  0.45675942869E+02 -0.12538898518E+02 -0.32694867626E+02  0.57554062431E+02  0.51100000000E-03 0. -1.
         22    1    1    0    0    0 -0.93444613213E+01 -0.24703012027E+00  0.26923729543E+02  0.28500301643E+02  0.00000000000E+00 0. -1.
</event>
<event>
 5    1  0.1099741E-009  0.9118800E+02  0.7818608E-02  0.1130116E+00
         25   -1    0    0    0    0  0.00000000000E+00  0.00000000000E+00  0.99999998245E-14  0.12500000000E+03  0.12500000000E+03 0.  0.
        -11    1    3    3    0    0 -0.23294993383E+02 -0.22474545680E+02 -0.19738489758E+02  0.37912661453E+02  0.51100000000E-03 0.  1.
         23    2    1    0    0    0  0.15575438708E+02  0.21216385400E+02 -0.70479183809E+01  0.97752936784E+02  0.93878827198E+02 0.  0.
         11    1    3    3    0    0  0.38870432090E+02  0.43690931081E+02  0.12690571377E+02  0.59840275331E+02  0.51100000000E-03 0. -1.
         22    1    1    0    0    0 -0.15575438708E+02 -0.21216385400E+02  0.70479183809E+01  0.27247063216E+02  0.00000000000E+00 0. -1.
</event>
<event>
 5    1  0.1099741E-009  0.9118800E+02  0.7818608E-02  0.1130116E+00
         25   -1    0    0    0    0  0.00000000000E+00  0.00000000000E+00  0.99999998245E-14  0.12500000000E+03  0.12500000000E+03 0.  0.
        -11    1    3    3    0    0 -0.44874848850E+02 -0.20197513033E+02 -0.15114688147E+02  0.51479562839E+02  0.51100000000E-03 0. -1.
         23    2    1    0    0    0 -0.21791006069E+02  0.17223513790E+02 -0.85699156330E+01  0.95932134121E+02  0.91422281367E+02 0.  0.
         11    1    3    3    0    0  0.23083842781E+02  0.37421026824E+02  0.65447725140E+01  0.44452571282E+02  0.51100000000E-03 0.  1.
         22    1    1    0    0    0  0.21791006069E+02 -0.17223513790E+02  0.85699156330E+01  0.29067865879E+02  0.00000000000E+00 0. -1.
</event>
<event>
 5    1  0.1099741E-009  0.9118800E+02  0.7818608E-02  0.1130116E+00
         25   -1    0    0    0    0  0.00000000000E+00  0.00000000000E+00  0.99999998245E-14  0.12500000000E+03  0.12500000000E+03 0.  0.
        -11    1    3    3    0    0  0.16080945953E+02 -0.25128982008E+02  0.27666991727E+02  0.40688143125E+02  0.51100000000E-03 0.  1.
         23    2    1    0    0    0 -0.10916313058E+02 -0.17679179990E+02 -0.20119937902E+02  0.96077150951E+02  0.91620345654E+02 0.  0.
         11    1    3    3    0    0 -0.26997259011E+02  0.74498020171E+01 -0.47786929630E+02  0.55389007826E+02  0.51100000000E-03 0. -1.
         22    1    1    0    0    0  0.10916313058E+02  0.17679179990E+02  0.20119937902E+02  0.28922849049E+02  0.00000000000E+00 0. -1.
</event>
<event>
 5    1  0.1099741E-009  0.9118800E+02  0.7818608E-02  0.1130116E+00
         25   -1    0    0    0    0  0.00000000000E+00  0.00000000000E+00  0.99999998245E-14  0.12500000000E+03  0.12500000000E+03 0.  0.
        -11    1    3    3    0    0  0.89943509585E+01  0.28259400142E+02 -0.28605609489E+02  0.41204040336E+02  0.51100000000E-03 0.  1.
         23    2    1    0    0    0  0.27845517744E+02 -0.11706555189E+02  0.16347500329E+01  0.94749566937E+02  0.89790822105E+02 0.  0.
         11    1    3    3    0    0  0.18851166785E+02 -0.39965955331E+02  0.30240359522E+02  0.53545526601E+02  0.51100000000E-03 0. -1.
         22    1    1    0    0    0 -0.27845517744E+02  0.11706555189E+02 -0.16347500329E+01  0.30250433063E+02  0.00000000000E+00 0. -1.
</event>
<event>
 5    1  0.1099741E-009  0.9118800E+02  0.7818608E-02  0.1130116E+00
         25   -1    0    0    0    0  0.00000000000E+00  0.00000000000E+00  0.99999998245E-14  0.12500000000E+03  0.12500000000E+03 0.  0.
        -11    1    3    3    0    0 -0.12865308743E+02 -0.64061733908E+01 -0.31710906339E+02  0.34815755165E+02  0.51100000000E-03 0. -1.
         23    2    1    0    0    0 -0.35021314236E+01 -0.15994475177E+01  0.28652569486E+02  0.96089917070E+02  0.91637761144E+02 0.  0.
         11    1    3    3    0    0  0.93631773196E+01  0.48067258730E+01  0.60363475826E+02  0.61274161905E+02  0.51100000000E-03 0.  1.
         22    1    1    0    0    0  0.35021314236E+01  0.15994475177E+01 -0.28652569486E+02  0.28910082930E+02  0.00000000000E+00 0.  1.
</event>
<event>
 5    1  0.1099741E-009  0.9118800E+02  0.7818608E-02  0.1130116E+00
         25   -1    0    0    0    0  0.00000000000E+00  0.00000000000E+00  0.99999998245E-14  0.12500000000E+03  0.12500000000E+03 0.  0.
        -11    1    3    3    0    0 -0.20441435285E+02 -0.18492485246E+01  0.41180844260E+02  0.46012323684E+02  0.51100000000E-03 0.  1.
         23    2    1    0    0    0 -0.26851341464E+02 -0.25345324879E+02  0.79206153637E+01  0.87236046561E+02  0.78638487016E+02 0.  0.
         11    1    3    3    0    0 -0.64099061793E+01 -0.23496076354E+02 -0.33260228896E+02  0.41223722876E+02  0.51100000000E-03 0. -1.
         22    1    1    0    0    0  0.26851341464E+02  0.25345324879E+02 -0.79206153637E+01  0.37763953439E+02  0.00000000000E+00 0. -1.
</event>
<event>
 5    1  0.1099741E-009  0.9118800E+02  0.7818608E-02  0.1130116E+00
         25   -1    0    0    0    0  0.00000000000E+00  0.00000000000E+00  0.99999998245E-14  0.12500000000E+03  0.12500000000E+03 0.  0.
        -11    1    3    3    0    0  0.48669501486E+02  0.24715040240E+02 -0.13050218805E+02  0.56123629606E+02  0.51100000000E-03 0. -1.
         23    2    1    0    0    0  0.24730430127E+02 -0.85115020757E+01 -0.93974388918E+00  0.98828967150E+02  0.95300796364E+02 0.  0.
         11    1    3    3    0    0 -0.23939071360E+02 -0.33226542316E+02  0.12110474916E+02  0.42705337544E+02  0.51100000000E-03 0.  1.
         22    1    1    0    0    0 -0.24730430127E+02  0.85115020757E+01  0.93974388918E+00  0.26171032850E+02  0.00000000000E+00 0. -1.
</event>
<event>
 5    1  0.1099741E-009  0.9118800E+02  0.7818608E-02  0.1130116E+00
         25   -1    0    0    0    0  0.00000000000E+00  0.00000000000E+00  0.99999998245E-14  0.12500000000E+03  0.12500000000E+03 0.  0.
        -11    1    3    3    0    0  0.32341762003E+02  0.33228130198E+02 -0.39456744964E+02  0.60884586960E+02  0.51100000000E-03 0. -1.
         23    2    1    0    0    0  0.86238002558E+01  0.23263376302E+02 -0.19415487521E+02  0.93495781814E+02  0.88028094683E+02 0.  0.
         11    1    3    3    0    0 -0.23717961748E+02 -0.99647538965E+01  0.20041257442E+02  0.32611194854E+02  0.51100000000E-03 0.  1.
         22    1    1    0    0    0 -0.86238002558E+01 -0.23263376302E+02  0.19415487521E+02  0.31504218186E+02  0.00000000000E+00 0. -1.
</event>
<event>
 5    1  0.1099741E-009  0.9118800E+02  0.7818608E-02  0.1130116E+00
         25   -1    0    0    0    0  0.00000000000E+00  0.00000000000E+00  0.99999998245E-14  0.12500000000E+03  0.12500000000E+03 0.  0.
        -11    1    3    3    0    0  0.16224153152E+02 -0.11142400097E+02 -0.58627024168E+02  0.61842575856E+02  0.51100000000E-03 0. -1.
         23    2    1    0    0    0  0.74022337018E+01  0.14505792274E+01 -0.26296784584E+02  0.97642768354E+02  0.93732022749E+02 0.  0.
         11    1    3    3    0    0 -0.88219194503E+01  0.12592979324E+02  0.32330239585E+02  0.35800192498E+02  0.51100000000E-03 0.  1.
         22    1    1    0    0    0 -0.74022337018E+01 -0.14505792274E+01  0.26296784584E+02  0.27357231646E+02  0.00000000000E+00 0. -1.
</event>
<event>
 5    1  0.1099741E-009  0.9118800E+02  0.7818608E-02  0.1130116E+00
         25   -1    0    0    0    0  0.00000000000E+00  0.00000000000E+00  0.99999998245E-14  0.12500000000E+03  0.12500000000E+03 0.  0.
        -11    1    3    3    0    0  0.35183949470E+01  0.40688503467E+02 -0.49997147438E+00  0.40843400803E+02  0.51100000000E-03 0.  1.
         23    2    1    0    0    0 -0.66648324004E+01 -0.64492996130E+01  0.27064594381E+02  0.96390460936E+02  0.92046810016E+02 0.  0.
         11    1    3    3    0    0 -0.10183227347E+02 -0.47137803080E+02  0.27564565856E+02  0.55547060134E+02  0.51100000000E-03 0. -1.
         22    1    1    0    0    0  0.66648324004E+01  0.64492996130E+01 -0.27064594381E+02  0.28609539064E+02  0.00000000000E+00 0. -1.
</event>
<event>
 5    1  0.1099741E-009  0.9118800E+02  0.7818608E-02  0.1130116E+00
         25   -1    0    0    0    0  0.00000000000E+00  0.00000000000E+00  0.99999998245E-14  0.12500000000E+03  0.12500000000E+03 0.  0.
        -11    1    3    3    0    0  0.22909499979E+02  0.43990528220E+02 -0.14878930017E+02  0.51782181502E+02  0.51100000000E-03 0. -1.
         23    2    1    0    0    0  0.17466986022E+02  0.13353170022E+01 -0.23550254754E+02  0.95648796086E+02  0.91034054186E+02 0.  0.
         11    1    3    3    0    0 -0.54425139571E+01 -0.42655211218E+02 -0.86713247370E+01  0.43866614585E+02  0.51100000000E-03 0.  1.
         22    1    1    0    0    0 -0.17466986022E+02 -0.13353170022E+01  0.23550254754E+02  0.29351203914E+02  0.00000000000E+00 0. -1.
</event>
<event>
 5    1  0.1099741E-009  0.9118800E+02  0.7818608E-02  0.1130116E+00
         25   -1    0    0    0    0  0.00000000000E+00  0.00000000000E+00  0.99999998245E-14  0.12500000000E+03  0.12500000000E+03 0.  0.
        -11    1    3    3    0    0  0.36678989575E+02 -0.33277997213E+02 -0.13790982826E+02  0.51409771273E+02  0.51100000000E-03 0. -1.
         23    2    1    0    0    0 -0.53447826228E+01 -0.29357410856E+02 -0.27667937455E+01  0.95032026744E+02  0.90183184053E+02 0.  0.
         11    1    3    3    0    0 -0.42023772198E+02  0.39205863570E+01  0.11024189081E+02  0.43622255470E+02  0.51100000000E-03 0.  1.
         22    1    1    0    0    0  0.53447826228E+01  0.29357410856E+02  0.27667937455E+01  0.29967973256E+02  0.00000000000E+00 0.  1.
</event>
<event>
 5    1  0.1099741E-009  0.9118800E+02  0.7818608E-02  0.1130116E+00
         25   -1    0    0    0    0  0.00000000000E+00  0.00000000000E+00  0.99999998245E-14  0.12500000000E+03  0.12500000000E+03 0.  0.
        -11    1    3    3    0    0 -0.77517196942E+00  0.48964066262E+02  0.76523168558E+01  0.49564489607E+02  0.51100000000E-03 0.  1.
         23    2    1    0    0    0  0.17181588266E+02  0.15297350253E+02 -0.18210625533E+02  0.95659877600E+02  0.91049269081E+02 0.  0.
         11    1    3    3    0    0  0.17956760236E+02 -0.33666716009E+02 -0.25862942389E+02  0.46095387993E+02  0.51100000000E-03 0. -1.
         22    1    1    0    0    0 -0.17181588266E+02 -0.15297350253E+02  0.18210625533E+02  0.29340122400E+02  0.00000000000E+00 0. -1.
</event>
<event>
 5    1  0.1099741E-009  0.9118800E+02  0.7818608E-02  0.1130116E+00
         25   -1    0    0    0    0  0.00000000000E+00  0.00000000000E+00  0.99999998245E-14  0.12500000000E+03  0.12500000000E+03 0.  0.
        -11    1    3    3    0    0  0.21851624474E+02 -0.69507622023E+01  0.25873370476E+02  0.34572212649E+02  0.51100000000E-03 0. -1.
         23    2    1    0    0    0 -0.26544146445E+02  0.12689920361E+02 -0.48702196935E+01  0.95178114930E+02  0.90385445357E+02 0.  0.
         11    1    3    3    0    0 -0.48395770920E+02  0.19640682563E+02 -0.30743590170E+02  0.60605902281E+02  0.51100000000E-03 0.  1.
         22    1    1    0    0    0  0.26544146445E+02 -0.12689920361E+02  0.48702196935E+01  0.29821885070E+02  0.00000000000E+00 0.  1.
</event>
<event>
 5    1  0.1099741E-009  0.9118800E+02  0.7818608E-02  0.1130116E+00
         25   -1    0    0    0    0  0.00000000000E+00  0.00000000000E+00  0.99999998245E-14  0.12500000000E+03  0.12500000000E+03 0.  0.
        -11    1    3    3    0    0 -0.16588113336E+02  0.55905959259E+02  0.10469640203E+02  0.59247406280E+02  0.51100000000E-03 0.  1.
         23    2    1    0    0    0 -0.12681070216E+01  0.23135746353E+02  0.17328704397E+02  0.96066371628E+02  0.91605637964E+02 0.  0.
         11    1    3    3    0    0  0.15320006315E+02 -0.32770212906E+02  0.68590641937E+01  0.36818965347E+02  0.51100000000E-03 0. -1.
         22    1    1    0    0    0  0.12681070216E+01 -0.23135746353E+02 -0.17328704397E+02  0.28933628372E+02  0.00000000000E+00 0.  1.
</event>
<event>
 5    1  0.1099741E-009  0.9118800E+02  0.7818608E-02  0.1130116E+00
         25   -1    0    0    0    0  0.00000000000E+00  0.00000000000E+00  0.99999998245E-14  0.12500000000E+03  0.12500000000E+03 0.  0.
        -11    1    3    3    0    0 -0.27605132360E+02 -0.30094283403E+02 -0.37460877505E+02  0.55416843738E+02  0.51100000000E-03 0. -1.
         23    2    1    0    0    0 -0.97591197973E+01 -0.27349064414E+02 -0.11852030153E+01  0.95937714307E+02  0.91429910733E+02 0.  0.
         11    1    3    3    0    0  0.17846012562E+02  0.27452189895E+01  0.36275674490E+02  0.40520870569E+02  0.51100000000E-03 0.  1.
         22    1    1    0    0    0  0.97591197973E+01  0.27349064414E+02  0.11852030153E+01  0.29062285693E+02  0.00000000000E+00 0. -1.
</event>
<event>
 5    1  0.1099741E-009  0.9118800E+02  0.7818608E-02  0.1130116E+00
         25   -1    0    0    0    0  0.00000000000E+00  0.00000000000E+00  0.99999998245E-14  0.12500000000E+03  0.12500000000E+03 0.  0.
        -11    1    3    3    0    0 -0.26795515378E+02  0.36425815335E+02 -0.38412987343E+02  0.59332935745E+02  0.51100000000E-03 0.  1.
         23    2    1    0    0    0 -0.15615625459E+02  0.24978848689E+02 -0.67963370899E+01  0.94767883995E+02  0.89816318109E+02 0.  0.
         11    1    3    3    0    0  0.11179889919E+02 -0.11446966646E+02  0.31616650253E+02  0.35434948250E+02  0.51100000000E-03 0. -1.
         22    1    1    0    0    0  0.15615625459E+02 -0.24978848689E+02  0.67963370899E+01  0.30232116005E+02  0.00000000000E+00 0.  1.
</event>
<event>
 5    1  0.1099741E-009  0.9118800E+02  0.7818608E-02  0.1130116E+00
         25   -1    0    0    0    0  0.00000000000E+00  0.00000000000E+00  0.99999998245E-14  0.12500000000E+03  0.12500000000E+03 0.  0.
        -11    1    3    3    0    0  0.59587806406E+01  0.51499489466E+02  0.20223641105E+02  0.55648002137E+02  0.51100000000E-03 0.  1.
         23    2    1    0    0    0  0.21764350064E+02  0.20330236971E+02  0.17792193277E+01  0.95164264876E+02  0.90366289173E+02 0.  0.
         11    1    3    3    0    0  0.15805569423E+02 -0.31169252495E+02 -0.18444421777E+02  0.39516262739E+02  0.51100000000E-03 0. -1.
         22    1    1    0    0    0 -0.21764350064E+02 -0.20330236971E+02 -0.17792193277E+01  0.29835735124E+02  0.00000000000E+00 0.  1.
</event>
<event>
 5    1  0.1099741E-009  0.9118800E+02  0.7818608E-02  0.1130116E+00
         25   -1    0    0    0    0  0.00000000000E+00  0.00000000000E+00  0.99999998245E-14  0.12500000000E+03  0.12500000000E+03 0.  0.
        -11    1    3    3    0    0 -0.22129310476E+02  0.23960668407E+02 -0.27626288206E+02  0.42743792683E+02  0.51100000000E-03 0. -1.
         23    2    1    0    0    0 -0.87050599753E+01 -0.25120746113E+02 -0.10035368409E+02  0.96582776815E+02  0.92307606424E+02 0.  0.
         11    1    3    3    0    0  0.13424250500E+02 -0.49081414520E+02  0.17590919796E+02  0.53838984132E+02  0.51100000000E-03 0.  1.
         22    1    1    0    0    0  0.87050599753E+01  0.25120746113E+02  0.10035368409E+02  0.28417223185E+02  0.00000000000E+00 0.  1.
</event>
<event>
 5    1  0.1099741E-009  0.9118800E+02  0.7818608E-02  0.1130116E+00
         25   -1    0    0    0    0  0.00000000000E+00  0.00000000000E+00  0.99999998245E-14  0.12500000000E+03  0.12500000000E+03 0.  0.
        -11    1    3    3    0    0 -0.14449489609E+02 -0.58819142772E+02  0.13082112585E+02  0.61964675230E+02  0.51100000000E-03 0.  1.
         23    2    1    0    0    0 -0.12767163114E+02 -0.27810397967E+02  0.59990796633E+01  0.93816548526E+02  0.88482411424E+02 0.  0.
         11    1    3    3    0    0  0.16823264955E+01  0.31008744805E+02 -0.70830329218E+01  0.31851873296E+02  0.51100000000E-03 0. -1.
         22    1    1    0    0    0  0.12767163114E+02  0.27810397967E+02 -0.59990796633E+01  0.31183451474E+02  0.00000000000E+00 0.  1.
</event>
<event>
 5    1  0.1099741E-009  0.9118800E+02  0.7818608E-02  0.1130116E+00
         25   -1    0    0    0    0  0.00000000000E+00  0.00000000000E+00  0.99999998245E-14  0.12500000000E+03  0.12500000000E+03 0.  0.
        -11    1    3    3    0    0  0.27770014621E+00  0.40256130742E+02 -0.74547574260E+01  0.40941502027E+02  0.51100000000E-03 0. -1.
         23    2    1    0    0    0  0.11997095780E+02 -0.20056289459E+00  0.27061611160E+02  0.95397612745E+02  0.90688495336E+02 0.  0.
         11    1    3    3    0    0  0.11719395633E+02 -0.40456693636E+02  0.34516368586E+02  0.54456110719E+02  0.51100000000E-03 0.  1.
         22    1    1    0    0    0 -0.11997095780E+02  0.20056289459E+00 -0.27061611160E+02  0.29602387255E+02  0.00000000000E+00 0. -1.
</event>
<event>
 5    1  0.1099741E-009  0.9118800E+02  0.7818608E-02  0.1130116E+00
         25   -1    0    0    0    0  0.00000000000E+00  0.00000000000E+00  0.99999998245E-14  0.12500000000E+03  0.12500000000E+03 0.  0.
        -11    1    3    3    0    0 -0.30529298886E+02  0.22806620464E+02  0.19484116185E+02  0.42799659009E+02  0.51100000000E-03 0. -1.
         23    2    1    0    0    0  0.14632408620E+02  0.30515566578E+02  0.11162632675E+02  0.89364181589E+02  0.81951481971E+02 0.  0.
         11    1    3    3    0    0  0.45161707506E+02  0.77089461131E+01 -0.83214835101E+01  0.46564522580E+02  0.51100000000E-03 0.  1.
         22    1    1    0    0    0 -0.14632408620E+02 -0.30515566578E+02 -0.11162632675E+02  0.35635818411E+02  0.00000000000E+00 0. -1.
</event>
<event>
 5    1  0.1099741E-009  0.9118800E+02  0.7818608E-02  0.1130116E+00
         25   -1    0    0    0    0  0.00000000000E+00  0.00000000000E+00  0.99999998245E-14  0.12500000000E+03  0.12500000000E+03 0.  0.
        -11    1    3    3    0    0  0.33094960415E+02  0.28997371797E+02 -0.31588080891E+02  0.54165771763E+02  0.51100000000E-03 0.  1.
         23    2    1    0    0    0  0.25882582234E+02 -0.68595716099E+01 -0.11969651561E+02  0.95670248138E+02  0.91063505503E+02 0.  0.
         11    1    3    3    0    0 -0.72123781811E+01 -0.35856943407E+02  0.19618429330E+02  0.41504476375E+02  0.51100000000E-03 0. -1.
         22    1    1    0    0    0 -0.25882582234E+02  0.68595716099E+01  0.11969651561E+02  0.29329751862E+02  0.00000000000E+00 0.  1.
</event>
<event>
 5    1  0.1099741E-009  0.9118800E+02  0.7818608E-02  0.1130116E+00
         25   -1    0    0    0    0  0.00000000000E+00  0.00000000000E+00  0.99999998245E-14  0.12500000000E+03  0.12500000000E+03 0.  0.
        -11    1    3    3    0    0 -0.20858467230E+02  0.34774458710E+02  0.17950556445E+02  0.44345925525E+02  0.51100000000E-03 0.  1.
         23    2    1    0    0    0 -0.16856971896E+02 -0.17890967275E+02  0.12440716639E+02  0.97449761489E+02  0.93474276527E+02 0.  0.
         11    1    3    3    0    0  0.40014953336E+01 -0.52665425985E+02 -0.55098398057E+01  0.53103835964E+02  0.51100000000E-03 0. -1.
         22    1    1    0    0    0  0.16856971896E+02  0.17890967275E+02 -0.12440716639E+02  0.27550238511E+02  0.00000000000E+00 0. -1.
</event>
<event>
 5    1  0.1099741E-009  0.9118800E+02  0.7818608E-02  0.1130116E+00
         25   -1    0    0    0    0  0.00000000000E+00  0.00000000000E+00  0.99999998245E-14  0.12500000000E+03  0.12500000000E+03 0.  0.
        -11    1    3    3    0    0  0.88080149083E+01  0.68693811169E+01 -0.30982436901E+02  0.32934494381E+02  0.51100000000E-03 0. -1.
         23    2    1    0    0    0 -0.17575128908E+02 -0.71920811471E+01  0.23322059235E+02  0.94924600845E+02  0.90034161357E+02 0.  0.
         11    1    3    3    0    0 -0.26383143816E+02 -0.14061462264E+02  0.54304496136E+02  0.61990106464E+02  0.51100000000E-03 0.  1.
         22    1    1    0    0    0  0.17575128908E+02  0.71920811471E+01 -0.23322059235E+02  0.30075399155E+02  0.00000000000E+00 0.  1.
</event>
<event>
 5    1  0.1099741E-009  0.9118800E+02  0.7818608E-02  0.1130116E+00
         25   -1    0    0    0    0  0.00000000000E+00  0.00000000000E+00  0.99999998245E-14  0.12500000000E+03  0.12500000000E+03 0.  0.
        -11    1    3    3    0    0  0.40831876440E+02 -0.27902381015E+02  0.24467597080E+01  0.49515367647E+02  0.51100000000E-03 0. -1.
         23    2    1    0    0    0 -0.44755372958E+00 -0.27954129143E+02  0.15782068938E+02  0.92895368863E+02  0.87171338270E+02 0.  0.
         11    1    3    3    0    0 -0.41279430169E+02 -0.51748128357E-01  0.13335309230E+02  0.43380001216E+02  0.51100000000E-03 0.  1.
         22    1    1    0    0    0  0.44755372958E+00  0.27954129143E+02 -0.15782068938E+02  0.32104631137E+02  0.00000000000E+00 0. -1.
</event>
<event>
 5    1  0.1099741E-009  0.9118800E+02  0.7818608E-02  0.1130116E+00
         25   -1    0    0    0    0  0.00000000000E+00  0.00000000000E+00  0.99999998245E-14  0.12500000000E+03  0.12500000000E+03 0.  0.
        -11    1    3    3    0    0  0.26103725299E+02 -0.23647537999E+02 -0.18485204800E+02  0.39778302184E+02  0.51100000000E-03 0.  1.
         23    2    1    0    0    0 -0.75853568440E+01  0.20072197311E+02 -0.20928296744E+02  0.95026272371E+02  0.90175207750E+02 0.  0.
         11    1    3    3    0    0 -0.33689082143E+02  0.43719735310E+02 -0.24430919446E+01  0.55247970187E+02  0.51100000000E-03 0. -1.
         22    1    1    0    0    0  0.75853568440E+01 -0.20072197311E+02  0.20928296744E+02  0.29973727629E+02  0.00000000000E+00 0. -1.
</event>
<event>
 5    1  0.1099741E-009  0.9118800E+02  0.7818608E-02  0.1130116E+00
         25   -1    0    0    0    0  0.00000000000E+00  0.00000000000E+00  0.99999998245E-14  0.12500000000E+03  0.12500000000E+03 0.  0.
        -11    1    3    3    0    0 -0.10032989002E+02 -0.31429894795E+02 -0.21111581499E+02  0.39168840023E+02  0.51100000000E-03 0. -1.
         23    2    1    0    0    0  0.18390137291E+02  0.17665898206E+02 -0.12676707932E+02  0.96522288839E+02  0.92225659172E+02 0.  0.
         11    1    3    3    0    0  0.28423126293E+02  0.49095793001E+02  0.84348735671E+01  0.57353448815E+02  0.51100000000E-03 0.  1.
         22    1    1    0    0    0 -0.18390137291E+02 -0.17665898206E+02  0.12676707932E+02  0.28477711161E+02  0.00000000000E+00 0.  1.
</event>
<event>
 5    1  0.1099741E-009  0.9118800E+02  0.7818608E-02  0.1130116E+00
         25   -1    0    0    0    0  0.00000000000E+00  0.00000000000E+00  0.99999998245E-14  0.12500000000E+03  0.12500000000E+03 0.  0.
        -11    1    3    3    0    0 -0.18454133766E+02  0.27906378072E+02  0.47926985660E+02  0.58449268129E+02  0.51100000000E-03 0.  1.
         23    2    1    0    0    0 -0.20253442764E+01  0.21566694993E+02  0.83181372891E+01  0.10179621237E+03  0.99116361378E+02 0.  0.
         11    1    3    3    0    0  0.16428789489E+02 -0.63396830790E+01 -0.39608848370E+02  0.43346944242E+02  0.51100000000E-03 0. -1.
         22    1    1    0    0    0  0.20253442764E+01 -0.21566694993E+02 -0.83181372891E+01  0.23203787629E+02  0.00000000000E+00 0.  1.
</event>
<event>
 5    1  0.1099741E-009  0.9118800E+02  0.7818608E-02  0.1130116E+00
         25   -1    0    0    0    0  0.00000000000E+00  0.00000000000E+00  0.99999998245E-14  0.12500000000E+03  0.12500000000E+03 0.  0.
        -11    1    3    3    0    0  0.59998598134E+01 -0.24499988677E+02  0.23110212206E+02  0.34210081429E+02  0.51100000000E-03 0.  1.
         23    2    1    0    0    0  0.97483842051E+01  0.90731072819E+01 -0.27145054138E+02  0.94764156461E+02  0.89811130242E+02 0.  0.
         11    1    3    3    0    0  0.37485243918E+01  0.33573095959E+02 -0.50255266344E+02  0.60554075032E+02  0.51100000000E-03 0. -1.
         22    1    1    0    0    0 -0.97483842051E+01 -0.90731072819E+01  0.27145054138E+02  0.30235843539E+02  0.00000000000E+00 0. -1.
</event>
<event>
 5    1  0.1099741E-009  0.9118800E+02  0.7818608E-02  0.1130116E+00
         25   -1    0    0    0    0  0.00000000000E+00  0.00000000000E+00  0.99999998245E-14  0.12500000000E+03  0.12500000000E+03 0.  0.
        -11    1    3    3    0    0  0.72911940679E+01 -0.21493323635E+02  0.49557172461E+02  0.54507227176E+02  0.51100000000E-03 0.  1.
         23    2    1    0    0    0  0.58195794836E+01 -0.27585923550E+02  0.92065346339E+01  0.95341763987E+02  0.90611483801E+02 0.  0.
         11    1    3    3    0    0 -0.14716145843E+01 -0.60925999146E+01 -0.40350637827E+02  0.40834536811E+02  0.51100000000E-03 0. -1.
         22    1    1    0    0    0 -0.58195794836E+01  0.27585923550E+02 -0.92065346339E+01  0.29658236013E+02  0.00000000000E+00 0.  1.
</event>
<event>
 5    1  0.1099741E-009  0.9118800E+02  0.7818608E-02  0.1130116E+00
         25   -1    0    0    0    0  0.00000000000E+00  0.00000000000E+00  0.99999998245E-14  0.12500000000E+03  0.12500000000E+03 0.  0.
        -11    1    3    3    0    0  0.22760455206E+02  0.27134333675E+02 -0.14780289154E+02  0.38376650883E+02  0.51100000000E-03 0.  1.
         23    2    1    0    0    0 -0.94811791073E+01 -0.21288105428E+02 -0.16283859226E+02  0.96570433326E+02  0.92290889754E+02 0.  0.
         11    1    3    3    0    0 -0.32241634314E+02 -0.48422439103E+02 -0.15035700712E+01  0.58193782444E+02  0.51100000000E-03 0. -1.
         22    1    1    0    0    0  0.94811791073E+01  0.21288105428E+02  0.16283859226E+02  0.28429566674E+02  0.00000000000E+00 0. -1.
</event>
<event>
 5    1  0.1099741E-009  0.9118800E+02  0.7818608E-02  0.1130116E+00
         25   -1    0    0    0    0  0.00000000000E+00  0.00000000000E+00  0.99999998245E-14  0.12500000000E+03  0.12500000000E+03 0.  0.
        -11    1    3    3    0    0  0.40751134196E+02 -0.32373734861E+02 -0.97170839826E+00  0.52054374116E+02  0.51100000000E-03 0.  1.
         23    2    1    0    0    0  0.26118941049E+02  0.10012214536E+02  0.17149904886E+01  0.96975283877E+02  0.92837605361E+02 0.  0.
         11    1    3    3    0    0 -0.14632193147E+02  0.42385949397E+02  0.26866988869E+01  0.44920909761E+02  0.51100000000E-03 0. -1.
         22    1    1    0    0    0 -0.26118941049E+02 -0.10012214536E+02 -0.17149904886E+01  0.28024716123E+02  0.00000000000E+00 0. -1.
</event>
<event>
 5    1  0.1099741E-009  0.9118800E+02  0.7818608E-02  0.1130116E+00
         25   -1    0    0    0    0  0.00000000000E+00  0.00000000000E+00  0.99999998245E-14  0.12500000000E+03  0.12500000000E+03 0.  0.
        -11    1    3    3    0    0  0.18441464013E+02  0.55477270522E+02  0.42641067936E+01  0.58617384338E+02  0.51100000000E-03 0.  1.
         23    2    1    0    0    0 -0.50544341139E+01  0.26030613134E+02  0.98738333875E+01  0.96704546123E+02  0.92472355495E+02 0.  0.
         11    1    3    3    0    0 -0.23495898127E+02 -0.29446657389E+02  0.56097265939E+01  0.38087161786E+02  0.51100000000E-03 0. -1.
         22    1    1    0    0    0  0.50544341139E+01 -0.26030613134E+02 -0.98738333875E+01  0.28295453877E+02  0.00000000000E+00 0.  1.
</event>
<event>
 5    1  0.1099741E-009  0.9118800E+02  0.7818608E-02  0.1130116E+00
         25   -1    0    0    0    0  0.00000000000E+00  0.00000000000E+00  0.99999998245E-14  0.12500000000E+03  0.12500000000E+03 0.  0.
        -11    1    3    3    0    0 -0.40628806756E+02 -0.21814125480E+02 -0.32036929522E+02  0.56150875882E+02  0.51100000000E-03 0. -1.
         23    2    1    0    0    0 -0.16974089005E+02  0.85961903094E+01 -0.21900124171E+02  0.95989146443E+02  0.91500200059E+02 0.  0.
         11    1    3    3    0    0  0.23654717752E+02  0.30410315789E+02  0.10136805351E+02  0.39838270561E+02  0.51100000000E-03 0.  1.
         22    1    1    0    0    0  0.16974089005E+02 -0.85961903094E+01  0.21900124171E+02  0.29010853557E+02  0.00000000000E+00 0. -1.
</event>
<event>
 5    1  0.1099741E-009  0.9118800E+02  0.7818608E-02  0.1130116E+00
         25   -1    0    0    0    0  0.00000000000E+00  0.00000000000E+00  0.99999998245E-14  0.12500000000E+03  0.12500000000E+03 0.  0.
        -11    1    3    3    0    0  0.17341719668E+02 -0.53689828611E+02  0.11355266629E+02  0.57552367612E+02  0.51100000000E-03 0. -1.
         23    2    1    0    0    0 -0.78586382412E+01 -0.26840500144E+02 -0.25570842192E+01  0.96916030859E+02  0.92757790588E+02 0.  0.
         11    1    3    3    0    0 -0.25200357909E+02  0.26849328466E+02 -0.13912350848E+02  0.39363663247E+02  0.51100000000E-03 0.  1.
         22    1    1    0    0    0  0.78586382412E+01  0.26840500144E+02  0.25570842192E+01  0.28083969141E+02  0.00000000000E+00 0. -1.
</event>
<event>
 5    1  0.1099741E-009  0.9118800E+02  0.7818608E-02  0.1130116E+00
         25   -1    0    0    0    0  0.00000000000E+00  0.00000000000E+00  0.99999998245E-14  0.12500000000E+03  0.12500000000E+03 0.  0.
        -11    1    3    3    0    0 -0.21526197227E+02  0.18395254233E+02 -0.16933407350E+02  0.32992466263E+02  0.51100000000E-03 0. -1.
         23    2    1    0    0    0  0.88496729724E+01 -0.19034686481E+02  0.21730024998E+02  0.94786923567E+02  0.89842812131E+02 0.  0.
         11    1    3    3    0    0  0.30375870199E+02 -0.37429940714E+02  0.38663432348E+02  0.61794457304E+02  0.51100000000E-03 0.  1.
         22    1    1    0    0    0 -0.88496729724E+01  0.19034686481E+02 -0.21730024998E+02  0.30213076433E+02  0.00000000000E+00 0.  1.
</event>
<event>
 5    1  0.1099741E-009  0.9118800E+02  0.7818608E-02  0.1130116E+00
         25   -1    0    0    0    0  0.00000000000E+00  0.00000000000E+00  0.99999998245E-14  0.12500000000E+03  0.12500000000E+03 0.  0.
        -11    1    3    3    0    0  0.45629680827E+02  0.23703787042E+02  0.10173647581E+02  0.52416031879E+02  0.51100000000E-03 0. -1.
         23    2    1    0    0    0  0.19114178981E+02  0.79236639363E+01 -0.20463625258E+02  0.95898518131E+02  0.91376307283E+02 0.  0.
         11    1    3    3    0    0 -0.26515501846E+02 -0.15780123106E+02 -0.30637272838E+02  0.43482486252E+02  0.51100000000E-03 0.  1.
         22    1    1    0    0    0 -0.19114178981E+02 -0.79236639363E+01  0.20463625258E+02  0.29101481869E+02  0.00000000000E+00 0.  1.
</event>
<event>
 5    1  0.1099741E-009  0.9118800E+02  0.7818608E-02  0.1130116E+00
         25   -1    0    0    0    0  0.00000000000E+00  0.00000000000E+00  0.99999998245E-14  0.12500000000E+03  0.12500000000E+03 0.  0.
        -11    1    3    3    0    0  0.70548348226E+01 -0.20160041806E+02 -0.49945778412E+02  0.54321071063E+02  0.51100000000E-03 0.  1.
         23    2    1    0    0    0 -0.16272288688E+02 -0.15125231038E+02 -0.10491770066E+02  0.10043097006E+03  0.97379374177E+02 0.  0.
         11    1    3    3    0    0 -0.23327123510E+02  0.50348107687E+01  0.39454008346E+02  0.46109898997E+02  0.51100000000E-03 0. -1.
         22    1    1    0    0    0  0.16272288688E+02  0.15125231038E+02  0.10491770066E+02  0.24569029940E+02  0.00000000000E+00 0.  1.
</event>
<event>
 5    1  0.1099741E-009  0.9118800E+02  0.7818608E-02  0.1130116E+00
         25   -1    0    0    0    0  0.00000000000E+00  0.00000000000E+00  0.99999998245E-14  0.12500000000E+03  0.12500000000E+03 0.  0.
        -11    1    3    3    0    0  0.25834176041E+02 -0.82598562851E+01 -0.71934095927E+01  0.28060203481E+02  0.51100000000E-03 0.  1.
         23    2    1    0    0    0 -0.28361537052E+02  0.38960731721E+00  0.20950550276E+02  0.89737354968E+02  0.82518717525E+02 0.  0.
         11    1    3    3    0    0 -0.54195713093E+02  0.86494636023E+01  0.28143959868E+02  0.61677151487E+02  0.51100000000E-03 0. -1.
         22    1    1    0    0    0  0.28361537052E+02 -0.38960731721E+00 -0.20950550276E+02  0.35262645032E+02  0.00000000000E+00 0. -1.
</event>
<event>
 5    1  0.1099741E-009  0.9118800E+02  0.7818608E-02  0.1130116E+00
         25   -1    0    0    0    0  0.00000000000E+00  0.00000000000E+00  0.99999998245E-14  0.12500000000E+03  0.12500000000E+03 0.  0.
        -11    1    3    3    0    0 -0.49971281663E+01 -0.14755000593E+02 -0.57553822044E+02  0.59624858612E+02  0.51100000000E-03 0. -1.
         23    2    1    0    0    0  0.52221026943E+01  0.42111051025E+01 -0.28059815348E+02  0.96149402084E+02  0.91718866767E+02 0.  0.
         11    1    3    3    0    0  0.10219230861E+02  0.18966105695E+02  0.29494006696E+02  0.36524543472E+02  0.51100000000E-03 0.  1.
         22    1    1    0    0    0 -0.52221026943E+01 -0.42111051025E+01  0.28059815348E+02  0.28850597916E+02  0.00000000000E+00 0. -1.
</event>
<event>
 5    1  0.1099741E-009  0.9118800E+02  0.7818608E-02  0.1130116E+00
         25   -1    0    0    0    0  0.00000000000E+00  0.00000000000E+00  0.99999998245E-14  0.12500000000E+03  0.12500000000E+03 0.  0.
        -11    1    3    3    0    0  0.59415341572E+01 -0.17870653810E+02 -0.28270597479E+02  0.33968938426E+02  0.51100000000E-03 0.  1.
         23    2    1    0    0    0 -0.14765566106E+02  0.22657749988E+01  0.25752356739E+02  0.95228544604E+02  0.90455160998E+02 0.  0.
         11    1    3    3    0    0 -0.20707100263E+02  0.20136428809E+02  0.54022954218E+02  0.61259606178E+02  0.51100000000E-03 0. -1.
         22    1    1    0    0    0  0.14765566106E+02 -0.22657749988E+01 -0.25752356739E+02  0.29771455396E+02  0.00000000000E+00 0. -1.
</event>
<event>
 5    1  0.1099741E-009  0.9118800E+02  0.7818608E-02  0.1130116E+00
         25   -1    0    0    0    0  0.00000000000E+00  0.00000000000E+00  0.99999998245E-14  0.12500000000E+03  0.12500000000E+03 0.  0.
        -11    1    3    3    0    0  0.61600586412E-01  0.58622575556E+02  0.75131549982E+01  0.59102095206E+02  0.51100000000E-03 0. -1.
         23    2    1    0    0    0 -0.13795783978E+02  0.22653665549E+02  0.66389417637E+01  0.97657948758E+02  0.93752264983E+02 0.  0.
         11    1    3    3    0    0 -0.13857384564E+02 -0.35968910007E+02 -0.87421323444E+00  0.38555853552E+02  0.51100000000E-03 0.  1.
         22    1    1    0    0    0  0.13795783978E+02 -0.22653665549E+02 -0.66389417637E+01  0.27342051242E+02  0.00000000000E+00 0.  1.
</event>
<event>
 5    1  0.1099741E-009  0.9118800E+02  0.7818608E-02  0.1130116E+00
         25   -1    0    0    0    0  0.00000000000E+00  0.00000000000E+00  0.99999998245E-14  0.12500000000E+03  0.12500000000E+03 0.  0.
        -11    1    3    3    0    0  0.75261411487E+01  0.10240252796E+02 -0.42864500109E+02  0.44708734580E+02  0.51100000000E-03 0.  1.
         23    2    1    0    0    0 -0.28700047880E+02 -0.70082207601E-01 -0.10273418725E+02  0.94516548881E+02  0.89465843875E+02 0.  0.
         11    1    3    3    0    0 -0.36226189028E+02 -0.10310335004E+02  0.32591081384E+02  0.49807814301E+02  0.51100000000E-03 0. -1.
         22    1    1    0    0    0  0.28700047880E+02  0.70082207601E-01  0.10273418725E+02  0.30483451119E+02  0.00000000000E+00 0. -1.
</event>
<event>
 5    1  0.1099741E-009  0.9118800E+02  0.7818608E-02  0.1130116E+00
         25   -1    0    0    0    0  0.00000000000E+00  0.00000000000E+00  0.99999998245E-14  0.12500000000E+03  0.12500000000E+03 0.  0.
        -11    1    3    3    0    0 -0.82633005977E+01 -0.39971501813E+02 -0.40259765907E+02  0.57331072248E+02  0.51100000000E-03 0.  1.
         23    2    1    0    0    0 -0.18656791463E+02 -0.13645836276E+02 -0.29295409436E+02  0.87683706918E+02  0.79346875990E+02 0.  0.
         11    1    3    3    0    0 -0.10393490866E+02  0.26325665537E+02  0.10964356471E+02  0.30352634670E+02  0.51100000000E-03 0. -1.
         22    1    1    0    0    0  0.18656791463E+02  0.13645836276E+02  0.29295409436E+02  0.37316293082E+02  0.00000000000E+00 0.  1.
</event>
<event>
 5    1  0.1099741E-009  0.9118800E+02  0.7818608E-02  0.1130116E+00
         25   -1    0    0    0    0  0.00000000000E+00  0.00000000000E+00  0.99999998245E-14  0.12500000000E+03  0.12500000000E+03 0.  0.
        -11    1    3    3    0    0  0.28760877032E+02 -0.25965334546E+02 -0.89034258108E+01  0.39757485298E+02  0.51100000000E-03 0.  1.
         23    2    1    0    0    0 -0.31429750189E+01  0.63817864400E+01  0.26630105149E+02  0.97436110754E+02  0.93456020076E+02 0.  0.
         11    1    3    3    0    0 -0.31903852051E+02  0.32347120986E+02  0.35533530960E+02  0.57678625456E+02  0.51100000000E-03 0. -1.
         22    1    1    0    0    0  0.31429750189E+01 -0.63817864400E+01 -0.26630105149E+02  0.27563889246E+02  0.00000000000E+00 0. -1.
</event>
<event>
 5    1  0.1099741E-009  0.9118800E+02  0.7818608E-02  0.1130116E+00
         25   -1    0    0    0    0  0.00000000000E+00  0.00000000000E+00  0.99999998245E-14  0.12500000000E+03  0.12500000000E+03 0.  0.
        -11    1    3    3    0    0 -0.42055666941E+02  0.21349006117E+02 -0.36973311224E+02  0.59928999050E+02  0.51100000000E-03 0.  1.
         23    2    1    0    0    0 -0.23542386336E+02  0.17339050943E+02 -0.77546958020E+01  0.94750670272E+02  0.89792358072E+02 0.  0.
         11    1    3    3    0    0  0.18513280605E+02 -0.40099551741E+01  0.29218615422E+02  0.34821671222E+02  0.51100000000E-03 0. -1.
         22    1    1    0    0    0  0.23542386336E+02 -0.17339050943E+02  0.77546958020E+01  0.30249329728E+02  0.00000000000E+00 0.  1.
</event>
<event>
 5    1  0.1099741E-009  0.9118800E+02  0.7818608E-02  0.1130116E+00
         25   -1    0    0    0    0  0.00000000000E+00  0.00000000000E+00  0.99999998245E-14  0.12500000000E+03  0.12500000000E+03 0.  0.
        -11    1    3    3    0    0 -0.13393164057E+02 -0.12288913182E+02  0.18055915241E+02  0.25620505578E+02  0.51100000000E-03 0.  1.
         23    2    1    0    0    0  0.84781683117E+01  0.66187947266E+01 -0.36274540858E+02  0.87164433452E+02  0.78524571715E+02 0.  0.
         11    1    3    3    0    0  0.21871332368E+02  0.18907707909E+02 -0.54330456099E+02  0.61543927874E+02  0.51100000000E-03 0. -1.
         22    1    1    0    0    0 -0.84781683117E+01 -0.66187947266E+01  0.36274540858E+02  0.37835566548E+02  0.00000000000E+00 0. -1.
</event>
<event>
 5    1  0.1099741E-009  0.9118800E+02  0.7818608E-02  0.1130116E+00
         25   -1    0    0    0    0  0.00000000000E+00  0.00000000000E+00  0.99999998245E-14  0.12500000000E+03  0.12500000000E+03 0.  0.
        -11    1    3    3    0    0  0.69379613973E+01 -0.45163789921E+02 -0.40878422560E+02  0.61310265533E+02  0.51100000000E-03 0.  1.
         23    2    1    0    0    0  0.67949596290E+01 -0.14437372739E+02 -0.23451290702E+02  0.96635017300E+02  0.92378321726E+02 0.  0.
         11    1    3    3    0    0 -0.14300176824E+00  0.30726417182E+02  0.17427131858E+02  0.35324751767E+02  0.51100000000E-03 0. -1.
         22    1    1    0    0    0 -0.67949596290E+01  0.14437372739E+02  0.23451290702E+02  0.28364982700E+02  0.00000000000E+00 0.  1.
</event>
<event>
 5    1  0.1099741E-009  0.9118800E+02  0.7818608E-02  0.1130116E+00
         25   -1    0    0    0    0  0.00000000000E+00  0.00000000000E+00  0.99999998245E-14  0.12500000000E+03  0.12500000000E+03 0.  0.
        -11    1    3    3    0    0 -0.39044285102E+02 -0.29068708164E+02 -0.14744855260E+02  0.50861151681E+02  0.51100000000E-03 0. -1.
         23    2    1    0    0    0  0.48266148981E+01 -0.28270723106E+02 -0.77323948442E+01  0.95296129439E+02  0.90548508324E+02 0.  0.
         11    1    3    3    0    0  0.43870900000E+02  0.79798505881E+00  0.70124604154E+01  0.44434977757E+02  0.51100000000E-03 0.  1.
         22    1    1    0    0    0 -0.48266148981E+01  0.28270723106E+02  0.77323948442E+01  0.29703870561E+02  0.00000000000E+00 0. -1.
</event>
<event>
 5    1  0.1099741E-009  0.9118800E+02  0.7818608E-02  0.1130116E+00
         25   -1    0    0    0    0  0.00000000000E+00  0.00000000000E+00  0.99999998245E-14  0.12500000000E+03  0.12500000000E+03 0.  0.
        -11    1    3    3    0    0  0.40453908873E+02  0.92508418635E+00 -0.56409966317E+01  0.40855787437E+02  0.51100000000E-03 0.  1.
         23    2    1    0    0    0 -0.63595497075E+01 -0.12407698916E+02 -0.27464383488E+02  0.94199233366E+02  0.89021392606E+02 0.  0.
         11    1    3    3    0    0 -0.46813458580E+02 -0.13332783103E+02 -0.21823386856E+02  0.53343445929E+02  0.51100000000E-03 0. -1.
         22    1    1    0    0    0  0.63595497075E+01  0.12407698916E+02  0.27464383488E+02  0.30800766634E+02  0.00000000000E+00 0. -1.
</event>
<event>
 5    1  0.1099741E-009  0.9118800E+02  0.7818608E-02  0.1130116E+00
         25   -1    0    0    0    0  0.00000000000E+00  0.00000000000E+00  0.99999998245E-14  0.12500000000E+03  0.12500000000E+03 0.  0.
        -11    1    3    3    0    0  0.55296450947E+02  0.11996474659E+02 -0.24813746751E+02  0.61784584806E+02  0.51100000000E-03 0.  1.
         23    2    1    0    0    0  0.23115708649E+02  0.11242594061E+02 -0.13924125416E+02  0.95766232262E+02  0.91195164704E+02 0.  0.
         11    1    3    3    0    0 -0.32180742297E+02 -0.75388059825E+00  0.10889621335E+02  0.33981647456E+02  0.51100000000E-03 0. -1.
         22    1    1    0    0    0 -0.23115708649E+02 -0.11242594061E+02  0.13924125416E+02  0.29233767738E+02  0.00000000000E+00 0.  1.
</event>
<event>
 5    1  0.1099741E-009  0.9118800E+02  0.7818608E-02  0.1130116E+00
         25   -1    0    0    0    0  0.00000000000E+00  0.00000000000E+00  0.99999998245E-14  0.12500000000E+03  0.12500000000E+03 0.  0.
        -11    1    3    3    0    0  0.23910226510E+02  0.37894330367E+01 -0.27231447974E+02  0.36436389689E+02  0.51100000000E-03 0. -1.
         23    2    1    0    0    0  0.72346088178E+01 -0.11694561852E+02  0.26697069834E+02  0.94969417599E+02  0.90096361745E+02 0.  0.
         11    1    3    3    0    0 -0.16675617692E+02 -0.15483994889E+02  0.53928517808E+02  0.58533027910E+02  0.51100000000E-03 0.  1.
         22    1    1    0    0    0 -0.72346088178E+01  0.11694561852E+02 -0.26697069834E+02  0.30030582401E+02  0.00000000000E+00 0.  1.
</event>
<event>
 5    1  0.1099741E-009  0.9118800E+02  0.7818608E-02  0.1130116E+00
         25   -1    0    0    0    0  0.00000000000E+00  0.00000000000E+00  0.99999998245E-14  0.12500000000E+03  0.12500000000E+03 0.  0.
        -11    1    3    3    0    0  0.75538569793E+01 -0.38268655691E+02 -0.14735594219E+02  0.41697583874E+02  0.51100000000E-03 0.  1.
         23    2    1    0    0    0  0.23440073999E+02  0.10699007022E+02  0.80649401005E+01  0.98000942995E+02  0.94208469623E+02 0.  0.
         11    1    3    3    0    0  0.15886217020E+02  0.48967662713E+02  0.22800534319E+02  0.56303359121E+02  0.51100000000E-03 0. -1.
         22    1    1    0    0    0 -0.23440073999E+02 -0.10699007022E+02 -0.80649401005E+01  0.26999057005E+02  0.00000000000E+00 0. -1.
</event>
<event>
 5    1  0.1099741E-009  0.9118800E+02  0.7818608E-02  0.1130116E+00
         25   -1    0    0    0    0  0.00000000000E+00  0.00000000000E+00  0.99999998245E-14  0.12500000000E+03  0.12500000000E+03 0.  0.
        -11    1    3    3    0    0  0.28794720412E+02  0.72977191391E+01  0.56357953710E+01  0.30234993269E+02  0.51100000000E-03 0. -1.
         23    2    1    0    0    0 -0.32752278879E+02  0.17749735993E+01  0.22916963116E+01  0.92119699286E+02  0.86051872853E+02 0.  0.
         11    1    3    3    0    0 -0.61546999291E+02 -0.55227455398E+01 -0.33440990594E+01  0.61884706017E+02  0.51100000000E-03 0.  1.
         22    1    1    0    0    0  0.32752278879E+02 -0.17749735993E+01 -0.22916963116E+01  0.32880300714E+02  0.00000000000E+00 0.  1.
</event>
<event>
 5    1  0.1099741E-009  0.9118800E+02  0.7818608E-02  0.1130116E+00
         25   -1    0    0    0    0  0.00000000000E+00  0.00000000000E+00  0.99999998245E-14  0.12500000000E+03  0.12500000000E+03 0.  0.
        -11    1    3    3    0    0  0.40092771965E+02 -0.21921572739E+02  0.39904737328E+02  0.60666084237E+02  0.51100000000E-03 0.  1.
         23    2    1    0    0    0  0.19347054145E+02 -0.62022539895E+00  0.23249118397E+02  0.94747484570E+02  0.89787923143E+02 0.  0.
         11    1    3    3    0    0 -0.20745717820E+02  0.21301347340E+02 -0.16655618932E+02  0.34081400332E+02  0.51100000000E-03 0. -1.
         22    1    1    0    0    0 -0.19347054145E+02  0.62022539895E+00 -0.23249118397E+02  0.30252515430E+02  0.00000000000E+00 0.  1.
</event>
<event>
 5    1  0.1099741E-009  0.9118800E+02  0.7818608E-02  0.1130116E+00
         25   -1    0    0    0    0  0.00000000000E+00  0.00000000000E+00  0.99999998245E-14  0.12500000000E+03  0.12500000000E+03 0.  0.
        -11    1    3    3    0    0  0.36552642224E+02  0.21527234179E+02  0.13948547050E+02  0.44655116504E+02  0.51100000000E-03 0. -1.
         23    2    1    0    0    0  0.11135570128E+02  0.19774737465E+02 -0.25024808488E+02  0.91217131505E+02  0.84730648978E+02 0.  0.
         11    1    3    3    0    0 -0.25417072096E+02 -0.17524967140E+01 -0.38973355539E+02  0.46562015000E+02  0.51100000000E-03 0.  1.
         22    1    1    0    0    0 -0.11135570128E+02 -0.19774737465E+02  0.25024808488E+02  0.33782868495E+02  0.00000000000E+00 0. -1.
</event>
<event>
 5    1  0.1099741E-009  0.9118800E+02  0.7818608E-02  0.1130116E+00
         25   -1    0    0    0    0  0.00000000000E+00  0.00000000000E+00  0.99999998245E-14  0.12500000000E+03  0.12500000000E+03 0.  0.
        -11    1    3    3    0    0  0.33489390892E+01 -0.28931430085E+02 -0.54329150415E+02  0.61643325875E+02  0.51100000000E-03 0.  1.
         23    2    1    0    0    0  0.46285958413E+01 -0.73061287449E+01 -0.27755547217E+02  0.95928126685E+02  0.91416801909E+02 0.  0.
         11    1    3    3    0    0  0.12796567521E+01  0.21625301340E+02  0.26573603198E+02  0.34284800811E+02  0.51100000000E-03 0. -1.
         22    1    1    0    0    0 -0.46285958413E+01  0.73061287449E+01  0.27755547217E+02  0.29071873315E+02  0.00000000000E+00 0.  1.
</event>
<event>
 5    1  0.1099741E-009  0.9118800E+02  0.7818608E-02  0.1130116E+00
         25   -1    0    0    0    0  0.00000000000E+00  0.00000000000E+00  0.99999998245E-14  0.12500000000E+03  0.12500000000E+03 0.  0.
        -11    1    3    3    0    0 -0.14853308573E+02  0.58999444124E+02 -0.76883486046E+01  0.61324268336E+02  0.51100000000E-03 0. -1.
         23    2    1    0    0    0  0.78062142031E+00  0.27925434289E+02  0.49553565541E+00  0.97059262615E+02  0.92950608678E+02 0.  0.
         11    1    3    3    0    0  0.15633929993E+02 -0.31074009834E+02  0.81838842600E+01  0.35734994278E+02  0.51100000000E-03 0.  1.
         22    1    1    0    0    0 -0.78062142031E+00 -0.27925434289E+02 -0.49553565541E+00  0.27940737385E+02  0.00000000000E+00 0. -1.
</event>
<event>
 5    1  0.1099741E-009  0.9118800E+02  0.7818608E-02  0.1130116E+00
         25   -1    0    0    0    0  0.00000000000E+00  0.00000000000E+00  0.99999998245E-14  0.12500000000E+03  0.12500000000E+03 0.  0.
        -11    1    3    3    0    0 -0.25157839840E+02 -0.23424419016E+02 -0.78788498316E+00  0.34383732704E+02  0.51100000000E-03 0. -1.
         23    2    1    0    0    0  0.18498002350E+02  0.16615228909E+02 -0.15859940237E+02  0.95507973502E+02  0.90840483131E+02 0.  0.
         11    1    3    3    0    0  0.43655842190E+02  0.40039647925E+02 -0.15072055254E+02  0.61124240798E+02  0.51100000000E-03 0.  1.
         22    1    1    0    0    0 -0.18498002350E+02 -0.16615228909E+02  0.15859940237E+02  0.29492026498E+02  0.00000000000E+00 0.  1.
</event>
<event>
 5    1  0.1099741E-009  0.9118800E+02  0.7818608E-02  0.1130116E+00
         25   -1    0    0    0    0  0.00000000000E+00  0.00000000000E+00  0.99999998245E-14  0.12500000000E+03  0.12500000000E+03 0.  0.
        -11    1    3    3    0    0 -0.37017662609E+02 -0.11886148475E+02  0.48277021610E+02  0.61985955558E+02  0.51100000000E-03 0.  1.
         23    2    1    0    0    0 -0.14775155749E+02 -0.12602390009E+01  0.25245421830E+02  0.95721599205E+02  0.91133966233E+02 0.  0.
         11    1    3    3    0    0  0.22242506861E+02  0.10625909474E+02 -0.23031599780E+02  0.33735643647E+02  0.51100000000E-03 0. -1.
         22    1    1    0    0    0  0.14775155749E+02  0.12602390009E+01 -0.25245421830E+02  0.29278400795E+02  0.00000000000E+00 0.  1.
</event>
<event>
 5    1  0.1099741E-009  0.9118800E+02  0.7818608E-02  0.1130116E+00
         25   -1    0    0    0    0  0.00000000000E+00  0.00000000000E+00  0.99999998245E-14  0.12500000000E+03  0.12500000000E+03 0.  0.
        -11    1    3    3    0    0 -0.32202884664E+02  0.31686766505E+02 -0.22411995533E+01  0.45233836096E+02  0.51100000000E-03 0.  1.
         23    2    1    0    0    0  0.84312121650E+01  0.94977373359E+01 -0.25102000586E+02  0.96868117971E+02  0.92693200898E+02 0.  0.
         11    1    3    3    0    0  0.40634096829E+02 -0.22189029170E+02 -0.22860801033E+02  0.51634281875E+02  0.51100000000E-03 0. -1.
         22    1    1    0    0    0 -0.84312121650E+01 -0.94977373359E+01  0.25102000586E+02  0.28131882029E+02  0.00000000000E+00 0. -1.
</event>
<event>
 5    1  0.1099741E-009  0.9118800E+02  0.7818608E-02  0.1130116E+00
         25   -1    0    0    0    0  0.00000000000E+00  0.00000000000E+00  0.99999998245E-14  0.12500000000E+03  0.12500000000E+03 0.  0.
        -11    1    3    3    0    0 -0.30447642660E+02 -0.26228782157E+02 -0.33878503282E+02  0.52561972393E+02  0.51100000000E-03 0. -1.
         23    2    1    0    0    0 -0.49505110607E+01  0.68931933066E+01 -0.29164152290E+02  0.94626138663E+02  0.89618829861E+02 0.  0.
         11    1    3    3    0    0  0.25497131600E+02  0.33121975463E+02  0.47143509917E+01  0.42064166269E+02  0.51100000000E-03 0.  1.
         22    1    1    0    0    0  0.49505110607E+01 -0.68931933066E+01  0.29164152290E+02  0.30373861337E+02  0.00000000000E+00 0. -1.
</event>
<event>
 5    1  0.1099741E-009  0.9118800E+02  0.7818608E-02  0.1130116E+00
         25   -1    0    0    0    0  0.00000000000E+00  0.00000000000E+00  0.99999998245E-14  0.12500000000E+03  0.12500000000E+03 0.  0.
        -11    1    3    3    0    0 -0.12104532854E+02  0.29654610237E+02 -0.20651677330E+02  0.38110463140E+02  0.51100000000E-03 0. -1.
         23    2    1    0    0    0  0.30447610669E+02 -0.14021453361E+01 -0.49246734692E+00  0.94516143107E+02  0.89465276933E+02 0.  0.
         11    1    3    3    0    0  0.42552143523E+02 -0.31056755573E+02  0.20159209984E+02  0.56405679967E+02  0.51100000000E-03 0.  1.
         22    1    1    0    0    0 -0.30447610669E+02  0.14021453361E+01  0.49246734692E+00  0.30483856893E+02  0.00000000000E+00 0.  1.
</event>
<event>
 5    1  0.1099741E-009  0.9118800E+02  0.7818608E-02  0.1130116E+00
         25   -1    0    0    0    0  0.00000000000E+00  0.00000000000E+00  0.99999998245E-14  0.12500000000E+03  0.12500000000E+03 0.  0.
        -11    1    3    3    0    0 -0.14714661446E+02  0.18899931746E+02 -0.41860468766E+02  0.48228907587E+02  0.51100000000E-03 0. -1.
         23    2    1    0    0    0 -0.23157895950E+02  0.14243390318E+02  0.60895873572E+01  0.97138819358E+02  0.93057535104E+02 0.  0.
         11    1    3    3    0    0 -0.84432345036E+01 -0.46565414283E+01  0.47950056123E+02  0.48909911771E+02  0.51100000000E-03 0.  1.
         22    1    1    0    0    0  0.23157895950E+02 -0.14243390318E+02 -0.60895873572E+01  0.27861180642E+02  0.00000000000E+00 0. -1.
</event>
<event>
 5    1  0.1099741E-009  0.9118800E+02  0.7818608E-02  0.1130116E+00
         25   -1    0    0    0    0  0.00000000000E+00  0.00000000000E+00  0.99999998245E-14  0.12500000000E+03  0.12500000000E+03 0.  0.
        -11    1    3    3    0    0 -0.95291899427E+01  0.42583172324E+02  0.32703634114E+02  0.54531272777E+02  0.51100000000E-03 0.  1.
         23    2    1    0    0    0 -0.15261110322E+02  0.23834993453E+02 -0.42667262087E+01  0.96378096610E+02  0.92030017670E+02 0.  0.
         11    1    3    3    0    0 -0.57319203788E+01 -0.18748178871E+02 -0.36970360323E+02  0.41846823833E+02  0.51100000000E-03 0. -1.
         22    1    1    0    0    0  0.15261110322E+02 -0.23834993453E+02  0.42667262087E+01  0.28621903390E+02  0.00000000000E+00 0.  1.
</event>
<event>
 5    1  0.1099741E-009  0.9118800E+02  0.7818608E-02  0.1130116E+00
         25   -1    0    0    0    0  0.00000000000E+00  0.00000000000E+00  0.99999998245E-14  0.12500000000E+03  0.12500000000E+03 0.  0.
        -11    1    3    3    0    0  0.13887030242E+02  0.12650579387E+02 -0.54704814104E+02  0.57840327231E+02  0.51100000000E-03 0. -1.
         23    2    1    0    0    0 -0.58107145142E+01 -0.62344427133E+01 -0.26831194828E+02  0.96847811897E+02  0.92665813406E+02 0.  0.
         11    1    3    3    0    0 -0.19697744756E+02 -0.18885022100E+02  0.27873619276E+02  0.39007484666E+02  0.51100000000E-03 0.  1.
         22    1    1    0    0    0  0.58107145142E+01  0.62344427133E+01  0.26831194828E+02  0.28152188103E+02  0.00000000000E+00 0. -1.
</event>
<event>
 5    1  0.1099741E-009  0.9118800E+02  0.7818608E-02  0.1130116E+00
         25   -1    0    0    0    0  0.00000000000E+00  0.00000000000E+00  0.99999998245E-14  0.12500000000E+03  0.12500000000E+03 0.  0.
        -11    1    3    3    0    0 -0.74010661448E+01 -0.34967243190E+02 -0.49301528765E+01  0.36080330986E+02  0.51100000000E-03 0. -1.
         23    2    1    0    0    0  0.23840303652E+02  0.16134327593E+02 -0.35908642577E+01  0.95990158373E+02  0.91501582463E+02 0.  0.
         11    1    3    3    0    0  0.31241369797E+02  0.51101570783E+02  0.13392886188E+01  0.59909827387E+02  0.51100000000E-03 0.  1.
         22    1    1    0    0    0 -0.23840303652E+02 -0.16134327593E+02  0.35908642577E+01  0.29009841627E+02  0.00000000000E+00 0.  1.
</event>
<event>
 5    1  0.1099741E-009  0.9118800E+02  0.7818608E-02  0.1130116E+00
         25   -1    0    0    0    0  0.00000000000E+00  0.00000000000E+00  0.99999998245E-14  0.12500000000E+03  0.12500000000E+03 0.  0.
        -11    1    3    3    0    0  0.42787977033E+02  0.10160284967E+02 -0.38405283801E+02  0.58386712472E+02  0.51100000000E-03 0.  1.
         23    2    1    0    0    0  0.76886780824E+01  0.10594981270E+02 -0.26483085856E+02  0.95458110500E+02  0.90771843790E+02 0.  0.
         11    1    3    3    0    0 -0.35099298951E+02  0.43469630329E+00  0.11922197945E+02  0.37071398029E+02  0.51100000000E-03 0. -1.
         22    1    1    0    0    0 -0.76886780824E+01 -0.10594981270E+02  0.26483085856E+02  0.29541889500E+02  0.00000000000E+00 0.  1.
</event>
<event>
 5    1  0.1099741E-009  0.9118800E+02  0.7818608E-02  0.1130116E+00
         25   -1    0    0    0    0  0.00000000000E+00  0.00000000000E+00  0.99999998245E-14  0.12500000000E+03  0.12500000000E+03 0.  0.
        -11    1    3    3    0    0 -0.21909736919E+02 -0.42096769099E+02  0.31505581587E+02  0.56962937177E+02  0.51100000000E-03 0. -1.
         23    2    1    0    0    0 -0.76516397967E+01 -0.87421492506E+01  0.29502427635E+02  0.93292492979E+02  0.87738949417E+02 0.  0.
         11    1    3    3    0    0  0.14258097122E+02  0.33354619849E+02 -0.20031539516E+01  0.36329555802E+02  0.51100000000E-03 0.  1.
         22    1    1    0    0    0  0.76516397967E+01  0.87421492506E+01 -0.29502427635E+02  0.31707507021E+02  0.00000000000E+00 0. -1.
</event>
<event>
 5    1  0.1099741E-009  0.9118800E+02  0.7818608E-02  0.1130116E+00
         25   -1    0    0    0    0  0.00000000000E+00  0.00000000000E+00  0.99999998245E-14  0.12500000000E+03  0.12500000000E+03 0.  0.
        -11    1    3    3    0    0  0.86596619281E+01  0.30092265952E+02  0.20982852429E+02  0.37693690602E+02  0.51100000000E-03 0.  1.
         23    2    1    0    0    0  0.19803417260E+02 -0.16024627758E+02 -0.13332718558E+02  0.96247166851E+02  0.91852009846E+02 0.  0.
         11    1    3    3    0    0  0.11143755332E+02 -0.46116893711E+02 -0.34315570987E+02  0.58553476249E+02  0.51100000000E-03 0. -1.
         22    1    1    0    0    0 -0.19803417260E+02  0.16024627758E+02  0.13332718558E+02  0.28752833149E+02  0.00000000000E+00 0. -1.
</event>
<event>
 5    1  0.1099741E-009  0.9118800E+02  0.7818608E-02  0.1130116E+00
         25   -1    0    0    0    0  0.00000000000E+00  0.00000000000E+00  0.99999998245E-14  0.12500000000E+03  0.12500000000E+03 0.  0.
        -11    1    3    3    0    0 -0.46857402706E+02  0.23600271165E+02 -0.30763141971E+01  0.52555234722E+02  0.51100000000E-03 0. -1.
         23    2    1    0    0    0 -0.86150028624E+01  0.32064781679E+02 -0.19969859587E+01  0.91738063025E+02  0.85495706068E+02 0.  0.
         11    1    3    3    0    0  0.38242399844E+02  0.84645105145E+01  0.10793282384E+01  0.39182828302E+02  0.51100000000E-03 0.  1.
         22    1    1    0    0    0  0.86150028624E+01 -0.32064781679E+02  0.19969859587E+01  0.33261936975E+02  0.00000000000E+00 0. -1.
</event>
<event>
 5    1  0.1099741E-009  0.9118800E+02  0.7818608E-02  0.1130116E+00
         25   -1    0    0    0    0  0.00000000000E+00  0.00000000000E+00  0.99999998245E-14  0.12500000000E+03  0.12500000000E+03 0.  0.
        -11    1    3    3    0    0  0.41627948778E+01 -0.20391183710E+02  0.22689780009E+02  0.30788883569E+02  0.51100000000E-03 0. -1.
         23    2    1    0    0    0 -0.27509754561E+00  0.29518362690E+02 -0.13441972974E+02  0.92563969849E+02  0.86694823734E+02 0.  0.
         11    1    3    3    0    0 -0.44378924234E+01  0.49909546400E+02 -0.36131752983E+02  0.61775086280E+02  0.51100000000E-03 0.  1.
         22    1    1    0    0    0  0.27509754561E+00 -0.29518362690E+02  0.13441972974E+02  0.32436030151E+02  0.00000000000E+00 0.  1.
</event>
<event>
 5    1  0.1099741E-009  0.9118800E+02  0.7818608E-02  0.1130116E+00
         25   -1    0    0    0    0  0.00000000000E+00  0.00000000000E+00  0.99999998245E-14  0.12500000000E+03  0.12500000000E+03 0.  0.
        -11    1    3    3    0    0 -0.25829963548E+02  0.50738982907E+02 -0.11825577774E+02  0.58150457378E+02  0.51100000000E-03 0. -1.
         23    2    1    0    0    0 -0.24272290195E+02  0.12238201505E+02 -0.65166616373E+01  0.97046743905E+02  0.92933771990E+02 0.  0.
         11    1    3    3    0    0  0.15576733525E+01 -0.38500781402E+02  0.53089161365E+01  0.38896286527E+02  0.51100000000E-03 0.  1.
         22    1    1    0    0    0  0.24272290195E+02 -0.12238201505E+02  0.65166616373E+01  0.27953256095E+02  0.00000000000E+00 0. -1.
</event>
<event>
 5    1  0.1099741E-009  0.9118800E+02  0.7818608E-02  0.1130116E+00
         25   -1    0    0    0    0  0.00000000000E+00  0.00000000000E+00  0.99999998245E-14  0.12500000000E+03  0.12500000000E+03 0.  0.
        -11    1    3    3    0    0 -0.30626820668E+01 -0.79247993042E+01 -0.35060634510E+02  0.36075345570E+02  0.51100000000E-03 0.  1.
         23    2    1    0    0    0 -0.72201812197E+01  0.23696405369E+02  0.15444590183E+02  0.95807774833E+02  0.91252088789E+02 0.  0.
         11    1    3    3    0    0 -0.41574991529E+01  0.31621204673E+02  0.50505224693E+02  0.59732429264E+02  0.51100000000E-03 0. -1.
         22    1    1    0    0    0  0.72201812197E+01 -0.23696405369E+02 -0.15444590183E+02  0.29192225167E+02  0.00000000000E+00 0. -1.
</event>
<event>
 5    1  0.1099741E-009  0.9118800E+02  0.7818608E-02  0.1130116E+00
         25   -1    0    0    0    0  0.00000000000E+00  0.00000000000E+00  0.99999998245E-14  0.12500000000E+03  0.12500000000E+03 0.  0.
        -11    1    3    3    0    0 -0.67224201616E+01  0.81399840567E+01 -0.31260346091E+02  0.32994840676E+02  0.51100000000E-03 0. -1.
         23    2    1    0    0    0  0.13998356232E+02  0.21070831807E+01  0.26665279439E+02  0.94810086050E+02  0.89875032754E+02 0.  0.
         11    1    3    3    0    0  0.20720776394E+02 -0.60329008760E+01  0.57925625530E+02  0.61815245374E+02  0.51100000000E-03 0.  1.
         22    1    1    0    0    0 -0.13998356232E+02 -0.21070831807E+01 -0.26665279439E+02  0.30189913950E+02  0.00000000000E+00 0.  1.
</event>
<event>
 5    1  0.1099741E-009  0.9118800E+02  0.7818608E-02  0.1130116E+00
         25   -1    0    0    0    0  0.00000000000E+00  0.00000000000E+00  0.99999998245E-14  0.12500000000E+03  0.12500000000E+03 0.  0.
        -11    1    3    3    0    0 -0.17287883460E+02 -0.10844227703E+02 -0.30152166213E+02  0.36409082886E+02  0.51100000000E-03 0. -1.
         23    2    1    0    0    0  0.26570586664E+02 -0.18149747078E+02  0.41363648140E+01  0.92557452187E+02  0.86685425804E+02 0.  0.
         11    1    3    3    0    0  0.43858470124E+02 -0.73055193758E+01  0.34288531027E+02  0.56148369302E+02  0.51100000000E-03 0.  1.
         22    1    1    0    0    0 -0.26570586664E+02  0.18149747078E+02 -0.41363648140E+01  0.32442547813E+02  0.00000000000E+00 0.  1.
</event>
<event>
 5    1  0.1099741E-009  0.9118800E+02  0.7818608E-02  0.1130116E+00
         25   -1    0    0    0    0  0.00000000000E+00  0.00000000000E+00  0.99999998245E-14  0.12500000000E+03  0.12500000000E+03 0.  0.
        -11    1    3    3    0    0 -0.45613898054E+02  0.22830281932E+02  0.15659563275E+02  0.53357955274E+02  0.51100000000E-03 0.  1.
         23    2    1    0    0    0 -0.26349893043E+02 -0.12480417828E+02  0.22532612562E+01  0.95756968713E+02  0.91182466398E+02 0.  0.
         11    1    3    3    0    0  0.19264005010E+02 -0.35310699760E+02 -0.13406302019E+02  0.42399013440E+02  0.51100000000E-03 0. -1.
         22    1    1    0    0    0  0.26349893043E+02  0.12480417828E+02 -0.22532612562E+01  0.29243031287E+02  0.00000000000E+00 0. -1.
</event>
<event>
 5    1  0.1099741E-009  0.9118800E+02  0.7818608E-02  0.1130116E+00
         25   -1    0    0    0    0  0.00000000000E+00  0.00000000000E+00  0.99999998245E-14  0.12500000000E+03  0.12500000000E+03 0.  0.
        -11    1    3    3    0    0  0.29851251568E+02 -0.44301967089E+02 -0.14458477368E+02  0.55342651511E+02  0.51100000000E-03 0.  1.
         23    2    1    0    0    0  0.17888319158E+02 -0.47556398203E+01 -0.20815669224E+02  0.97145015569E+02  0.93065857823E+02 0.  0.
         11    1    3    3    0    0 -0.11962932410E+02  0.39546327269E+02 -0.63571918559E+01  0.41802364058E+02  0.51100000000E-03 0. -1.
         22    1    1    0    0    0 -0.17888319158E+02  0.47556398203E+01  0.20815669224E+02  0.27854984431E+02  0.00000000000E+00 0.  1.
</event>
<event>
 5    1  0.1099741E-009  0.9118800E+02  0.7818608E-02  0.1130116E+00
         25   -1    0    0    0    0  0.00000000000E+00  0.00000000000E+00  0.99999998245E-14  0.12500000000E+03  0.12500000000E+03 0.  0.
        -11    1    3    3    0    0 -0.23344464259E+02 -0.64491462957E+01 -0.29818125017E+02  0.38414529534E+02  0.51100000000E-03 0.  1.
         23    2    1    0    0    0  0.26912775018E+02 -0.86837628443E+01 -0.34598267425E+00  0.96718824276E+02  0.92491654051E+02 0.  0.
         11    1    3    3    0    0  0.50257239277E+02 -0.22346165486E+01  0.29472142343E+02  0.58304294743E+02  0.51100000000E-03 0. -1.
         22    1    1    0    0    0 -0.26912775018E+02  0.86837628443E+01  0.34598267425E+00  0.28281175724E+02  0.00000000000E+00 0. -1.
</event>
<event>
 5    1  0.1099741E-009  0.9118800E+02  0.7818608E-02  0.1130116E+00
         25   -1    0    0    0    0  0.00000000000E+00  0.00000000000E+00  0.99999998245E-14  0.12500000000E+03  0.12500000000E+03 0.  0.
        -11    1    3    3    0    0  0.20124580155E+02 -0.22169396618E+01 -0.29135391533E+02  0.35479354390E+02  0.51100000000E-03 0. -1.
         23    2    1    0    0    0  0.22931293572E+01 -0.11290952738E+02  0.27306456626E+02  0.95362411883E+02  0.90639963430E+02 0.  0.
         11    1    3    3    0    0 -0.17831450797E+02 -0.90740130759E+01  0.56441848159E+02  0.59883057493E+02  0.51100000000E-03 0.  1.
         22    1    1    0    0    0 -0.22931293572E+01  0.11290952738E+02 -0.27306456626E+02  0.29637588117E+02  0.00000000000E+00 0.  1.
</event>
<event>
 5    1  0.1099741E-009  0.9118800E+02  0.7818608E-02  0.1130116E+00
         25   -1    0    0    0    0  0.00000000000E+00  0.00000000000E+00  0.99999998245E-14  0.12500000000E+03  0.12500000000E+03 0.  0.
        -11    1    3    3    0    0  0.28560927639E+02 -0.27148267497E+02 -0.63125585923E+01  0.39907435547E+02  0.51100000000E-03 0. -1.
         23    2    1    0    0    0  0.17000053003E+02  0.51623405843E+01 -0.35723145009E+02  0.85102698690E+02  0.75170969613E+02 0.  0.
         11    1    3    3    0    0 -0.11560874635E+02  0.32310608082E+02 -0.29410586417E+02  0.45195263144E+02  0.51100000000E-03 0.  1.
         22    1    1    0    0    0 -0.17000053003E+02 -0.51623405843E+01  0.35723145009E+02  0.39897301310E+02  0.00000000000E+00 0.  1.
</event>
<event>
 5    1  0.1099741E-009  0.9118800E+02  0.7818608E-02  0.1130116E+00
         25   -1    0    0    0    0  0.00000000000E+00  0.00000000000E+00  0.99999998245E-14  0.12500000000E+03  0.12500000000E+03 0.  0.
        -11    1    3    3    0    0 -0.66741554682E+01  0.49504924888E+02 -0.73313839640E+01  0.50487930543E+02  0.51100000000E-03 0.  1.
         23    2    1    0    0    0  0.51923561090E+01  0.19108279293E+02  0.22729624131E+02  0.94854972008E+02  0.89937439378E+02 0.  0.
         11    1    3    3    0    0  0.11866511577E+02 -0.30396645595E+02  0.30061008095E+02  0.44367041465E+02  0.51100000000E-03 0. -1.
         22    1    1    0    0    0 -0.51923561090E+01 -0.19108279293E+02 -0.22729624131E+02  0.30145027992E+02  0.00000000000E+00 0.  1.
</event>
<event>
 5    1  0.1099741E-009  0.9118800E+02  0.7818608E-02  0.1130116E+00
         25   -1    0    0    0    0  0.00000000000E+00  0.00000000000E+00  0.99999998245E-14  0.12500000000E+03  0.12500000000E+03 0.  0.
        -11    1    3    3    0    0 -0.19392088510E+02  0.34780097670E+02 -0.52213830730E+01  0.40161811863E+02  0.51100000000E-03 0. -1.
         23    2    1    0    0    0 -0.24909182917E+02 -0.18342059615E+02  0.17175760857E+01  0.94018576338E+02  0.88767359342E+02 0.  0.
         11    1    3    3    0    0 -0.55170944072E+01 -0.53122157284E+02  0.69389591587E+01  0.53856764475E+02  0.51100000000E-03 0.  1.
         22    1    1    0    0    0  0.24909182917E+02  0.18342059615E+02 -0.17175760857E+01  0.30981423662E+02  0.00000000000E+00 0.  1.
</event>
<event>
 5    1  0.1099741E-009  0.9118800E+02  0.7818608E-02  0.1130116E+00
         25   -1    0    0    0    0  0.00000000000E+00  0.00000000000E+00  0.99999998245E-14  0.12500000000E+03  0.12500000000E+03 0.  0.
        -11    1    3    3    0    0 -0.56752108527E+01  0.12068366413E+02  0.20416266394E+02  0.24386008690E+02  0.51100000000E-03 0. -1.
         23    2    1    0    0    0  0.61009623350E+01 -0.11764920771E+02 -0.35938273344E+02  0.86696023795E+02  0.77775355664E+02 0.  0.
         11    1    3    3    0    0  0.11776173188E+02 -0.23833287184E+02 -0.56354539738E+02  0.62310015105E+02  0.51100000000E-03 0.  1.
         22    1    1    0    0    0 -0.61009623350E+01  0.11764920771E+02  0.35938273344E+02  0.38303976205E+02  0.00000000000E+00 0.  1.
</event>
<event>
 5    1  0.1099741E-009  0.9118800E+02  0.7818608E-02  0.1130116E+00
         25   -1    0    0    0    0  0.00000000000E+00  0.00000000000E+00  0.99999998245E-14  0.12500000000E+03  0.12500000000E+03 0.  0.
        -11    1    3    3    0    0 -0.52228917362E+02  0.22128888836E+02 -0.15645387690E+02  0.58841530284E+02  0.51100000000E-03 0.  1.
         23    2    1    0    0    0 -0.32332400526E+02  0.12705097278E+01  0.18991484132E+01  0.92586961213E+02  0.86727967249E+02 0.  0.
         11    1    3    3    0    0  0.19896516836E+02 -0.20858379108E+02  0.17544536103E+02  0.33745430929E+02  0.51100000000E-03 0. -1.
         22    1    1    0    0    0  0.32332400526E+02 -0.12705097278E+01 -0.18991484132E+01  0.32413038787E+02  0.00000000000E+00 0.  1.
</event>
<event>
 5    1  0.1099741E-009  0.9118800E+02  0.7818608E-02  0.1130116E+00
         25   -1    0    0    0    0  0.00000000000E+00  0.00000000000E+00  0.99999998245E-14  0.12500000000E+03  0.12500000000E+03 0.  0.
        -11    1    3    3    0    0 -0.13097523042E+02  0.26700589742E+02  0.48939503494E+02  0.57267282150E+02  0.51100000000E-03 0.  1.
         23    2    1    0    0    0  0.10232037626E+02  0.20053472429E+02  0.25193226727E+02  0.91213389880E+02  0.84725128918E+02 0.  0.
         11    1    3    3    0    0  0.23329560668E+02 -0.66471173124E+01 -0.23746276767E+02  0.33946107731E+02  0.51100000000E-03 0. -1.
         22    1    1    0    0    0 -0.10232037626E+02 -0.20053472429E+02 -0.25193226727E+02  0.33786610120E+02  0.00000000000E+00 0.  1.
</event>
<event>
 5    1  0.1099741E-009  0.9118800E+02  0.7818608E-02  0.1130116E+00
         25   -1    0    0    0    0  0.00000000000E+00  0.00000000000E+00  0.99999998245E-14  0.12500000000E+03  0.12500000000E+03 0.  0.
        -11    1    3    3    0    0  0.44346133357E+02  0.16273681352E+02 -0.24837187049E+02  0.53369449213E+02  0.51100000000E-03 0. -1.
         23    2    1    0    0    0  0.27055169708E+02 -0.11528882328E+02  0.17400136457E+01  0.95539433421E+02  0.90883762880E+02 0.  0.
         11    1    3    3    0    0 -0.17290963649E+02 -0.27802563679E+02  0.26577200695E+02  0.42169984208E+02  0.51100000000E-03 0.  1.
         22    1    1    0    0    0 -0.27055169708E+02  0.11528882328E+02 -0.17400136457E+01  0.29460566579E+02  0.00000000000E+00 0. -1.
</event>
<event>
 5    1  0.1099741E-009  0.9118800E+02  0.7818608E-02  0.1130116E+00
         25   -1    0    0    0    0  0.00000000000E+00  0.00000000000E+00  0.99999998245E-14  0.12500000000E+03  0.12500000000E+03 0.  0.
        -11    1    3    3    0    0  0.51849830553E+01  0.59222131276E+02 -0.11735472548E+02  0.60595925592E+02  0.51100000000E-03 0.  1.
         23    2    1    0    0    0  0.12970598650E+02  0.24392530647E+02 -0.56891710481E+01  0.96793641711E+02  0.92592712607E+02 0.  0.
         11    1    3    3    0    0  0.77856155951E+01 -0.34829600629E+02  0.60463015003E+01  0.36197716120E+02  0.51100000000E-03 0. -1.
         22    1    1    0    0    0 -0.12970598650E+02 -0.24392530647E+02  0.56891710481E+01  0.28206358289E+02  0.00000000000E+00 0.  1.
</event>
<event>
 5    1  0.1099741E-009  0.9118800E+02  0.7818608E-02  0.1130116E+00
         25   -1    0    0    0    0  0.00000000000E+00  0.00000000000E+00  0.99999998245E-14  0.12500000000E+03  0.12500000000E+03 0.  0.
        -11    1    3    3    0    0 -0.18584766832E+02  0.17457694817E+02 -0.42687767965E+02  0.49723336580E+02  0.51100000000E-03 0. -1.
         23    2    1    0    0    0  0.18866082911E+02  0.14120969143E+02 -0.10570988204E+02  0.99172173039E+02  0.95749899528E+02 0.  0.
         11    1    3    3    0    0  0.37450849743E+02 -0.33367256737E+01  0.32116779761E+02  0.49448836459E+02  0.51100000000E-03 0.  1.
         22    1    1    0    0    0 -0.18866082911E+02 -0.14120969143E+02  0.10570988204E+02  0.25827826961E+02  0.00000000000E+00 0. -1.
</event>
<event>
 5    1  0.1099741E-009  0.9118800E+02  0.7818608E-02  0.1130116E+00
         25   -1    0    0    0    0  0.00000000000E+00  0.00000000000E+00  0.99999998245E-14  0.12500000000E+03  0.12500000000E+03 0.  0.
        -11    1    3    3    0    0  0.24175455469E+02  0.20721923903E+02 -0.22597421341E+02  0.39044772107E+02  0.51100000000E-03 0.  1.
         23    2    1    0    0    0  0.36170672851E+01  0.54199309361E+01  0.28262127923E+02  0.95996436394E+02  0.91510158445E+02 0.  0.
         11    1    3    3    0    0 -0.20558388184E+02 -0.15301992967E+02  0.50859549264E+02  0.56951664287E+02  0.51100000000E-03 0. -1.
         22    1    1    0    0    0 -0.36170672851E+01 -0.54199309361E+01 -0.28262127923E+02  0.29003563606E+02  0.00000000000E+00 0. -1.
</event>
<event>
 5    1  0.1099741E-009  0.9118800E+02  0.7818608E-02  0.1130116E+00
         25   -1    0    0    0    0  0.00000000000E+00  0.00000000000E+00  0.99999998245E-14  0.12500000000E+03  0.12500000000E+03 0.  0.
        -11    1    3    3    0    0  0.53011355720E+02  0.28672592322E+02 -0.91567866429E+01  0.60960381624E+02  0.51100000000E-03 0.  1.
         23    2    1    0    0    0  0.22373569124E+02  0.12229208461E+02 -0.13745392748E+02  0.96033364767E+02  0.91560587546E+02 0.  0.
         11    1    3    3    0    0 -0.30637786596E+02 -0.16443383861E+02 -0.45886061049E+01  0.35072983143E+02  0.51100000000E-03 0. -1.
         22    1    1    0    0    0 -0.22373569124E+02 -0.12229208461E+02  0.13745392748E+02  0.28966635233E+02  0.00000000000E+00 0.  1.
</event>
<event>
 5    1  0.1099741E-009  0.9118800E+02  0.7818608E-02  0.1130116E+00
         25   -1    0    0    0    0  0.00000000000E+00  0.00000000000E+00  0.99999998245E-14  0.12500000000E+03  0.12500000000E+03 0.  0.
        -11    1    3    3    0    0  0.18080553541E+02  0.45027231541E+00  0.33806317698E+02  0.38340269666E+02  0.51100000000E-03 0. -1.
         23    2    1    0    0    0 -0.21984651010E+01 -0.23396558834E+02 -0.15575007823E+02  0.96807570471E+02  0.92611514498E+02 0.  0.
         11    1    3    3    0    0 -0.20279018642E+02 -0.23846831149E+02 -0.49381325521E+02  0.58467300805E+02  0.51100000000E-03 0.  1.
         22    1    1    0    0    0  0.21984651010E+01  0.23396558834E+02  0.15575007823E+02  0.28192429529E+02  0.00000000000E+00 0.  1.
</event>
<event>
 5    1  0.1099741E-009  0.9118800E+02  0.7818608E-02  0.1130116E+00
         25   -1    0    0    0    0  0.00000000000E+00  0.00000000000E+00  0.99999998245E-14  0.12500000000E+03  0.12500000000E+03 0.  0.
        -11    1    3    3    0    0  0.25982544424E+01  0.36431545765E+02 -0.19711583731E+02  0.41503674373E+02  0.51100000000E-03 0.  1.
         23    2    1    0    0    0  0.79112252468E+01 -0.16024150665E+02 -0.24755121867E+02  0.94468427029E+02  0.89398583642E+02 0.  0.
         11    1    3    3    0    0  0.53129708044E+01 -0.52455696430E+02 -0.50435381366E+01  0.52964752656E+02  0.51100000000E-03 0. -1.
         22    1    1    0    0    0 -0.79112252468E+01  0.16024150665E+02  0.24755121867E+02  0.30531572971E+02  0.00000000000E+00 0. -1.
</event>
<event>
 5    1  0.1099741E-009  0.9118800E+02  0.7818608E-02  0.1130116E+00
         25   -1    0    0    0    0  0.00000000000E+00  0.00000000000E+00  0.99999998245E-14  0.12500000000E+03  0.12500000000E+03 0.  0.
        -11    1    3    3    0    0 -0.10684355036E+02  0.56583790750E+02  0.24291497621E+02  0.62497661357E+02  0.51100000000E-03 0. -1.
         23    2    1    0    0    0 -0.52125603816E+01  0.26027113855E+02  0.10932207048E+02  0.96292952219E+02  0.91914297336E+02 0.  0.
         11    1    3    3    0    0  0.54717946542E+01 -0.30556676895E+02 -0.13359290573E+02  0.33795290862E+02  0.51100000000E-03 0.  1.
         22    1    1    0    0    0  0.52125603816E+01 -0.26027113855E+02 -0.10932207048E+02  0.28707047781E+02  0.00000000000E+00 0. -1.
</event>
<event>
 5    1  0.1099741E-009  0.9118800E+02  0.7818608E-02  0.1130116E+00
         25   -1    0    0    0    0  0.00000000000E+00  0.00000000000E+00  0.99999998245E-14  0.12500000000E+03  0.12500000000E+03 0.  0.
        -11    1    3    3    0    0  0.30996449828E+02 -0.12089813196E+02 -0.16643811063E+02  0.37201611954E+02  0.51100000000E-03 0.  1.
         23    2    1    0    0    0 -0.22061456534E+02 -0.22813472117E+02 -0.24082720703E+01  0.93172933707E+02  0.87568449951E+02 0.  0.
         11    1    3    3    0    0 -0.53057906362E+02 -0.10723658921E+02  0.14235538992E+02  0.55971321753E+02  0.51100000000E-03 0. -1.
         22    1    1    0    0    0  0.22061456534E+02  0.22813472117E+02  0.24082720703E+01  0.31827066293E+02  0.00000000000E+00 0. -1.
</event>
<event>
 5    1  0.1099741E-009  0.9118800E+02  0.7818608E-02  0.1130116E+00
         25   -1    0    0    0    0  0.00000000000E+00  0.00000000000E+00  0.99999998245E-14  0.12500000000E+03  0.12500000000E+03 0.  0.
        -11    1    3    3    0    0 -0.16052638580E+02 -0.29347772994E+02 -0.81381351834E+01  0.34426853322E+02  0.51100000000E-03 0. -1.
         23    2    1    0    0    0  0.13130356891E+02  0.24140770942E+02 -0.10937400472E+02  0.95422815840E+02  0.90723227235E+02 0.  0.
         11    1    3    3    0    0  0.29182995471E+02  0.53488543936E+02 -0.27992652891E+01  0.60995962518E+02  0.51100000000E-03 0.  1.
         22    1    1    0    0    0 -0.13130356891E+02 -0.24140770942E+02  0.10937400472E+02  0.29577184160E+02  0.00000000000E+00 0.  1.
</event>
<event>
 5    1  0.1099741E-009  0.9118800E+02  0.7818608E-02  0.1130116E+00
         25   -1    0    0    0    0  0.00000000000E+00  0.00000000000E+00  0.99999998245E-14  0.12500000000E+03  0.12500000000E+03 0.  0.
        -11    1    3    3    0    0 -0.22301554838E+02 -0.18751246856E+02 -0.20691963261E+02  0.35736899008E+02  0.51100000000E-03 0.  1.
         23    2    1    0    0    0  0.26739484032E+02  0.56269901732E+01  0.65448813211E+01  0.96901984123E+02  0.92738859335E+02 0.  0.
         11    1    3    3    0    0  0.49041038870E+02  0.24378237029E+02  0.27236844583E+02  0.61165085115E+02  0.51100000000E-03 0. -1.
         22    1    1    0    0    0 -0.26739484032E+02 -0.56269901732E+01 -0.65448813211E+01  0.28098015877E+02  0.00000000000E+00 0. -1.
</event>
<event>
 5    1  0.1099741E-009  0.9118800E+02  0.7818608E-02  0.1130116E+00
         25   -1    0    0    0    0  0.00000000000E+00  0.00000000000E+00  0.99999998245E-14  0.12500000000E+03  0.12500000000E+03 0.  0.
        -11    1    3    3    0    0  0.42213069199E+01  0.23387547290E+02 -0.27726809257E+02  0.36518115398E+02  0.51100000000E-03 0.  1.
         23    2    1    0    0    0  0.52694919902E+01  0.99729188394E+00  0.27951360968E+02  0.96538785745E+02  0.92248015893E+02 0.  0.
         11    1    3    3    0    0  0.10481850703E+01 -0.22390255406E+02  0.55678170225E+02  0.60020670347E+02  0.51100000000E-03 0. -1.
         22    1    1    0    0    0 -0.52694919902E+01 -0.99729188394E+00 -0.27951360968E+02  0.28461214255E+02  0.00000000000E+00 0. -1.
</event>
<event>
 5    1  0.1099741E-009  0.9118800E+02  0.7818608E-02  0.1130116E+00
         25   -1    0    0    0    0  0.00000000000E+00  0.00000000000E+00  0.99999998245E-14  0.12500000000E+03  0.12500000000E+03 0.  0.
        -11    1    3    3    0    0 -0.44714890038E+01  0.22523312106E+02  0.25569974672E+02  0.34367388716E+02  0.51100000000E-03 0.  1.
         23    2    1    0    0    0  0.18453634506E+02 -0.16448691498E+02 -0.15807655486E+02  0.95657572519E+02  0.91046104419E+02 0.  0.
         11    1    3    3    0    0  0.22925123510E+02 -0.38972003605E+02 -0.41377630158E+02  0.61290183804E+02  0.51100000000E-03 0. -1.
         22    1    1    0    0    0 -0.18453634506E+02  0.16448691498E+02  0.15807655486E+02  0.29342427481E+02  0.00000000000E+00 0. -1.
</event>
<event>
 5    1  0.1099741E-009  0.9118800E+02  0.7818608E-02  0.1130116E+00
         25   -1    0    0    0    0  0.00000000000E+00  0.00000000000E+00  0.99999998245E-14  0.12500000000E+03  0.12500000000E+03 0.  0.
        -11    1    3    3    0    0  0.14974980500E+02  0.71829596484E+01  0.39841757046E+02  0.43164922739E+02  0.51100000000E-03 0.  1.
         23    2    1    0    0    0  0.67851099125E+01  0.26554111517E+02 -0.88456997068E+01  0.96200608369E+02  0.91788627249E+02 0.  0.
         11    1    3    3    0    0 -0.81898705877E+01  0.19371151869E+02 -0.48687456753E+02  0.53035685630E+02  0.51100000000E-03 0. -1.
         22    1    1    0    0    0 -0.67851099125E+01 -0.26554111517E+02  0.88456997068E+01  0.28799391631E+02  0.00000000000E+00 0. -1.
</event>
<event>
 5    1  0.1099741E-009  0.9118800E+02  0.7818608E-02  0.1130116E+00
         25   -1    0    0    0    0  0.00000000000E+00  0.00000000000E+00  0.99999998245E-14  0.12500000000E+03  0.12500000000E+03 0.  0.
        -11    1    3    3    0    0  0.35798111704E+02 -0.30176908881E+02  0.77038594801E+01  0.47449974524E+02  0.51100000000E-03 0. -1.
         23    2    1    0    0    0  0.23266448571E+02  0.62295461529E+01 -0.19012785890E+02  0.94314157960E+02  0.89182618766E+02 0.  0.
         11    1    3    3    0    0 -0.12531663132E+02  0.36406455034E+02 -0.26716645370E+02  0.46864183436E+02  0.51100000000E-03 0.  1.
         22    1    1    0    0    0 -0.23266448571E+02 -0.62295461529E+01  0.19012785890E+02  0.30685842040E+02  0.00000000000E+00 0. -1.
</event>
<event>
 5    1  0.1099741E-009  0.9118800E+02  0.7818608E-02  0.1130116E+00
         25   -1    0    0    0    0  0.00000000000E+00  0.00000000000E+00  0.99999998245E-14  0.12500000000E+03  0.12500000000E+03 0.  0.
        -11    1    3    3    0    0  0.51939142376E+02  0.85706870424E+01 -0.84187302649E+01  0.53310469954E+02  0.51100000000E-03 0. -1.
         23    2    1    0    0    0  0.22813306218E+02 -0.98806252419E+01  0.15888142003E+02  0.95495648591E+02  0.90823521996E+02 0.  0.
         11    1    3    3    0    0 -0.29125836158E+02 -0.18451312284E+02  0.24306872268E+02  0.42185178637E+02  0.51100000000E-03 0.  1.
         22    1    1    0    0    0 -0.22813306218E+02  0.98806252419E+01 -0.15888142003E+02  0.29504351409E+02  0.00000000000E+00 0. -1.
</event>
<event>
 5    1  0.1099741E-009  0.9118800E+02  0.7818608E-02  0.1130116E+00
         25   -1    0    0    0    0  0.00000000000E+00  0.00000000000E+00  0.99999998245E-14  0.12500000000E+03  0.12500000000E+03 0.  0.
        -11    1    3    3    0    0 -0.34246212944E+02  0.29370357416E+02  0.38009072922E+01  0.45275466781E+02  0.51100000000E-03 0. -1.
         23    2    1    0    0    0 -0.75686107678E+00  0.93079276606E+01 -0.27908924074E+02  0.95570110449E+02  0.90925945759E+02 0.  0.
         11    1    3    3    0    0  0.33489351867E+02 -0.20062429755E+02 -0.31709831366E+02  0.50294643668E+02  0.51100000000E-03 0.  1.
         22    1    1    0    0    0  0.75686107678E+00 -0.93079276606E+01  0.27908924074E+02  0.29429889551E+02  0.00000000000E+00 0.  1.
</event>
<event>
 5    1  0.1099741E-009  0.9118800E+02  0.7818608E-02  0.1130116E+00
         25   -1    0    0    0    0  0.00000000000E+00  0.00000000000E+00  0.99999998245E-14  0.12500000000E+03  0.12500000000E+03 0.  0.
        -11    1    3    3    0    0 -0.77566666348E+01 -0.85092958226E+01 -0.38153672550E+02  0.39853189609E+02  0.51100000000E-03 0. -1.
         23    2    1    0    0    0  0.14355319769E+02 -0.21503140634E+02  0.12237393621E+02  0.96395558642E+02  0.92053732463E+02 0.  0.
         11    1    3    3    0    0  0.22111986403E+02 -0.12993844811E+02  0.50391066171E+02  0.56542369033E+02  0.51100000000E-03 0.  1.
         22    1    1    0    0    0 -0.14355319769E+02  0.21503140634E+02 -0.12237393621E+02  0.28604441358E+02  0.00000000000E+00 0.  1.
</event>
<event>
 5    1  0.1099741E-009  0.9118800E+02  0.7818608E-02  0.1130116E+00
         25   -1    0    0    0    0  0.00000000000E+00  0.00000000000E+00  0.99999998245E-14  0.12500000000E+03  0.12500000000E+03 0.  0.
        -11    1    3    3    0    0  0.43737046974E+02 -0.25236373821E+02  0.67653991861E+01  0.50946780743E+02  0.51100000000E-03 0. -1.
         23    2    1    0    0    0  0.48182495528E+01 -0.27981479865E+02 -0.11920210858E+02  0.94206004301E+02  0.89030899553E+02 0.  0.
         11    1    3    3    0    0 -0.38918797421E+02 -0.27451060439E+01 -0.18685610044E+02  0.43259223558E+02  0.51100000000E-03 0.  1.
         22    1    1    0    0    0 -0.48182495528E+01  0.27981479865E+02  0.11920210858E+02  0.30793995699E+02  0.00000000000E+00 0. -1.
</event>
<event>
 5    1  0.1099741E-009  0.9118800E+02  0.7818608E-02  0.1130116E+00
         25   -1    0    0    0    0  0.00000000000E+00  0.00000000000E+00  0.99999998245E-14  0.12500000000E+03  0.12500000000E+03 0.  0.
        -11    1    3    3    0    0  0.22361504711E+02 -0.25793382938E+02  0.10447106848E+02  0.35699825463E+02  0.51100000000E-03 0. -1.
         23    2    1    0    0    0 -0.29487126971E+02 -0.45872035983E+00 -0.41346875882E+01  0.95220867662E+02  0.90444551607E+02 0.  0.
         11    1    3    3    0    0 -0.51848631682E+02  0.25334662578E+02 -0.14581794437E+02  0.59521042199E+02  0.51100000000E-03 0.  1.
         22    1    1    0    0    0  0.29487126971E+02  0.45872035983E+00  0.41346875882E+01  0.29779132338E+02  0.00000000000E+00 0.  1.
</event>
<event>
 5    1  0.1099741E-009  0.9118800E+02  0.7818608E-02  0.1130116E+00
         25   -1    0    0    0    0  0.00000000000E+00  0.00000000000E+00  0.99999998245E-14  0.12500000000E+03  0.12500000000E+03 0.  0.
        -11    1    3    3    0    0 -0.31500013953E+02  0.30934534465E+01  0.16328937890E+02  0.35615369522E+02  0.51100000000E-03 0.  1.
         23    2    1    0    0    0  0.20576583242E+02  0.88531603193E+01 -0.16262340355E+02  0.97318996778E+02  0.93299245412E+02 0.  0.
         11    1    3    3    0    0  0.52076597195E+02  0.57597068728E+01 -0.32591278246E+02  0.61703627256E+02  0.51100000000E-03 0. -1.
         22    1    1    0    0    0 -0.20576583242E+02 -0.88531603193E+01  0.16262340355E+02  0.27681003222E+02  0.00000000000E+00 0. -1.
</event>
<event>
 5    1  0.1099741E-009  0.9118800E+02  0.7818608E-02  0.1130116E+00
         25   -1    0    0    0    0  0.00000000000E+00  0.00000000000E+00  0.99999998245E-14  0.12500000000E+03  0.12500000000E+03 0.  0.
        -11    1    3    3    0    0 -0.72317427942E-01 -0.17372655675E+02 -0.34334698317E+02  0.38479681701E+02  0.51100000000E-03 0.  1.
         23    2    1    0    0    0  0.21581796982E+02 -0.76537412307E+01  0.17953113115E+02  0.95902440199E+02  0.91381672396E+02 0.  0.
         11    1    3    3    0    0  0.21654114410E+02  0.97189144446E+01  0.52287811433E+02  0.57422758498E+02  0.51100000000E-03 0. -1.
         22    1    1    0    0    0 -0.21581796982E+02  0.76537412307E+01 -0.17953113115E+02  0.29097559801E+02  0.00000000000E+00 0. -1.
</event>
<event>
 5    1  0.1099741E-009  0.9118800E+02  0.7818608E-02  0.1130116E+00
         25   -1    0    0    0    0  0.00000000000E+00  0.00000000000E+00  0.99999998245E-14  0.12500000000E+03  0.12500000000E+03 0.  0.
        -11    1    3    3    0    0 -0.20594231679E+02 -0.26636431349E+02  0.16963815592E+02  0.37701364606E+02  0.51100000000E-03 0.  1.
         23    2    1    0    0    0 -0.28902600248E+01  0.27961139226E+02  0.78294718311E+01  0.95819877674E+02  0.91268666137E+02 0.  0.
         11    1    3    3    0    0  0.17703971654E+02  0.54597570575E+02 -0.91343437610E+01  0.58118513068E+02  0.51100000000E-03 0. -1.
         22    1    1    0    0    0  0.28902600248E+01 -0.27961139226E+02 -0.78294718311E+01  0.29180122326E+02  0.00000000000E+00 0. -1.
</event>
<event>
 5    1  0.1099741E-009  0.9118800E+02  0.7818608E-02  0.1130116E+00
         25   -1    0    0    0    0  0.00000000000E+00  0.00000000000E+00  0.99999998245E-14  0.12500000000E+03  0.12500000000E+03 0.  0.
        -11    1    3    3    0    0  0.29472673176E+02  0.46234760662E+01  0.47356722361E+02  0.55970297016E+02  0.51100000000E-03 0. -1.
         23    2    1    0    0    0  0.29893844369E+02 -0.35119897291E+01  0.11439082378E+02  0.92800176884E+02  0.87034729970E+02 0.  0.
         11    1    3    3    0    0  0.42117119332E+00 -0.81354657953E+01 -0.35917639983E+02  0.36829879868E+02  0.51100000000E-03 0.  1.
         22    1    1    0    0    0 -0.29893844369E+02  0.35119897291E+01 -0.11439082378E+02  0.32199823116E+02  0.00000000000E+00 0. -1.
</event>
<event>
 5    1  0.1099741E-009  0.9118800E+02  0.7818608E-02  0.1130116E+00
         25   -1    0    0    0    0  0.00000000000E+00  0.00000000000E+00  0.99999998245E-14  0.12500000000E+03  0.12500000000E+03 0.  0.
        -11    1    3    3    0    0  0.21819290349E+02  0.86367522114E+01 -0.46813798259E+02  0.52366082800E+02  0.51100000000E-03 0. -1.
         23    2    1    0    0    0  0.16954040111E+02 -0.19136080556E+02 -0.13240261545E+02  0.96208793341E+02  0.91799773067E+02 0.  0.
         11    1    3    3    0    0 -0.48652502384E+01 -0.27772832767E+02  0.33573536714E+02  0.43842710541E+02  0.51100000000E-03 0.  1.
         22    1    1    0    0    0 -0.16954040111E+02  0.19136080556E+02  0.13240261545E+02  0.28791206659E+02  0.00000000000E+00 0. -1.
</event>
<event>
 5    1  0.1099741E-009  0.9118800E+02  0.7818608E-02  0.1130116E+00
         25   -1    0    0    0    0  0.00000000000E+00  0.00000000000E+00  0.99999998245E-14  0.12500000000E+03  0.12500000000E+03 0.  0.
        -11    1    3    3    0    0 -0.14392798723E+02  0.21837690515E+01  0.57139379461E+02  0.58964652020E+02  0.51100000000E-03 0.  1.
         23    2    1    0    0    0 -0.27507297777E+00  0.14400886084E+02  0.23526261121E+02  0.97414747645E+02  0.93427441961E+02 0.  0.
         11    1    3    3    0    0  0.14117725745E+02  0.12217117032E+02 -0.33613118340E+02  0.38450095626E+02  0.51100000000E-03 0. -1.
         22    1    1    0    0    0  0.27507297777E+00 -0.14400886084E+02 -0.23526261121E+02  0.27585252355E+02  0.00000000000E+00 0.  1.
</event>
<event>
 5    1  0.1099741E-009  0.9118800E+02  0.7818608E-02  0.1130116E+00
         25   -1    0    0    0    0  0.00000000000E+00  0.00000000000E+00  0.99999998245E-14  0.12500000000E+03  0.12500000000E+03 0.  0.
        -11    1    3    3    0    0  0.52283817606E+01 -0.58364452197E+02  0.18466652259E+02  0.61439095876E+02  0.51100000000E-03 0. -1.
         23    2    1    0    0    0 -0.19540583011E+01 -0.26605471581E+02  0.11978947692E+01  0.98295985063E+02  0.94599134593E+02 0.  0.
         11    1    3    3    0    0 -0.71824400617E+01  0.31758980617E+02 -0.17268757490E+02  0.36856889187E+02  0.51100000000E-03 0.  1.
         22    1    1    0    0    0  0.19540583011E+01  0.26605471581E+02 -0.11978947692E+01  0.26704014937E+02  0.00000000000E+00 0. -1.
</event>
<event>
 5    1  0.1099741E-009  0.9118800E+02  0.7818608E-02  0.1130116E+00
         25   -1    0    0    0    0  0.00000000000E+00  0.00000000000E+00  0.99999998245E-14  0.12500000000E+03  0.12500000000E+03 0.  0.
        -11    1    3    3    0    0  0.46297992211E+02  0.53103525588E+01 -0.27304077816E+02  0.54011263573E+02  0.51100000000E-03 0.  1.
         23    2    1    0    0    0  0.15760574282E+02  0.21323660895E+02  0.76528574469E+00  0.98473034890E+02  0.94832793497E+02 0.  0.
         11    1    3    3    0    0 -0.30537417929E+02  0.16013308336E+02  0.28069363561E+02  0.44461771317E+02  0.51100000000E-03 0. -1.
         22    1    1    0    0    0 -0.15760574282E+02 -0.21323660895E+02 -0.76528574469E+00  0.26526965110E+02  0.00000000000E+00 0.  1.
</event>
<event>
 5    1  0.1099741E-009  0.9118800E+02  0.7818608E-02  0.1130116E+00
         25   -1    0    0    0    0  0.00000000000E+00  0.00000000000E+00  0.99999998245E-14  0.12500000000E+03  0.12500000000E+03 0.  0.
        -11    1    3    3    0    0  0.32173485833E+02  0.19072974187E+02 -0.34179333172E+02  0.50666935484E+02  0.51100000000E-03 0.  1.
         23    2    1    0    0    0  0.10054435160E+02 -0.18145191828E+02 -0.19894490143E+02  0.96257515924E+02  0.91866092662E+02 0.  0.
         11    1    3    3    0    0 -0.22119050674E+02 -0.37218166015E+02  0.14284843029E+02  0.45590580440E+02  0.51100000000E-03 0. -1.
         22    1    1    0    0    0 -0.10054435160E+02  0.18145191828E+02  0.19894490143E+02  0.28742484076E+02  0.00000000000E+00 0.  1.
</event>
<event>
 5    1  0.1099741E-009  0.9118800E+02  0.7818608E-02  0.1130116E+00
         25   -1    0    0    0    0  0.00000000000E+00  0.00000000000E+00  0.99999998245E-14  0.12500000000E+03  0.12500000000E+03 0.  0.
        -11    1    3    3    0    0  0.37826521095E+02  0.45500766856E+02  0.15590145941E+02  0.61190016615E+02  0.51100000000E-03 0. -1.
         23    2    1    0    0    0  0.28228781576E+02  0.21405001386E+02  0.13031080965E+02  0.87252850906E+02  0.78665193869E+02 0.  0.
         11    1    3    3    0    0 -0.95977395188E+01 -0.24095765470E+02 -0.25590649765E+01  0.26062834291E+02  0.51100000000E-03 0.  1.
         22    1    1    0    0    0 -0.28228781576E+02 -0.21405001386E+02 -0.13031080965E+02  0.37747149094E+02  0.00000000000E+00 0. -1.
</event>
<event>
 5    1  0.1099741E-009  0.9118800E+02  0.7818608E-02  0.1130116E+00
         25   -1    0    0    0    0  0.00000000000E+00  0.00000000000E+00  0.99999998245E-14  0.12500000000E+03  0.12500000000E+03 0.  0.
        -11    1    3    3    0    0  0.37795455967E+02 -0.15752452273E+02 -0.25666289050E+02  0.48325920977E+02  0.51100000000E-03 0.  1.
         23    2    1    0    0    0  0.63391103310E+01 -0.30874667998E+02  0.27892042520E+01  0.93358111558E+02  0.87832385198E+02 0.  0.
         11    1    3    3    0    0 -0.31456345636E+02 -0.15122215726E+02  0.28455493302E+02  0.45032190582E+02  0.51100000000E-03 0. -1.
         22    1    1    0    0    0 -0.63391103310E+01  0.30874667998E+02 -0.27892042520E+01  0.31641888442E+02  0.00000000000E+00 0.  1.
</event>
<event>
 5    1  0.1099741E-009  0.9118800E+02  0.7818608E-02  0.1130116E+00
         25   -1    0    0    0    0  0.00000000000E+00  0.00000000000E+00  0.99999998245E-14  0.12500000000E+03  0.12500000000E+03 0.  0.
        -11    1    3    3    0    0 -0.17247339133E+02  0.77973411690E+01  0.32616641026E+02  0.37710933541E+02  0.51100000000E-03 0.  1.
         23    2    1    0    0    0 -0.30754276540E+01 -0.20807100447E+02 -0.17841327983E+02  0.97419088695E+02  0.93433249829E+02 0.  0.
         11    1    3    3    0    0  0.14171911479E+02 -0.28604441616E+02 -0.50457969009E+02  0.59708155154E+02  0.51100000000E-03 0. -1.
         22    1    1    0    0    0  0.30754276540E+01  0.20807100447E+02  0.17841327983E+02  0.27580911305E+02  0.00000000000E+00 0. -1.
</event>
<event>
 5    1  0.1099741E-009  0.9118800E+02  0.7818608E-02  0.1130116E+00
         25   -1    0    0    0    0  0.00000000000E+00  0.00000000000E+00  0.99999998245E-14  0.12500000000E+03  0.12500000000E+03 0.  0.
        -11    1    3    3    0    0 -0.18175512926E+02  0.14617567088E+00 -0.34000924422E+02  0.38554292877E+02  0.51100000000E-03 0. -1.
         23    2    1    0    0    0 -0.16096769657E+02 -0.29734881416E+02  0.81074028714E+01  0.90229334957E+02  0.83260637394E+02 0.  0.
         11    1    3    3    0    0  0.20787432692E+01 -0.29881057087E+02  0.42108327294E+02  0.51675042080E+02  0.51100000000E-03 0.  1.
         22    1    1    0    0    0  0.16096769657E+02  0.29734881416E+02 -0.81074028714E+01  0.34770665043E+02  0.00000000000E+00 0.  1.
</event>
<event>
 5    1  0.1099741E-009  0.9118800E+02  0.7818608E-02  0.1130116E+00
         25   -1    0    0    0    0  0.00000000000E+00  0.00000000000E+00  0.99999998245E-14  0.12500000000E+03  0.12500000000E+03 0.  0.
        -11    1    3    3    0    0 -0.96740132728E+01 -0.27999619580E+02 -0.21443395873E+02  0.36570267380E+02  0.51100000000E-03 0. -1.
         23    2    1    0    0    0  0.20544355242E+02 -0.31164663273E+01  0.21788783971E+02  0.94891296913E+02  0.89987911567E+02 0.  0.
         11    1    3    3    0    0  0.30218368514E+02  0.24883153252E+02  0.43232179844E+02  0.58321029533E+02  0.51100000000E-03 0.  1.
         22    1    1    0    0    0 -0.20544355242E+02  0.31164663273E+01 -0.21788783971E+02  0.30108703087E+02  0.00000000000E+00 0.  1.
</event>
<event>
 5    1  0.1099741E-009  0.9118800E+02  0.7818608E-02  0.1130116E+00
         25   -1    0    0    0    0  0.00000000000E+00  0.00000000000E+00  0.99999998245E-14  0.12500000000E+03  0.12500000000E+03 0.  0.
        -11    1    3    3    0    0 -0.58762581220E+01 -0.37051340944E+01 -0.37475097958E+02  0.38113532969E+02  0.51100000000E-03 0.  1.
         23    2    1    0    0    0 -0.58626802132E+01  0.22605550478E+02  0.15298213623E+02  0.97081954371E+02  0.92981119549E+02 0.  0.
         11    1    3    3    0    0  0.13577908853E-01  0.26310684572E+02  0.52773311581E+02  0.58968421401E+02  0.51100000000E-03 0. -1.
         22    1    1    0    0    0  0.58626802132E+01 -0.22605550478E+02 -0.15298213623E+02  0.27918045629E+02  0.00000000000E+00 0. -1.
</event>
<event>
 5    1  0.1099741E-009  0.9118800E+02  0.7818608E-02  0.1130116E+00
         25   -1    0    0    0    0  0.00000000000E+00  0.00000000000E+00  0.99999998245E-14  0.12500000000E+03  0.12500000000E+03 0.  0.
        -11    1    3    3    0    0  0.63013847138E+01  0.10288873297E+02 -0.45111405527E+02  0.46696972834E+02  0.51100000000E-03 0.  1.
         23    2    1    0    0    0  0.25205683683E+02  0.15032491555E+02 -0.20421931202E+00  0.95651337376E+02  0.91037543596E+02 0.  0.
         11    1    3    3    0    0  0.18904298969E+02  0.47436182585E+01  0.44907186215E+02  0.48954364542E+02  0.51100000000E-03 0. -1.
         22    1    1    0    0    0 -0.25205683683E+02 -0.15032491555E+02  0.20421931202E+00  0.29348662624E+02  0.00000000000E+00 0. -1.
</event>
<event>
 5    1  0.1099741E-009  0.9118800E+02  0.7818608E-02  0.1130116E+00
         25   -1    0    0    0    0  0.00000000000E+00  0.00000000000E+00  0.99999998245E-14  0.12500000000E+03  0.12500000000E+03 0.  0.
        -11    1    3    3    0    0  0.21436952626E+02  0.13469538408E-01 -0.43152557803E+02  0.48183880754E+02  0.51100000000E-03 0. -1.
         23    2    1    0    0    0 -0.20297025258E+02  0.62253483460E+01 -0.16752751165E+02  0.97955982770E+02  0.94148795491E+02 0.  0.
         11    1    3    3    0    0 -0.41733977883E+02  0.62118788076E+01  0.26399806638E+02  0.49772102016E+02  0.51100000000E-03 0.  1.
         22    1    1    0    0    0  0.20297025258E+02 -0.62253483460E+01  0.16752751165E+02  0.27044017230E+02  0.00000000000E+00 0.  1.
</event>
<event>
 5    1  0.1099741E-009  0.9118800E+02  0.7818608E-02  0.1130116E+00
         25   -1    0    0    0    0  0.00000000000E+00  0.00000000000E+00  0.99999998245E-14  0.12500000000E+03  0.12500000000E+03 0.  0.
        -11    1    3    3    0    0 -0.11742499802E+02  0.25622998892E+02  0.24789876787E+02  0.37536147447E+02  0.51100000000E-03 0. -1.
         23    2    1    0    0    0 -0.89915850895E+01  0.21641327187E+01 -0.28076782430E+02  0.95439252640E+02  0.90745871311E+02 0.  0.
         11    1    3    3    0    0  0.27509147120E+01 -0.23458866173E+02 -0.52866659217E+02  0.57903105193E+02  0.51100000000E-03 0.  1.
         22    1    1    0    0    0  0.89915850895E+01 -0.21641327187E+01  0.28076782430E+02  0.29560747360E+02  0.00000000000E+00 0.  1.
</event>
<event>
 5    1  0.1099741E-009  0.9118800E+02  0.7818608E-02  0.1130116E+00
         25   -1    0    0    0    0  0.00000000000E+00  0.00000000000E+00  0.99999998245E-14  0.12500000000E+03  0.12500000000E+03 0.  0.
        -11    1    3    3    0    0 -0.24489792497E+02  0.39780161834E+02  0.23703860910E+02  0.52384007430E+02  0.51100000000E-03 0.  1.
         23    2    1    0    0    0  0.26618246939E+01  0.18465833529E+02  0.32066692655E+02  0.87900874721E+02  0.79688259363E+02 0.  0.
         11    1    3    3    0    0  0.27151617191E+02 -0.21314328305E+02  0.83628317446E+01  0.35516867292E+02  0.51100000000E-03 0. -1.
         22    1    1    0    0    0 -0.26618246939E+01 -0.18465833529E+02 -0.32066692655E+02  0.37099125279E+02  0.00000000000E+00 0.  1.
</event>
<event>
 5    1  0.1099741E-009  0.9118800E+02  0.7818608E-02  0.1130116E+00
         25   -1    0    0    0    0  0.00000000000E+00  0.00000000000E+00  0.99999998245E-14  0.12500000000E+03  0.12500000000E+03 0.  0.
        -11    1    3    3    0    0  0.11404546688E+02  0.46294852959E+02  0.30747629575E+02  0.56733533474E+02  0.51100000000E-03 0.  1.
         23    2    1    0    0    0  0.11696415412E+02  0.33234033917E+02  0.40893274960E+00  0.89765437851E+02  0.82561246736E+02 0.  0.
         11    1    3    3    0    0  0.29186872436E+00 -0.13060819043E+02 -0.30338696825E+02  0.33031904377E+02  0.51100000000E-03 0. -1.
         22    1    1    0    0    0 -0.11696415412E+02 -0.33234033917E+02 -0.40893274960E+00  0.35234562149E+02  0.00000000000E+00 0.  1.
</event>
<event>
 5    1  0.1099741E-009  0.9118800E+02  0.7818608E-02  0.1130116E+00
         25   -1    0    0    0    0  0.00000000000E+00  0.00000000000E+00  0.99999998245E-14  0.12500000000E+03  0.12500000000E+03 0.  0.
        -11    1    3    3    0    0  0.49705361204E+02 -0.20943500588E+02  0.30056551006E+02  0.61746655034E+02  0.51100000000E-03 0.  1.
         23    2    1    0    0    0  0.23540697255E+02 -0.29167837278E+01  0.15244892119E+02  0.96802858473E+02  0.92605154383E+02 0.  0.
         11    1    3    3    0    0 -0.26164663949E+02  0.18026716860E+02 -0.14811658887E+02  0.35056203439E+02  0.51100000000E-03 0. -1.
         22    1    1    0    0    0 -0.23540697255E+02  0.29167837278E+01 -0.15244892119E+02  0.28197141527E+02  0.00000000000E+00 0.  1.
</event>
<event>
 5    1  0.1099741E-009  0.9118800E+02  0.7818608E-02  0.1130116E+00
         25   -1    0    0    0    0  0.00000000000E+00  0.00000000000E+00  0.99999998245E-14  0.12500000000E+03  0.12500000000E+03 0.  0.
        -11    1    3    3    0    0 -0.16535896871E+02 -0.23078079814E+01 -0.29149511347E+02  0.33592497303E+02  0.51100000000E-03 0. -1.
         23    2    1    0    0    0  0.86930134980E+01  0.10654576413E+02  0.25988196682E+02  0.95598046850E+02  0.90964343083E+02 0.  0.
         11    1    3    3    0    0  0.25228910369E+02  0.12962384395E+02  0.55137708030E+02  0.62005549547E+02  0.51100000000E-03 0.  1.
         22    1    1    0    0    0 -0.86930134980E+01 -0.10654576413E+02 -0.25988196682E+02  0.29401953150E+02  0.00000000000E+00 0.  1.
</event>
<event>
 5    1  0.1099741E-009  0.9118800E+02  0.7818608E-02  0.1130116E+00
         25   -1    0    0    0    0  0.00000000000E+00  0.00000000000E+00  0.99999998245E-14  0.12500000000E+03  0.12500000000E+03 0.  0.
        -11    1    3    3    0    0 -0.23640408607E+02 -0.13654916526E+02 -0.42151124836E+02  0.50219946134E+02  0.51100000000E-03 0.  1.
         23    2    1    0    0    0 -0.30391267166E+01  0.21063705493E+02 -0.12397407235E+02  0.10037051185E+03  0.97301736690E+02 0.  0.
         11    1    3    3    0    0  0.20601281890E+02  0.34718622020E+02  0.29753717601E+02  0.50150565718E+02  0.51100000000E-03 0. -1.
         22    1    1    0    0    0  0.30391267166E+01 -0.21063705493E+02  0.12397407235E+02  0.24629488149E+02  0.00000000000E+00 0.  1.
</event>
<event>
 5    1  0.1099741E-009  0.9118800E+02  0.7818608E-02  0.1130116E+00
         25   -1    0    0    0    0  0.00000000000E+00  0.00000000000E+00  0.99999998245E-14  0.12500000000E+03  0.12500000000E+03 0.  0.
        -11    1    3    3    0    0 -0.27599282277E+02 -0.69087604538E+01  0.38166455533E+02  0.47603883050E+02  0.51100000000E-03 0.  1.
         23    2    1    0    0    0 -0.25250119359E+02 -0.57354975135E+01 -0.11019147971E+02  0.96859529475E+02  0.92681618289E+02 0.  0.
         11    1    3    3    0    0  0.23491629179E+01  0.11732629403E+01 -0.49185603504E+02  0.49255646424E+02  0.51100000000E-03 0. -1.
         22    1    1    0    0    0  0.25250119359E+02  0.57354975135E+01  0.11019147971E+02  0.28140470525E+02  0.00000000000E+00 0. -1.
</event>
<event>
 5    1  0.1099741E-009  0.9118800E+02  0.7818608E-02  0.1130116E+00
         25   -1    0    0    0    0  0.00000000000E+00  0.00000000000E+00  0.99999998245E-14  0.12500000000E+03  0.12500000000E+03 0.  0.
        -11    1    3    3    0    0  0.24605876004E+02  0.38846743964E+02 -0.28806147981E+02  0.54261522392E+02  0.51100000000E-03 0. -1.
         23    2    1    0    0    0 -0.10144968846E+02  0.24465865263E+02 -0.75619389864E+01  0.97455819540E+02  0.93482377404E+02 0.  0.
         11    1    3    3    0    0 -0.34750844850E+02 -0.14380878701E+02  0.21244208994E+02  0.43194297148E+02  0.51100000000E-03 0.  1.
         22    1    1    0    0    0  0.10144968846E+02 -0.24465865263E+02  0.75619389864E+01  0.27544180460E+02  0.00000000000E+00 0. -1.
</event>
<event>
 5    1  0.1099741E-009  0.9118800E+02  0.7818608E-02  0.1130116E+00
         25   -1    0    0    0    0  0.00000000000E+00  0.00000000000E+00  0.99999998245E-14  0.12500000000E+03  0.12500000000E+03 0.  0.
        -11    1    3    3    0    0  0.22420719240E+02 -0.35134614376E+02  0.80519150133E+01  0.42449536089E+02  0.51100000000E-03 0.  1.
         23    2    1    0    0    0 -0.24024098346E+02 -0.99390520019E+01  0.13740194813E+02  0.95593622978E+02  0.90958263751E+02 0.  0.
         11    1    3    3    0    0 -0.46444817586E+02  0.25195562374E+02  0.56882797996E+01  0.53144086889E+02  0.51100000000E-03 0. -1.
         22    1    1    0    0    0  0.24024098346E+02  0.99390520019E+01 -0.13740194813E+02  0.29406377022E+02  0.00000000000E+00 0. -1.
</event>
<event>
 5    1  0.1099741E-009  0.9118800E+02  0.7818608E-02  0.1130116E+00
         25   -1    0    0    0    0  0.00000000000E+00  0.00000000000E+00  0.99999998245E-14  0.12500000000E+03  0.12500000000E+03 0.  0.
        -11    1    3    3    0    0 -0.11372627707E+02  0.22484900397E+02  0.56395693118E+02  0.61768775359E+02  0.51100000000E-03 0.  1.
         23    2    1    0    0    0 -0.15581870136E+01  0.54881513172E+01  0.28848831248E+02  0.95592470080E+02  0.90956679359E+02 0.  0.
         11    1    3    3    0    0  0.98144406930E+01 -0.16996749080E+02 -0.27546861870E+02  0.33823694721E+02  0.51100000000E-03 0. -1.
         22    1    1    0    0    0  0.15581870136E+01 -0.54881513172E+01 -0.28848831248E+02  0.29407529920E+02  0.00000000000E+00 0.  1.
</event>
<event>
 5    1  0.1099741E-009  0.9118800E+02  0.7818608E-02  0.1130116E+00
         25   -1    0    0    0    0  0.00000000000E+00  0.00000000000E+00  0.99999998245E-14  0.12500000000E+03  0.12500000000E+03 0.  0.
        -11    1    3    3    0    0  0.42051268317E+02 -0.14526472501E+02 -0.11290617013E+02  0.45899952105E+02  0.51100000000E-03 0. -1.
         23    2    1    0    0    0  0.85310701013E+01 -0.54478912628E+01  0.26145487090E+02  0.96963502867E+02  0.92821741617E+02 0.  0.
         11    1    3    3    0    0 -0.33520198216E+02  0.90785812387E+01  0.37436104104E+02  0.51063550762E+02  0.51100000000E-03 0.  1.
         22    1    1    0    0    0 -0.85310701013E+01  0.54478912628E+01 -0.26145487090E+02  0.28036497133E+02  0.00000000000E+00 0. -1.
</event>
<event>
 5    1  0.1099741E-009  0.9118800E+02  0.7818608E-02  0.1130116E+00
         25   -1    0    0    0    0  0.00000000000E+00  0.00000000000E+00  0.99999998245E-14  0.12500000000E+03  0.12500000000E+03 0.  0.
        -11    1    3    3    0    0 -0.35474798076E+02 -0.16631410241E+01  0.47580068847E+01  0.35831075429E+02  0.51100000000E-03 0.  1.
         23    2    1    0    0    0  0.21260759810E+02  0.18416019192E+02 -0.37868328654E+01  0.96618495922E+02  0.92355963427E+02 0.  0.
         11    1    3    3    0    0  0.56735557886E+02  0.20079160216E+02 -0.85448397501E+01  0.60787420493E+02  0.51100000000E-03 0. -1.
         22    1    1    0    0    0 -0.21260759810E+02 -0.18416019192E+02  0.37868328654E+01  0.28381504078E+02  0.00000000000E+00 0. -1.
</event>
<event>
 5    1  0.1099741E-009  0.9118800E+02  0.7818608E-02  0.1130116E+00
         25   -1    0    0    0    0  0.00000000000E+00  0.00000000000E+00  0.99999998245E-14  0.12500000000E+03  0.12500000000E+03 0.  0.
        -11    1    3    3    0    0  0.50262515710E+02  0.32621423042E+01 -0.25608766231E+02  0.56504610131E+02  0.51100000000E-03 0.  1.
         23    2    1    0    0    0  0.28413865208E+02  0.26660111166E+01  0.68635866862E+01  0.95647586581E+02  0.91032393384E+02 0.  0.
         11    1    3    3    0    0 -0.21848650502E+02 -0.59613118756E+00  0.32472352917E+02  0.39142976450E+02  0.51100000000E-03 0. -1.
         22    1    1    0    0    0 -0.28413865208E+02 -0.26660111166E+01 -0.68635866862E+01  0.29352413419E+02  0.00000000000E+00 0.  1.
</event>
<event>
 5    1  0.1099741E-009  0.9118800E+02  0.7818608E-02  0.1130116E+00
         25   -1    0    0    0    0  0.00000000000E+00  0.00000000000E+00  0.99999998245E-14  0.12500000000E+03  0.12500000000E+03 0.  0.
        -11    1    3    3    0    0  0.51534696172E+02 -0.26085140214E+02  0.97891419516E+00  0.57768656924E+02  0.51100000000E-03 0. -1.
         23    2    1    0    0    0  0.28725063301E+02 -0.39895522259E+01 -0.13902219706E+02  0.92839193086E+02  0.87090747336E+02 0.  0.
         11    1    3    3    0    0 -0.22809632871E+02  0.22095587988E+02 -0.14881133901E+02  0.35070536162E+02  0.51100000000E-03 0.  1.
         22    1    1    0    0    0 -0.28725063301E+02  0.39895522259E+01  0.13902219706E+02  0.32160806914E+02  0.00000000000E+00 0. -1.
</event>
<event>
 5    1  0.1099741E-009  0.9118800E+02  0.7818608E-02  0.1130116E+00
         25   -1    0    0    0    0  0.00000000000E+00  0.00000000000E+00  0.99999998245E-14  0.12500000000E+03  0.12500000000E+03 0.  0.
        -11    1    3    3    0    0 -0.21957431903E+02  0.24224880254E+02 -0.10098636840E+02  0.34219235897E+02  0.51100000000E-03 0. -1.
         23    2    1    0    0    0 -0.24450793885E+02 -0.37950101715E+01 -0.41690138254E+02  0.76519993281E+02  0.59203026277E+02 0.  0.
         11    1    3    3    0    0 -0.24933619825E+01 -0.28019890426E+02 -0.31591501414E+02  0.42300757384E+02  0.51100000000E-03 0.  1.
         22    1    1    0    0    0  0.24450793885E+02  0.37950101715E+01  0.41690138254E+02  0.48480006719E+02  0.00000000000E+00 0.  1.
</event>
<event>
 5    1  0.1099741E-009  0.9118800E+02  0.7818608E-02  0.1130116E+00
         25   -1    0    0    0    0  0.00000000000E+00  0.00000000000E+00  0.99999998245E-14  0.12500000000E+03  0.12500000000E+03 0.  0.
        -11    1    3    3    0    0  0.43149461355E+02  0.63285286131E+01 -0.34714087562E+01  0.43749022488E+02  0.51100000000E-03 0. -1.
         23    2    1    0    0    0  0.61824377042E+01 -0.28984718897E+02  0.26862377299E+01  0.95241768557E+02  0.90473433334E+02 0.  0.
         11    1    3    3    0    0 -0.36967023650E+02 -0.35313247510E+02  0.61576464861E+01  0.51492746069E+02  0.51100000000E-03 0.  1.
         22    1    1    0    0    0 -0.61824377042E+01  0.28984718897E+02 -0.26862377299E+01  0.29758231443E+02  0.00000000000E+00 0. -1.
</event>
<event>
 5    1  0.1099741E-009  0.9118800E+02  0.7818608E-02  0.1130116E+00
         25   -1    0    0    0    0  0.00000000000E+00  0.00000000000E+00  0.99999998245E-14  0.12500000000E+03  0.12500000000E+03 0.  0.
        -11    1    3    3    0    0 -0.14034191590E+02 -0.43905503044E+02 -0.36530146498E+00  0.46095392140E+02  0.51100000000E-03 0. -1.
         23    2    1    0    0    0  0.64846402924E+01 -0.34000949705E+01 -0.25828398943E+02  0.98153819685E+02  0.94411095329E+02 0.  0.
         11    1    3    3    0    0  0.20518831882E+02  0.40505408074E+02 -0.25463097478E+02  0.52058427545E+02  0.51100000000E-03 0.  1.
         22    1    1    0    0    0 -0.64846402924E+01  0.34000949705E+01  0.25828398943E+02  0.26846180315E+02  0.00000000000E+00 0.  1.
</event>
<event>
 5    1  0.1099741E-009  0.9118800E+02  0.7818608E-02  0.1130116E+00
         25   -1    0    0    0    0  0.00000000000E+00  0.00000000000E+00  0.99999998245E-14  0.12500000000E+03  0.12500000000E+03 0.  0.
        -11    1    3    3    0    0 -0.93233992562E+01 -0.11631916205E+02  0.30172671827E+02  0.33654381197E+02  0.51100000000E-03 0.  1.
         23    2    1    0    0    0 -0.58657497501E+01  0.28241675795E+02 -0.13723345637E+02  0.93057403247E+02  0.87403379864E+02 0.  0.
         11    1    3    3    0    0  0.34576495061E+01  0.39873592000E+02 -0.43896017465E+02  0.59403022050E+02  0.51100000000E-03 0. -1.
         22    1    1    0    0    0  0.58657497501E+01 -0.28241675795E+02  0.13723345637E+02  0.31942596753E+02  0.00000000000E+00 0. -1.
</event>
<event>
 5    1  0.1099741E-009  0.9118800E+02  0.7818608E-02  0.1130116E+00
         25   -1    0    0    0    0  0.00000000000E+00  0.00000000000E+00  0.99999998245E-14  0.12500000000E+03  0.12500000000E+03 0.  0.
        -11    1    3    3    0    0 -0.23378983580E+02 -0.30957190916E+02  0.40550945598E+02  0.56118657609E+02  0.51100000000E-03 0. -1.
         23    2    1    0    0    0 -0.26870151779E+02 -0.19651815312E+02  0.79869305446E+01  0.90765661081E+02  0.84061972796E+02 0.  0.
         11    1    3    3    0    0 -0.34911681991E+01  0.11305375604E+02 -0.32564015054E+02  0.34647003472E+02  0.51100000000E-03 0.  1.
         22    1    1    0    0    0  0.26870151779E+02  0.19651815312E+02 -0.79869305446E+01  0.34234338919E+02  0.00000000000E+00 0. -1.
</event>
<event>
 5    1  0.1099741E-009  0.9118800E+02  0.7818608E-02  0.1130116E+00
         25   -1    0    0    0    0  0.00000000000E+00  0.00000000000E+00  0.99999998245E-14  0.12500000000E+03  0.12500000000E+03 0.  0.
        -11    1    3    3    0    0 -0.86452924246E+01  0.34532324945E+02  0.15279305176E+02  0.38738607540E+02  0.51100000000E-03 0.  1.
         23    2    1    0    0    0  0.31311925854E+02 -0.96103028755E+00  0.79186688519E+01  0.92687996096E+02  0.86873465593E+02 0.  0.
         11    1    3    3    0    0  0.39957218278E+02 -0.35493355233E+02 -0.73606363242E+01  0.53949388556E+02  0.51100000000E-03 0. -1.
         22    1    1    0    0    0 -0.31311925854E+02  0.96103028755E+00 -0.79186688519E+01  0.32312003904E+02  0.00000000000E+00 0. -1.
</event>
<event>
 5    1  0.1099741E-009  0.9118800E+02  0.7818608E-02  0.1130116E+00
         25   -1    0    0    0    0  0.00000000000E+00  0.00000000000E+00  0.99999998245E-14  0.12500000000E+03  0.12500000000E+03 0.  0.
        -11    1    3    3    0    0  0.78307344005E+01  0.33661203474E+01  0.33413142623E+02  0.34483173689E+02  0.51100000000E-03 0.  1.
         23    2    1    0    0    0 -0.37195190946E+01  0.65053109722E+01 -0.27467194841E+02  0.96528950045E+02  0.92234687137E+02 0.  0.
         11    1    3    3    0    0 -0.11550253495E+02  0.31391906248E+01 -0.60880337464E+02  0.62045776356E+02  0.51100000000E-03 0. -1.
         22    1    1    0    0    0  0.37195190946E+01 -0.65053109722E+01  0.27467194841E+02  0.28471049955E+02  0.00000000000E+00 0. -1.
</event>
<event>
 5    1  0.1099741E-009  0.9118800E+02  0.7818608E-02  0.1130116E+00
         25   -1    0    0    0    0  0.00000000000E+00  0.00000000000E+00  0.99999998245E-14  0.12500000000E+03  0.12500000000E+03 0.  0.
        -11    1    3    3    0    0  0.29692119691E+02 -0.50982716495E+02 -0.12370026008E+02  0.60281646433E+02  0.51100000000E-03 0.  1.
         23    2    1    0    0    0  0.27388974871E+01 -0.27833907154E+02 -0.45062605931E+01  0.96670963104E+02  0.92426948321E+02 0.  0.
         11    1    3    3    0    0 -0.26953222204E+02  0.23148809340E+02  0.78637654152E+01  0.36389316671E+02  0.51100000000E-03 0. -1.
         22    1    1    0    0    0 -0.27388974871E+01  0.27833907154E+02  0.45062605931E+01  0.28329036896E+02  0.00000000000E+00 0.  1.
</event>
<event>
 5    1  0.1099741E-009  0.9118800E+02  0.7818608E-02  0.1130116E+00
         25   -1    0    0    0    0  0.00000000000E+00  0.00000000000E+00  0.99999998245E-14  0.12500000000E+03  0.12500000000E+03 0.  0.
        -11    1    3    3    0    0 -0.35014584640E+02 -0.32055296560E+02 -0.20735589899E+02  0.51802778533E+02  0.51100000000E-03 0.  1.
         23    2    1    0    0    0  0.13953079288E+01 -0.83467882962E+01 -0.27906054767E+02  0.95839004617E+02  0.91294858312E+02 0.  0.
         11    1    3    3    0    0  0.36409892569E+02  0.23708508264E+02 -0.71704648683E+01  0.44036226083E+02  0.51100000000E-03 0. -1.
         22    1    1    0    0    0 -0.13953079288E+01  0.83467882962E+01  0.27906054767E+02  0.29160995383E+02  0.00000000000E+00 0.  1.
</event>
<event>
 5    1  0.1099741E-009  0.9118800E+02  0.7818608E-02  0.1130116E+00
         25   -1    0    0    0    0  0.00000000000E+00  0.00000000000E+00  0.99999998245E-14  0.12500000000E+03  0.12500000000E+03 0.  0.
        -11    1    3    3    0    0  0.24647385281E+02  0.11338671203E+02 -0.32685318007E+02  0.42478101174E+02  0.51100000000E-03 0.  1.
         23    2    1    0    0    0  0.20015212740E+02 -0.80317668190E+01  0.17982604879E+02  0.96919898549E+02  0.92763002524E+02 0.  0.
         11    1    3    3    0    0 -0.46321725407E+01 -0.19370438022E+02  0.50667922886E+02  0.54441797376E+02  0.51100000000E-03 0. -1.
         22    1    1    0    0    0 -0.20015212740E+02  0.80317668190E+01 -0.17982604879E+02  0.28080101451E+02  0.00000000000E+00 0. -1.
</event>
<event>
 5    1  0.1099741E-009  0.9118800E+02  0.7818608E-02  0.1130116E+00
         25   -1    0    0    0    0  0.00000000000E+00  0.00000000000E+00  0.99999998245E-14  0.12500000000E+03  0.12500000000E+03 0.  0.
        -11    1    3    3    0    0 -0.41450469583E+01  0.34754894341E+02 -0.37164807586E+00  0.35003174392E+02  0.51100000000E-03 0. -1.
         23    2    1    0    0    0  0.24073725583E+02 -0.17848492221E+02  0.35266447517E+01  0.94824676286E+02  0.89895322857E+02 0.  0.
         11    1    3    3    0    0  0.28218772542E+02 -0.52603386563E+02  0.38982928275E+01  0.59821501894E+02  0.51100000000E-03 0.  1.
         22    1    1    0    0    0 -0.24073725583E+02  0.17848492221E+02 -0.35266447517E+01  0.30175323714E+02  0.00000000000E+00 0.  1.
</event>
<event>
 5    1  0.1099741E-009  0.9118800E+02  0.7818608E-02  0.1130116E+00
         25   -1    0    0    0    0  0.00000000000E+00  0.00000000000E+00  0.99999998245E-14  0.12500000000E+03  0.12500000000E+03 0.  0.
        -11    1    3    3    0    0 -0.51351384390E+02 -0.16906743007E+02  0.25020877866E+02  0.59572199618E+02  0.51100000000E-03 0.  1.
         23    2    1    0    0    0 -0.22647042539E+02  0.40854379470E+01  0.17914147986E+02  0.95836734802E+02  0.91291750451E+02 0.  0.
         11    1    3    3    0    0  0.28704341851E+02  0.20992180954E+02 -0.71067298805E+01  0.36264535184E+02  0.51100000000E-03 0. -1.
         22    1    1    0    0    0  0.22647042539E+02 -0.40854379470E+01 -0.17914147986E+02  0.29163265198E+02  0.00000000000E+00 0.  1.
</event>
<event>
 5    1  0.1099741E-009  0.9118800E+02  0.7818608E-02  0.1130116E+00
         25   -1    0    0    0    0  0.00000000000E+00  0.00000000000E+00  0.99999998245E-14  0.12500000000E+03  0.12500000000E+03 0.  0.
        -11    1    3    3    0    0  0.17786717183E+02 -0.16481624651E+02 -0.26070466164E+02  0.35604500637E+02  0.51100000000E-03 0.  1.
         23    2    1    0    0    0  0.39192857749E+01  0.83092652239E+01  0.27372098395E+02  0.96127236708E+02  0.91688653480E+02 0.  0.
         11    1    3    3    0    0 -0.13867431408E+02  0.24790889875E+02  0.53442564559E+02  0.60522736072E+02  0.51100000000E-03 0. -1.
         22    1    1    0    0    0 -0.39192857749E+01 -0.83092652239E+01 -0.27372098395E+02  0.28872763292E+02  0.00000000000E+00 0. -1.
</event>
<event>
 5    1  0.1099741E-009  0.9118800E+02  0.7818608E-02  0.1130116E+00
         25   -1    0    0    0    0  0.00000000000E+00  0.00000000000E+00  0.99999998245E-14  0.12500000000E+03  0.12500000000E+03 0.  0.
        -11    1    3    3    0    0  0.30981954081E+02 -0.19216262837E+02  0.10302145931E+02  0.37885095316E+02  0.51100000000E-03 0. -1.
         23    2    1    0    0    0 -0.23665238975E+02 -0.15654636980E+02 -0.78179568424E+01  0.95568186534E+02  0.90923300828E+02 0.  0.
         11    1    3    3    0    0 -0.54647193056E+02  0.35616258577E+01 -0.18120102773E+02  0.57683091217E+02  0.51100000000E-03 0.  1.
         22    1    1    0    0    0  0.23665238975E+02  0.15654636980E+02  0.78179568424E+01  0.29431813466E+02  0.00000000000E+00 0.  1.
</event>
<event>
 5    1  0.1099741E-009  0.9118800E+02  0.7818608E-02  0.1130116E+00
         25   -1    0    0    0    0  0.00000000000E+00  0.00000000000E+00  0.99999998245E-14  0.12500000000E+03  0.12500000000E+03 0.  0.
        -11    1    3    3    0    0 -0.12080365335E+02  0.25600287806E+02  0.55390756134E+02  0.62204869807E+02  0.51100000000E-03 0.  1.
         23    2    1    0    0    0 -0.28838154356E+01  0.15046702336E+02  0.24748846256E+02  0.95892869712E+02  0.91368580091E+02 0.  0.
         11    1    3    3    0    0  0.91965498996E+01 -0.10553585471E+02 -0.30641909878E+02  0.33687999905E+02  0.51100000000E-03 0. -1.
         22    1    1    0    0    0  0.28838154356E+01 -0.15046702336E+02 -0.24748846256E+02  0.29107130288E+02  0.00000000000E+00 0.  1.
</event>
<event>
 5    1  0.1099741E-009  0.9118800E+02  0.7818608E-02  0.1130116E+00
         25   -1    0    0    0    0  0.00000000000E+00  0.00000000000E+00  0.99999998245E-14  0.12500000000E+03  0.12500000000E+03 0.  0.
        -11    1    3    3    0    0 -0.73788932345E+01 -0.36448037829E+02 -0.24762578049E+01  0.37269818619E+02  0.51100000000E-03 0.  1.
         23    2    1    0    0    0 -0.17285945583E+00  0.16435024441E+02  0.23257065829E+02  0.96521393648E+02  0.92224445848E+02 0.  0.
         11    1    3    3    0    0  0.72060337787E+01  0.52883062270E+02  0.25733323634E+02  0.59251575029E+02  0.51100000000E-03 0. -1.
         22    1    1    0    0    0  0.17285945583E+00 -0.16435024441E+02 -0.23257065829E+02  0.28478606352E+02  0.00000000000E+00 0. -1.
</event>
<event>
 5    1  0.1099741E-009  0.9118800E+02  0.7818608E-02  0.1130116E+00
         25   -1    0    0    0    0  0.00000000000E+00  0.00000000000E+00  0.99999998245E-14  0.12500000000E+03  0.12500000000E+03 0.  0.
        -11    1    3    3    0    0 -0.10424089748E+01  0.45013436254E+02 -0.21799919363E+02  0.50025319033E+02  0.51100000000E-03 0.  1.
         23    2    1    0    0    0  0.25356855570E+02  0.90910678290E+01 -0.11061527040E+02  0.95879989369E+02  0.91350956986E+02 0.  0.
         11    1    3    3    0    0  0.26399264545E+02 -0.35922368425E+02  0.10738392323E+02  0.45854670337E+02  0.51100000000E-03 0. -1.
         22    1    1    0    0    0 -0.25356855570E+02 -0.90910678290E+01  0.11061527040E+02  0.29120010631E+02  0.00000000000E+00 0.  1.
</event>
<event>
 5    1  0.1099741E-009  0.9118800E+02  0.7818608E-02  0.1130116E+00
         25   -1    0    0    0    0  0.00000000000E+00  0.00000000000E+00  0.99999998245E-14  0.12500000000E+03  0.12500000000E+03 0.  0.
        -11    1    3    3    0    0  0.35755602825E+02 -0.94424449327E+01  0.29399901522E+01  0.37098065207E+02  0.51100000000E-03 0. -1.
         23    2    1    0    0    0 -0.15392543182E+02  0.10904553395E+02  0.22610649908E+02  0.95553758141E+02  0.90903462724E+02 0.  0.
         11    1    3    3    0    0 -0.51148146007E+02  0.20346998328E+02  0.19670659756E+02  0.58455692934E+02  0.51100000000E-03 0.  1.
         22    1    1    0    0    0  0.15392543182E+02 -0.10904553395E+02 -0.22610649908E+02  0.29446241859E+02  0.00000000000E+00 0.  1.
</event>
<event>
 5    1  0.1099741E-009  0.9118800E+02  0.7818608E-02  0.1130116E+00
         25   -1    0    0    0    0  0.00000000000E+00  0.00000000000E+00  0.99999998245E-14  0.12500000000E+03  0.12500000000E+03 0.  0.
        -11    1    3    3    0    0  0.20007705339E+02  0.45713199365E+02 -0.12071690191E+01  0.49914548244E+02  0.51100000000E-03 0. -1.
         23    2    1    0    0    0  0.17446961956E+02  0.71650181785E+01  0.22808154036E+02  0.95403617493E+02  0.90696771570E+02 0.  0.
         11    1    3    3    0    0 -0.25607433828E+01 -0.38548181186E+02  0.24015323055E+02  0.45489069249E+02  0.51100000000E-03 0.  1.
         22    1    1    0    0    0 -0.17446961956E+02 -0.71650181785E+01 -0.22808154036E+02  0.29596382507E+02  0.00000000000E+00 0. -1.
</event>
<event>
 5    1  0.1099741E-009  0.9118800E+02  0.7818608E-02  0.1130116E+00
         25   -1    0    0    0    0  0.00000000000E+00  0.00000000000E+00  0.99999998245E-14  0.12500000000E+03  0.12500000000E+03 0.  0.
        -11    1    3    3    0    0  0.45564731769E+02 -0.23236355590E+02 -0.32545225578E+02  0.60623961521E+02  0.51100000000E-03 0.  1.
         23    2    1    0    0    0  0.27481464907E+02 -0.17570813574E+02 -0.84004217935E+01  0.91317192970E+02  0.84878137601E+02 0.  0.
         11    1    3    3    0    0 -0.18083266862E+02  0.56655420151E+01  0.24144803785E+02  0.30693231449E+02  0.51100000000E-03 0. -1.
         22    1    1    0    0    0 -0.27481464907E+02  0.17570813574E+02  0.84004217935E+01  0.33682807030E+02  0.00000000000E+00 0.  1.
</event>
<event>
 5    1  0.1099741E-009  0.9118800E+02  0.7818608E-02  0.1130116E+00
         25   -1    0    0    0    0  0.00000000000E+00  0.00000000000E+00  0.99999998245E-14  0.12500000000E+03  0.12500000000E+03 0.  0.
        -11    1    3    3    0    0 -0.13109748693E+02  0.33808363426E+01 -0.38185547012E+02  0.40514584609E+02  0.51100000000E-03 0. -1.
         23    2    1    0    0    0  0.17025034482E+02  0.20765658969E+02  0.67193777991E+01  0.97319421438E+02  0.93299814360E+02 0.  0.
         11    1    3    3    0    0  0.30134783175E+02  0.17384822626E+02  0.44904924811E+02  0.56804836830E+02  0.51100000000E-03 0.  1.
         22    1    1    0    0    0 -0.17025034482E+02 -0.20765658969E+02 -0.67193777991E+01  0.27680578562E+02  0.00000000000E+00 0.  1.
</event>
<event>
 5    1  0.1099741E-009  0.9118800E+02  0.7818608E-02  0.1130116E+00
         25   -1    0    0    0    0  0.00000000000E+00  0.00000000000E+00  0.99999998245E-14  0.12500000000E+03  0.12500000000E+03 0.  0.
        -11    1    3    3    0    0  0.49696170845E+02  0.13454834954E+02 -0.23590432703E+02  0.56632592168E+02  0.51100000000E-03 0. -1.
         23    2    1    0    0    0  0.11076453366E+02  0.20656254418E+02 -0.15936710921E+02  0.96656615927E+02  0.92407542883E+02 0.  0.
         11    1    3    3    0    0 -0.38619717479E+02  0.72014194638E+01  0.76537217823E+01  0.40024023758E+02  0.51100000000E-03 0.  1.
         22    1    1    0    0    0 -0.11076453366E+02 -0.20656254418E+02  0.15936710921E+02  0.28343384073E+02  0.00000000000E+00 0. -1.
</event>
<event>
 5    1  0.1099741E-009  0.9118800E+02  0.7818608E-02  0.1130116E+00
         25   -1    0    0    0    0  0.00000000000E+00  0.00000000000E+00  0.99999998245E-14  0.12500000000E+03  0.12500000000E+03 0.  0.
        -11    1    3    3    0    0  0.33409457783E+02  0.61631279728E+01 -0.35749652690E+02  0.49317478478E+02  0.51100000000E-03 0.  1.
         23    2    1    0    0    0 -0.12940802066E+02  0.26628109259E+01 -0.24535649999E+02  0.97133298706E+02  0.93050119164E+02 0.  0.
         11    1    3    3    0    0 -0.46350259848E+02 -0.35003170469E+01  0.11214002691E+02  0.47815820228E+02  0.51100000000E-03 0. -1.
         22    1    1    0    0    0  0.12940802066E+02 -0.26628109259E+01  0.24535649999E+02  0.27866701294E+02  0.00000000000E+00 0. -1.
</event>
<event>
 5    1  0.1099741E-009  0.9118800E+02  0.7818608E-02  0.1130116E+00
         25   -1    0    0    0    0  0.00000000000E+00  0.00000000000E+00  0.99999998245E-14  0.12500000000E+03  0.12500000000E+03 0.  0.
        -11    1    3    3    0    0  0.23109754089E+02  0.44797452702E+02 -0.31244964159E+01  0.50503811547E+02  0.51100000000E-03 0. -1.
         23    2    1    0    0    0 -0.14839941707E+02  0.29625699910E+02  0.25567187945E+01  0.91766842220E+02  0.85537772679E+02 0.  0.
         11    1    3    3    0    0 -0.37949695796E+02 -0.15171752792E+02  0.56812152104E+01  0.41263030673E+02  0.51100000000E-03 0.  1.
         22    1    1    0    0    0  0.14839941707E+02 -0.29625699910E+02 -0.25567187945E+01  0.33233157780E+02  0.00000000000E+00 0. -1.
</event>
<event>
 5    1  0.1099741E-009  0.9118800E+02  0.7818608E-02  0.1130116E+00
         25   -1    0    0    0    0  0.00000000000E+00  0.00000000000E+00  0.99999998245E-14  0.12500000000E+03  0.12500000000E+03 0.  0.
        -11    1    3    3    0    0  0.14452239239E+01  0.57640503348E+02  0.78972665794E+01  0.58196933924E+02  0.51100000000E-03 0.  1.
         23    2    1    0    0    0 -0.52668128242E+01  0.27371989609E+02 -0.11585557111E+02  0.94814071721E+02  0.89880575934E+02 0.  0.
         11    1    3    3    0    0 -0.67120367482E+01 -0.30268513739E+02 -0.19482823690E+02  0.36617137797E+02  0.51100000000E-03 0. -1.
         22    1    1    0    0    0  0.52668128242E+01 -0.27371989609E+02  0.11585557111E+02  0.30185928279E+02  0.00000000000E+00 0.  1.
</event>
<event>
 5    1  0.1099741E-009  0.9118800E+02  0.7818608E-02  0.1130116E+00
         25   -1    0    0    0    0  0.00000000000E+00  0.00000000000E+00  0.99999998245E-14  0.12500000000E+03  0.12500000000E+03 0.  0.
        -11    1    3    3    0    0 -0.34124862954E+02  0.11162893844E+02  0.22736958710E+01  0.35976188845E+02  0.51100000000E-03 0. -1.
         23    2    1    0    0    0  0.24671612551E+02  0.16727998164E+02 -0.14862471413E+01  0.95155011828E+02  0.90353488903E+02 0.  0.
         11    1    3    3    0    0  0.58796475505E+02  0.55651043202E+01 -0.37599430124E+01  0.59178822983E+02  0.51100000000E-03 0.  1.
         22    1    1    0    0    0 -0.24671612551E+02 -0.16727998164E+02  0.14862471413E+01  0.29844988172E+02  0.00000000000E+00 0.  1.
</event>
<event>
 5    1  0.1099741E-009  0.9118800E+02  0.7818608E-02  0.1130116E+00
         25   -1    0    0    0    0  0.00000000000E+00  0.00000000000E+00  0.99999998245E-14  0.12500000000E+03  0.12500000000E+03 0.  0.
        -11    1    3    3    0    0  0.15158667396E+02 -0.10944206711E+02 -0.43979277268E+02  0.47788468139E+02  0.51100000000E-03 0. -1.
         23    2    1    0    0    0  0.15672758344E+02 -0.24568103564E+02  0.20423079842E+01  0.95787021913E+02  0.91223656351E+02 0.  0.
         11    1    3    3    0    0  0.51409094803E+00 -0.13623896853E+02  0.46021585252E+02  0.47998553774E+02  0.51100000000E-03 0.  1.
         22    1    1    0    0    0 -0.15672758344E+02  0.24568103564E+02 -0.20423079842E+01  0.29212978087E+02  0.00000000000E+00 0. -1.
</event>
<event>
 5    1  0.1099741E-009  0.9118800E+02  0.7818608E-02  0.1130116E+00
         25   -1    0    0    0    0  0.00000000000E+00  0.00000000000E+00  0.99999998245E-14  0.12500000000E+03  0.12500000000E+03 0.  0.
        -11    1    3    3    0    0  0.20899239203E+02  0.17976222799E+02  0.54694912360E+02  0.61249132432E+02  0.51100000000E-03 0. -1.
         23    2    1    0    0    0  0.49860735780E+01  0.15683557928E+02  0.24002325696E+02  0.95897653740E+02  0.91375124815E+02 0.  0.
         11    1    3    3    0    0 -0.15913165625E+02 -0.22926648710E+01 -0.30692586664E+02  0.34648521307E+02  0.51100000000E-03 0.  1.
         22    1    1    0    0    0 -0.49860735780E+01 -0.15683557928E+02 -0.24002325696E+02  0.29102346260E+02  0.00000000000E+00 0. -1.
</event>
<event>
 5    1  0.1099741E-009  0.9118800E+02  0.7818608E-02  0.1130116E+00
         25   -1    0    0    0    0  0.00000000000E+00  0.00000000000E+00  0.99999998245E-14  0.12500000000E+03  0.12500000000E+03 0.  0.
        -11    1    3    3    0    0 -0.80295095536E+01  0.34225112258E+02  0.11591208418E+02  0.37016043084E+02  0.51100000000E-03 0.  1.
         23    2    1    0    0    0 -0.19619667082E+02 -0.19460081372E+02 -0.93975923597E+01  0.95811974277E+02  0.91257841139E+02 0.  0.
         11    1    3    3    0    0 -0.11590157529E+02 -0.53685193630E+02 -0.20988800777E+02  0.58795931194E+02  0.51100000000E-03 0. -1.
         22    1    1    0    0    0  0.19619667082E+02  0.19460081372E+02  0.93975923597E+01  0.29188025723E+02  0.00000000000E+00 0. -1.
</event>
<event>
 5    1  0.1099741E-009  0.9118800E+02  0.7818608E-02  0.1130116E+00
         25   -1    0    0    0    0  0.00000000000E+00  0.00000000000E+00  0.99999998245E-14  0.12500000000E+03  0.12500000000E+03 0.  0.
        -11    1    3    3    0    0 -0.49843219640E+02 -0.11368988666E+02  0.46767573019E+01  0.51336853298E+02  0.51100000000E-03 0. -1.
         23    2    1    0    0    0 -0.18560079615E+02  0.21310709905E+02  0.10677139044E+01  0.96719919997E+02  0.92493134877E+02 0.  0.
         11    1    3    3    0    0  0.31283140025E+02  0.32679698571E+02 -0.36090433975E+01  0.45383066700E+02  0.51100000000E-03 0.  1.
         22    1    1    0    0    0  0.18560079615E+02 -0.21310709905E+02 -0.10677139044E+01  0.28280080003E+02  0.00000000000E+00 0.  1.
</event>
<event>
 5    1  0.1099741E-009  0.9118800E+02  0.7818608E-02  0.1130116E+00
         25   -1    0    0    0    0  0.00000000000E+00  0.00000000000E+00  0.99999998245E-14  0.12500000000E+03  0.12500000000E+03 0.  0.
        -11    1    3    3    0    0  0.23516762857E+01 -0.27154473551E+02 -0.18870822408E+02  0.33151225525E+02  0.51100000000E-03 0.  1.
         23    2    1    0    0    0  0.73981277054E+01  0.21301141178E+02  0.19518360743E+02  0.95176564331E+02  0.90383300906E+02 0.  0.
         11    1    3    3    0    0  0.50464514197E+01  0.48455614729E+02  0.38389183151E+02  0.62025338806E+02  0.51100000000E-03 0. -1.
         22    1    1    0    0    0 -0.73981277054E+01 -0.21301141178E+02 -0.19518360743E+02  0.29823435669E+02  0.00000000000E+00 0. -1.
</event>
<event>
 5    1  0.1099741E-009  0.9118800E+02  0.7818608E-02  0.1130116E+00
         25   -1    0    0    0    0  0.00000000000E+00  0.00000000000E+00  0.99999998245E-14  0.12500000000E+03  0.12500000000E+03 0.  0.
        -11    1    3    3    0    0 -0.38361955247E+02  0.25692613222E+01  0.12798678731E+02  0.40522177775E+02  0.51100000000E-03 0. -1.
         23    2    1    0    0    0 -0.34506665102E+00 -0.20446589702E+02 -0.20492367371E+02  0.96049711195E+02  0.91582901235E+02 0.  0.
         11    1    3    3    0    0  0.38016888596E+02 -0.23015851024E+02 -0.33291046103E+02  0.55527533420E+02  0.51100000000E-03 0.  1.
         22    1    1    0    0    0  0.34506665102E+00  0.20446589702E+02  0.20492367371E+02  0.28950288805E+02  0.00000000000E+00 0.  1.
</event>
<event>
 5    1  0.1099741E-009  0.9118800E+02  0.7818608E-02  0.1130116E+00
         25   -1    0    0    0    0  0.00000000000E+00  0.00000000000E+00  0.99999998245E-14  0.12500000000E+03  0.12500000000E+03 0.  0.
        -11    1    3    3    0    0  0.49550825649E+02  0.23835061464E+02 -0.29630982363E+02  0.62461104645E+02  0.51100000000E-03 0.  1.
         23    2    1    0    0    0  0.23436000344E+02  0.12079937125E+02 -0.12640376452E+02  0.95760470080E+02  0.91187266216E+02 0.  0.
         11    1    3    3    0    0 -0.26114825304E+02 -0.11755124339E+02  0.16990605911E+02  0.33299365435E+02  0.51100000000E-03 0. -1.
         22    1    1    0    0    0 -0.23436000344E+02 -0.12079937125E+02  0.12640376452E+02  0.29239529920E+02  0.00000000000E+00 0.  1.
</event>
<event>
 5    1  0.1099741E-009  0.9118800E+02  0.7818608E-02  0.1130116E+00
         25   -1    0    0    0    0  0.00000000000E+00  0.00000000000E+00  0.99999998245E-14  0.12500000000E+03  0.12500000000E+03 0.  0.
        -11    1    3    3    0    0  0.32937011148E+02 -0.30857084973E+01 -0.26441668940E+02  0.42350090399E+02  0.51100000000E-03 0. -1.
         23    2    1    0    0    0 -0.98889807690E+00 -0.30362843132E+02  0.23317728391E+01  0.94531699637E+02  0.89487009723E+02 0.  0.
         11    1    3    3    0    0 -0.33925909224E+02 -0.27277134634E+02  0.28773441779E+02  0.52181609238E+02  0.51100000000E-03 0.  1.
         22    1    1    0    0    0  0.98889807690E+00  0.30362843132E+02 -0.23317728391E+01  0.30468300363E+02  0.00000000000E+00 0.  1.
</event>
<event>
 5    1  0.1099741E-009  0.9118800E+02  0.7818608E-02  0.1130116E+00
         25   -1    0    0    0    0  0.00000000000E+00  0.00000000000E+00  0.99999998245E-14  0.12500000000E+03  0.12500000000E+03 0.  0.
        -11    1    3    3    0    0  0.37416993717E+02 -0.34702950612E+02 -0.23406264262E+02  0.56144273145E+02  0.51100000000E-03 0. -1.
         23    2    1    0    0    0  0.61995920285E+01 -0.32765195433E+02 -0.98859275762E+01  0.90218905464E+02  0.83244978022E+02 0.  0.
         11    1    3    3    0    0 -0.31217401689E+02  0.19377551785E+01  0.13520336686E+02  0.34074632319E+02  0.51100000000E-03 0.  1.
         22    1    1    0    0    0 -0.61995920285E+01  0.32765195433E+02  0.98859275762E+01  0.34781094536E+02  0.00000000000E+00 0. -1.
</event>
<event>
 5    1  0.1099741E-009  0.9118800E+02  0.7818608E-02  0.1130116E+00
         25   -1    0    0    0    0  0.00000000000E+00  0.00000000000E+00  0.99999998245E-14  0.12500000000E+03  0.12500000000E+03 0.  0.
        -11    1    3    3    0    0  0.38849131492E+02  0.20021830083E+02 -0.31162951614E+02  0.53677353242E+02  0.51100000000E-03 0. -1.
         23    2    1    0    0    0 -0.37558626878E+01  0.17515677586E+02 -0.20709840123E+02  0.97617470100E+02  0.93698279199E+02 0.  0.
         11    1    3    3    0    0 -0.42604994179E+02 -0.25061524969E+01  0.10453111491E+02  0.43940116858E+02  0.51100000000E-03 0.  1.
         22    1    1    0    0    0  0.37558626878E+01 -0.17515677586E+02  0.20709840123E+02  0.27382529900E+02  0.00000000000E+00 0. -1.
</event>
<event>
 5    1  0.1099741E-009  0.9118800E+02  0.7818608E-02  0.1130116E+00
         25   -1    0    0    0    0  0.00000000000E+00  0.00000000000E+00  0.99999998245E-14  0.12500000000E+03  0.12500000000E+03 0.  0.
        -11    1    3    3    0    0 -0.18721385411E+02  0.13307312237E+02  0.29073032085E+02  0.37051532027E+02  0.51100000000E-03 0. -1.
         23    2    1    0    0    0  0.27153904015E+02 -0.15707205205E+01 -0.65670705891E+01  0.97019147934E+02  0.92896646783E+02 0.  0.
         11    1    3    3    0    0  0.45875289426E+02 -0.14878032758E+02 -0.35640102674E+02  0.59967615907E+02  0.51100000000E-03 0.  1.
         22    1    1    0    0    0 -0.27153904015E+02  0.15707205205E+01  0.65670705891E+01  0.27980852066E+02  0.00000000000E+00 0.  1.
</event>
<event>
 5    1  0.1099741E-009  0.9118800E+02  0.7818608E-02  0.1130116E+00
         25   -1    0    0    0    0  0.00000000000E+00  0.00000000000E+00  0.99999998245E-14  0.12500000000E+03  0.12500000000E+03 0.  0.
        -11    1    3    3    0    0 -0.25937659043E+02  0.36988600303E+02  0.19831448357E+02  0.49337663638E+02  0.51100000000E-03 0.  1.
         23    2    1    0    0    0 -0.64813553372E+00  0.28715989630E+02 -0.14541133971E+02  0.92805703653E+02  0.87042667200E+02 0.  0.
         11    1    3    3    0    0  0.25289523510E+02 -0.82726106730E+01 -0.34372582327E+02  0.43468040016E+02  0.51100000000E-03 0. -1.
         22    1    1    0    0    0  0.64813553372E+00 -0.28715989630E+02  0.14541133971E+02  0.32194296347E+02  0.00000000000E+00 0.  1.
</event>
<event>
 5    1  0.1099741E-009  0.9118800E+02  0.7818608E-02  0.1130116E+00
         25   -1    0    0    0    0  0.00000000000E+00  0.00000000000E+00  0.99999998245E-14  0.12500000000E+03  0.12500000000E+03 0.  0.
        -11    1    3    3    0    0 -0.11150283560E+02 -0.10396529018E+02  0.33566094671E+02  0.36865964667E+02  0.51100000000E-03 0.  1.
         23    2    1    0    0    0 -0.21644767920E+02 -0.54438992004E+01 -0.22017936560E+02  0.93648420340E+02  0.88244575385E+02 0.  0.
         11    1    3    3    0    0 -0.10494484360E+02  0.49526298172E+01 -0.55584031231E+02  0.56782455673E+02  0.51100000000E-03 0. -1.
         22    1    1    0    0    0  0.21644767920E+02  0.54438992004E+01  0.22017936560E+02  0.31351579660E+02  0.00000000000E+00 0. -1.
</event>
<event>
 5    1  0.1099741E-009  0.9118800E+02  0.7818608E-02  0.1130116E+00
         25   -1    0    0    0    0  0.00000000000E+00  0.00000000000E+00  0.99999998245E-14  0.12500000000E+03  0.12500000000E+03 0.  0.
        -11    1    3    3    0    0 -0.20740983433E+02  0.31247852622E+02  0.31613486969E+02  0.49051291989E+02  0.51100000000E-03 0. -1.
         23    2    1    0    0    0  0.16312110330E+02  0.31526469308E+01  0.23447486765E+02  0.96263111482E+02  0.91873706089E+02 0.  0.
         11    1    3    3    0    0  0.37053093763E+02 -0.28095205691E+02 -0.81660002037E+01  0.47211819493E+02  0.51100000000E-03 0.  1.
         22    1    1    0    0    0 -0.16312110330E+02 -0.31526469308E+01 -0.23447486765E+02  0.28736888518E+02  0.00000000000E+00 0. -1.
</event>
<event>
 5    1  0.1099741E-009  0.9118800E+02  0.7818608E-02  0.1130116E+00
         25   -1    0    0    0    0  0.00000000000E+00  0.00000000000E+00  0.99999998245E-14  0.12500000000E+03  0.12500000000E+03 0.  0.
        -11    1    3    3    0    0 -0.30800749637E+02  0.21217700837E+02  0.54903807036E+01  0.37802397908E+02  0.51100000000E-03 0. -1.
         23    2    1    0    0    0 -0.16459307814E+02 -0.21033470285E+02  0.26725653595E+02  0.87216720020E+02  0.78607760463E+02 0.  0.
         11    1    3    3    0    0  0.14341441824E+02 -0.42251171122E+02  0.21235272892E+02  0.49414322112E+02  0.51100000000E-03 0.  1.
         22    1    1    0    0    0  0.16459307814E+02  0.21033470285E+02 -0.26725653595E+02  0.37783279980E+02  0.00000000000E+00 0.  1.
</event>
<event>
 5    1  0.1099741E-009  0.9118800E+02  0.7818608E-02  0.1130116E+00
         25   -1    0    0    0    0  0.00000000000E+00  0.00000000000E+00  0.99999998245E-14  0.12500000000E+03  0.12500000000E+03 0.  0.
        -11    1    3    3    0    0 -0.28923029285E+02  0.74018381376E+01 -0.19895489332E+02  0.35877002757E+02  0.51100000000E-03 0. -1.
         23    2    1    0    0    0  0.18403090058E+02  0.22472840744E+02  0.10507485802E+02  0.94111336178E+02  0.88897885490E+02 0.  0.
         11    1    3    3    0    0  0.47326119343E+02  0.15071002607E+02  0.30402975134E+02  0.58234333421E+02  0.51100000000E-03 0.  1.
         22    1    1    0    0    0 -0.18403090058E+02 -0.22472840744E+02 -0.10507485802E+02  0.30888663822E+02  0.00000000000E+00 0.  1.
</event>
<event>
 5    1  0.1099741E-009  0.9118800E+02  0.7818608E-02  0.1130116E+00
         25   -1    0    0    0    0  0.00000000000E+00  0.00000000000E+00  0.99999998245E-14  0.12500000000E+03  0.12500000000E+03 0.  0.
        -11    1    3    3    0    0  0.19598775615E+02  0.27794542666E+02  0.41023147280E+02  0.53287402082E+02  0.51100000000E-03 0. -1.
         23    2    1    0    0    0  0.27349061673E+02  0.11391402931E+02  0.32445372780E+01  0.95196271085E+02  0.90410551216E+02 0.  0.
         11    1    3    3    0    0  0.77502860580E+01 -0.16403139735E+02 -0.37778610002E+02  0.41908869003E+02  0.51100000000E-03 0.  1.
         22    1    1    0    0    0 -0.27349061673E+02 -0.11391402931E+02 -0.32445372780E+01  0.29803728915E+02  0.00000000000E+00 0. -1.
</event>
<event>
 5    1  0.1099741E-009  0.9118800E+02  0.7818608E-02  0.1130116E+00
         25   -1    0    0    0    0  0.00000000000E+00  0.00000000000E+00  0.99999998245E-14  0.12500000000E+03  0.12500000000E+03 0.  0.
        -11    1    3    3    0    0 -0.64748510080E+01  0.44363536676E+02 -0.29053512122E+02  0.53424279582E+02  0.51100000000E-03 0.  1.
         23    2    1    0    0    0 -0.19599536496E+02  0.52763051255E+01 -0.21664044017E+02  0.95313100031E+02  0.90571932781E+02 0.  0.
         11    1    3    3    0    0 -0.13124685488E+02 -0.39087231550E+02  0.73894681056E+01  0.41888820448E+02  0.51100000000E-03 0. -1.
         22    1    1    0    0    0  0.19599536496E+02 -0.52763051255E+01  0.21664044017E+02  0.29686899969E+02  0.00000000000E+00 0.  1.
</event>
<event>
 5    1  0.1099741E-009  0.9118800E+02  0.7818608E-02  0.1130116E+00
         25   -1    0    0    0    0  0.00000000000E+00  0.00000000000E+00  0.99999998245E-14  0.12500000000E+03  0.12500000000E+03 0.  0.
        -11    1    3    3    0    0  0.32713674164E+01 -0.31435660084E+02 -0.28130814574E+02  0.42311290438E+02  0.51100000000E-03 0. -1.
         23    2    1    0    0    0 -0.23638594572E+01 -0.15853486556E+02  0.23510256056E+02  0.96545597752E+02  0.92257245992E+02 0.  0.
         11    1    3    3    0    0 -0.56352268736E+01  0.15582173528E+02  0.51641070629E+02  0.54234307314E+02  0.51100000000E-03 0.  1.
         22    1    1    0    0    0  0.23638594572E+01  0.15853486556E+02 -0.23510256056E+02  0.28454402248E+02  0.00000000000E+00 0.  1.
</event>
<event>
 5    1  0.1099741E-009  0.9118800E+02  0.7818608E-02  0.1130116E+00
         25   -1    0    0    0    0  0.00000000000E+00  0.00000000000E+00  0.99999998245E-14  0.12500000000E+03  0.12500000000E+03 0.  0.
        -11    1    3    3    0    0  0.17702413349E+02 -0.18943853413E+02  0.24988168581E+02  0.36009076492E+02  0.51100000000E-03 0. -1.
         23    2    1    0    0    0 -0.49119135022E+00 -0.10022142065E+02 -0.29339176663E+02  0.93992389841E+02  0.88730476502E+02 0.  0.
         11    1    3    3    0    0 -0.18193604699E+02  0.89217113486E+01 -0.54327345244E+02  0.57983313349E+02  0.51100000000E-03 0.  1.
         22    1    1    0    0    0  0.49119135022E+00  0.10022142065E+02  0.29339176663E+02  0.31007610159E+02  0.00000000000E+00 0.  1.
</event>
<event>
 5    1  0.1099741E-009  0.9118800E+02  0.7818608E-02  0.1130116E+00
         25   -1    0    0    0    0  0.00000000000E+00  0.00000000000E+00  0.99999998245E-14  0.12500000000E+03  0.12500000000E+03 0.  0.
        -11    1    3    3    0    0  0.19630551279E+02  0.34327675826E+02  0.16832110644E+02  0.42977526919E+02  0.51100000000E-03 0. -1.
         23    2    1    0    0    0  0.24760306805E+02 -0.73290564052E+01 -0.14528608993E+02  0.95371156955E+02  0.90652022806E+02 0.  0.
         11    1    3    3    0    0  0.51297555259E+01 -0.41656732231E+02 -0.31360719637E+02  0.52393630036E+02  0.51100000000E-03 0.  1.
         22    1    1    0    0    0 -0.24760306805E+02  0.73290564052E+01  0.14528608993E+02  0.29628843045E+02  0.00000000000E+00 0.  1.
</event>
<event>
 5    1  0.1099741E-009  0.9118800E+02  0.7818608E-02  0.1130116E+00
         25   -1    0    0    0    0  0.00000000000E+00  0.00000000000E+00  0.99999998245E-14  0.12500000000E+03  0.12500000000E+03 0.  0.
        -11    1    3    3    0    0  0.46685300870E+02 -0.24474247412E+02 -0.14261306660E+02  0.54606693469E+02  0.51100000000E-03 0. -1.
         23    2    1    0    0    0  0.15015952955E+02 -0.17030980692E+02  0.14524876842E+02  0.98046239710E+02  0.94268552166E+02 0.  0.
         11    1    3    3    0    0 -0.31669347915E+02  0.74432667193E+01  0.28786183502E+02  0.43439546241E+02  0.51100000000E-03 0.  1.
         22    1    1    0    0    0 -0.15015952955E+02  0.17030980692E+02 -0.14524876842E+02  0.26953760290E+02  0.00000000000E+00 0. -1.
</event>
<event>
 5    1  0.1099741E-009  0.9118800E+02  0.7818608E-02  0.1130116E+00
         25   -1    0    0    0    0  0.00000000000E+00  0.00000000000E+00  0.99999998245E-14  0.12500000000E+03  0.12500000000E+03 0.  0.
        -11    1    3    3    0    0 -0.86306671639E+01 -0.29041683572E+02  0.26855326830E+02  0.40486002270E+02  0.51100000000E-03 0.  1.
         23    2    1    0    0    0 -0.52622108947E+01 -0.13837736712E+02 -0.25722418319E+02  0.95321445032E+02  0.90583449139E+02 0.  0.
         11    1    3    3    0    0  0.33684562692E+01  0.15203946860E+02 -0.52577745149E+02  0.54835442762E+02  0.51100000000E-03 0. -1.
         22    1    1    0    0    0  0.52622108947E+01  0.13837736712E+02  0.25722418319E+02  0.29678554968E+02  0.00000000000E+00 0. -1.
</event>
<event>
 5    1  0.1099741E-009  0.9118800E+02  0.7818608E-02  0.1130116E+00
         25   -1    0    0    0    0  0.00000000000E+00  0.00000000000E+00  0.99999998245E-14  0.12500000000E+03  0.12500000000E+03 0.  0.
        -11    1    3    3    0    0 -0.48061251729E+02  0.16108083462E+02  0.25757375497E+02  0.56857687812E+02  0.51100000000E-03 0. -1.
         23    2    1    0    0    0 -0.27889706218E+02 -0.32584883706E+01 -0.27448119215E+01  0.96786750420E+02  0.92583408908E+02 0.  0.
         11    1    3    3    0    0  0.20171545511E+02 -0.19366571833E+02 -0.28502187419E+02  0.39929062608E+02  0.51100000000E-03 0.  1.
         22    1    1    0    0    0  0.27889706218E+02  0.32584883706E+01  0.27448119215E+01  0.28213249580E+02  0.00000000000E+00 0. -1.
</event>
<event>
 5    1  0.1099741E-009  0.9118800E+02  0.7818608E-02  0.1130116E+00
         25   -1    0    0    0    0  0.00000000000E+00  0.00000000000E+00  0.99999998245E-14  0.12500000000E+03  0.12500000000E+03 0.  0.
        -11    1    3    3    0    0 -0.25100807669E+02 -0.22216225995E+01 -0.55460527188E+02  0.60916797592E+02  0.51100000000E-03 0.  1.
         23    2    1    0    0    0 -0.91510563859E+01  0.84809957377E+01 -0.27051557661E+02  0.95209802055E+02  0.90429256957E+02 0.  0.
         11    1    3    3    0    0  0.15949751283E+02  0.10702618337E+02  0.28408969527E+02  0.34293004463E+02  0.51100000000E-03 0. -1.
         22    1    1    0    0    0  0.91510563859E+01 -0.84809957377E+01  0.27051557661E+02  0.29790197945E+02  0.00000000000E+00 0.  1.
</event>
<event>
 5    1  0.1099741E-009  0.9118800E+02  0.7818608E-02  0.1130116E+00
         25   -1    0    0    0    0  0.00000000000E+00  0.00000000000E+00  0.99999998245E-14  0.12500000000E+03  0.12500000000E+03 0.  0.
        -11    1    3    3    0    0 -0.43205415721E+00  0.39730542566E+02 -0.42920640649E+02  0.58488324282E+02  0.51100000000E-03 0.  1.
         23    2    1    0    0    0 -0.84769676470E+01  0.99861773065E+01 -0.30674427563E+02  0.91645791510E+02  0.85360692813E+02 0.  0.
         11    1    3    3    0    0 -0.80449134898E+01 -0.29744365260E+02  0.12246213085E+02  0.33157467228E+02  0.51100000000E-03 0. -1.
         22    1    1    0    0    0  0.84769676470E+01 -0.99861773065E+01  0.30674427563E+02  0.33354208490E+02  0.00000000000E+00 0.  1.
</event>
<event>
 5    1  0.1099741E-009  0.9118800E+02  0.7818608E-02  0.1130116E+00
         25   -1    0    0    0    0  0.00000000000E+00  0.00000000000E+00  0.99999998245E-14  0.12500000000E+03  0.12500000000E+03 0.  0.
        -11    1    3    3    0    0 -0.16198328201E+01  0.13497067957E+02  0.35381753892E+02  0.37903340362E+02  0.51100000000E-03 0.  1.
         23    2    1    0    0    0  0.23385740921E+02 -0.19402561891E+02 -0.32086745190E+01  0.94444347847E+02  0.89364909006E+02 0.  0.
         11    1    3    3    0    0  0.25005573741E+02 -0.32899629848E+02 -0.38590428411E+02  0.56541007485E+02  0.51100000000E-03 0. -1.
         22    1    1    0    0    0 -0.23385740921E+02  0.19402561891E+02  0.32086745190E+01  0.30555652153E+02  0.00000000000E+00 0. -1.
</event>
<event>
 5    1  0.1099741E-009  0.9118800E+02  0.7818608E-02  0.1130116E+00
         25   -1    0    0    0    0  0.00000000000E+00  0.00000000000E+00  0.99999998245E-14  0.12500000000E+03  0.12500000000E+03 0.  0.
        -11    1    3    3    0    0 -0.31468102777E+02  0.47142769721E+02 -0.18866892077E+02  0.59738110501E+02  0.51100000000E-03 0. -1.
         23    2    1    0    0    0 -0.12575356979E+02  0.25564720244E+02  0.37512705364E+01  0.96263845857E+02  0.91874705247E+02 0.  0.
         11    1    3    3    0    0  0.18892745798E+02 -0.21578049477E+02  0.22618162613E+02  0.36525735356E+02  0.51100000000E-03 0.  1.
         22    1    1    0    0    0  0.12575356979E+02 -0.25564720244E+02 -0.37512705364E+01  0.28736154143E+02  0.00000000000E+00 0. -1.
</event>
<event>
 5    1  0.1099741E-009  0.9118800E+02  0.7818608E-02  0.1130116E+00
         25   -1    0    0    0    0  0.00000000000E+00  0.00000000000E+00  0.99999998245E-14  0.12500000000E+03  0.12500000000E+03 0.  0.
        -11    1    3    3    0    0  0.37903444428E+02  0.62683064701E+01 -0.50288054273E+01  0.38745988822E+02  0.51100000000E-03 0.  1.
         23    2    1    0    0    0 -0.43705405355E+01 -0.23842686613E+02  0.17272278320E+02  0.95235811319E+02  0.90465202314E+02 0.  0.
         11    1    3    3    0    0 -0.42273984964E+02 -0.30110993083E+02  0.22301083747E+02  0.56489822497E+02  0.51100000000E-03 0. -1.
         22    1    1    0    0    0  0.43705405355E+01  0.23842686613E+02 -0.17272278320E+02  0.29764188681E+02  0.00000000000E+00 0. -1.
</event>
<event>
 5    1  0.1099741E-009  0.9118800E+02  0.7818608E-02  0.1130116E+00
         25   -1    0    0    0    0  0.00000000000E+00  0.00000000000E+00  0.99999998245E-14  0.12500000000E+03  0.12500000000E+03 0.  0.
        -11    1    3    3    0    0  0.14416145495E+02  0.84607336545E+01  0.34453612014E+02  0.38294394446E+02  0.51100000000E-03 0.  1.
         23    2    1    0    0    0 -0.85058591219E+01 -0.26865434975E+02 -0.54378749910E+01  0.96300318465E+02  0.91924314609E+02 0.  0.
         11    1    3    3    0    0 -0.22922004617E+02 -0.35326168629E+02 -0.39891487005E+02  0.58005924020E+02  0.51100000000E-03 0. -1.
         22    1    1    0    0    0  0.85058591219E+01  0.26865434975E+02  0.54378749910E+01  0.28699681535E+02  0.00000000000E+00 0. -1.
</event>
<event>
 5    1  0.1099741E-009  0.9118800E+02  0.7818608E-02  0.1130116E+00
         25   -1    0    0    0    0  0.00000000000E+00  0.00000000000E+00  0.99999998245E-14  0.12500000000E+03  0.12500000000E+03 0.  0.
        -11    1    3    3    0    0  0.48490795628E+01  0.20096867887E+02  0.57662847524E+02  0.61256849873E+02  0.51100000000E-03 0.  1.
         23    2    1    0    0    0  0.37609976105E+01  0.19217989688E+02  0.28686977847E+02  0.90266458162E+02  0.83316352179E+02 0.  0.
         11    1    3    3    0    0 -0.10880819523E+01 -0.87887819887E+00 -0.28975869678E+02  0.29009608289E+02  0.51100000000E-03 0. -1.
         22    1    1    0    0    0 -0.37609976105E+01 -0.19217989688E+02 -0.28686977847E+02  0.34733541838E+02  0.00000000000E+00 0.  1.
</event>
<event>
 5    1  0.1099741E-009  0.9118800E+02  0.7818608E-02  0.1130116E+00
         25   -1    0    0    0    0  0.00000000000E+00  0.00000000000E+00  0.99999998245E-14  0.12500000000E+03  0.12500000000E+03 0.  0.
        -11    1    3    3    0    0  0.23160316289E+02 -0.24940233541E+02  0.45767434714E+02  0.57035721966E+02  0.51100000000E-03 0. -1.
         23    2    1    0    0    0  0.27231180518E+02 -0.14685926252E+02  0.13305344818E+02  0.91321433774E+02  0.84884382802E+02 0.  0.
         11    1    3    3    0    0  0.40708642291E+01  0.10254307288E+02 -0.32462089896E+02  0.34285711808E+02  0.51100000000E-03 0.  1.
         22    1    1    0    0    0 -0.27231180518E+02  0.14685926252E+02 -0.13305344818E+02  0.33678566226E+02  0.00000000000E+00 0. -1.
</event>
<event>
 5    1  0.1099741E-009  0.9118800E+02  0.7818608E-02  0.1130116E+00
         25   -1    0    0    0    0  0.00000000000E+00  0.00000000000E+00  0.99999998245E-14  0.12500000000E+03  0.12500000000E+03 0.  0.
        -11    1    3    3    0    0 -0.77056677287E+01  0.25394462109E+02 -0.31495086211E+02  0.41184905932E+02  0.51100000000E-03 0. -1.
         23    2    1    0    0    0  0.17554623155E+02  0.18892363657E+02  0.15484036031E+02  0.94919415390E+02  0.90026961781E+02 0.  0.
         11    1    3    3    0    0  0.25260290883E+02 -0.65020984514E+01  0.46979122242E+02  0.53734509458E+02  0.51100000000E-03 0.  1.
         22    1    1    0    0    0 -0.17554623155E+02 -0.18892363657E+02 -0.15484036031E+02  0.30080584610E+02  0.00000000000E+00 0. -1.
</event>
<event>
 5    1  0.1099741E-009  0.9118800E+02  0.7818608E-02  0.1130116E+00
         25   -1    0    0    0    0  0.00000000000E+00  0.00000000000E+00  0.99999998245E-14  0.12500000000E+03  0.12500000000E+03 0.  0.
        -11    1    3    3    0    0 -0.22459384601E+02 -0.34259675243E+02  0.16305133618E+02  0.44090891202E+02  0.51100000000E-03 0.  1.
         23    2    1    0    0    0  0.23451257546E+02 -0.16228016678E+02 -0.12698134343E+01  0.96453153730E+02  0.92131907787E+02 0.  0.
         11    1    3    3    0    0  0.45910642147E+02  0.18031658564E+02 -0.17574947052E+02  0.52362262528E+02  0.51100000000E-03 0. -1.
         22    1    1    0    0    0 -0.23451257546E+02  0.16228016678E+02  0.12698134343E+01  0.28546846270E+02  0.00000000000E+00 0. -1.
</event>
<event>
 5    1  0.1099741E-009  0.9118800E+02  0.7818608E-02  0.1130116E+00
         25   -1    0    0    0    0  0.00000000000E+00  0.00000000000E+00  0.99999998245E-14  0.12500000000E+03  0.12500000000E+03 0.  0.
        -11    1    3    3    0    0 -0.12719735898E+02 -0.14089729436E+02 -0.42100092335E+02  0.46181489059E+02  0.51100000000E-03 0.  1.
         23    2    1    0    0    0  0.24838476787E+02 -0.12024122160E+02 -0.99460740273E+01  0.95666506662E+02  0.91058369552E+02 0.  0.
         11    1    3    3    0    0  0.37558212686E+02  0.20656072757E+01  0.32154018307E+02  0.49485017603E+02  0.51100000000E-03 0. -1.
         22    1    1    0    0    0 -0.24838476787E+02  0.12024122160E+02  0.99460740273E+01  0.29333493338E+02  0.00000000000E+00 0.  1.
</event>
<event>
 5    1  0.1099741E-009  0.9118800E+02  0.7818608E-02  0.1130116E+00
         25   -1    0    0    0    0  0.00000000000E+00  0.00000000000E+00  0.99999998245E-14  0.12500000000E+03  0.12500000000E+03 0.  0.
        -11    1    3    3    0    0 -0.13703638123E+02  0.38019498239E+02  0.13943233573E+02  0.42751440992E+02  0.51100000000E-03 0.  1.
         23    2    1    0    0    0  0.16795794721E+02  0.13536280038E+02 -0.20776875862E+02  0.95049905373E+02  0.90207961640E+02 0.  0.
         11    1    3    3    0    0  0.30499432843E+02 -0.24483218201E+02 -0.34720109435E+02  0.52298464382E+02  0.51100000000E-03 0. -1.
         22    1    1    0    0    0 -0.16795794721E+02 -0.13536280038E+02  0.20776875862E+02  0.29950094627E+02  0.00000000000E+00 0. -1.
</event>
<event>
 5    1  0.1099741E-009  0.9118800E+02  0.7818608E-02  0.1130116E+00
         25   -1    0    0    0    0  0.00000000000E+00  0.00000000000E+00  0.99999998245E-14  0.12500000000E+03  0.12500000000E+03 0.  0.
        -11    1    3    3    0    0  0.10926714461E+02  0.85656818301E+01 -0.50493156232E+02  0.52367192217E+02  0.51100000000E-03 0. -1.
         23    2    1    0    0    0  0.22961254927E+01 -0.21103788739E+02 -0.18563863834E+02  0.96799660785E+02  0.92600837989E+02 0.  0.
         11    1    3    3    0    0 -0.86305889682E+01 -0.29669470569E+02  0.31929292398E+02  0.44432468568E+02  0.51100000000E-03 0.  1.
         22    1    1    0    0    0 -0.22961254927E+01  0.21103788739E+02  0.18563863834E+02  0.28200339215E+02  0.00000000000E+00 0.  1.
</event>
<event>
 5    1  0.1099741E-009  0.9118800E+02  0.7818608E-02  0.1130116E+00
         25   -1    0    0    0    0  0.00000000000E+00  0.00000000000E+00  0.99999998245E-14  0.12500000000E+03  0.12500000000E+03 0.  0.
        -11    1    3    3    0    0 -0.11750869586E+02 -0.37069974013E+02 -0.39016427038E+02  0.55086726972E+02  0.51100000000E-03 0. -1.
         23    2    1    0    0    0 -0.21667892014E+02 -0.18827693206E+02 -0.39874389182E+02  0.75868070581E+02  0.57810186346E+02 0.  0.
         11    1    3    3    0    0 -0.99170224282E+01  0.18242280808E+02 -0.85796214395E+00  0.20781343609E+02  0.51100000000E-03 0.  1.
         22    1    1    0    0    0  0.21667892014E+02  0.18827693206E+02  0.39874389182E+02  0.49131929419E+02  0.00000000000E+00 0. -1.
</event>
<event>
 5    1  0.1099741E-009  0.9118800E+02  0.7818608E-02  0.1130116E+00
         25   -1    0    0    0    0  0.00000000000E+00  0.00000000000E+00  0.99999998245E-14  0.12500000000E+03  0.12500000000E+03 0.  0.
        -11    1    3    3    0    0  0.17827201116E+01 -0.51405907423E+02  0.26560443175E+02  0.57889572040E+02  0.51100000000E-03 0. -1.
         23    2    1    0    0    0 -0.37379049112E+01 -0.18473170456E+02  0.27925020573E+02  0.91309693771E+02  0.84867092814E+02 0.  0.
         11    1    3    3    0    0 -0.55206250228E+01  0.32932736967E+02  0.13645773974E+01  0.33420121731E+02  0.51100000000E-03 0.  1.
         22    1    1    0    0    0  0.37379049112E+01  0.18473170456E+02 -0.27925020573E+02  0.33690306229E+02  0.00000000000E+00 0. -1.
</event>
<event>
 5    1  0.1099741E-009  0.9118800E+02  0.7818608E-02  0.1130116E+00
         25   -1    0    0    0    0  0.00000000000E+00  0.00000000000E+00  0.99999998245E-14  0.12500000000E+03  0.12500000000E+03 0.  0.
        -11    1    3    3    0    0  0.10737715991E+02  0.12733485500E+01  0.56065292281E+02  0.57098484744E+02  0.51100000000E-03 0. -1.
         23    2    1    0    0    0 -0.43771523311E+01 -0.15224273207E+02  0.25548227420E+02  0.94939230191E+02  0.90054469894E+02 0.  0.
         11    1    3    3    0    0 -0.15114868322E+02 -0.16497621757E+02 -0.30517064861E+02  0.37840745448E+02  0.51100000000E-03 0.  1.
         22    1    1    0    0    0  0.43771523311E+01  0.15224273207E+02 -0.25548227420E+02  0.30060769809E+02  0.00000000000E+00 0. -1.
</event>
<event>
 5    1  0.1099741E-009  0.9118800E+02  0.7818608E-02  0.1130116E+00
         25   -1    0    0    0    0  0.00000000000E+00  0.00000000000E+00  0.99999998245E-14  0.12500000000E+03  0.12500000000E+03 0.  0.
        -11    1    3    3    0    0 -0.16494666158E+02  0.46556429401E+01  0.39735231931E+02  0.43273983867E+02  0.51100000000E-03 0. -1.
         23    2    1    0    0    0 -0.16430808269E+02 -0.25473169744E+02 -0.18551638465E+01  0.94630682094E+02  0.89625166798E+02 0.  0.
         11    1    3    3    0    0  0.63857889197E-01 -0.30128812684E+02 -0.41590395778E+02  0.51356698227E+02  0.51100000000E-03 0.  1.
         22    1    1    0    0    0  0.16430808269E+02  0.25473169744E+02  0.18551638465E+01  0.30369317906E+02  0.00000000000E+00 0.  1.
</event>
<event>
 5    1  0.1099741E-009  0.9118800E+02  0.7818608E-02  0.1130116E+00
         25   -1    0    0    0    0  0.00000000000E+00  0.00000000000E+00  0.99999998245E-14  0.12500000000E+03  0.12500000000E+03 0.  0.
        -11    1    3    3    0    0  0.50787047690E+02 -0.18325628552E+02 -0.34531368924E+01  0.54102467870E+02  0.51100000000E-03 0.  1.
         23    2    1    0    0    0  0.22350529294E+02 -0.26558113380E+01  0.20583326988E+02  0.94499625519E+02  0.89442195745E+02 0.  0.
         11    1    3    3    0    0 -0.28436518396E+02  0.15669817214E+02  0.24036463880E+02  0.40397157649E+02  0.51100000000E-03 0. -1.
         22    1    1    0    0    0 -0.22350529294E+02  0.26558113380E+01 -0.20583326988E+02  0.30500374481E+02  0.00000000000E+00 0.  1.
</event>
<event>
 5    1  0.1099741E-009  0.9118800E+02  0.7818608E-02  0.1130116E+00
         25   -1    0    0    0    0  0.00000000000E+00  0.00000000000E+00  0.99999998245E-14  0.12500000000E+03  0.12500000000E+03 0.  0.
        -11    1    3    3    0    0 -0.39191142767E+02 -0.72398007604E+01 -0.40330655040E+01  0.40057783314E+02  0.51100000000E-03 0. -1.
         23    2    1    0    0    0  0.10602823841E+02 -0.12727584334E+02  0.22745693723E+02  0.96861452431E+02  0.92684211750E+02 0.  0.
         11    1    3    3    0    0  0.49793966608E+02 -0.54877835736E+01  0.26778759227E+02  0.56803669116E+02  0.51100000000E-03 0.  1.
         22    1    1    0    0    0 -0.10602823841E+02  0.12727584334E+02 -0.22745693723E+02  0.28138547569E+02  0.00000000000E+00 0.  1.
</event>
<event>
 5    1  0.1099741E-009  0.9118800E+02  0.7818608E-02  0.1130116E+00
         25   -1    0    0    0    0  0.00000000000E+00  0.00000000000E+00  0.99999998245E-14  0.12500000000E+03  0.12500000000E+03 0.  0.
        -11    1    3    3    0    0 -0.32749656607E+02 -0.91304342932E+01 -0.18496257794E+02  0.38704216707E+02  0.51100000000E-03 0. -1.
         23    2    1    0    0    0 -0.15699888992E+02  0.57810159373E+00  0.30064114980E+02  0.91078447480E+02  0.84525805942E+02 0.  0.
         11    1    3    3    0    0  0.17049767616E+02  0.97085358869E+01  0.48560372774E+02  0.52374230773E+02  0.51100000000E-03 0.  1.
         22    1    1    0    0    0  0.15699888992E+02 -0.57810159373E+00 -0.30064114980E+02  0.33921552520E+02  0.00000000000E+00 0.  1.
</event>
<event>
 5    1  0.1099741E-009  0.9118800E+02  0.7818608E-02  0.1130116E+00
         25   -1    0    0    0    0  0.00000000000E+00  0.00000000000E+00  0.99999998245E-14  0.12500000000E+03  0.12500000000E+03 0.  0.
        -11    1    3    3    0    0  0.29933788497E+02  0.35286066149E+01 -0.49173434911E+02  0.57675900163E+02  0.51100000000E-03 0. -1.
         23    2    1    0    0    0  0.38312819912E+01 -0.11061767030E+02 -0.28941397001E+02  0.93780681111E+02  0.88431726646E+02 0.  0.
         11    1    3    3    0    0 -0.26102506506E+02 -0.14590373645E+02  0.20232037910E+02  0.36104780947E+02  0.51100000000E-03 0.  1.
         22    1    1    0    0    0 -0.38312819912E+01  0.11061767030E+02  0.28941397001E+02  0.31219318889E+02  0.00000000000E+00 0. -1.
</event>
<event>
 5    1  0.1099741E-009  0.9118800E+02  0.7818608E-02  0.1130116E+00
         25   -1    0    0    0    0  0.00000000000E+00  0.00000000000E+00  0.99999998245E-14  0.12500000000E+03  0.12500000000E+03 0.  0.
        -11    1    3    3    0    0 -0.33802160692E+02 -0.32429792382E+02 -0.36174994049E+02  0.59185367247E+02  0.51100000000E-03 0.  1.
         23    2    1    0    0    0 -0.12968343801E+02 -0.21175863859E+02 -0.29368203767E+01  0.99995599086E+02  0.96818901933E+02 0.  0.
         11    1    3    3    0    0  0.20833816891E+02  0.11253928523E+02  0.33238173673E+02  0.40810231840E+02  0.51100000000E-03 0. -1.
         22    1    1    0    0    0  0.12968343801E+02  0.21175863859E+02  0.29368203767E+01  0.25004400914E+02  0.00000000000E+00 0.  1.
</event>
<event>
 5    1  0.1099741E-009  0.9118800E+02  0.7818608E-02  0.1130116E+00
         25   -1    0    0    0    0  0.00000000000E+00  0.00000000000E+00  0.99999998245E-14  0.12500000000E+03  0.12500000000E+03 0.  0.
        -11    1    3    3    0    0 -0.23693037484E+02 -0.18597315994E+02  0.23128257852E+02  0.37975472333E+02  0.51100000000E-03 0.  1.
         23    2    1    0    0    0  0.18562958764E+02 -0.19923934969E+02 -0.14124517822E+02  0.94323484122E+02  0.89195689528E+02 0.  0.
         11    1    3    3    0    0  0.42255996248E+02 -0.13266189749E+01 -0.37252775674E+02  0.56348011789E+02  0.51100000000E-03 0. -1.
         22    1    1    0    0    0 -0.18562958764E+02  0.19923934969E+02  0.14124517822E+02  0.30676515878E+02  0.00000000000E+00 0. -1.
</event>
<event>
 5    1  0.1099741E-009  0.9118800E+02  0.7818608E-02  0.1130116E+00
         25   -1    0    0    0    0  0.00000000000E+00  0.00000000000E+00  0.99999998245E-14  0.12500000000E+03  0.12500000000E+03 0.  0.
        -11    1    3    3    0    0  0.20622375021E+01 -0.58799715227E+02 -0.10933648553E+02  0.59843161724E+02  0.51100000000E-03 0. -1.
         23    2    1    0    0    0 -0.64569734137E+01 -0.20032272286E+02  0.61747835114E+01  0.10306572568E+03  0.10070467427E+03 0.  0.
         11    1    3    3    0    0 -0.85192109158E+01  0.38767442940E+02  0.17108432064E+02  0.43222563954E+02  0.51100000000E-03 0.  1.
         22    1    1    0    0    0  0.64569734137E+01  0.20032272286E+02 -0.61747835114E+01  0.21934274322E+02  0.00000000000E+00 0. -1.
</event>
<event>
 5    1  0.1099741E-009  0.9118800E+02  0.7818608E-02  0.1130116E+00
         25   -1    0    0    0    0  0.00000000000E+00  0.00000000000E+00  0.99999998245E-14  0.12500000000E+03  0.12500000000E+03 0.  0.
        -11    1    3    3    0    0 -0.53045875854E+02  0.24239504707E+02  0.21255346018E+02  0.62074215808E+02  0.51100000000E-03 0.  1.
         23    2    1    0    0    0 -0.23761635930E+02  0.10303480842E+02  0.14894278144E+02  0.95123310408E+02  0.90309620761E+02 0.  0.
         11    1    3    3    0    0  0.29284239924E+02 -0.13936023865E+02 -0.63610678742E+01  0.33049094600E+02  0.51100000000E-03 0. -1.
         22    1    1    0    0    0  0.23761635930E+02 -0.10303480842E+02 -0.14894278144E+02  0.29876689592E+02  0.00000000000E+00 0.  1.
</event>
<event>
 5    1  0.1099741E-009  0.9118800E+02  0.7818608E-02  0.1130116E+00
         25   -1    0    0    0    0  0.00000000000E+00  0.00000000000E+00  0.99999998245E-14  0.12500000000E+03  0.12500000000E+03 0.  0.
        -11    1    3    3    0    0  0.16994636173E+02  0.24057797010E+02 -0.43060914200E+02  0.52171233334E+02  0.51100000000E-03 0.  1.
         23    2    1    0    0    0 -0.34231703091E+01 -0.10263570910E+02 -0.28223183589E+02  0.94774066190E+02  0.89824921639E+02 0.  0.
         11    1    3    3    0    0 -0.20417806483E+02 -0.34321367919E+02  0.14837730610E+02  0.42602832856E+02  0.51100000000E-03 0. -1.
         22    1    1    0    0    0  0.34231703091E+01  0.10263570910E+02  0.28223183589E+02  0.30225933810E+02  0.00000000000E+00 0.  1.
</event>
<event>
 5    1  0.1099741E-009  0.9118800E+02  0.7818608E-02  0.1130116E+00
         25   -1    0    0    0    0  0.00000000000E+00  0.00000000000E+00  0.99999998245E-14  0.12500000000E+03  0.12500000000E+03 0.  0.
        -11    1    3    3    0    0 -0.34430038068E+02  0.41347532696E+01 -0.30427371700E+01  0.34810658651E+02  0.51100000000E-03 0.  1.
         23    2    1    0    0    0  0.25111082961E+02  0.10851659800E+02  0.95256450608E+01  0.96033417155E+02  0.91560659067E+02 0.  0.
         11    1    3    3    0    0  0.59541121029E+02  0.67169065302E+01  0.12568382231E+02  0.61222758504E+02  0.51100000000E-03 0. -1.
         22    1    1    0    0    0 -0.25111082961E+02 -0.10851659800E+02 -0.95256450608E+01  0.28966582845E+02  0.00000000000E+00 0. -1.
</event>
<event>
 5    1  0.1099741E-009  0.9118800E+02  0.7818608E-02  0.1130116E+00
         25   -1    0    0    0    0  0.00000000000E+00  0.00000000000E+00  0.99999998245E-14  0.12500000000E+03  0.12500000000E+03 0.  0.
        -11    1    3    3    0    0 -0.37313004728E+02 -0.30087930487E+02 -0.36977807001E+01  0.48075123143E+02  0.51100000000E-03 0.  1.
         23    2    1    0    0    0  0.74030160999E+01 -0.24488781574E+02  0.13209715364E+02  0.96207611243E+02  0.91798163438E+02 0.  0.
         11    1    3    3    0    0  0.44716020828E+02  0.55991489132E+01  0.16907496064E+02  0.48132488100E+02  0.51100000000E-03 0. -1.
         22    1    1    0    0    0 -0.74030160999E+01  0.24488781574E+02 -0.13209715364E+02  0.28792388757E+02  0.00000000000E+00 0.  1.
</event>
<event>
 5    1  0.1099741E-009  0.9118800E+02  0.7818608E-02  0.1130116E+00
         25   -1    0    0    0    0  0.00000000000E+00  0.00000000000E+00  0.99999998245E-14  0.12500000000E+03  0.12500000000E+03 0.  0.
        -11    1    3    3    0    0 -0.14505202259E+02 -0.48608122429E+02 -0.10110399475E+02  0.51723985117E+02  0.51100000000E-03 0. -1.
         23    2    1    0    0    0 -0.13171874936E+02 -0.17086479390E+02  0.20178669978E+02  0.95459776755E+02  0.90774138326E+02 0.  0.
         11    1    3    3    0    0  0.13333273234E+01  0.31521643038E+02  0.30289069453E+02  0.43735791638E+02  0.51100000000E-03 0.  1.
         22    1    1    0    0    0  0.13171874936E+02  0.17086479390E+02 -0.20178669978E+02  0.29540223245E+02  0.00000000000E+00 0. -1.
</event>
<event>
 5    1  0.1099741E-009  0.9118800E+02  0.7818608E-02  0.1130116E+00
         25   -1    0    0    0    0  0.00000000000E+00  0.00000000000E+00  0.99999998245E-14  0.12500000000E+03  0.12500000000E+03 0.  0.
        -11    1    3    3    0    0 -0.58299047342E+01  0.41008029027E+02  0.33075222155E+02  0.53005816235E+02  0.51100000000E-03 0. -1.
         23    2    1    0    0    0 -0.23618853534E+02  0.12847952216E+02  0.28878237672E+01  0.97958187108E+02  0.94151722113E+02 0.  0.
         11    1    3    3    0    0 -0.17788948800E+02 -0.28160076811E+02 -0.30187398387E+02  0.44952370873E+02  0.51100000000E-03 0.  1.
         22    1    1    0    0    0  0.23618853534E+02 -0.12847952216E+02 -0.28878237672E+01  0.27041812892E+02  0.00000000000E+00 0. -1.
</event>
<event>
 5    1  0.1099741E-009  0.9118800E+02  0.7818608E-02  0.1130116E+00
         25   -1    0    0    0    0  0.00000000000E+00  0.00000000000E+00  0.99999998245E-14  0.12500000000E+03  0.12500000000E+03 0.  0.
        -11    1    3    3    0    0 -0.57768000558E+02  0.18163062213E+02  0.58968006282E+01  0.60842509608E+02  0.51100000000E-03 0.  1.
         23    2    1    0    0    0 -0.32734387761E+02  0.64537819585E+01 -0.62913829672E+01  0.91047489882E+02  0.84480012255E+02 0.  0.
         11    1    3    3    0    0  0.25033612797E+02 -0.11709280255E+02 -0.12188183595E+02  0.30204980275E+02  0.51100000000E-03 0. -1.
         22    1    1    0    0    0  0.32734387761E+02 -0.64537819585E+01  0.62913829672E+01  0.33952510118E+02  0.00000000000E+00 0.  1.
</event>
<event>
 5    1  0.1099741E-009  0.9118800E+02  0.7818608E-02  0.1130116E+00
         25   -1    0    0    0    0  0.00000000000E+00  0.00000000000E+00  0.99999998245E-14  0.12500000000E+03  0.12500000000E+03 0.  0.
        -11    1    3    3    0    0 -0.21086453137E+02 -0.51311959120E+01 -0.34207165373E+02  0.40510465814E+02  0.51100000000E-03 0.  1.
         23    2    1    0    0    0  0.26994635046E+02 -0.28958232761E+01 -0.34479434525E+01  0.97632420133E+02  0.93718221458E+02 0.  0.
         11    1    3    3    0    0  0.48081088184E+02  0.22353726359E+01  0.30759221920E+02  0.57121954318E+02  0.51100000000E-03 0. -1.
         22    1    1    0    0    0 -0.26994635046E+02  0.28958232761E+01  0.34479434525E+01  0.27367579867E+02  0.00000000000E+00 0. -1.
</event>
<event>
 5    1  0.1099741E-009  0.9118800E+02  0.7818608E-02  0.1130116E+00
         25   -1    0    0    0    0  0.00000000000E+00  0.00000000000E+00  0.99999998245E-14  0.12500000000E+03  0.12500000000E+03 0.  0.
        -11    1    3    3    0    0  0.66802684621E+01 -0.18854000693E+02  0.22091759931E+02  0.29801764813E+02  0.51100000000E-03 0.  1.
         23    2    1    0    0    0 -0.29693641895E+01  0.30689738435E+02 -0.13271747805E+02  0.91431913091E+02  0.85046918067E+02 0.  0.
         11    1    3    3    0    0 -0.96496326516E+01  0.49543739128E+02 -0.35363507736E+02  0.61630148278E+02  0.51100000000E-03 0. -1.
         22    1    1    0    0    0  0.29693641895E+01 -0.30689738435E+02  0.13271747805E+02  0.33568086909E+02  0.00000000000E+00 0. -1.
</event>
<event>
 5    1  0.1099741E-009  0.9118800E+02  0.7818608E-02  0.1130116E+00
         25   -1    0    0    0    0  0.00000000000E+00  0.00000000000E+00  0.99999998245E-14  0.12500000000E+03  0.12500000000E+03 0.  0.
        -11    1    3    3    0    0  0.28858678558E+02 -0.29836199221E+02 -0.20534855476E+02  0.46310931774E+02  0.51100000000E-03 0.  1.
         23    2    1    0    0    0  0.94758873558E+01  0.17358812081E+02 -0.19330244815E+02  0.97345359112E+02  0.93334558326E+02 0.  0.
         11    1    3    3    0    0 -0.19382791202E+02  0.47195011302E+02  0.12046106610E+01  0.51034427338E+02  0.51100000000E-03 0. -1.
         22    1    1    0    0    0 -0.94758873558E+01 -0.17358812081E+02  0.19330244815E+02  0.27654640888E+02  0.00000000000E+00 0.  1.
</event>
<event>
 5    1  0.1099741E-009  0.9118800E+02  0.7818608E-02  0.1130116E+00
         25   -1    0    0    0    0  0.00000000000E+00  0.00000000000E+00  0.99999998245E-14  0.12500000000E+03  0.12500000000E+03 0.  0.
        -11    1    3    3    0    0  0.32512558742E+02  0.21184967349E+02  0.12904232671E+02  0.40894847335E+02  0.51100000000E-03 0.  1.
         23    2    1    0    0    0 -0.92935701386E+01 -0.60026310851E+01  0.29532599663E+02  0.93463093546E+02  0.87981665058E+02 0.  0.
         11    1    3    3    0    0 -0.41806128880E+02 -0.27187598434E+02  0.16628366992E+02  0.52568246210E+02  0.51100000000E-03 0. -1.
         22    1    1    0    0    0  0.92935701386E+01  0.60026310851E+01 -0.29532599663E+02  0.31536906454E+02  0.00000000000E+00 0. -1.
</event>
<event>
 5    1  0.1099741E-009  0.9118800E+02  0.7818608E-02  0.1130116E+00
         25   -1    0    0    0    0  0.00000000000E+00  0.00000000000E+00  0.99999998245E-14  0.12500000000E+03  0.12500000000E+03 0.  0.
        -11    1    3    3    0    0  0.42747184549E+02  0.45072720376E+02 -0.48872345015E+01  0.62311772325E+02  0.51100000000E-03 0. -1.
         23    2    1    0    0    0  0.17323913720E+02  0.23235327974E+02 -0.23653288105E+01  0.95920914164E+02  0.91406939239E+02 0.  0.
         11    1    3    3    0    0 -0.25423270829E+02 -0.21837392402E+02  0.25219056910E+01  0.33609141839E+02  0.51100000000E-03 0.  1.
         22    1    1    0    0    0 -0.17323913720E+02 -0.23235327974E+02  0.23653288105E+01  0.29079085836E+02  0.00000000000E+00 0. -1.
</event>
<event>
 5    1  0.1099741E-009  0.9118800E+02  0.7818608E-02  0.1130116E+00
         25   -1    0    0    0    0  0.00000000000E+00  0.00000000000E+00  0.99999998245E-14  0.12500000000E+03  0.12500000000E+03 0.  0.
        -11    1    3    3    0    0  0.69537365670E+00 -0.58824168547E+02 -0.18380220880E+02  0.61632774314E+02  0.51100000000E-03 0.  1.
         23    2    1    0    0    0  0.47393241525E+01 -0.24681210130E+02 -0.13829217380E+02  0.96314279158E+02  0.91943296599E+02 0.  0.
         11    1    3    3    0    0  0.40439504958E+01  0.34142958417E+02  0.45510034996E+01  0.34681504844E+02  0.51100000000E-03 0. -1.
         22    1    1    0    0    0 -0.47393241525E+01  0.24681210130E+02  0.13829217380E+02  0.28685720842E+02  0.00000000000E+00 0.  1.
</event>
<event>
 5    1  0.1099741E-009  0.9118800E+02  0.7818608E-02  0.1130116E+00
         25   -1    0    0    0    0  0.00000000000E+00  0.00000000000E+00  0.99999998245E-14  0.12500000000E+03  0.12500000000E+03 0.  0.
        -11    1    3    3    0    0  0.12883320039E+02  0.47915485494E+02 -0.35252231057E+02  0.60865371765E+02  0.51100000000E-03 0.  1.
         23    2    1    0    0    0 -0.29675754479E+01  0.26352017057E+02 -0.14179056281E+02  0.94928735576E+02  0.90039901678E+02 0.  0.
         11    1    3    3    0    0 -0.15850895487E+02 -0.21563468437E+02  0.21073174776E+02  0.34063363811E+02  0.51100000000E-03 0. -1.
         22    1    1    0    0    0  0.29675754479E+01 -0.26352017057E+02  0.14179056281E+02  0.30071264424E+02  0.00000000000E+00 0.  1.
</event>
<event>
 5    1  0.1099741E-009  0.9118800E+02  0.7818608E-02  0.1130116E+00
         25   -1    0    0    0    0  0.00000000000E+00  0.00000000000E+00  0.99999998245E-14  0.12500000000E+03  0.12500000000E+03 0.  0.
        -11    1    3    3    0    0  0.45470415837E+01 -0.39814622829E+02  0.63188666700E+01  0.40568557461E+02  0.51100000000E-03 0.  1.
         23    2    1    0    0    0  0.16660710276E+02  0.54973308378E+01 -0.23144017569E+02  0.95957867460E+02  0.91457459319E+02 0.  0.
         11    1    3    3    0    0  0.12113668692E+02  0.45311953667E+02 -0.29462884239E+02  0.55389310000E+02  0.51100000000E-03 0. -1.
         22    1    1    0    0    0 -0.16660710276E+02 -0.54973308378E+01  0.23144017569E+02  0.29042132540E+02  0.00000000000E+00 0. -1.
</event>
<event>
 5    1  0.1099741E-009  0.9118800E+02  0.7818608E-02  0.1130116E+00
         25   -1    0    0    0    0  0.00000000000E+00  0.00000000000E+00  0.99999998245E-14  0.12500000000E+03  0.12500000000E+03 0.  0.
        -11    1    3    3    0    0 -0.33663117743E+02 -0.90942976855E+01  0.62339268752E+01  0.35422783503E+02  0.51100000000E-03 0.  1.
         23    2    1    0    0    0  0.20915079665E+02 -0.21287422397E+02 -0.97824300501E+01  0.93594732171E+02  0.88168492348E+02 0.  0.
         11    1    3    3    0    0  0.54578197407E+02 -0.12193124712E+02 -0.16016356925E+02  0.58171948669E+02  0.51100000000E-03 0. -1.
         22    1    1    0    0    0 -0.20915079665E+02  0.21287422397E+02  0.97824300501E+01  0.31405267829E+02  0.00000000000E+00 0. -1.
</event>
<event>
 5    1  0.1099741E-009  0.9118800E+02  0.7818608E-02  0.1130116E+00
         25   -1    0    0    0    0  0.00000000000E+00  0.00000000000E+00  0.99999998245E-14  0.12500000000E+03  0.12500000000E+03 0.  0.
        -11    1    3    3    0    0  0.15452491384E+02 -0.21074325636E+02 -0.24722969739E+02  0.35974045143E+02  0.51100000000E-03 0.  1.
         23    2    1    0    0    0 -0.22339212945E+02  0.12543128026E+02  0.10184325890E+02  0.97430252277E+02  0.93448183873E+02 0.  0.
         11    1    3    3    0    0 -0.37791704330E+02  0.33617453662E+02  0.34907295629E+02  0.61456207133E+02  0.51100000000E-03 0. -1.
         22    1    1    0    0    0  0.22339212945E+02 -0.12543128026E+02 -0.10184325890E+02  0.27569747723E+02  0.00000000000E+00 0. -1.
</event>
<event>
 5    1  0.1099741E-009  0.9118800E+02  0.7818608E-02  0.1130116E+00
         25   -1    0    0    0    0  0.00000000000E+00  0.00000000000E+00  0.99999998245E-14  0.12500000000E+03  0.12500000000E+03 0.  0.
        -11    1    3    3    0    0 -0.25908417631E+02  0.55368288167E+01  0.23011557155E+02  0.35091798763E+02  0.51100000000E-03 0.  1.
         23    2    1    0    0    0  0.19495365069E+02 -0.19919086263E+02 -0.84021784492E+01  0.95889248388E+02  0.91363625677E+02 0.  0.
         11    1    3    3    0    0  0.45403782700E+02 -0.25455915080E+02 -0.31413735604E+02  0.60797449625E+02  0.51100000000E-03 0. -1.
         22    1    1    0    0    0 -0.19495365069E+02  0.19919086263E+02  0.84021784492E+01  0.29110751612E+02  0.00000000000E+00 0. -1.
</event>
<event>
 5    1  0.1099741E-009  0.9118800E+02  0.7818608E-02  0.1130116E+00
         25   -1    0    0    0    0  0.00000000000E+00  0.00000000000E+00  0.99999998245E-14  0.12500000000E+03  0.12500000000E+03 0.  0.
        -11    1    3    3    0    0 -0.37674268581E+02  0.12409660093E+00  0.21279307880E+02  0.43268635953E+02  0.51100000000E-03 0.  1.
         23    2    1    0    0    0 -0.98978556953E+01 -0.19562290700E+02 -0.18986016583E+02  0.95997938168E+02  0.91512209798E+02 0.  0.
         11    1    3    3    0    0  0.27776412886E+02 -0.19686387301E+02 -0.40265324463E+02  0.52729302216E+02  0.51100000000E-03 0. -1.
         22    1    1    0    0    0  0.98978556953E+01  0.19562290700E+02  0.18986016583E+02  0.29002061832E+02  0.00000000000E+00 0. -1.
</event>
<event>
 5    1  0.1099741E-009  0.9118800E+02  0.7818608E-02  0.1130116E+00
         25   -1    0    0    0    0  0.00000000000E+00  0.00000000000E+00  0.99999998245E-14  0.12500000000E+03  0.12500000000E+03 0.  0.
        -11    1    3    3    0    0 -0.41217022389E+02  0.11249048390E+02  0.21540578567E+02  0.47847471716E+02  0.51100000000E-03 0.  1.
         23    2    1    0    0    0 -0.15620365837E+02 -0.21404613354E+02 -0.62367914433E+01  0.97777750475E+02  0.93911860905E+02 0.  0.
         11    1    3    3    0    0  0.25596656553E+02 -0.32653661744E+02 -0.27777370011E+02  0.49930278759E+02  0.51100000000E-03 0. -1.
         22    1    1    0    0    0  0.15620365837E+02  0.21404613354E+02  0.62367914433E+01  0.27222249525E+02  0.00000000000E+00 0.  1.
</event>
<event>
 5    1  0.1099741E-009  0.9118800E+02  0.7818608E-02  0.1130116E+00
         25   -1    0    0    0    0  0.00000000000E+00  0.00000000000E+00  0.99999998245E-14  0.12500000000E+03  0.12500000000E+03 0.  0.
        -11    1    3    3    0    0 -0.31178128313E+02 -0.12840174129E+02  0.24921648736E+01  0.33810599562E+02  0.51100000000E-03 0.  1.
         23    2    1    0    0    0  0.26060406950E+02 -0.57383047313E+01 -0.15388569794E+02  0.94196087393E+02  0.89016975056E+02 0.  0.
         11    1    3    3    0    0  0.57238535263E+02  0.71018693981E+01 -0.17880734668E+02  0.60385487830E+02  0.51100000000E-03 0. -1.
         22    1    1    0    0    0 -0.26060406950E+02  0.57383047313E+01  0.15388569794E+02  0.30803912607E+02  0.00000000000E+00 0. -1.
</event>
<event>
 5    1  0.1099741E-009  0.9118800E+02  0.7818608E-02  0.1130116E+00
         25   -1    0    0    0    0  0.00000000000E+00  0.00000000000E+00  0.99999998245E-14  0.12500000000E+03  0.12500000000E+03 0.  0.
        -11    1    3    3    0    0 -0.14619425297E+02  0.16682163131E+02 -0.24059593348E+02  0.32724397551E+02  0.51100000000E-03 0.  1.
         23    2    1    0    0    0  0.53698150571E+00 -0.17834853055E+01  0.31626637058E+02  0.93318564733E+02  0.87776085486E+02 0.  0.
         11    1    3    3    0    0  0.15156406803E+02 -0.18465648436E+02  0.55686230406E+02  0.60594167182E+02  0.51100000000E-03 0. -1.
         22    1    1    0    0    0 -0.53698150571E+00  0.17834853055E+01 -0.31626637058E+02  0.31681435267E+02  0.00000000000E+00 0. -1.
</event>
<event>
 5    1  0.1099741E-009  0.9118800E+02  0.7818608E-02  0.1130116E+00
         25   -1    0    0    0    0  0.00000000000E+00  0.00000000000E+00  0.99999998245E-14  0.12500000000E+03  0.12500000000E+03 0.  0.
        -11    1    3    3    0    0 -0.59845667612E+01 -0.42448580344E+02 -0.42808847297E+02  0.60582954861E+02  0.51100000000E-03 0.  1.
         23    2    1    0    0    0 -0.10939754799E+02 -0.27512457725E+02 -0.16866295862E+02  0.90925295287E+02  0.84299014358E+02 0.  0.
         11    1    3    3    0    0 -0.49551880382E+01  0.14936122618E+02  0.25942551434E+02  0.30342340426E+02  0.51100000000E-03 0. -1.
         22    1    1    0    0    0  0.10939754799E+02  0.27512457725E+02  0.16866295862E+02  0.34074704713E+02  0.00000000000E+00 0.  1.
</event>
<event>
 5    1  0.1099741E-009  0.9118800E+02  0.7818608E-02  0.1130116E+00
         25   -1    0    0    0    0  0.00000000000E+00  0.00000000000E+00  0.99999998245E-14  0.12500000000E+03  0.12500000000E+03 0.  0.
        -11    1    3    3    0    0 -0.45710608658E+02 -0.24130576231E+01  0.16147254199E+01  0.45802728405E+02  0.51100000000E-03 0.  1.
         23    2    1    0    0    0 -0.79263564202E+01  0.91093284921E+01 -0.27560148047E+02  0.94910653845E+02  0.90014795791E+02 0.  0.
         11    1    3    3    0    0  0.37784252237E+02  0.11522386115E+02 -0.29174873467E+02  0.49107925440E+02  0.51100000000E-03 0. -1.
         22    1    1    0    0    0  0.79263564202E+01 -0.91093284921E+01  0.27560148047E+02  0.30089346155E+02  0.00000000000E+00 0. -1.
</event>
<event>
 5    1  0.1099741E-009  0.9118800E+02  0.7818608E-02  0.1130116E+00
         25   -1    0    0    0    0  0.00000000000E+00  0.00000000000E+00  0.99999998245E-14  0.12500000000E+03  0.12500000000E+03 0.  0.
        -11    1    3    3    0    0  0.59223067341E+02 -0.12767912218E+02  0.12959823931E+02  0.61954405205E+02  0.51100000000E-03 0. -1.
         23    2    1    0    0    0  0.23698521985E+02 -0.77789745421E+01  0.10579660230E+02  0.97906428811E+02  0.94082980409E+02 0.  0.
         11    1    3    3    0    0 -0.35524545356E+02  0.49889376760E+01 -0.23801637006E+01  0.35952023606E+02  0.51100000000E-03 0.  1.
         22    1    1    0    0    0 -0.23698521985E+02  0.77789745421E+01 -0.10579660230E+02  0.27093571189E+02  0.00000000000E+00 0. -1.
</event>
<event>
 5    1  0.1099741E-009  0.9118800E+02  0.7818608E-02  0.1130116E+00
         25   -1    0    0    0    0  0.00000000000E+00  0.00000000000E+00  0.99999998245E-14  0.12500000000E+03  0.12500000000E+03 0.  0.
        -11    1    3    3    0    0 -0.15117235549E+01  0.25865912008E+02 -0.22405319770E+02  0.34253891259E+02  0.51100000000E-03 0. -1.
         23    2    1    0    0    0 -0.13182868024E+02 -0.17375155305E+02  0.19614047444E+02  0.95667511384E+02  0.91059748770E+02 0.  0.
         11    1    3    3    0    0 -0.11671144469E+02 -0.43241067313E+02  0.42019367214E+02  0.61413620126E+02  0.51100000000E-03 0.  1.
         22    1    1    0    0    0  0.13182868024E+02  0.17375155305E+02 -0.19614047444E+02  0.29332488616E+02  0.00000000000E+00 0.  1.
</event>
<event>
 5    1  0.1099741E-009  0.9118800E+02  0.7818608E-02  0.1130116E+00
         25   -1    0    0    0    0  0.00000000000E+00  0.00000000000E+00  0.99999998245E-14  0.12500000000E+03  0.12500000000E+03 0.  0.
        -11    1    3    3    0    0 -0.26053020486E+02  0.15506350074E+02  0.21695367222E+02  0.37281305345E+02  0.51100000000E-03 0.  1.
         23    2    1    0    0    0  0.23117077001E+02  0.16674998987E+02 -0.88203927449E+01  0.95162872651E+02  0.90364363344E+02 0.  0.
         11    1    3    3    0    0  0.49170097487E+02  0.11686489129E+01 -0.30515759967E+02  0.57881567306E+02  0.51100000000E-03 0. -1.
         22    1    1    0    0    0 -0.23117077001E+02 -0.16674998987E+02  0.88203927449E+01  0.29837127349E+02  0.00000000000E+00 0. -1.
</event>
<event>
 5    1  0.1099741E-009  0.9118800E+02  0.7818608E-02  0.1130116E+00
         25   -1    0    0    0    0  0.00000000000E+00  0.00000000000E+00  0.99999998245E-14  0.12500000000E+03  0.12500000000E+03 0.  0.
        -11    1    3    3    0    0  0.16996846513E+02 -0.35264429847E+02  0.30592374171E+01  0.39266165304E+02  0.51100000000E-03 0. -1.
         23    2    1    0    0    0 -0.13713788197E+02  0.82282916950E+01  0.23732839000E+02  0.96381467230E+02  0.92034595710E+02 0.  0.
         11    1    3    3    0    0 -0.30710634710E+02  0.43492721542E+02  0.20673601583E+02  0.57115301926E+02  0.51100000000E-03 0.  1.
         22    1    1    0    0    0  0.13713788197E+02 -0.82282916950E+01 -0.23732839000E+02  0.28618532770E+02  0.00000000000E+00 0.  1.
</event>
<event>
 5    1  0.1099741E-009  0.9118800E+02  0.7818608E-02  0.1130116E+00
         25   -1    0    0    0    0  0.00000000000E+00  0.00000000000E+00  0.99999998245E-14  0.12500000000E+03  0.12500000000E+03 0.  0.
        -11    1    3    3    0    0 -0.40500729592E+02  0.47106989426E+02 -0.64159043629E+01  0.62454314337E+02  0.51100000000E-03 0. -1.
         23    2    1    0    0    0 -0.20703348746E+02  0.24091176192E+02 -0.49786354563E+01  0.92847236034E+02  0.87102290490E+02 0.  0.
         11    1    3    3    0    0  0.19797380845E+02 -0.23015813234E+02  0.14372689066E+01  0.30392921698E+02  0.51100000000E-03 0.  1.
         22    1    1    0    0    0  0.20703348746E+02 -0.24091176192E+02  0.49786354563E+01  0.32152763966E+02  0.00000000000E+00 0. -1.
</event>
<event>
 5    1  0.1099741E-009  0.9118800E+02  0.7818608E-02  0.1130116E+00
         25   -1    0    0    0    0  0.00000000000E+00  0.00000000000E+00  0.99999998245E-14  0.12500000000E+03  0.12500000000E+03 0.  0.
        -11    1    3    3    0    0 -0.49447712576E+02 -0.21367814416E+02 -0.15427245504E+01  0.53889143352E+02  0.51100000000E-03 0. -1.
         23    2    1    0    0    0 -0.19228195005E+02  0.23285932640E+01 -0.20569611285E+02  0.96746597760E+02  0.92529181559E+02 0.  0.
         11    1    3    3    0    0  0.30219517572E+02  0.23696407680E+02 -0.19026886735E+02  0.42857454407E+02  0.51100000000E-03 0.  1.
         22    1    1    0    0    0  0.19228195005E+02 -0.23285932640E+01  0.20569611285E+02  0.28253402240E+02  0.00000000000E+00 0. -1.
</event>
<event>
 5    1  0.1099741E-009  0.9118800E+02  0.7818608E-02  0.1130116E+00
         25   -1    0    0    0    0  0.00000000000E+00  0.00000000000E+00  0.99999998245E-14  0.12500000000E+03  0.12500000000E+03 0.  0.
        -11    1    3    3    0    0  0.29782003033E+02 -0.30614460407E+02  0.33053464203E+02  0.54006892030E+02  0.51100000000E-03 0. -1.
         23    2    1    0    0    0  0.28835923570E+02 -0.48263890245E+01  0.22701291239E+00  0.95762078494E+02  0.91189471012E+02 0.  0.
         11    1    3    3    0    0 -0.94607946326E+00  0.25788071383E+02 -0.32826451290E+02  0.41755186463E+02  0.51100000000E-03 0.  1.
         22    1    1    0    0    0 -0.28835923570E+02  0.48263890245E+01 -0.22701291239E+00  0.29237921506E+02  0.00000000000E+00 0. -1.
</event>
<event>
 5    1  0.1099741E-009  0.9118800E+02  0.7818608E-02  0.1130116E+00
         25   -1    0    0    0    0  0.00000000000E+00  0.00000000000E+00  0.99999998245E-14  0.12500000000E+03  0.12500000000E+03 0.  0.
        -11    1    3    3    0    0 -0.10769022872E+02 -0.15150464089E+02  0.52375819439E+02  0.55576387773E+02  0.51100000000E-03 0.  1.
         23    2    1    0    0    0  0.81978795381E+01  0.94071960104E+01  0.25434062447E+02  0.96669943554E+02  0.92425569452E+02 0.  0.
         11    1    3    3    0    0  0.18966902410E+02  0.24557660100E+02 -0.26941756992E+02  0.41093555781E+02  0.51100000000E-03 0. -1.
         22    1    1    0    0    0 -0.81978795381E+01 -0.94071960104E+01 -0.25434062447E+02  0.28330056446E+02  0.00000000000E+00 0.  1.
</event>
<event>
 5    1  0.1099741E-009  0.9118800E+02  0.7818608E-02  0.1130116E+00
         25   -1    0    0    0    0  0.00000000000E+00  0.00000000000E+00  0.99999998245E-14  0.12500000000E+03  0.12500000000E+03 0.  0.
        -11    1    3    3    0    0  0.44333828008E+02  0.34867050775E+02 -0.21236843853E+02  0.60267761471E+02  0.51100000000E-03 0.  1.
         23    2    1    0    0    0  0.23038913535E+02  0.17876413635E+02  0.15702131542E+01  0.95796861972E+02  0.91237138781E+02 0.  0.
         11    1    3    3    0    0 -0.21294914473E+02 -0.16990637140E+02  0.22807057007E+02  0.35529100501E+02  0.51100000000E-03 0. -1.
         22    1    1    0    0    0 -0.23038913535E+02 -0.17876413635E+02 -0.15702131542E+01  0.29203138028E+02  0.00000000000E+00 0.  1.
</event>
<event>
 5    1  0.1099741E-009  0.9118800E+02  0.7818608E-02  0.1130116E+00
         25   -1    0    0    0    0  0.00000000000E+00  0.00000000000E+00  0.99999998245E-14  0.12500000000E+03  0.12500000000E+03 0.  0.
        -11    1    3    3    0    0 -0.29136338273E+02 -0.14256608259E+02 -0.15179033540E+02  0.35813128130E+02  0.51100000000E-03 0.  1.
         23    2    1    0    0    0 -0.10420942045E+01  0.12195537844E+02  0.28432292129E+02  0.94044994922E+02  0.88804553547E+02 0.  0.
         11    1    3    3    0    0  0.28094244068E+02  0.26452146103E+02  0.43611325669E+02  0.58231866792E+02  0.51100000000E-03 0. -1.
         22    1    1    0    0    0  0.10420942045E+01 -0.12195537844E+02 -0.28432292129E+02  0.30955005078E+02  0.00000000000E+00 0. -1.
</event>
<event>
 5    1  0.1099741E-009  0.9118800E+02  0.7818608E-02  0.1130116E+00
         25   -1    0    0    0    0  0.00000000000E+00  0.00000000000E+00  0.99999998245E-14  0.12500000000E+03  0.12500000000E+03 0.  0.
        -11    1    3    3    0    0 -0.35153509567E+02  0.23732776529E+02 -0.36982313906E+02  0.56273488063E+02  0.51100000000E-03 0.  1.
         23    2    1    0    0    0 -0.16597896802E+02  0.23304763538E+02 -0.14611623770E+01  0.96351489091E+02  0.91993870843E+02 0.  0.
         11    1    3    3    0    0  0.18555612766E+02 -0.42801299074E+00  0.35521151529E+02  0.40078001028E+02  0.51100000000E-03 0. -1.
         22    1    1    0    0    0  0.16597896802E+02 -0.23304763538E+02  0.14611623770E+01  0.28648510909E+02  0.00000000000E+00 0.  1.
</event>
<event>
 5    1  0.1099741E-009  0.9118800E+02  0.7818608E-02  0.1130116E+00
         25   -1    0    0    0    0  0.00000000000E+00  0.00000000000E+00  0.99999998245E-14  0.12500000000E+03  0.12500000000E+03 0.  0.
        -11    1    3    3    0    0 -0.22416184061E+02 -0.51522665507E+01  0.52499361439E+02  0.57316787334E+02  0.51100000000E-03 0. -1.
         23    2    1    0    0    0 -0.24389445385E+02 -0.42482730217E+01  0.12698949647E+02  0.97176337553E+02  0.93107917967E+02 0.  0.
         11    1    3    3    0    0 -0.19732613238E+01  0.90399352895E+00 -0.39800411793E+02  0.39859550219E+02  0.51100000000E-03 0.  1.
         22    1    1    0    0    0  0.24389445385E+02  0.42482730217E+01 -0.12698949647E+02  0.27823662447E+02  0.00000000000E+00 0. -1.
</event>
<event>
 5    1  0.1099741E-009  0.9118800E+02  0.7818608E-02  0.1130116E+00
         25   -1    0    0    0    0  0.00000000000E+00  0.00000000000E+00  0.99999998245E-14  0.12500000000E+03  0.12500000000E+03 0.  0.
        -11    1    3    3    0    0  0.26456819978E+02 -0.18658060884E+02 -0.12846432189E+02  0.34829834619E+02  0.51100000000E-03 0. -1.
         23    2    1    0    0    0 -0.17532130663E+02  0.22619061016E+02 -0.76563192097E+01  0.95375402945E+02  0.90657877408E+02 0.  0.
         11    1    3    3    0    0 -0.43988950642E+02  0.41277121900E+02  0.51901129788E+01  0.60545568326E+02  0.51100000000E-03 0.  1.
         22    1    1    0    0    0  0.17532130663E+02 -0.22619061016E+02  0.76563192097E+01  0.29624597055E+02  0.00000000000E+00 0.  1.
</event>
<event>
 5    1  0.1099741E-009  0.9118800E+02  0.7818608E-02  0.1130116E+00
         25   -1    0    0    0    0  0.00000000000E+00  0.00000000000E+00  0.99999998245E-14  0.12500000000E+03  0.12500000000E+03 0.  0.
        -11    1    3    3    0    0 -0.41359102442E+02 -0.41678125718E+02  0.16531516173E+02  0.60999447091E+02  0.51100000000E-03 0.  1.
         23    2    1    0    0    0 -0.19208041488E+02 -0.20904180869E+02 -0.19412054973E+01  0.96544738371E+02  0.92256081603E+02 0.  0.
         11    1    3    3    0    0  0.22151060954E+02  0.20773944849E+02 -0.18472721671E+02  0.35545291280E+02  0.51100000000E-03 0. -1.
         22    1    1    0    0    0  0.19208041488E+02  0.20904180869E+02  0.19412054973E+01  0.28455261629E+02  0.00000000000E+00 0.  1.
</event>
<event>
 5    1  0.1099741E-009  0.9118800E+02  0.7818608E-02  0.1130116E+00
         25   -1    0    0    0    0  0.00000000000E+00  0.00000000000E+00  0.99999998245E-14  0.12500000000E+03  0.12500000000E+03 0.  0.
        -11    1    3    3    0    0 -0.32392617298E+02  0.24747622725E+00 -0.29990948905E+02  0.44145213969E+02  0.51100000000E-03 0.  1.
         23    2    1    0    0    0  0.10580759320E+02  0.23648768815E+02 -0.13531860900E+02  0.95771110290E+02  0.91201850708E+02 0.  0.
         11    1    3    3    0    0  0.42973376618E+02  0.23401292588E+02  0.16459088005E+02  0.51625896321E+02  0.51100000000E-03 0. -1.
         22    1    1    0    0    0 -0.10580759320E+02 -0.23648768815E+02  0.13531860900E+02  0.29228889710E+02  0.00000000000E+00 0. -1.
</event>
<event>
 5    1  0.1099741E-009  0.9118800E+02  0.7818608E-02  0.1130116E+00
         25   -1    0    0    0    0  0.00000000000E+00  0.00000000000E+00  0.99999998245E-14  0.12500000000E+03  0.12500000000E+03 0.  0.
        -11    1    3    3    0    0 -0.44411061272E+02  0.12340677998E+02  0.28806432899E+02  0.54354809110E+02  0.51100000000E-03 0. -1.
         23    2    1    0    0    0 -0.27758706150E+02  0.92863393077E+01 -0.78180473956E+01  0.94703073919E+02  0.89726074692E+02 0.  0.
         11    1    3    3    0    0  0.16652355122E+02 -0.30543386900E+01 -0.36624480295E+02  0.40348264809E+02  0.51100000000E-03 0.  1.
         22    1    1    0    0    0  0.27758706150E+02 -0.92863393077E+01  0.78180473956E+01  0.30296926081E+02  0.00000000000E+00 0. -1.
</event>
<event>
 5    1  0.1099741E-009  0.9118800E+02  0.7818608E-02  0.1130116E+00
         25   -1    0    0    0    0  0.00000000000E+00  0.00000000000E+00  0.99999998245E-14  0.12500000000E+03  0.12500000000E+03 0.  0.
        -11    1    3    3    0    0  0.38367865958E+02  0.46491407498E+01  0.40890239003E+02  0.56264725130E+02  0.51100000000E-03 0.  1.
         23    2    1    0    0    0  0.20601830035E+02 -0.10842461447E+02  0.21400578659E+01  0.10162107319E+03  0.98895239006E+02 0.  0.
         11    1    3    3    0    0 -0.17766035924E+02 -0.15491602197E+02 -0.38750181138E+02  0.45356348062E+02  0.51100000000E-03 0. -1.
         22    1    1    0    0    0 -0.20601830035E+02  0.10842461447E+02 -0.21400578659E+01  0.23378926808E+02  0.00000000000E+00 0. -1.
</event>
<event>
 5    1  0.1099741E-009  0.9118800E+02  0.7818608E-02  0.1130116E+00
         25   -1    0    0    0    0  0.00000000000E+00  0.00000000000E+00  0.99999998245E-14  0.12500000000E+03  0.12500000000E+03 0.  0.
        -11    1    3    3    0    0  0.31258563797E+02 -0.45041078672E+02  0.16964990977E+02  0.57389959903E+02  0.51100000000E-03 0. -1.
         23    2    1    0    0    0  0.24228949584E+02 -0.63409905289E+01  0.12598110088E+02  0.96964976608E+02  0.92823726234E+02 0.  0.
         11    1    3    3    0    0 -0.70296142131E+01  0.38700088143E+02 -0.43668808889E+01  0.39575016705E+02  0.51100000000E-03 0.  1.
         22    1    1    0    0    0 -0.24228949584E+02  0.63409905289E+01 -0.12598110088E+02  0.28035023392E+02  0.00000000000E+00 0. -1.
</event>
<event>
 5    1  0.1099741E-009  0.9118800E+02  0.7818608E-02  0.1130116E+00
         25   -1    0    0    0    0  0.00000000000E+00  0.00000000000E+00  0.99999998245E-14  0.12500000000E+03  0.12500000000E+03 0.  0.
        -11    1    3    3    0    0 -0.65673478018E+01  0.30096086801E+02 -0.39107410708E+02  0.49782467500E+02  0.51100000000E-03 0. -1.
         23    2    1    0    0    0  0.71915886956E+01 -0.11697996256E+02 -0.25836857250E+02  0.95740723575E+02  0.91160193581E+02 0.  0.
         11    1    3    3    0    0  0.13758936497E+02 -0.41794083056E+02  0.13270553458E+02  0.45958256074E+02  0.51100000000E-03 0.  1.
         22    1    1    0    0    0 -0.71915886956E+01  0.11697996256E+02  0.25836857250E+02  0.29259276425E+02  0.00000000000E+00 0. -1.
</event>
<event>
 5    1  0.1099741E-009  0.9118800E+02  0.7818608E-02  0.1130116E+00
         25   -1    0    0    0    0  0.00000000000E+00  0.00000000000E+00  0.99999998245E-14  0.12500000000E+03  0.12500000000E+03 0.  0.
        -11    1    3    3    0    0 -0.91524781599E+01  0.33134547960E+01  0.59339372741E+02  0.60132420513E+02  0.51100000000E-03 0.  1.
         23    2    1    0    0    0  0.40090283308E+01  0.10396326587E+02  0.28384940843E+02  0.94506381302E+02  0.89451636796E+02 0.  0.
         11    1    3    3    0    0  0.13161506491E+02  0.70828717907E+01 -0.30954431899E+02  0.34373960789E+02  0.51100000000E-03 0. -1.
         22    1    1    0    0    0 -0.40090283308E+01 -0.10396326587E+02 -0.28384940843E+02  0.30493618698E+02  0.00000000000E+00 0.  1.
</event>
<event>
 5    1  0.1099741E-009  0.9118800E+02  0.7818608E-02  0.1130116E+00
         25   -1    0    0    0    0  0.00000000000E+00  0.00000000000E+00  0.99999998245E-14  0.12500000000E+03  0.12500000000E+03 0.  0.
        -11    1    3    3    0    0 -0.76977030192E+01  0.14413489317E+02 -0.41860012006E+02  0.44936220485E+02  0.51100000000E-03 0. -1.
         23    2    1    0    0    0 -0.24679961681E+02  0.11100615833E+02  0.72326045382E+01  0.96988667492E+02  0.92855623809E+02 0.  0.
         11    1    3    3    0    0 -0.16982258662E+02 -0.33128734841E+01  0.49092616544E+02  0.52052447007E+02  0.51100000000E-03 0.  1.
         22    1    1    0    0    0  0.24679961681E+02 -0.11100615833E+02 -0.72326045382E+01  0.28011332508E+02  0.00000000000E+00 0. -1.
</event>
<event>
 5    1  0.1099741E-009  0.9118800E+02  0.7818608E-02  0.1130116E+00
         25   -1    0    0    0    0  0.00000000000E+00  0.00000000000E+00  0.99999998245E-14  0.12500000000E+03  0.12500000000E+03 0.  0.
        -11    1    3    3    0    0  0.23941162419E+02  0.12677915765E+01 -0.39343573000E+02  0.46072804235E+02  0.51100000000E-03 0. -1.
         23    2    1    0    0    0  0.72951375758E+01 -0.30027916164E+01  0.17685422954E+02  0.10563482572E+03  0.10384462639E+03 0.  0.
         11    1    3    3    0    0 -0.16646024843E+02 -0.42705831930E+01  0.57028995954E+02  0.59562021487E+02  0.51100000000E-03 0.  1.
         22    1    1    0    0    0 -0.72951375758E+01  0.30027916164E+01 -0.17685422954E+02  0.19365174278E+02  0.00000000000E+00 0.  1.
</event>
<event>
 5    1  0.1099741E-009  0.9118800E+02  0.7818608E-02  0.1130116E+00
         25   -1    0    0    0    0  0.00000000000E+00  0.00000000000E+00  0.99999998245E-14  0.12500000000E+03  0.12500000000E+03 0.  0.
        -11    1    3    3    0    0  0.41682743115E+02 -0.84763665042E+01  0.13277948872E+02  0.44560114331E+02  0.51100000000E-03 0. -1.
         23    2    1    0    0    0 -0.18087879863E+02 -0.63823601336E+01  0.64876915466E+01  0.10475164055E+03  0.10277601927E+03 0.  0.
         11    1    3    3    0    0 -0.59770622978E+02  0.20940063706E+01 -0.67902573249E+01  0.60191526219E+02  0.51100000000E-03 0.  1.
         22    1    1    0    0    0  0.18087879863E+02  0.63823601336E+01 -0.64876915466E+01  0.20248359450E+02  0.00000000000E+00 0.  1.
</event>
<event>
 5    1  0.1099741E-009  0.9118800E+02  0.7818608E-02  0.1130116E+00
         25   -1    0    0    0    0  0.00000000000E+00  0.00000000000E+00  0.99999998245E-14  0.12500000000E+03  0.12500000000E+03 0.  0.
        -11    1    3    3    0    0  0.55648452701E+02  0.13316869960E+00 -0.20804621700E+02  0.59410439371E+02  0.51100000000E-03 0.  1.
         23    2    1    0    0    0  0.24008899712E+02  0.13794325872E+02 -0.10579423886E+02  0.95358223714E+02  0.90634187416E+02 0.  0.
         11    1    3    3    0    0 -0.31639552989E+02  0.13661157172E+02  0.10225197814E+02  0.35947784343E+02  0.51100000000E-03 0. -1.
         22    1    1    0    0    0 -0.24008899712E+02 -0.13794325872E+02  0.10579423886E+02  0.29641776286E+02  0.00000000000E+00 0.  1.
</event>
<event>
 5    1  0.1099741E-009  0.9118800E+02  0.7818608E-02  0.1130116E+00
         25   -1    0    0    0    0  0.00000000000E+00  0.00000000000E+00  0.99999998245E-14  0.12500000000E+03  0.12500000000E+03 0.  0.
        -11    1    3    3    0    0  0.31302868760E+02 -0.13906838181E+02  0.44529463444E+02  0.56179559056E+02  0.51100000000E-03 0. -1.
         23    2    1    0    0    0 -0.45529038858E+01 -0.12496765536E+02  0.24106423226E+02  0.97467878335E+02  0.93498500435E+02 0.  0.
         11    1    3    3    0    0 -0.35855772645E+02  0.14100726452E+01 -0.20423040219E+02  0.41288319279E+02  0.51100000000E-03 0.  1.
         22    1    1    0    0    0  0.45529038858E+01  0.12496765536E+02 -0.24106423226E+02  0.27532121665E+02  0.00000000000E+00 0. -1.
</event>
<event>
 5    1  0.1099741E-009  0.9118800E+02  0.7818608E-02  0.1130116E+00
         25   -1    0    0    0    0  0.00000000000E+00  0.00000000000E+00  0.99999998245E-14  0.12500000000E+03  0.12500000000E+03 0.  0.
        -11    1    3    3    0    0  0.53802914669E+02 -0.26782246445E+02  0.10248948185E+02  0.60967887373E+02  0.51100000000E-03 0.  1.
         23    2    1    0    0    0  0.25816956323E+02 -0.78309971284E+01 -0.41465253762E+01  0.97704699626E+02  0.93814577261E+02 0.  0.
         11    1    3    3    0    0 -0.27985958347E+02  0.18951249317E+02 -0.14395473561E+02  0.36736812254E+02  0.51100000000E-03 0. -1.
         22    1    1    0    0    0 -0.25816956323E+02  0.78309971284E+01  0.41465253762E+01  0.27295300374E+02  0.00000000000E+00 0.  1.
</event>
<event>
 5    1  0.1099741E-009  0.9118800E+02  0.7818608E-02  0.1130116E+00
         25   -1    0    0    0    0  0.00000000000E+00  0.00000000000E+00  0.99999998245E-14  0.12500000000E+03  0.12500000000E+03 0.  0.
        -11    1    3    3    0    0  0.34729977066E+02  0.80251392599E+01  0.20516310069E+02  0.41127766123E+02  0.51100000000E-03 0. -1.
         23    2    1    0    0    0 -0.19546541237E+02  0.16194196365E+02  0.12852915161E+02  0.96547993070E+02  0.92260491368E+02 0.  0.
         11    1    3    3    0    0 -0.54276518303E+02  0.81690571049E+01 -0.76633949077E+01  0.55420226947E+02  0.51100000000E-03 0.  1.
         22    1    1    0    0    0  0.19546541237E+02 -0.16194196365E+02 -0.12852915161E+02  0.28452006930E+02  0.00000000000E+00 0. -1.
</event>
<event>
 5    1  0.1099741E-009  0.9118800E+02  0.7818608E-02  0.1130116E+00
         25   -1    0    0    0    0  0.00000000000E+00  0.00000000000E+00  0.99999998245E-14  0.12500000000E+03  0.12500000000E+03 0.  0.
        -11    1    3    3    0    0 -0.23854907201E+02  0.20611660869E+02  0.19391130311E+02  0.37012337083E+02  0.51100000000E-03 0.  1.
         23    2    1    0    0    0  0.22184706876E+02  0.86450140748E+01 -0.16009389313E+02  0.96308572121E+02  0.91935537364E+02 0.  0.
         11    1    3    3    0    0  0.46039614077E+02 -0.11966646794E+02 -0.35400519624E+02  0.59296235039E+02  0.51100000000E-03 0. -1.
         22    1    1    0    0    0 -0.22184706876E+02 -0.86450140748E+01  0.16009389313E+02  0.28691427879E+02  0.00000000000E+00 0.  1.
</event>
<event>
 5    1  0.1099741E-009  0.9118800E+02  0.7818608E-02  0.1130116E+00
         25   -1    0    0    0    0  0.00000000000E+00  0.00000000000E+00  0.99999998245E-14  0.12500000000E+03  0.12500000000E+03 0.  0.
        -11    1    3    3    0    0  0.17372641011E+02 -0.37188316783E+02  0.99588261041E+01  0.42236924349E+02  0.51100000000E-03 0. -1.
         23    2    1    0    0    0 -0.26415072382E+02 -0.12300525708E+02 -0.63492892741E+01  0.95177651736E+02  0.90384804774E+02 0.  0.
         11    1    3    3    0    0 -0.43787713394E+02  0.24887791075E+02 -0.16308115378E+02  0.52940727387E+02  0.51100000000E-03 0.  1.
         22    1    1    0    0    0  0.26415072382E+02  0.12300525708E+02  0.63492892741E+01  0.29822348264E+02  0.00000000000E+00 0.  1.
</event>
<event>
 5    1  0.1099741E-009  0.9118800E+02  0.7818608E-02  0.1130116E+00
         25   -1    0    0    0    0  0.00000000000E+00  0.00000000000E+00  0.99999998245E-14  0.12500000000E+03  0.12500000000E+03 0.  0.
        -11    1    3    3    0    0 -0.16365595957E+02  0.47696599645E+02 -0.10496088181E+02  0.51506953085E+02  0.51100000000E-03 0.  1.
         23    2    1    0    0    0  0.13321753520E+02  0.18899403322E+02 -0.20543604562E+02  0.94069493195E+02  0.88839030267E+02 0.  0.
         11    1    3    3    0    0  0.29687349477E+02 -0.28797196323E+02 -0.10047516381E+02  0.42562540111E+02  0.51100000000E-03 0. -1.
         22    1    1    0    0    0 -0.13321753520E+02 -0.18899403322E+02  0.20543604562E+02  0.30930506805E+02  0.00000000000E+00 0.  1.
</event>
<event>
 5    1  0.1099741E-009  0.9118800E+02  0.7818608E-02  0.1130116E+00
         25   -1    0    0    0    0  0.00000000000E+00  0.00000000000E+00  0.99999998245E-14  0.12500000000E+03  0.12500000000E+03 0.  0.
        -11    1    3    3    0    0  0.14338943417E+02  0.22654051504E+02 -0.21137089460E+02  0.34140707359E+02  0.51100000000E-03 0.  1.
         23    2    1    0    0    0  0.34910751811E+01 -0.22492319869E+02  0.18872443574E+02  0.95432091967E+02  0.90736007140E+02 0.  0.
         11    1    3    3    0    0 -0.10847868236E+02 -0.45146371373E+02  0.40009533034E+02  0.61291384608E+02  0.51100000000E-03 0. -1.
         22    1    1    0    0    0 -0.34910751811E+01  0.22492319869E+02 -0.18872443574E+02  0.29567908033E+02  0.00000000000E+00 0. -1.
</event>
<event>
 5    1  0.1099741E-009  0.9118800E+02  0.7818608E-02  0.1130116E+00
         25   -1    0    0    0    0  0.00000000000E+00  0.00000000000E+00  0.99999998245E-14  0.12500000000E+03  0.12500000000E+03 0.  0.
        -11    1    3    3    0    0 -0.22769021036E+02 -0.14709436570E+02  0.31266657365E+02  0.41381151582E+02  0.51100000000E-03 0.  1.
         23    2    1    0    0    0  0.23730398383E+02 -0.17098219570E+02  0.36279587530E+01  0.95527249796E+02  0.90867004181E+02 0.  0.
         11    1    3    3    0    0  0.46499419419E+02 -0.23887829995E+01 -0.27638698612E+02  0.54146098214E+02  0.51100000000E-03 0. -1.
         22    1    1    0    0    0 -0.23730398383E+02  0.17098219570E+02 -0.36279587530E+01  0.29472750204E+02  0.00000000000E+00 0. -1.
</event>
<event>
 5    1  0.1099741E-009  0.9118800E+02  0.7818608E-02  0.1130116E+00
         25   -1    0    0    0    0  0.00000000000E+00  0.00000000000E+00  0.99999998245E-14  0.12500000000E+03  0.12500000000E+03 0.  0.
        -11    1    3    3    0    0 -0.22832018529E+01 -0.46128434500E+02 -0.25123894828E+02  0.52576188257E+02  0.51100000000E-03 0. -1.
         23    2    1    0    0    0  0.20682790306E+02 -0.20662415676E+02  0.10963740068E+01  0.95743970324E+02  0.91164645456E+02 0.  0.
         11    1    3    3    0    0  0.22965992159E+02  0.25466018823E+02  0.26220268834E+02  0.43167782067E+02  0.51100000000E-03 0.  1.
         22    1    1    0    0    0 -0.20682790306E+02  0.20662415676E+02 -0.10963740068E+01  0.29256029676E+02  0.00000000000E+00 0. -1.
</event>
<event>
 5    1  0.1099741E-009  0.9118800E+02  0.7818608E-02  0.1130116E+00
         25   -1    0    0    0    0  0.00000000000E+00  0.00000000000E+00  0.99999998245E-14  0.12500000000E+03  0.12500000000E+03 0.  0.
        -11    1    3    3    0    0  0.18076461068E+02  0.33256405056E+01 -0.56923753348E+02  0.59817489290E+02  0.51100000000E-03 0.  1.
         23    2    1    0    0    0  0.70843117570E+01 -0.11348814580E+02 -0.25694961161E+02  0.96030807838E+02  0.91557096719E+02 0.  0.
         11    1    3    3    0    0 -0.10992149311E+02 -0.14674455086E+02  0.31228792187E+02  0.36213318548E+02  0.51100000000E-03 0. -1.
         22    1    1    0    0    0 -0.70843117570E+01  0.11348814580E+02  0.25694961161E+02  0.28969192162E+02  0.00000000000E+00 0.  1.
</event>
<event>
 5    1  0.1099741E-009  0.9118800E+02  0.7818608E-02  0.1130116E+00
         25   -1    0    0    0    0  0.00000000000E+00  0.00000000000E+00  0.99999998245E-14  0.12500000000E+03  0.12500000000E+03 0.  0.
        -11    1    3    3    0    0 -0.18037436399E+02  0.24165950482E+02  0.32603110953E+02  0.44410641952E+02  0.51100000000E-03 0.  1.
         23    2    1    0    0    0  0.91485993272E+01 -0.17465374070E+02  0.22382535039E+02  0.95171925375E+02  0.90376885008E+02 0.  0.
         11    1    3    3    0    0  0.27186035727E+02 -0.41631324552E+02 -0.10220575914E+02  0.50761283423E+02  0.51100000000E-03 0. -1.
         22    1    1    0    0    0 -0.91485993272E+01  0.17465374070E+02 -0.22382535039E+02  0.29828074625E+02  0.00000000000E+00 0. -1.
</event>
<event>
 5    1  0.1099741E-009  0.9118800E+02  0.7818608E-02  0.1130116E+00
         25   -1    0    0    0    0  0.00000000000E+00  0.00000000000E+00  0.99999998245E-14  0.12500000000E+03  0.12500000000E+03 0.  0.
        -11    1    3    3    0    0  0.27915910621E+02  0.14268672276E+02 -0.13717785976E+02  0.34220910664E+02  0.51100000000E-03 0.  1.
         23    2    1    0    0    0 -0.20771803795E+02 -0.20902202835E+02 -0.16348803662E+01  0.95486566617E+02  0.90811021656E+02 0.  0.
         11    1    3    3    0    0 -0.48687714416E+02 -0.35170875111E+02  0.12082905609E+02  0.61265655953E+02  0.51100000000E-03 0. -1.
         22    1    1    0    0    0  0.20771803795E+02  0.20902202835E+02  0.16348803662E+01  0.29513433383E+02  0.00000000000E+00 0. -1.
</event>
<event>
 5    1  0.1099741E-009  0.9118800E+02  0.7818608E-02  0.1130116E+00
         25   -1    0    0    0    0  0.00000000000E+00  0.00000000000E+00  0.99999998245E-14  0.12500000000E+03  0.12500000000E+03 0.  0.
        -11    1    3    3    0    0  0.28641926666E+02  0.26261664454E+02  0.24289106156E+01  0.38935004688E+02  0.51100000000E-03 0. -1.
         23    2    1    0    0    0 -0.12977168900E+01 -0.17769260055E+02  0.22904503752E+02  0.95981954509E+02  0.91490374506E+02 0.  0.
         11    1    3    3    0    0 -0.29939643556E+02 -0.44030924508E+02  0.20475593136E+02  0.57046949821E+02  0.51100000000E-03 0.  1.
         22    1    1    0    0    0  0.12977168900E+01  0.17769260055E+02 -0.22904503752E+02  0.29018045491E+02  0.00000000000E+00 0.  1.
</event>
<event>
 5    1  0.1099741E-009  0.9118800E+02  0.7818608E-02  0.1130116E+00
         25   -1    0    0    0    0  0.00000000000E+00  0.00000000000E+00  0.99999998245E-14  0.12500000000E+03  0.12500000000E+03 0.  0.
        -11    1    3    3    0    0  0.45075441162E+02  0.33273778986E+02  0.25900512672E+02  0.61723385527E+02  0.51100000000E-03 0.  1.
         23    2    1    0    0    0  0.21557516654E+02  0.11166147502E+02  0.17488735059E+02  0.95079016923E+02  0.90248292120E+02 0.  0.
         11    1    3    3    0    0 -0.23517924508E+02 -0.22107631483E+02 -0.84117776123E+01  0.33355631396E+02  0.51100000000E-03 0. -1.
         22    1    1    0    0    0 -0.21557516654E+02 -0.11166147502E+02 -0.17488735059E+02  0.29920983077E+02  0.00000000000E+00 0.  1.
</event>
<event>
 5    1  0.1099741E-009  0.9118800E+02  0.7818608E-02  0.1130116E+00
         25   -1    0    0    0    0  0.00000000000E+00  0.00000000000E+00  0.99999998245E-14  0.12500000000E+03  0.12500000000E+03 0.  0.
        -11    1    3    3    0    0  0.36603552619E+02 -0.28939798313E+02  0.40312725880E+02  0.61663991590E+02  0.51100000000E-03 0. -1.
         23    2    1    0    0    0  0.15190286111E+02 -0.19627550949E+02  0.15488583333E+02  0.95744543037E+02  0.91165430725E+02 0.  0.
         11    1    3    3    0    0 -0.21413266508E+02  0.93122473634E+01 -0.24824142547E+02  0.34080551447E+02  0.51100000000E-03 0.  1.
         22    1    1    0    0    0 -0.15190286111E+02  0.19627550949E+02 -0.15488583333E+02  0.29255456963E+02  0.00000000000E+00 0. -1.
</event>
<event>
 5    1  0.1099741E-009  0.9118800E+02  0.7818608E-02  0.1130116E+00
         25   -1    0    0    0    0  0.00000000000E+00  0.00000000000E+00  0.99999998245E-14  0.12500000000E+03  0.12500000000E+03 0.  0.
        -11    1    3    3    0    0 -0.39086882815E+02  0.13732671678E+02 -0.21500714172E+02  0.46676025857E+02  0.51100000000E-03 0.  1.
         23    2    1    0    0    0  0.31927340537E+01  0.29742766641E+02 -0.58358231201E+01  0.94522425463E+02  0.89474054148E+02 0.  0.
         11    1    3    3    0    0  0.42279616869E+02  0.16010094963E+02  0.15664891052E+02  0.47846399606E+02  0.51100000000E-03 0. -1.
         22    1    1    0    0    0 -0.31927340537E+01 -0.29742766641E+02  0.58358231201E+01  0.30477574537E+02  0.00000000000E+00 0. -1.
</event>
<event>
 5    1  0.1099741E-009  0.9118800E+02  0.7818608E-02  0.1130116E+00
         25   -1    0    0    0    0  0.00000000000E+00  0.00000000000E+00  0.99999998245E-14  0.12500000000E+03  0.12500000000E+03 0.  0.
        -11    1    3    3    0    0  0.31993273322E+02  0.43329851401E+02 -0.95325859400E+01  0.54698407246E+02  0.51100000000E-03 0. -1.
         23    2    1    0    0    0  0.30253620294E+02  0.60307329519E+01  0.28058504864E+01  0.94023814344E+02  0.88774735066E+02 0.  0.
         11    1    3    3    0    0 -0.17396530277E+01 -0.37299118449E+02  0.12338436426E+02  0.39325407098E+02  0.51100000000E-03 0.  1.
         22    1    1    0    0    0 -0.30253620294E+02 -0.60307329519E+01 -0.28058504864E+01  0.30976185656E+02  0.00000000000E+00 0. -1.
</event>
<event>
 5    1  0.1099741E-009  0.9118800E+02  0.7818608E-02  0.1130116E+00
         25   -1    0    0    0    0  0.00000000000E+00  0.00000000000E+00  0.99999998245E-14  0.12500000000E+03  0.12500000000E+03 0.  0.
        -11    1    3    3    0    0 -0.37710704666E+02 -0.59743548272E+00  0.17100293219E+02  0.41411039640E+02  0.51100000000E-03 0.  1.
         23    2    1    0    0    0  0.47476251168E+01 -0.27411922941E+02 -0.57657611328E+01  0.96588779241E+02  0.92315734359E+02 0.  0.
         11    1    3    3    0    0  0.42458329783E+02 -0.26814487458E+02 -0.22866054352E+02  0.55177739601E+02  0.51100000000E-03 0. -1.
         22    1    1    0    0    0 -0.47476251168E+01  0.27411922941E+02  0.57657611328E+01  0.28411220759E+02  0.00000000000E+00 0. -1.
</event>
<event>
 5    1  0.1099741E-009  0.9118800E+02  0.7818608E-02  0.1130116E+00
         25   -1    0    0    0    0  0.00000000000E+00  0.00000000000E+00  0.99999998245E-14  0.12500000000E+03  0.12500000000E+03 0.  0.
        -11    1    3    3    0    0  0.23396662602E+02 -0.33558500339E+01 -0.23585888606E+02  0.33391012143E+02  0.51100000000E-03 0. -1.
         23    2    1    0    0    0 -0.18814040703E+02  0.95140788491E+01  0.20375321585E+02  0.95680389606E+02  0.91077425313E+02 0.  0.
         11    1    3    3    0    0 -0.42210703306E+02  0.12869928883E+02  0.43961210191E+02  0.62289377463E+02  0.51100000000E-03 0.  1.
         22    1    1    0    0    0  0.18814040703E+02 -0.95140788491E+01 -0.20375321585E+02  0.29319610394E+02  0.00000000000E+00 0.  1.
</event>
<event>
 5    1  0.1099741E-009  0.9118800E+02  0.7818608E-02  0.1130116E+00
         25   -1    0    0    0    0  0.00000000000E+00  0.00000000000E+00  0.99999998245E-14  0.12500000000E+03  0.12500000000E+03 0.  0.
        -11    1    3    3    0    0  0.16301137582E+02 -0.21149943671E+02  0.49598040239E+02  0.56329502036E+02  0.51100000000E-03 0. -1.
         23    2    1    0    0    0  0.89283486235E+01  0.90259414909E+01  0.28269909369E+02  0.94010149974E+02  0.88755492751E+02 0.  0.
         11    1    3    3    0    0 -0.73727889583E+01  0.30175885162E+02 -0.21328130870E+02  0.37680647938E+02  0.51100000000E-03 0.  1.
         22    1    1    0    0    0 -0.89283486235E+01 -0.90259414909E+01 -0.28269909369E+02  0.30989850026E+02  0.00000000000E+00 0.  1.
</event>
<event>
 5    1  0.1099741E-009  0.9118800E+02  0.7818608E-02  0.1130116E+00
         25   -1    0    0    0    0  0.00000000000E+00  0.00000000000E+00  0.99999998245E-14  0.12500000000E+03  0.12500000000E+03 0.  0.
        -11    1    3    3    0    0  0.24238382487E+02  0.19402035306E+02  0.25012979793E+02  0.39869629017E+02  0.51100000000E-03 0.  1.
         23    2    1    0    0    0  0.21981822168E+01 -0.28352412654E+02  0.50969913180E+01  0.96109333187E+02  0.91664242193E+02 0.  0.
         11    1    3    3    0    0 -0.22040200270E+02 -0.47754447960E+02 -0.19915988475E+02  0.56239704170E+02  0.51100000000E-03 0. -1.
         22    1    1    0    0    0 -0.21981822168E+01  0.28352412654E+02 -0.50969913180E+01  0.28890666813E+02  0.00000000000E+00 0. -1.
</event>
<event>
 5    1  0.1099741E-009  0.9118800E+02  0.7818608E-02  0.1130116E+00
         25   -1    0    0    0    0  0.00000000000E+00  0.00000000000E+00  0.99999998245E-14  0.12500000000E+03  0.12500000000E+03 0.  0.
        -11    1    3    3    0    0  0.51396476995E+02  0.13134577481E+02  0.66455295964E+01  0.53462865963E+02  0.51100000000E-03 0.  1.
         23    2    1    0    0    0  0.20438519858E+02  0.65445342088E+01 -0.20619720269E+02  0.95238667940E+02  0.90469149356E+02 0.  0.
         11    1    3    3    0    0 -0.30957957137E+02 -0.65900432723E+01 -0.27265249865E+02  0.41775801978E+02  0.51100000000E-03 0. -1.
         22    1    1    0    0    0 -0.20438519858E+02 -0.65445342088E+01  0.20619720269E+02  0.29761332060E+02  0.00000000000E+00 0.  1.
</event>
<event>
 5    1  0.1099741E-009  0.9118800E+02  0.7818608E-02  0.1130116E+00
         25   -1    0    0    0    0  0.00000000000E+00  0.00000000000E+00  0.99999998245E-14  0.12500000000E+03  0.12500000000E+03 0.  0.
        -11    1    3    3    0    0  0.52032899801E+02 -0.83799096960E+01 -0.19085684068E+02  0.56052733071E+02  0.51100000000E-03 0. -1.
         23    2    1    0    0    0  0.23277420737E+02  0.16190088352E+02 -0.65456932101E+01  0.95900113804E+02  0.91378490089E+02 0.  0.
         11    1    3    3    0    0 -0.28755479063E+02  0.24569998048E+02  0.12539990858E+02  0.39847380732E+02  0.51100000000E-03 0.  1.
         22    1    1    0    0    0 -0.23277420737E+02 -0.16190088352E+02  0.65456932101E+01  0.29099886196E+02  0.00000000000E+00 0. -1.
</event>
<event>
 5    1  0.1099741E-009  0.9118800E+02  0.7818608E-02  0.1130116E+00
         25   -1    0    0    0    0  0.00000000000E+00  0.00000000000E+00  0.99999998245E-14  0.12500000000E+03  0.12500000000E+03 0.  0.
        -11    1    3    3    0    0 -0.35525178509E+02 -0.17686858575E+02  0.60705610577E+00  0.39689189860E+02  0.51100000000E-03 0.  1.
         23    2    1    0    0    0  0.15140579324E+02 -0.22184359516E+02 -0.16646941590E+02  0.93400892201E+02  0.87893248035E+02 0.  0.
         11    1    3    3    0    0  0.50665757834E+02 -0.44975009408E+01 -0.17253997696E+02  0.53711702341E+02  0.51100000000E-03 0. -1.
         22    1    1    0    0    0 -0.15140579324E+02  0.22184359516E+02  0.16646941590E+02  0.31599107799E+02  0.00000000000E+00 0. -1.
</event>
<event>
 5    1  0.1099741E-009  0.9118800E+02  0.7818608E-02  0.1130116E+00
         25   -1    0    0    0    0  0.00000000000E+00  0.00000000000E+00  0.99999998245E-14  0.12500000000E+03  0.12500000000E+03 0.  0.
        -11    1    3    3    0    0 -0.16660384828E+02  0.41350280956E+02 -0.34037856852E+02  0.56089124232E+02  0.51100000000E-03 0.  1.
         23    2    1    0    0    0  0.10318635127E+02  0.23206571218E+02 -0.62830282314E+01  0.98837132757E+02  0.95311506070E+02 0.  0.
         11    1    3    3    0    0  0.26979019956E+02 -0.18143709738E+02  0.27754828621E+02  0.42748008525E+02  0.51100000000E-03 0. -1.
         22    1    1    0    0    0 -0.10318635127E+02 -0.23206571218E+02  0.62830282314E+01  0.26162867243E+02  0.00000000000E+00 0.  1.
</event>
<event>
 5    1  0.1099741E-009  0.9118800E+02  0.7818608E-02  0.1130116E+00
         25   -1    0    0    0    0  0.00000000000E+00  0.00000000000E+00  0.99999998245E-14  0.12500000000E+03  0.12500000000E+03 0.  0.
        -11    1    3    3    0    0 -0.49457832120E+02 -0.13123767887E+02 -0.46180494879E+01  0.51377396030E+02  0.51100000000E-03 0.  1.
         23    2    1    0    0    0 -0.61271384809E+01 -0.26929895865E+02  0.18879084226E+01  0.97317418555E+02  0.93297130925E+02 0.  0.
         11    1    3    3    0    0  0.43330693639E+02 -0.13806127978E+02  0.65059579105E+01  0.45940022525E+02  0.51100000000E-03 0. -1.
         22    1    1    0    0    0  0.61271384809E+01  0.26929895865E+02 -0.18879084226E+01  0.27682581445E+02  0.00000000000E+00 0.  1.
</event>
<event>
 5    1  0.1099741E-009  0.9118800E+02  0.7818608E-02  0.1130116E+00
         25   -1    0    0    0    0  0.00000000000E+00  0.00000000000E+00  0.99999998245E-14  0.12500000000E+03  0.12500000000E+03 0.  0.
        -11    1    3    3    0    0  0.26402563331E+02  0.56418378161E+01  0.35784282455E+02  0.44826783907E+02  0.51100000000E-03 0. -1.
         23    2    1    0    0    0 -0.18233769130E+02  0.17779488103E+02  0.11807650853E+02  0.96928641775E+02  0.92774783448E+02 0.  0.
         11    1    3    3    0    0 -0.44636332461E+02  0.12137650287E+02 -0.23976631602E+02  0.52101857868E+02  0.51100000000E-03 0.  1.
         22    1    1    0    0    0  0.18233769130E+02 -0.17779488103E+02 -0.11807650853E+02  0.28071358225E+02  0.00000000000E+00 0.  1.
</event>
<event>
 5    1  0.1099741E-009  0.9118800E+02  0.7818608E-02  0.1130116E+00
         25   -1    0    0    0    0  0.00000000000E+00  0.00000000000E+00  0.99999998245E-14  0.12500000000E+03  0.12500000000E+03 0.  0.
        -11    1    3    3    0    0 -0.33646025354E+02 -0.76780104978E+01 -0.31520492114E+01  0.34654614149E+02  0.51100000000E-03 0.  1.
         23    2    1    0    0    0  0.21009303391E+02  0.14511889356E+02  0.13726918540E+02  0.96010104273E+02  0.91528826433E+02 0.  0.
         11    1    3    3    0    0  0.54655328745E+02  0.22189899853E+02  0.16878967752E+02  0.61355490124E+02  0.51100000000E-03 0. -1.
         22    1    1    0    0    0 -0.21009303391E+02 -0.14511889356E+02 -0.13726918540E+02  0.28989895727E+02  0.00000000000E+00 0. -1.
</event>
<event>
 5    1  0.1099741E-009  0.9118800E+02  0.7818608E-02  0.1130116E+00
         25   -1    0    0    0    0  0.00000000000E+00  0.00000000000E+00  0.99999998245E-14  0.12500000000E+03  0.12500000000E+03 0.  0.
        -11    1    3    3    0    0 -0.97095560203E+01  0.38922656246E+02  0.43480419429E+02  0.59159069645E+02  0.51100000000E-03 0.  1.
         23    2    1    0    0    0 -0.18121737409E+02  0.13880559065E+02  0.17235676262E+02  0.96396926338E+02  0.92055589644E+02 0.  0.
         11    1    3    3    0    0 -0.84121813890E+01 -0.25042097180E+02 -0.26244743167E+02  0.37237856693E+02  0.51100000000E-03 0. -1.
         22    1    1    0    0    0  0.18121737409E+02 -0.13880559065E+02 -0.17235676262E+02  0.28603073662E+02  0.00000000000E+00 0.  1.
</event>
<event>
 5    1  0.1099741E-009  0.9118800E+02  0.7818608E-02  0.1130116E+00
         25   -1    0    0    0    0  0.00000000000E+00  0.00000000000E+00  0.99999998245E-14  0.12500000000E+03  0.12500000000E+03 0.  0.
        -11    1    3    3    0    0  0.23897369199E+02  0.23524879974E+02  0.10258733428E+02  0.35067732237E+02  0.51100000000E-03 0.  1.
         23    2    1    0    0    0 -0.22676918645E+02 -0.43498751943E+01 -0.17495062162E+02  0.96030339086E+02  0.91556456743E+02 0.  0.
         11    1    3    3    0    0 -0.46574287844E+02 -0.27874755168E+02 -0.27753795590E+02  0.60962606849E+02  0.51100000000E-03 0. -1.
         22    1    1    0    0    0  0.22676918645E+02  0.43498751943E+01  0.17495062162E+02  0.28969660914E+02  0.00000000000E+00 0. -1.
</event>
<event>
 5    1  0.1099741E-009  0.9118800E+02  0.7818608E-02  0.1130116E+00
         25   -1    0    0    0    0  0.00000000000E+00  0.00000000000E+00  0.99999998245E-14  0.12500000000E+03  0.12500000000E+03 0.  0.
        -11    1    3    3    0    0  0.41484767854E+02 -0.59734736617E+01 -0.41559296414E+02  0.59024092286E+02  0.51100000000E-03 0. -1.
         23    2    1    0    0    0  0.29923936250E+02  0.42021907846E+00 -0.96570441500E+01  0.93553584520E+02  0.88110136364E+02 0.  0.
         11    1    3    3    0    0 -0.11560831603E+02  0.63936927401E+01  0.31902252264E+02  0.34529492235E+02  0.51100000000E-03 0.  1.
         22    1    1    0    0    0 -0.29923936250E+02 -0.42021907846E+00  0.96570441500E+01  0.31446415480E+02  0.00000000000E+00 0. -1.
</event>
<event>
 5    1  0.1099741E-009  0.9118800E+02  0.7818608E-02  0.1130116E+00
         25   -1    0    0    0    0  0.00000000000E+00  0.00000000000E+00  0.99999998245E-14  0.12500000000E+03  0.12500000000E+03 0.  0.
        -11    1    3    3    0    0 -0.14329657892E+02 -0.12708598557E+01 -0.56397032392E+02  0.58202916104E+02  0.51100000000E-03 0.  1.
         23    2    1    0    0    0  0.91896858022E+01 -0.45050772270E+01 -0.27833565034E+02  0.95344420618E+02  0.90615148593E+02 0.  0.
         11    1    3    3    0    0  0.23519343695E+02 -0.32342173712E+01  0.28563467358E+02  0.37141504515E+02  0.51100000000E-03 0. -1.
         22    1    1    0    0    0 -0.91896858022E+01  0.45050772270E+01  0.27833565034E+02  0.29655579382E+02  0.00000000000E+00 0.  1.
</event>
<event>
 5    1  0.1099741E-009  0.9118800E+02  0.7818608E-02  0.1130116E+00
         25   -1    0    0    0    0  0.00000000000E+00  0.00000000000E+00  0.99999998245E-14  0.12500000000E+03  0.12500000000E+03 0.  0.
        -11    1    3    3    0    0  0.18257747558E+02 -0.21842472191E+02 -0.52453925457E+02  0.59681263672E+02  0.51100000000E-03 0.  1.
         23    2    1    0    0    0  0.17499353693E+02 -0.45824015915E+00 -0.24687041555E+02  0.94736368618E+02  0.89772446521E+02 0.  0.
         11    1    3    3    0    0 -0.75839386483E+00  0.21384232032E+02  0.27766883902E+02  0.35055104946E+02  0.51100000000E-03 0. -1.
         22    1    1    0    0    0 -0.17499353693E+02  0.45824015915E+00  0.24687041555E+02  0.30263631382E+02  0.00000000000E+00 0.  1.
</event>
<event>
 5    1  0.1099741E-009  0.9118800E+02  0.7818608E-02  0.1130116E+00
         25   -1    0    0    0    0  0.00000000000E+00  0.00000000000E+00  0.99999998245E-14  0.12500000000E+03  0.12500000000E+03 0.  0.
        -11    1    3    3    0    0 -0.56632361794E+02  0.90207513560E+01 -0.98132637389E+01  0.58179880567E+02  0.51100000000E-03 0. -1.
         23    2    1    0    0    0 -0.23628107021E+02  0.18413160994E+02 -0.12372680988E+02  0.92589890867E+02  0.86732189623E+02 0.  0.
         11    1    3    3    0    0  0.33004254773E+02  0.93924096379E+01 -0.25594172489E+01  0.34410010300E+02  0.51100000000E-03 0.  1.
         22    1    1    0    0    0  0.23628107021E+02 -0.18413160994E+02  0.12372680988E+02  0.32410109133E+02  0.00000000000E+00 0. -1.
</event>
<event>
 5    1  0.1099741E-009  0.9118800E+02  0.7818608E-02  0.1130116E+00
         25   -1    0    0    0    0  0.00000000000E+00  0.00000000000E+00  0.99999998245E-14  0.12500000000E+03  0.12500000000E+03 0.  0.
        -11    1    3    3    0    0 -0.41701328857E+02 -0.73579120885E+01  0.19917222108E+02  0.46795677530E+02  0.51100000000E-03 0.  1.
         23    2    1    0    0    0 -0.15061510156E+02  0.16799220448E+02 -0.15780267839E+02  0.97466751937E+02  0.93496994519E+02 0.  0.
         11    1    3    3    0    0  0.26639818701E+02  0.24157132537E+02 -0.35697489947E+02  0.50671074407E+02  0.51100000000E-03 0. -1.
         22    1    1    0    0    0  0.15061510156E+02 -0.16799220448E+02  0.15780267839E+02  0.27533248063E+02  0.00000000000E+00 0. -1.
</event>
<event>
 5    1  0.1099741E-009  0.9118800E+02  0.7818608E-02  0.1130116E+00
         25   -1    0    0    0    0  0.00000000000E+00  0.00000000000E+00  0.99999998245E-14  0.12500000000E+03  0.12500000000E+03 0.  0.
        -11    1    3    3    0    0  0.13867311342E+02 -0.79817361123E+01 -0.29867317592E+02  0.33883138810E+02  0.51100000000E-03 0. -1.
         23    2    1    0    0    0  0.55517775173E+01  0.35417216329E+01  0.29421165018E+02  0.94850854461E+02  0.89931716403E+02 0.  0.
         11    1    3    3    0    0 -0.83155338246E+01  0.11523457745E+02  0.59288482610E+02  0.60967715651E+02  0.51100000000E-03 0.  1.
         22    1    1    0    0    0 -0.55517775173E+01 -0.35417216329E+01 -0.29421165018E+02  0.30149145539E+02  0.00000000000E+00 0.  1.
</event>
<event>
 5    1  0.1099741E-009  0.9118800E+02  0.7818608E-02  0.1130116E+00
         25   -1    0    0    0    0  0.00000000000E+00  0.00000000000E+00  0.99999998245E-14  0.12500000000E+03  0.12500000000E+03 0.  0.
        -11    1    3    3    0    0  0.29751988327E+02 -0.34108385985E+02 -0.23349356062E+02  0.50928923341E+02  0.51100000000E-03 0.  1.
         23    2    1    0    0    0  0.25786937443E+02 -0.31437895075E+01  0.10504198198E+02  0.96978798474E+02  0.92842337425E+02 0.  0.
         11    1    3    3    0    0 -0.39650508833E+01  0.30964596478E+02  0.33853554259E+02  0.46049875133E+02  0.51100000000E-03 0. -1.
         22    1    1    0    0    0 -0.25786937443E+02  0.31437895075E+01 -0.10504198198E+02  0.28021201526E+02  0.00000000000E+00 0.  1.
</event>
<event>
 5    1  0.1099741E-009  0.9118800E+02  0.7818608E-02  0.1130116E+00
         25   -1    0    0    0    0  0.00000000000E+00  0.00000000000E+00  0.99999998245E-14  0.12500000000E+03  0.12500000000E+03 0.  0.
        -11    1    3    3    0    0  0.14037645935E+02 -0.44954198330E+02 -0.33733551789E+02  0.57930026475E+02  0.51100000000E-03 0. -1.
         23    2    1    0    0    0  0.10429064517E+02 -0.88706045276E+01 -0.26877784570E+02  0.94835976483E+02  0.89911034477E+02 0.  0.
         11    1    3    3    0    0 -0.36085814183E+01  0.36083593802E+02  0.68557672193E+01  0.36905950007E+02  0.51100000000E-03 0.  1.
         22    1    1    0    0    0 -0.10429064517E+02  0.88706045276E+01  0.26877784570E+02  0.30164023517E+02  0.00000000000E+00 0. -1.
</event>
<event>
 5    1  0.1099741E-009  0.9118800E+02  0.7818608E-02  0.1130116E+00
         25   -1    0    0    0    0  0.00000000000E+00  0.00000000000E+00  0.99999998245E-14  0.12500000000E+03  0.12500000000E+03 0.  0.
        -11    1    3    3    0    0  0.28849724066E+02 -0.27850625286E+02  0.14469605695E+01  0.40125523083E+02  0.51100000000E-03 0. -1.
         23    2    1    0    0    0  0.60098664602E+01  0.16152382941E+02  0.24697201753E+02  0.94884061629E+02  0.89977860651E+02 0.  0.
         11    1    3    3    0    0 -0.22839857606E+02  0.44003008227E+02  0.23250241183E+02  0.54758538547E+02  0.51100000000E-03 0.  1.
         22    1    1    0    0    0 -0.60098664602E+01 -0.16152382941E+02 -0.24697201753E+02  0.30115938371E+02  0.00000000000E+00 0.  1.
</event>
<event>
 5    1  0.1099741E-009  0.9118800E+02  0.7818608E-02  0.1130116E+00
         25   -1    0    0    0    0  0.00000000000E+00  0.00000000000E+00  0.99999998245E-14  0.12500000000E+03  0.12500000000E+03 0.  0.
        -11    1    3    3    0    0 -0.28450954893E+02 -0.28686960422E+02 -0.30790266794E+01  0.40520105357E+02  0.51100000000E-03 0.  1.
         23    2    1    0    0    0  0.12527599353E+02 -0.67447864326E+01  0.26008435468E+02  0.95354231245E+02  0.90628680953E+02 0.  0.
         11    1    3    3    0    0  0.40978554246E+02  0.21942173990E+02  0.29087462147E+02  0.54834125888E+02  0.51100000000E-03 0. -1.
         22    1    1    0    0    0 -0.12527599353E+02  0.67447864326E+01 -0.26008435468E+02  0.29645768755E+02  0.00000000000E+00 0. -1.
</event>
<event>
 5    1  0.1099741E-009  0.9118800E+02  0.7818608E-02  0.1130116E+00
         25   -1    0    0    0    0  0.00000000000E+00  0.00000000000E+00  0.99999998245E-14  0.12500000000E+03  0.12500000000E+03 0.  0.
        -11    1    3    3    0    0  0.39583891110E+02 -0.41267589373E+02 -0.21311451841E+02  0.61025210757E+02  0.51100000000E-03 0.  1.
         23    2    1    0    0    0  0.24638831409E+02 -0.16076610046E+02 -0.33363371684E+01  0.95391545980E+02  0.90680132857E+02 0.  0.
         11    1    3    3    0    0 -0.14945059701E+02  0.25190979327E+02  0.17975114673E+02  0.34366335223E+02  0.51100000000E-03 0. -1.
         22    1    1    0    0    0 -0.24638831409E+02  0.16076610046E+02  0.33363371684E+01  0.29608454020E+02  0.00000000000E+00 0.  1.
</event>
<event>
 5    1  0.1099741E-009  0.9118800E+02  0.7818608E-02  0.1130116E+00
         25   -1    0    0    0    0  0.00000000000E+00  0.00000000000E+00  0.99999998245E-14  0.12500000000E+03  0.12500000000E+03 0.  0.
        -11    1    3    3    0    0  0.53505800831E+01  0.12616225477E+02  0.48784888659E+02  0.50673101486E+02  0.51100000000E-03 0.  1.
         23    2    1    0    0    0  0.25257051844E+02 -0.64630179980E+01  0.12945420125E+02  0.95892042811E+02  0.91367448814E+02 0.  0.
         11    1    3    3    0    0  0.19906471761E+02 -0.19079243475E+02 -0.35839468533E+02  0.45218941325E+02  0.51100000000E-03 0. -1.
         22    1    1    0    0    0 -0.25257051844E+02  0.64630179980E+01 -0.12945420125E+02  0.29107957189E+02  0.00000000000E+00 0.  1.
</event>
<event>
 5    1  0.1099741E-009  0.9118800E+02  0.7818608E-02  0.1130116E+00
         25   -1    0    0    0    0  0.00000000000E+00  0.00000000000E+00  0.99999998245E-14  0.12500000000E+03  0.12500000000E+03 0.  0.
        -11    1    3    3    0    0 -0.29231149404E+02  0.31759870526E+02 -0.41318106672E+02  0.59752283727E+02  0.51100000000E-03 0.  1.
         23    2    1    0    0    0 -0.43347659486E+01  0.88269185017E+01 -0.26558822834E+02  0.96679057989E+02  0.92437895352E+02 0.  0.
         11    1    3    3    0    0  0.24896383456E+02 -0.22932952025E+02  0.14759283838E+02  0.36926774262E+02  0.51100000000E-03 0. -1.
         22    1    1    0    0    0  0.43347659486E+01 -0.88269185017E+01  0.26558822834E+02  0.28320942011E+02  0.00000000000E+00 0.  1.
</event>
<event>
 5    1  0.1099741E-009  0.9118800E+02  0.7818608E-02  0.1130116E+00
         25   -1    0    0    0    0  0.00000000000E+00  0.00000000000E+00  0.99999998245E-14  0.12500000000E+03  0.12500000000E+03 0.  0.
        -11    1    3    3    0    0  0.23723263986E+02  0.37348537970E+02  0.10839366345E+02  0.45554345629E+02  0.51100000000E-03 0. -1.
         23    2    1    0    0    0  0.29953557064E+02 -0.63197700251E+01 -0.77489802754E+01  0.93421498306E+02  0.87922548737E+02 0.  0.
         11    1    3    3    0    0  0.62302930775E+01 -0.43668307995E+02 -0.18588346621E+02  0.47867152677E+02  0.51100000000E-03 0.  1.
         22    1    1    0    0    0 -0.29953557064E+02  0.63197700251E+01  0.77489802754E+01  0.31578501694E+02  0.00000000000E+00 0.  1.
</event>
<event>
 5    1  0.1099741E-009  0.9118800E+02  0.7818608E-02  0.1130116E+00
         25   -1    0    0    0    0  0.00000000000E+00  0.00000000000E+00  0.99999998245E-14  0.12500000000E+03  0.12500000000E+03 0.  0.
        -11    1    3    3    0    0  0.32230625379E+02  0.36959085796E+02 -0.21936476551E+02  0.53721469069E+02  0.51100000000E-03 0. -1.
         23    2    1    0    0    0 -0.30156097416E+01  0.11242028942E+02 -0.24962463724E+02  0.97457274789E+02  0.93484323270E+02 0.  0.
         11    1    3    3    0    0 -0.35246235120E+02 -0.25717056853E+02 -0.30259871737E+01  0.43735805720E+02  0.51100000000E-03 0.  1.
         22    1    1    0    0    0  0.30156097416E+01 -0.11242028942E+02  0.24962463724E+02  0.27542725211E+02  0.00000000000E+00 0. -1.
</event>
<event>
 5    1  0.1099741E-009  0.9118800E+02  0.7818608E-02  0.1130116E+00
         25   -1    0    0    0    0  0.00000000000E+00  0.00000000000E+00  0.99999998245E-14  0.12500000000E+03  0.12500000000E+03 0.  0.
        -11    1    3    3    0    0 -0.90453553327E+01 -0.60840438223E+01  0.31969119746E+02  0.33776599295E+02  0.51100000000E-03 0. -1.
         23    2    1    0    0    0 -0.14941178363E+02  0.42137608182E+01 -0.26960749278E+02  0.93889284921E+02  0.88585107271E+02 0.  0.
         11    1    3    3    0    0 -0.58958230302E+01  0.10297804641E+02 -0.58929869024E+02  0.60112685626E+02  0.51100000000E-03 0.  1.
         22    1    1    0    0    0  0.14941178363E+02 -0.42137608182E+01  0.26960749278E+02  0.31110715079E+02  0.00000000000E+00 0.  1.
</event>
<event>
 5    1  0.1099741E-009  0.9118800E+02  0.7818608E-02  0.1130116E+00
         25   -1    0    0    0    0  0.00000000000E+00  0.00000000000E+00  0.99999998245E-14  0.12500000000E+03  0.12500000000E+03 0.  0.
        -11    1    3    3    0    0 -0.22550662403E-01 -0.27902398713E+02  0.11945887702E+02  0.30352077289E+02  0.51100000000E-03 0.  1.
         23    2    1    0    0    0 -0.17806861091E+02  0.18471335900E+02  0.32060234765E+02  0.83937447656E+02  0.73207662946E+02 0.  0.
         11    1    3    3    0    0 -0.17784310429E+02  0.46373734613E+02  0.20114347063E+02  0.53585370367E+02  0.51100000000E-03 0. -1.
         22    1    1    0    0    0  0.17806861091E+02 -0.18471335900E+02 -0.32060234765E+02  0.41062552344E+02  0.00000000000E+00 0. -1.
</event>
<event>
 5    1  0.1099741E-009  0.9118800E+02  0.7818608E-02  0.1130116E+00
         25   -1    0    0    0    0  0.00000000000E+00  0.00000000000E+00  0.99999998245E-14  0.12500000000E+03  0.12500000000E+03 0.  0.
        -11    1    3    3    0    0  0.21710175733E+02 -0.48642380227E+02 -0.16213443085E+02  0.55680235465E+02  0.51100000000E-03 0.  1.
         23    2    1    0    0    0  0.14692816943E+02 -0.24644457116E+02  0.12456159926E+02  0.93720868677E+02  0.88347140130E+02 0.  0.
         11    1    3    3    0    0 -0.70173587906E+01  0.23997923111E+02  0.28669603011E+02  0.38040633211E+02  0.51100000000E-03 0. -1.
         22    1    1    0    0    0 -0.14692816943E+02  0.24644457116E+02 -0.12456159926E+02  0.31279131323E+02  0.00000000000E+00 0.  1.
</event>
<event>
 5    1  0.1099741E-009  0.9118800E+02  0.7818608E-02  0.1130116E+00
         25   -1    0    0    0    0  0.00000000000E+00  0.00000000000E+00  0.99999998245E-14  0.12500000000E+03  0.12500000000E+03 0.  0.
        -11    1    3    3    0    0 -0.22884282810E+02  0.20254804578E+02  0.28188051196E+02  0.41575398239E+02  0.51100000000E-03 0.  1.
         23    2    1    0    0    0 -0.46044940560E+01  0.44384853534E+02  0.42379162731E+01  0.80176161218E+02  0.66475862571E+02 0.  0.
         11    1    3    3    0    0  0.18279788754E+02  0.24130048957E+02 -0.23950134923E+02  0.38600762980E+02  0.51100000000E-03 0. -1.
         22    1    1    0    0    0  0.46044940560E+01 -0.44384853534E+02 -0.42379162731E+01  0.44823838782E+02  0.00000000000E+00 0.  1.
</event>
<event>
 5    1  0.1099741E-009  0.9118800E+02  0.7818608E-02  0.1130116E+00
         25   -1    0    0    0    0  0.00000000000E+00  0.00000000000E+00  0.99999998245E-14  0.12500000000E+03  0.12500000000E+03 0.  0.
        -11    1    3    3    0    0 -0.29914406219E+02  0.31110374752E+00  0.26444930117E+02  0.39928721670E+02  0.51100000000E-03 0. -1.
         23    2    1    0    0    0 -0.38452585599E+02 -0.14125391112E+02 -0.12366432852E+02  0.82209151974E+02  0.70194643624E+02 0.  0.
         11    1    3    3    0    0 -0.85381793792E+01 -0.14436494860E+02 -0.38811362969E+02  0.42280430305E+02  0.51100000000E-03 0.  1.
         22    1    1    0    0    0  0.38452585599E+02  0.14125391112E+02  0.12366432852E+02  0.42790848026E+02  0.00000000000E+00 0. -1.
</event>
<event>
 5    1  0.1099741E-009  0.9118800E+02  0.7818608E-02  0.1130116E+00
         25   -1    0    0    0    0  0.00000000000E+00  0.00000000000E+00  0.99999998245E-14  0.12500000000E+03  0.12500000000E+03 0.  0.
        -11    1    3    3    0    0  0.11977033532E+02 -0.46778271167E+02 -0.14336604031E+02  0.50370568798E+02  0.51100000000E-03 0.  1.
         23    2    1    0    0    0 -0.16722938305E+02 -0.23281829228E+02  0.98941287271E+01  0.94675191328E+02  0.89687222233E+02 0.  0.
         11    1    3    3    0    0 -0.28699971837E+02  0.23496441940E+02  0.24230732758E+02  0.44304622530E+02  0.51100000000E-03 0. -1.
         22    1    1    0    0    0  0.16722938305E+02  0.23281829228E+02 -0.98941287271E+01  0.30324808672E+02  0.00000000000E+00 0.  1.
</event>
<event>
 5    1  0.1099741E-009  0.9118800E+02  0.7818608E-02  0.1130116E+00
         25   -1    0    0    0    0  0.00000000000E+00  0.00000000000E+00  0.99999998245E-14  0.12500000000E+03  0.12500000000E+03 0.  0.
        -11    1    3    3    0    0 -0.30496150364E+02  0.31800824031E+02 -0.35649959133E+02  0.56676513500E+02  0.51100000000E-03 0. -1.
         23    2    1    0    0    0 -0.19763743972E+02  0.22725449811E+02 -0.12325656808E+00  0.94882449684E+02  0.89975621259E+02 0.  0.
         11    1    3    3    0    0  0.10732406392E+02 -0.90753742205E+01  0.35526702565E+02  0.38205936183E+02  0.51100000000E-03 0.  1.
         22    1    1    0    0    0  0.19763743972E+02 -0.22725449811E+02  0.12325656808E+00  0.30117550316E+02  0.00000000000E+00 0. -1.
</event>
<event>
 5    1  0.1099741E-009  0.9118800E+02  0.7818608E-02  0.1130116E+00
         25   -1    0    0    0    0  0.00000000000E+00  0.00000000000E+00  0.99999998245E-14  0.12500000000E+03  0.12500000000E+03 0.  0.
        -11    1    3    3    0    0 -0.25592308054E+02  0.48758108290E+02 -0.18900470052E+01  0.55098925883E+02  0.51100000000E-03 0.  1.
         23    2    1    0    0    0 -0.26702284422E+02  0.88706289536E+01  0.70543087358E+01  0.95992012771E+02  0.91504115714E+02 0.  0.
         11    1    3    3    0    0 -0.11099763680E+01 -0.39887479336E+02  0.89443557410E+01  0.40893086888E+02  0.51100000000E-03 0. -1.
         22    1    1    0    0    0  0.26702284422E+02 -0.88706289536E+01 -0.70543087358E+01  0.29007987229E+02  0.00000000000E+00 0.  1.
</event>
<event>
 5    1  0.1099741E-009  0.9118800E+02  0.7818608E-02  0.1130116E+00
         25   -1    0    0    0    0  0.00000000000E+00  0.00000000000E+00  0.99999998245E-14  0.12500000000E+03  0.12500000000E+03 0.  0.
        -11    1    3    3    0    0 -0.49678390099E+02 -0.16711497031E+02  0.28446258307E+02  0.59635611741E+02  0.51100000000E-03 0.  1.
         23    2    1    0    0    0 -0.29869099975E+02 -0.14960802898E+01  0.35820494976E+01  0.94879700066E+02  0.89971801229E+02 0.  0.
         11    1    3    3    0    0  0.19809290124E+02  0.15215416741E+02 -0.24864208809E+02  0.35244088324E+02  0.51100000000E-03 0. -1.
         22    1    1    0    0    0  0.29869099975E+02  0.14960802898E+01 -0.35820494976E+01  0.30120299934E+02  0.00000000000E+00 0.  1.
</event>
<event>
 5    1  0.1099741E-009  0.9118800E+02  0.7818608E-02  0.1130116E+00
         25   -1    0    0    0    0  0.00000000000E+00  0.00000000000E+00  0.99999998245E-14  0.12500000000E+03  0.12500000000E+03 0.  0.
        -11    1    3    3    0    0  0.36659565173E+02  0.29599675370E+02  0.15329635115E+02  0.49548584376E+02  0.51100000000E-03 0. -1.
         23    2    1    0    0    0  0.19145185399E+02  0.55171433850E+01 -0.20685263331E+02  0.96279674199E+02  0.91896237952E+02 0.  0.
         11    1    3    3    0    0 -0.17514379774E+02 -0.24082531985E+02 -0.36014898445E+02  0.46731089822E+02  0.51100000000E-03 0.  1.
         22    1    1    0    0    0 -0.19145185399E+02 -0.55171433850E+01  0.20685263331E+02  0.28720325801E+02  0.00000000000E+00 0. -1.
</event>
<event>
 5    1  0.1099741E-009  0.9118800E+02  0.7818608E-02  0.1130116E+00
         25   -1    0    0    0    0  0.00000000000E+00  0.00000000000E+00  0.99999998245E-14  0.12500000000E+03  0.12500000000E+03 0.  0.
        -11    1    3    3    0    0 -0.49330901409E+02  0.17728437132E+02  0.45610424609E+01  0.52617852727E+02  0.51100000000E-03 0.  1.
         23    2    1    0    0    0 -0.15421766250E+02 -0.35294610605E+01  0.23321868830E+02  0.96818489477E+02  0.92626250972E+02 0.  0.
         11    1    3    3    0    0  0.33909135159E+02 -0.21257898192E+02  0.18760826369E+02  0.44200636750E+02  0.51100000000E-03 0. -1.
         22    1    1    0    0    0  0.15421766250E+02  0.35294610605E+01 -0.23321868830E+02  0.28181510523E+02  0.00000000000E+00 0.  1.
</event>
<event>
 5    1  0.1099741E-009  0.9118800E+02  0.7818608E-02  0.1130116E+00
         25   -1    0    0    0    0  0.00000000000E+00  0.00000000000E+00  0.99999998245E-14  0.12500000000E+03  0.12500000000E+03 0.  0.
        -11    1    3    3    0    0 -0.25541466673E+02  0.23084175390E+02 -0.23207380536E+02  0.41519009921E+02  0.51100000000E-03 0.  1.
         23    2    1    0    0    0  0.10084702919E+02 -0.18700214628E+02 -0.18841546662E+02  0.96602761741E+02  0.92334665405E+02 0.  0.
         11    1    3    3    0    0  0.35626169592E+02 -0.41784390018E+02  0.43658338735E+01  0.55083751820E+02  0.51100000000E-03 0. -1.
         22    1    1    0    0    0 -0.10084702919E+02  0.18700214628E+02  0.18841546662E+02  0.28397238259E+02  0.00000000000E+00 0. -1.
</event>
<event>
 5    1  0.1099741E-009  0.9118800E+02  0.7818608E-02  0.1130116E+00
         25   -1    0    0    0    0  0.00000000000E+00  0.00000000000E+00  0.99999998245E-14  0.12500000000E+03  0.12500000000E+03 0.  0.
        -11    1    3    3    0    0  0.75552718189E+01 -0.51606331824E+01 -0.52145817290E+02  0.52942426543E+02  0.51100000000E-03 0.  1.
         23    2    1    0    0    0  0.83282162205E+01  0.21320986867E+02 -0.19955635520E+02  0.94632730525E+02  0.89628023694E+02 0.  0.
         11    1    3    3    0    0  0.77294440160E+00  0.26481620049E+02  0.32190181770E+02  0.41690303982E+02  0.51100000000E-03 0. -1.
         22    1    1    0    0    0 -0.83282162205E+01 -0.21320986867E+02  0.19955635520E+02  0.30367269475E+02  0.00000000000E+00 0.  1.
</event>
<event>
 5    1  0.1099741E-009  0.9118800E+02  0.7818608E-02  0.1130116E+00
         25   -1    0    0    0    0  0.00000000000E+00  0.00000000000E+00  0.99999998245E-14  0.12500000000E+03  0.12500000000E+03 0.  0.
        -11    1    3    3    0    0 -0.35760809065E+02 -0.46769772812E+01 -0.71149801661E+01  0.36760475030E+02  0.51100000000E-03 0. -1.
         23    2    1    0    0    0  0.23172673742E+02  0.12763920386E+02 -0.33112488590E+01  0.98338138832E+02  0.94654818725E+02 0.  0.
         11    1    3    3    0    0  0.58933482806E+02  0.17440897667E+02  0.38037313071E+01  0.61577663801E+02  0.51100000000E-03 0.  1.
         22    1    1    0    0    0 -0.23172673742E+02 -0.12763920386E+02  0.33112488590E+01  0.26661861168E+02  0.00000000000E+00 0.  1.
</event>
<event>
 5    1  0.1099741E-009  0.9118800E+02  0.7818608E-02  0.1130116E+00
         25   -1    0    0    0    0  0.00000000000E+00  0.00000000000E+00  0.99999998245E-14  0.12500000000E+03  0.12500000000E+03 0.  0.
        -11    1    3    3    0    0 -0.28474134943E+02  0.31963786325E+02 -0.40823463786E+02  0.59152474105E+02  0.51100000000E-03 0.  1.
         23    2    1    0    0    0 -0.29726634242E+00  0.21519902832E+02 -0.19002095542E+02  0.96289823753E+02  0.91910042640E+02 0.  0.
         11    1    3    3    0    0  0.28176868601E+02 -0.10443883493E+02  0.21821368244E+02  0.37137349648E+02  0.51100000000E-03 0. -1.
         22    1    1    0    0    0  0.29726634242E+00 -0.21519902832E+02  0.19002095542E+02  0.28710176247E+02  0.00000000000E+00 0.  1.
</event>
<event>
 5    1  0.1099741E-009  0.9118800E+02  0.7818608E-02  0.1130116E+00
         25   -1    0    0    0    0  0.00000000000E+00  0.00000000000E+00  0.99999998245E-14  0.12500000000E+03  0.12500000000E+03 0.  0.
        -11    1    3    3    0    0 -0.23313221431E+02 -0.48416098448E+02 -0.38503233514E+01  0.53874389766E+02  0.51100000000E-03 0. -1.
         23    2    1    0    0    0 -0.39000831689E+01 -0.37591173775E+02  0.16268144095E+02  0.83854410847E+02  0.73065742394E+02 0.  0.
         11    1    3    3    0    0  0.19413138263E+02  0.10824924673E+02  0.20118467446E+02  0.29980021081E+02  0.51100000000E-03 0.  1.
         22    1    1    0    0    0  0.39000831689E+01  0.37591173775E+02 -0.16268144095E+02  0.41145589153E+02  0.00000000000E+00 0. -1.
</event>
<event>
 5    1  0.1099741E-009  0.9118800E+02  0.7818608E-02  0.1130116E+00
         25   -1    0    0    0    0  0.00000000000E+00  0.00000000000E+00  0.99999998245E-14  0.12500000000E+03  0.12500000000E+03 0.  0.
        -11    1    3    3    0    0 -0.24309347098E+02  0.17409572663E+02  0.26470136688E+02  0.39933766579E+02  0.51100000000E-03 0.  1.
         23    2    1    0    0    0  0.87386693843E+01 -0.25170047312E+02  0.53469459858E+01  0.97824911120E+02  0.93974612422E+02 0.  0.
         11    1    3    3    0    0  0.33048016483E+02 -0.42579619974E+02 -0.21123190702E+02  0.57891144541E+02  0.51100000000E-03 0. -1.
         22    1    1    0    0    0 -0.87386693843E+01  0.25170047312E+02 -0.53469459858E+01  0.27175088880E+02  0.00000000000E+00 0. -1.
</event>
<event>
 5    1  0.1099741E-009  0.9118800E+02  0.7818608E-02  0.1130116E+00
         25   -1    0    0    0    0  0.00000000000E+00  0.00000000000E+00  0.99999998245E-14  0.12500000000E+03  0.12500000000E+03 0.  0.
        -11    1    3    3    0    0 -0.24568462360E+02  0.12894060079E+02 -0.12182849940E+02  0.30303266506E+02  0.51100000000E-03 0.  1.
         23    2    1    0    0    0  0.32695054941E+02  0.72230660242E+01 -0.15831589825E+02  0.87962471238E+02  0.79784821924E+02 0.  0.
         11    1    3    3    0    0  0.57263517301E+02 -0.56709940545E+01 -0.36487398849E+01  0.57659204732E+02  0.51100000000E-03 0. -1.
         22    1    1    0    0    0 -0.32695054941E+02 -0.72230660242E+01  0.15831589825E+02  0.37037528762E+02  0.00000000000E+00 0. -1.
</event>
<event>
 5    1  0.1099741E-009  0.9118800E+02  0.7818608E-02  0.1130116E+00
         25   -1    0    0    0    0  0.00000000000E+00  0.00000000000E+00  0.99999998245E-14  0.12500000000E+03  0.12500000000E+03 0.  0.
        -11    1    3    3    0    0 -0.24499157924E+02 -0.53004681487E+02 -0.95123573961E+00  0.58400426781E+02  0.51100000000E-03 0. -1.
         23    2    1    0    0    0 -0.16448323579E+02 -0.21334882661E+02 -0.15221767395E+02  0.94057686426E+02  0.88822416126E+02 0.  0.
         11    1    3    3    0    0  0.80508343443E+01  0.31669798827E+02 -0.14270531655E+02  0.35657259644E+02  0.51100000000E-03 0.  1.
         22    1    1    0    0    0  0.16448323579E+02  0.21334882661E+02  0.15221767395E+02  0.30942313574E+02  0.00000000000E+00 0. -1.
</event>
<event>
 5    1  0.1099741E-009  0.9118800E+02  0.7818608E-02  0.1130116E+00
         25   -1    0    0    0    0  0.00000000000E+00  0.00000000000E+00  0.99999998245E-14  0.12500000000E+03  0.12500000000E+03 0.  0.
        -11    1    3    3    0    0  0.53516585760E+02  0.13477331457E+02  0.62039207428E+00  0.55191016490E+02  0.51100000000E-03 0. -1.
         23    2    1    0    0    0  0.18957519994E+02  0.72952963038E+01  0.20998665232E+02  0.95784373120E+02  0.91220026748E+02 0.  0.
         11    1    3    3    0    0 -0.34559065766E+02 -0.61820351536E+01  0.20378273158E+02  0.40593356630E+02  0.51100000000E-03 0.  1.
         22    1    1    0    0    0 -0.18957519994E+02 -0.72952963038E+01 -0.20998665232E+02  0.29215626880E+02  0.00000000000E+00 0. -1.
</event>
<event>
 5    1  0.1099741E-009  0.9118800E+02  0.7818608E-02  0.1130116E+00
         25   -1    0    0    0    0  0.00000000000E+00  0.00000000000E+00  0.99999998245E-14  0.12500000000E+03  0.12500000000E+03 0.  0.
        -11    1    3    3    0    0  0.21394964142E+02 -0.53808077981E+02  0.51470213817E+01  0.58133859119E+02  0.51100000000E-03 0. -1.
         23    2    1    0    0    0 -0.36277314579E+01 -0.27911395455E+02 -0.67441670352E+01  0.96057121416E+02  0.91593014766E+02 0.  0.
         11    1    3    3    0    0 -0.25022695600E+02  0.25896682527E+02 -0.11891188417E+02  0.37923262297E+02  0.51100000000E-03 0.  1.
         22    1    1    0    0    0  0.36277314579E+01  0.27911395455E+02  0.67441670352E+01  0.28942878584E+02  0.00000000000E+00 0. -1.
</event>
<event>
 5    1  0.1099741E-009  0.9118800E+02  0.7818608E-02  0.1130116E+00
         25   -1    0    0    0    0  0.00000000000E+00  0.00000000000E+00  0.99999998245E-14  0.12500000000E+03  0.12500000000E+03 0.  0.
        -11    1    3    3    0    0 -0.34932501842E+02  0.50313824479E+02  0.11188402641E+02  0.62265086305E+02  0.51100000000E-03 0.  1.
         23    2    1    0    0    0 -0.18846100010E+02  0.23038636614E+02  0.23426767409E+01  0.95142967379E+02  0.90336824411E+02 0.  0.
         11    1    3    3    0    0  0.16086401831E+02 -0.27275187865E+02 -0.88457259002E+01  0.32877881074E+02  0.51100000000E-03 0. -1.
         22    1    1    0    0    0  0.18846100010E+02 -0.23038636614E+02 -0.23426767409E+01  0.29857032621E+02  0.00000000000E+00 0.  1.
</event>
<event>
 5    1  0.1099741E-009  0.9118800E+02  0.7818608E-02  0.1130116E+00
         25   -1    0    0    0    0  0.00000000000E+00  0.00000000000E+00  0.99999998245E-14  0.12500000000E+03  0.12500000000E+03 0.  0.
        -11    1    3    3    0    0  0.40189031924E+01 -0.34876067248E+02  0.37276404612E+02  0.51205683187E+02  0.51100000000E-03 0.  1.
         23    2    1    0    0    0 -0.53929292673E+01  0.82759961412E+01  0.26572619959E+02  0.96650750809E+02  0.92399608778E+02 0.  0.
         11    1    3    3    0    0 -0.94118324597E+01  0.43152063389E+02 -0.10703784654E+02  0.45445067622E+02  0.51100000000E-03 0. -1.
         22    1    1    0    0    0  0.53929292673E+01 -0.82759961412E+01 -0.26572619959E+02  0.28349249191E+02  0.00000000000E+00 0.  1.
</event>
<event>
 5    1  0.1099741E-009  0.9118800E+02  0.7818608E-02  0.1130116E+00
         25   -1    0    0    0    0  0.00000000000E+00  0.00000000000E+00  0.99999998245E-14  0.12500000000E+03  0.12500000000E+03 0.  0.
        -11    1    3    3    0    0  0.10259438913E+01 -0.22849868113E+02 -0.19314310915E+02  0.29936794084E+02  0.51100000000E-03 0.  1.
         23    2    1    0    0    0 -0.20746959659E+02  0.12265728762E+02  0.24826983401E+02  0.90398503761E+02  0.83514225976E+02 0.  0.
         11    1    3    3    0    0 -0.21772903550E+02  0.35115596875E+02  0.44141294316E+02  0.60461709677E+02  0.51100000000E-03 0. -1.
         22    1    1    0    0    0  0.20746959659E+02 -0.12265728762E+02 -0.24826983401E+02  0.34601496239E+02  0.00000000000E+00 0. -1.
</event>
<event>
 5    1  0.1099741E-009  0.9118800E+02  0.7818608E-02  0.1130116E+00
         25   -1    0    0    0    0  0.00000000000E+00  0.00000000000E+00  0.99999998245E-14  0.12500000000E+03  0.12500000000E+03 0.  0.
        -11    1    3    3    0    0  0.47500539259E+02  0.36631773194E+02 -0.11697340009E+02  0.61114775634E+02  0.51100000000E-03 0.  1.
         23    2    1    0    0    0  0.17267857596E+02  0.23926851577E+02 -0.15108697597E+01  0.95454173564E+02  0.90766422156E+02 0.  0.
         11    1    3    3    0    0 -0.30232681663E+02 -0.12704921617E+02  0.10186470249E+02  0.34339397930E+02  0.51100000000E-03 0. -1.
         22    1    1    0    0    0 -0.17267857596E+02 -0.23926851577E+02  0.15108697597E+01  0.29545826436E+02  0.00000000000E+00 0.  1.
</event>
<event>
 5    1  0.1099741E-009  0.9118800E+02  0.7818608E-02  0.1130116E+00
         25   -1    0    0    0    0  0.00000000000E+00  0.00000000000E+00  0.99999998245E-14  0.12500000000E+03  0.12500000000E+03 0.  0.
        -11    1    3    3    0    0  0.21272801760E+02 -0.45839937829E+02 -0.34668853389E+02  0.61284267072E+02  0.51100000000E-03 0. -1.
         23    2    1    0    0    0  0.59777777019E+01 -0.22035869137E+02 -0.63835694454E+01  0.10129212549E+03  0.98478583320E+02 0.  0.
         11    1    3    3    0    0 -0.15295024058E+02  0.23804068693E+02  0.28285283944E+02  0.40007858419E+02  0.51100000000E-03 0.  1.
         22    1    1    0    0    0 -0.59777777019E+01  0.22035869137E+02  0.63835694454E+01  0.23707874509E+02  0.00000000000E+00 0. -1.
</event>
<event>
 5    1  0.1099741E-009  0.9118800E+02  0.7818608E-02  0.1130116E+00
         25   -1    0    0    0    0  0.00000000000E+00  0.00000000000E+00  0.99999998245E-14  0.12500000000E+03  0.12500000000E+03 0.  0.
        -11    1    3    3    0    0 -0.33096451414E+02 -0.61458493128E-01 -0.49976619119E+02  0.59941983052E+02  0.51100000000E-03 0.  1.
         23    2    1    0    0    0 -0.76928628512E+01  0.78964044869E+01 -0.29439581242E+02  0.93563996972E+02  0.88124907053E+02 0.  0.
         11    1    3    3    0    0  0.25403588563E+02  0.79578629800E+01  0.20537037877E+02  0.33622013921E+02  0.51100000000E-03 0. -1.
         22    1    1    0    0    0  0.76928628512E+01 -0.78964044869E+01  0.29439581242E+02  0.31436003028E+02  0.00000000000E+00 0.  1.
</event>
<event>
 5    1  0.1099741E-009  0.9118800E+02  0.7818608E-02  0.1130116E+00
         25   -1    0    0    0    0  0.00000000000E+00  0.00000000000E+00  0.99999998245E-14  0.12500000000E+03  0.12500000000E+03 0.  0.
        -11    1    3    3    0    0  0.26011291094E+02  0.10136415470E+02  0.45991428600E+02  0.53800982221E+02  0.51100000000E-03 0.  1.
         23    2    1    0    0    0  0.27489947537E+02  0.88450678727E+01  0.39905750308E+01  0.95847690824E+02  0.91306750604E+02 0.  0.
         11    1    3    3    0    0  0.14786564425E+01 -0.12913475969E+01 -0.42000853570E+02  0.42046708603E+02  0.51100000000E-03 0. -1.
         22    1    1    0    0    0 -0.27489947537E+02 -0.88450678727E+01 -0.39905750308E+01  0.29152309176E+02  0.00000000000E+00 0.  1.
</event>
<event>
 5    1  0.1099741E-009  0.9118800E+02  0.7818608E-02  0.1130116E+00
         25   -1    0    0    0    0  0.00000000000E+00  0.00000000000E+00  0.99999998245E-14  0.12500000000E+03  0.12500000000E+03 0.  0.
        -11    1    3    3    0    0 -0.96697173006E+01 -0.29328922455E+02  0.20417478764E+02  0.37021109713E+02  0.51100000000E-03 0.  1.
         23    2    1    0    0    0  0.24245381777E+02  0.13394310705E+02 -0.44069484333E+01  0.96952410241E+02  0.92806802338E+02 0.  0.
         11    1    3    3    0    0  0.33915099078E+02  0.42723233159E+02 -0.24824427198E+02  0.59931300528E+02  0.51100000000E-03 0. -1.
         22    1    1    0    0    0 -0.24245381777E+02 -0.13394310705E+02  0.44069484333E+01  0.28047589759E+02  0.00000000000E+00 0. -1.
</event>
<event>
 5    1  0.1099741E-009  0.9118800E+02  0.7818608E-02  0.1130116E+00
         25   -1    0    0    0    0  0.00000000000E+00  0.00000000000E+00  0.99999998245E-14  0.12500000000E+03  0.12500000000E+03 0.  0.
        -11    1    3    3    0    0 -0.27156646503E+02  0.28894679313E+00 -0.19939552821E+02  0.33692027343E+02  0.51100000000E-03 0.  1.
         23    2    1    0    0    0  0.53937701884E+01  0.69034541146E+01  0.30043491486E+02  0.93705242991E+02  0.88325028999E+02 0.  0.
         11    1    3    3    0    0  0.32550416691E+02  0.66145073215E+01  0.49983044307E+02  0.60013215648E+02  0.51100000000E-03 0. -1.
         22    1    1    0    0    0 -0.53937701884E+01 -0.69034541146E+01 -0.30043491486E+02  0.31294757009E+02  0.00000000000E+00 0. -1.
</event>
<event>
 5    1  0.1099741E-009  0.9118800E+02  0.7818608E-02  0.1130116E+00
         25   -1    0    0    0    0  0.00000000000E+00  0.00000000000E+00  0.99999998245E-14  0.12500000000E+03  0.12500000000E+03 0.  0.
        -11    1    3    3    0    0  0.52330757435E+02  0.11933182282E+02  0.69287529969E+01  0.54119466289E+02  0.51100000000E-03 0.  1.
         23    2    1    0    0    0  0.18519628234E+02  0.20695643874E+02 -0.13003165127E+02  0.94334569812E+02  0.89211223806E+02 0.  0.
         11    1    3    3    0    0 -0.33811129200E+02  0.87624615924E+01 -0.19931918124E+02  0.40215103523E+02  0.51100000000E-03 0. -1.
         22    1    1    0    0    0 -0.18519628234E+02 -0.20695643874E+02  0.13003165127E+02  0.30665430188E+02  0.00000000000E+00 0.  1.
</event>
<event>
 5    1  0.1099741E-009  0.9118800E+02  0.7818608E-02  0.1130116E+00
         25   -1    0    0    0    0  0.00000000000E+00  0.00000000000E+00  0.99999998245E-14  0.12500000000E+03  0.12500000000E+03 0.  0.
        -11    1    3    3    0    0  0.55537973230E+01 -0.40271777337E+02  0.46672586558E+01  0.40919970897E+02  0.51100000000E-03 0.  1.
         23    2    1    0    0    0 -0.22901575379E+02  0.39446397046E+01  0.18507049629E+02  0.95292202653E+02  0.90543087330E+02 0.  0.
         11    1    3    3    0    0 -0.28455372702E+02  0.44216417042E+02  0.13839790973E+02  0.54372231756E+02  0.51100000000E-03 0. -1.
         22    1    1    0    0    0  0.22901575379E+02 -0.39446397046E+01 -0.18507049629E+02  0.29707797347E+02  0.00000000000E+00 0. -1.
</event>
<event>
 5    1  0.1099741E-009  0.9118800E+02  0.7818608E-02  0.1130116E+00
         25   -1    0    0    0    0  0.00000000000E+00  0.00000000000E+00  0.99999998245E-14  0.12500000000E+03  0.12500000000E+03 0.  0.
        -11    1    3    3    0    0 -0.79145972977E+01 -0.17775234346E+02  0.15501887312E+02  0.24877868014E+02  0.51100000000E-03 0. -1.
         23    2    1    0    0    0  0.18571538264E+02  0.13274731851E+02 -0.30840984685E+02  0.86629609390E+02  0.77668541557E+02 0.  0.
         11    1    3    3    0    0  0.26486135562E+02  0.31049966197E+02 -0.46342871997E+02  0.61751741376E+02  0.51100000000E-03 0.  1.
         22    1    1    0    0    0 -0.18571538264E+02 -0.13274731851E+02  0.30840984685E+02  0.38370390610E+02  0.00000000000E+00 0.  1.
</event>
<event>
 5    1  0.1099741E-009  0.9118800E+02  0.7818608E-02  0.1130116E+00
         25   -1    0    0    0    0  0.00000000000E+00  0.00000000000E+00  0.99999998245E-14  0.12500000000E+03  0.12500000000E+03 0.  0.
        -11    1    3    3    0    0  0.20180435520E+02  0.21034673737E+02 -0.23715204834E+02  0.37578164106E+02  0.51100000000E-03 0.  1.
         23    2    1    0    0    0 -0.77353354566E+01 -0.24950276776E+02  0.47649785455E+01  0.98447095331E+02  0.94798596154E+02 0.  0.
         11    1    3    3    0    0 -0.27915770977E+02 -0.45984950513E+02  0.28480183380E+02  0.60868931225E+02  0.51100000000E-03 0. -1.
         22    1    1    0    0    0  0.77353354566E+01  0.24950276776E+02 -0.47649785455E+01  0.26552904669E+02  0.00000000000E+00 0. -1.
</event>
<event>
 5    1  0.1099741E-009  0.9118800E+02  0.7818608E-02  0.1130116E+00
         25   -1    0    0    0    0  0.00000000000E+00  0.00000000000E+00  0.99999998245E-14  0.12500000000E+03  0.12500000000E+03 0.  0.
        -11    1    3    3    0    0  0.19575604252E+00  0.24989692529E+02  0.22989169517E+02  0.33956221351E+02  0.51100000000E-03 0.  1.
         23    2    1    0    0    0  0.11365412332E+02 -0.12503855893E+02 -0.24345306892E+02  0.95365341619E+02  0.90644003689E+02 0.  0.
         11    1    3    3    0    0  0.11169656289E+02 -0.37493548422E+02 -0.47334476409E+02  0.61409120268E+02  0.51100000000E-03 0. -1.
         22    1    1    0    0    0 -0.11365412332E+02  0.12503855893E+02  0.24345306892E+02  0.29634658381E+02  0.00000000000E+00 0. -1.
</event>
<event>
 5    1  0.1099741E-009  0.9118800E+02  0.7818608E-02  0.1130116E+00
         25   -1    0    0    0    0  0.00000000000E+00  0.00000000000E+00  0.99999998245E-14  0.12500000000E+03  0.12500000000E+03 0.  0.
        -11    1    3    3    0    0 -0.40957108731E+01  0.63459121395E+01 -0.43738752338E+02  0.44386077826E+02  0.51100000000E-03 0.  1.
         23    2    1    0    0    0  0.27415689332E+02  0.19275810306E+02 -0.19086966933E+02  0.86432018575E+02  0.77349884574E+02 0.  0.
         11    1    3    3    0    0  0.31511400206E+02  0.12929898167E+02  0.24651785405E+02  0.42045940749E+02  0.51100000000E-03 0. -1.
         22    1    1    0    0    0 -0.27415689332E+02 -0.19275810306E+02  0.19086966933E+02  0.38567981425E+02  0.00000000000E+00 0.  1.
</event>
<event>
 5    1  0.1099741E-009  0.9118800E+02  0.7818608E-02  0.1130116E+00
         25   -1    0    0    0    0  0.00000000000E+00  0.00000000000E+00  0.99999998245E-14  0.12500000000E+03  0.12500000000E+03 0.  0.
        -11    1    3    3    0    0 -0.46381648437E+02  0.17303982375E+01 -0.32516241114E+02  0.56670605487E+02  0.51100000000E-03 0.  1.
         23    2    1    0    0    0 -0.23908672631E+02  0.14678840835E+02 -0.17789604220E+01  0.96888477533E+02  0.92720652409E+02 0.  0.
         11    1    3    3    0    0  0.22472975806E+02  0.12948442598E+02  0.30737280692E+02  0.40217872046E+02  0.51100000000E-03 0. -1.
         22    1    1    0    0    0  0.23908672631E+02 -0.14678840835E+02  0.17789604220E+01  0.28111522467E+02  0.00000000000E+00 0.  1.
</event>
<event>
 5    1  0.1099741E-009  0.9118800E+02  0.7818608E-02  0.1130116E+00
         25   -1    0    0    0    0  0.00000000000E+00  0.00000000000E+00  0.99999998245E-14  0.12500000000E+03  0.12500000000E+03 0.  0.
        -11    1    3    3    0    0 -0.48942873179E+01 -0.21761675959E+02 -0.52137400782E+02  0.56708316404E+02  0.51100000000E-03 0.  1.
         23    2    1    0    0    0 -0.30209557633E+01  0.84895368091E+01 -0.28394752818E+02  0.95209726478E+02  0.90429152487E+02 0.  0.
         11    1    3    3    0    0  0.18733315546E+01  0.30251212768E+02  0.23742647964E+02  0.38501410074E+02  0.51100000000E-03 0. -1.
         22    1    1    0    0    0  0.30209557633E+01 -0.84895368091E+01  0.28394752818E+02  0.29790273522E+02  0.00000000000E+00 0.  1.
</event>
<event>
 5    1  0.1099741E-009  0.9118800E+02  0.7818608E-02  0.1130116E+00
         25   -1    0    0    0    0  0.00000000000E+00  0.00000000000E+00  0.99999998245E-14  0.12500000000E+03  0.12500000000E+03 0.  0.
        -11    1    3    3    0    0 -0.22761723819E+02  0.31087475955E+02 -0.10308954167E+02  0.39884856384E+02  0.51100000000E-03 0.  1.
         23    2    1    0    0    0 -0.80965892821E+01 -0.93684495618E+01  0.26008815896E+02  0.96194078568E+02  0.91779734376E+02 0.  0.
         11    1    3    3    0    0  0.14665134537E+02 -0.40455925517E+02  0.36317770063E+02  0.56309222185E+02  0.51100000000E-03 0. -1.
         22    1    1    0    0    0  0.80965892821E+01  0.93684495618E+01 -0.26008815896E+02  0.28805921432E+02  0.00000000000E+00 0. -1.
</event>
<event>
 5    1  0.1099741E-009  0.9118800E+02  0.7818608E-02  0.1130116E+00
         25   -1    0    0    0    0  0.00000000000E+00  0.00000000000E+00  0.99999998245E-14  0.12500000000E+03  0.12500000000E+03 0.  0.
        -11    1    3    3    0    0  0.12897480295E+02  0.18225954470E+02 -0.29058825049E+02  0.36646223923E+02  0.51100000000E-03 0.  1.
         23    2    1    0    0    0  0.14780974379E+02 -0.62580518404E+01  0.24582500767E+02  0.95641189391E+02  0.91023608738E+02 0.  0.
         11    1    3    3    0    0  0.18834940837E+01 -0.24484006310E+02  0.53641325816E+02  0.58994965468E+02  0.51100000000E-03 0. -1.
         22    1    1    0    0    0 -0.14780974379E+02  0.62580518404E+01 -0.24582500767E+02  0.29358810609E+02  0.00000000000E+00 0. -1.
</event>
<event>
 5    1  0.1099741E-009  0.9118800E+02  0.7818608E-02  0.1130116E+00
         25   -1    0    0    0    0  0.00000000000E+00  0.00000000000E+00  0.99999998245E-14  0.12500000000E+03  0.12500000000E+03 0.  0.
        -11    1    3    3    0    0  0.13904977112E+02  0.17747150573E+02  0.33483720065E+02  0.40366684922E+02  0.51100000000E-03 0.  1.
         23    2    1    0    0    0 -0.21424411937E+02  0.31635693159E+02  0.83608485439E+01  0.85888284404E+02  0.76466143495E+02 0.  0.
         11    1    3    3    0    0 -0.35329389049E+02  0.13888542587E+02 -0.25122871521E+02  0.45521599482E+02  0.51100000000E-03 0. -1.
         22    1    1    0    0    0  0.21424411937E+02 -0.31635693159E+02 -0.83608485439E+01  0.39111715596E+02  0.00000000000E+00 0. -1.
</event>
<event>
 5    1  0.1099741E-009  0.9118800E+02  0.7818608E-02  0.1130116E+00
         25   -1    0    0    0    0  0.00000000000E+00  0.00000000000E+00  0.99999998245E-14  0.12500000000E+03  0.12500000000E+03 0.  0.
        -11    1    3    3    0    0 -0.41714744283E+02 -0.22487912066E+02 -0.17215430641E+02  0.50420205593E+02  0.51100000000E-03 0. -1.
         23    2    1    0    0    0  0.64410174149E+01 -0.21436588491E+02 -0.13791420427E+02  0.98708988060E+02  0.95143297268E+02 0.  0.
         11    1    3    3    0    0  0.48155761698E+02  0.10513235752E+01  0.34240102140E+01  0.48288782467E+02  0.51100000000E-03 0.  1.
         22    1    1    0    0    0 -0.64410174149E+01  0.21436588491E+02  0.13791420427E+02  0.26291011940E+02  0.00000000000E+00 0.  1.
</event>
<event>
 5    1  0.1099741E-009  0.9118800E+02  0.7818608E-02  0.1130116E+00
         25   -1    0    0    0    0  0.00000000000E+00  0.00000000000E+00  0.99999998245E-14  0.12500000000E+03  0.12500000000E+03 0.  0.
        -11    1    3    3    0    0 -0.88668370661E+01  0.15930992655E+02  0.28979188923E+02  0.34237562959E+02  0.51100000000E-03 0.  1.
         23    2    1    0    0    0 -0.50880200689E+01 -0.24555654029E+02 -0.16296608018E+02  0.95092684408E+02  0.90267220529E+02 0.  0.
         11    1    3    3    0    0  0.37788169973E+01 -0.40486646685E+02 -0.45275796940E+02  0.60855121448E+02  0.51100000000E-03 0. -1.
         22    1    1    0    0    0  0.50880200689E+01  0.24555654029E+02  0.16296608018E+02  0.29907315592E+02  0.00000000000E+00 0. -1.
</event>
<event>
 5    1  0.1099741E-009  0.9118800E+02  0.7818608E-02  0.1130116E+00
         25   -1    0    0    0    0  0.00000000000E+00  0.00000000000E+00  0.99999998245E-14  0.12500000000E+03  0.12500000000E+03 0.  0.
        -11    1    3    3    0    0  0.36805110685E+02  0.16847330303E+02 -0.22392665756E+02  0.46258839055E+02  0.51100000000E-03 0. -1.
         23    2    1    0    0    0 -0.10217300106E+02  0.25580072636E+02 -0.10316545119E+02  0.95586322217E+02  0.90948230078E+02 0.  0.
         11    1    3    3    0    0 -0.47022410790E+02  0.87327423329E+01  0.12076120637E+02  0.49327483162E+02  0.51100000000E-03 0.  1.
         22    1    1    0    0    0  0.10217300106E+02 -0.25580072636E+02  0.10316545119E+02  0.29413677783E+02  0.00000000000E+00 0.  1.
</event>
<event>
 5    1  0.1099741E-009  0.9118800E+02  0.7818608E-02  0.1130116E+00
         25   -1    0    0    0    0  0.00000000000E+00  0.00000000000E+00  0.99999998245E-14  0.12500000000E+03  0.12500000000E+03 0.  0.
        -11    1    3    3    0    0 -0.30248741867E+02  0.25418133526E+02  0.62051264564E+01  0.39994643280E+02  0.51100000000E-03 0. -1.
         23    2    1    0    0    0  0.51632054050E+01 -0.82894542239E+01  0.29336715594E+02  0.94080481517E+02  0.88854489921E+02 0.  0.
         11    1    3    3    0    0  0.35411947272E+02 -0.33707587749E+02  0.23131589138E+02  0.54085838237E+02  0.51100000000E-03 0.  1.
         22    1    1    0    0    0 -0.51632054050E+01  0.82894542239E+01 -0.29336715594E+02  0.30919518483E+02  0.00000000000E+00 0.  1.
</event>
<event>
 5    1  0.1099741E-009  0.9118800E+02  0.7818608E-02  0.1130116E+00
         25   -1    0    0    0    0  0.00000000000E+00  0.00000000000E+00  0.99999998245E-14  0.12500000000E+03  0.12500000000E+03 0.  0.
        -11    1    3    3    0    0 -0.22508071943E+02  0.24406158014E+02  0.17825380735E+02  0.37683126863E+02  0.51100000000E-03 0. -1.
         23    2    1    0    0    0  0.13646846380E+02  0.73975285339E+01 -0.24568365070E+02  0.95938609690E+02  0.91431134864E+02 0.  0.
         11    1    3    3    0    0  0.36154918323E+02 -0.17008629480E+02 -0.42393745805E+02  0.58255482827E+02  0.51100000000E-03 0.  1.
         22    1    1    0    0    0 -0.13646846380E+02 -0.73975285339E+01  0.24568365070E+02  0.29061390310E+02  0.00000000000E+00 0.  1.
</event>
<event>
 5    1  0.1099741E-009  0.9118800E+02  0.7818608E-02  0.1130116E+00
         25   -1    0    0    0    0  0.00000000000E+00  0.00000000000E+00  0.99999998245E-14  0.12500000000E+03  0.12500000000E+03 0.  0.
        -11    1    3    3    0    0 -0.21870844302E+02  0.31522504834E+02  0.24173635329E+02  0.45347180582E+02  0.51100000000E-03 0. -1.
         23    2    1    0    0    0  0.15836374575E+01 -0.12365080636E+02  0.27074506108E+02  0.95193423415E+02  0.90406613993E+02 0.  0.
         11    1    3    3    0    0  0.23454481759E+02 -0.43887585470E+02  0.29008707787E+01  0.49846242833E+02  0.51100000000E-03 0.  1.
         22    1    1    0    0    0 -0.15836374575E+01  0.12365080636E+02 -0.27074506108E+02  0.29806576585E+02  0.00000000000E+00 0. -1.
</event>
<event>
 5    1  0.1099741E-009  0.9118800E+02  0.7818608E-02  0.1130116E+00
         25   -1    0    0    0    0  0.00000000000E+00  0.00000000000E+00  0.99999998245E-14  0.12500000000E+03  0.12500000000E+03 0.  0.
        -11    1    3    3    0    0 -0.42419605317E+02  0.29215409753E+01 -0.82006047841E+01  0.43303674625E+02  0.51100000000E-03 0.  1.
         23    2    1    0    0    0  0.72570718468E+00 -0.20586412738E+02  0.16787385512E+02  0.98426642052E+02  0.94771622931E+02 0.  0.
         11    1    3    3    0    0  0.43145312502E+02 -0.23507953713E+02  0.24987990296E+02  0.55122967427E+02  0.51100000000E-03 0. -1.
         22    1    1    0    0    0 -0.72570718468E+00  0.20586412738E+02 -0.16787385512E+02  0.26573357948E+02  0.00000000000E+00 0. -1.
</event>
<event>
 5    1  0.1099741E-009  0.9118800E+02  0.7818608E-02  0.1130116E+00
         25   -1    0    0    0    0  0.00000000000E+00  0.00000000000E+00  0.99999998245E-14  0.12500000000E+03  0.12500000000E+03 0.  0.
        -11    1    3    3    0    0 -0.20561513815E+02  0.39721940681E+02  0.16388087140E+02  0.47635887965E+02  0.51100000000E-03 0. -1.
         23    2    1    0    0    0 -0.11846616836E+02  0.16075764673E+02 -0.23090463779E+02  0.94472273949E+02  0.89403962369E+02 0.  0.
         11    1    3    3    0    0  0.87148969786E+01 -0.23646176008E+02 -0.39478550919E+02  0.46836385985E+02  0.51100000000E-03 0.  1.
         22    1    1    0    0    0  0.11846616836E+02 -0.16075764673E+02  0.23090463779E+02  0.30527726051E+02  0.00000000000E+00 0.  1.
</event>
<event>
 5    1  0.1099741E-009  0.9118800E+02  0.7818608E-02  0.1130116E+00
         25   -1    0    0    0    0  0.00000000000E+00  0.00000000000E+00  0.99999998245E-14  0.12500000000E+03  0.12500000000E+03 0.  0.
        -11    1    3    3    0    0  0.25519412629E+02 -0.16170080412E+02 -0.25475745768E+02  0.39518673360E+02  0.51100000000E-03 0. -1.
         23    2    1    0    0    0  0.86057293322E+01  0.32832896451E+01  0.26178743123E+02  0.97248150337E+02  0.93204278787E+02 0.  0.
         11    1    3    3    0    0 -0.16913683296E+02  0.19453370057E+02  0.51654488891E+02  0.57729476977E+02  0.51100000000E-03 0.  1.
         22    1    1    0    0    0 -0.86057293322E+01 -0.32832896451E+01 -0.26178743123E+02  0.27751849663E+02  0.00000000000E+00 0.  1.
</event>
<event>
 5    1  0.1099741E-009  0.9118800E+02  0.7818608E-02  0.1130116E+00
         25   -1    0    0    0    0  0.00000000000E+00  0.00000000000E+00  0.99999998245E-14  0.12500000000E+03  0.12500000000E+03 0.  0.
        -11    1    3    3    0    0  0.33092840456E+01 -0.55083970700E+01  0.33766392355E+02  0.34372417024E+02  0.51100000000E-03 0. -1.
         23    2    1    0    0    0 -0.32431180213E+01  0.94023545021E+01 -0.26444368887E+02  0.96747093415E+02  0.92529851150E+02 0.  0.
         11    1    3    3    0    0 -0.65524020669E+01  0.14910751572E+02 -0.60210761242E+02  0.62374676391E+02  0.51100000000E-03 0.  1.
         22    1    1    0    0    0  0.32431180213E+01 -0.94023545021E+01  0.26444368887E+02  0.28252906585E+02  0.00000000000E+00 0.  1.
</event>
<event>
 5    1  0.1099741E-009  0.9118800E+02  0.7818608E-02  0.1130116E+00
         25   -1    0    0    0    0  0.00000000000E+00  0.00000000000E+00  0.99999998245E-14  0.12500000000E+03  0.12500000000E+03 0.  0.
        -11    1    3    3    0    0 -0.48686672781E+02 -0.28346609501E+02  0.14170240388E+02  0.58092323844E+02  0.51100000000E-03 0. -1.
         23    2    1    0    0    0 -0.30790307652E+02 -0.44188088321E+01 -0.48585246945E+01  0.93517081155E+02  0.88058334579E+02 0.  0.
         11    1    3    3    0    0  0.17896365130E+02  0.23927800669E+02 -0.19028765083E+02  0.35424757311E+02  0.51100000000E-03 0.  1.
         22    1    1    0    0    0  0.30790307652E+02  0.44188088321E+01  0.48585246945E+01  0.31482918845E+02  0.00000000000E+00 0. -1.
</event>
<event>
 5    1  0.1099741E-009  0.9118800E+02  0.7818608E-02  0.1130116E+00
         25   -1    0    0    0    0  0.00000000000E+00  0.00000000000E+00  0.99999998245E-14  0.12500000000E+03  0.12500000000E+03 0.  0.
        -11    1    3    3    0    0  0.85523055000E+01  0.36094270266E+02 -0.13233875814E+02  0.39383673581E+02  0.51100000000E-03 0. -1.
         23    2    1    0    0    0 -0.21603746813E+02  0.22504949590E+01  0.19907539378E+02  0.95536518739E+02  0.90879753988E+02 0.  0.
         11    1    3    3    0    0 -0.30156052313E+02 -0.33843775307E+02  0.33141415192E+02  0.56152845158E+02  0.51100000000E-03 0.  1.
         22    1    1    0    0    0  0.21603746813E+02 -0.22504949590E+01 -0.19907539378E+02  0.29463481261E+02  0.00000000000E+00 0.  1.
</event>
<event>
 5    1  0.1099741E-009  0.9118800E+02  0.7818608E-02  0.1130116E+00
         25   -1    0    0    0    0  0.00000000000E+00  0.00000000000E+00  0.99999998245E-14  0.12500000000E+03  0.12500000000E+03 0.  0.
        -11    1    3    3    0    0  0.25856378680E+02  0.35869816414E+02  0.43403828042E+02  0.61960377153E+02  0.51100000000E-03 0.  1.
         23    2    1    0    0    0  0.10326645890E+02  0.22004169691E+02  0.18295640484E+02  0.94577088242E+02  0.89550388388E+02 0.  0.
         11    1    3    3    0    0 -0.15529732790E+02 -0.13865646723E+02 -0.25108187558E+02  0.32616711089E+02  0.51100000000E-03 0. -1.
         22    1    1    0    0    0 -0.10326645890E+02 -0.22004169691E+02 -0.18295640484E+02  0.30422911758E+02  0.00000000000E+00 0.  1.
</event>
<event>
 5    1  0.1099741E-009  0.9118800E+02  0.7818608E-02  0.1130116E+00
         25   -1    0    0    0    0  0.00000000000E+00  0.00000000000E+00  0.99999998245E-14  0.12500000000E+03  0.12500000000E+03 0.  0.
        -11    1    3    3    0    0  0.46436276550E+02  0.26911119025E+02 -0.16005289852E+02  0.56006297954E+02  0.51100000000E-03 0.  1.
         23    2    1    0    0    0  0.13432881125E+02  0.88179520990E+01 -0.25533467431E+02  0.94831199335E+02  0.89904392739E+02 0.  0.
         11    1    3    3    0    0 -0.33003395425E+02 -0.18093166926E+02 -0.95281775783E+01  0.38824901381E+02  0.51100000000E-03 0. -1.
         22    1    1    0    0    0 -0.13432881125E+02 -0.88179520990E+01  0.25533467431E+02  0.30168800665E+02  0.00000000000E+00 0.  1.
</event>
<event>
 5    1  0.1099741E-009  0.9118800E+02  0.7818608E-02  0.1130116E+00
         25   -1    0    0    0    0  0.00000000000E+00  0.00000000000E+00  0.99999998245E-14  0.12500000000E+03  0.12500000000E+03 0.  0.
        -11    1    3    3    0    0  0.30186608162E+02 -0.94431876282E+01  0.16101011352E+02  0.35491515489E+02  0.51100000000E-03 0. -1.
         23    2    1    0    0    0 -0.10892549864E+02  0.19584826269E+02 -0.17995358496E+02  0.96258984188E+02  0.91868090472E+02 0.  0.
         11    1    3    3    0    0 -0.41079158026E+02  0.29028013897E+02 -0.34096369848E+02  0.60767468698E+02  0.51100000000E-03 0.  1.
         22    1    1    0    0    0  0.10892549864E+02 -0.19584826269E+02  0.17995358496E+02  0.28741015812E+02  0.00000000000E+00 0.  1.
</event>
<event>
 5    1  0.1099741E-009  0.9118800E+02  0.7818608E-02  0.1130116E+00
         25   -1    0    0    0    0  0.00000000000E+00  0.00000000000E+00  0.99999998245E-14  0.12500000000E+03  0.12500000000E+03 0.  0.
        -11    1    3    3    0    0 -0.23044762780E+02  0.26820510197E+02 -0.17202783409E+02  0.39323486825E+02  0.51100000000E-03 0.  1.
         23    2    1    0    0    0  0.15136474085E+02 -0.14588740095E+02 -0.20356382659E+02  0.95736943081E+02  0.91155009573E+02 0.  0.
         11    1    3    3    0    0  0.38181236865E+02 -0.41409250291E+02 -0.31535992499E+01  0.56413456256E+02  0.51100000000E-03 0. -1.
         22    1    1    0    0    0 -0.15136474085E+02  0.14588740095E+02  0.20356382659E+02  0.29263056919E+02  0.00000000000E+00 0.  1.
</event>
<event>
 5    1  0.1099741E-009  0.9118800E+02  0.7818608E-02  0.1130116E+00
         25   -1    0    0    0    0  0.00000000000E+00  0.00000000000E+00  0.99999998245E-14  0.12500000000E+03  0.12500000000E+03 0.  0.
        -11    1    3    3    0    0 -0.19823431124E+02  0.57827351178E+02  0.12447994271E+01  0.61143441935E+02  0.51100000000E-03 0. -1.
         23    2    1    0    0    0 -0.10889366463E+02  0.26062684632E+02  0.95737657520E+01  0.95175533150E+02  0.90381874773E+02 0.  0.
         11    1    3    3    0    0  0.89340646609E+01 -0.31764666546E+02  0.83289663248E+01  0.34032091215E+02  0.51100000000E-03 0.  1.
         22    1    1    0    0    0  0.10889366463E+02 -0.26062684632E+02 -0.95737657520E+01  0.29824466850E+02  0.00000000000E+00 0. -1.
</event>
<event>
 5    1  0.1099741E-009  0.9118800E+02  0.7818608E-02  0.1130116E+00
         25   -1    0    0    0    0  0.00000000000E+00  0.00000000000E+00  0.99999998245E-14  0.12500000000E+03  0.12500000000E+03 0.  0.
        -11    1    3    3    0    0 -0.65819372126E+01  0.38238334007E+02  0.40326948187E+02  0.55962083910E+02  0.51100000000E-03 0. -1.
         23    2    1    0    0    0 -0.21901017492E+02  0.14038887660E+02  0.11635211397E+02  0.96502226786E+02  0.92198463634E+02 0.  0.
         11    1    3    3    0    0 -0.15319080279E+02 -0.24199446347E+02 -0.28691736791E+02  0.40540142876E+02  0.51100000000E-03 0.  1.
         22    1    1    0    0    0  0.21901017492E+02 -0.14038887660E+02 -0.11635211397E+02  0.28497773214E+02  0.00000000000E+00 0. -1.
</event>
<event>
 5    1  0.1099741E-009  0.9118800E+02  0.7818608E-02  0.1130116E+00
         25   -1    0    0    0    0  0.00000000000E+00  0.00000000000E+00  0.99999998245E-14  0.12500000000E+03  0.12500000000E+03 0.  0.
        -11    1    3    3    0    0  0.67657280605E+01  0.38493934325E+02  0.11308381151E+02  0.40687068468E+02  0.51100000000E-03 0.  1.
         23    2    1    0    0    0  0.23737541187E+02 -0.13998946551E+02  0.93811402661E+01  0.95889054312E+02  0.91363360151E+02 0.  0.
         11    1    3    3    0    0  0.16971813127E+02 -0.52492880876E+02 -0.19272408847E+01  0.55201985844E+02  0.51100000000E-03 0. -1.
         22    1    1    0    0    0 -0.23737541187E+02  0.13998946551E+02 -0.93811402661E+01  0.29110945688E+02  0.00000000000E+00 0. -1.
</event>
<event>
 5    1  0.1099741E-009  0.9118800E+02  0.7818608E-02  0.1130116E+00
         25   -1    0    0    0    0  0.00000000000E+00  0.00000000000E+00  0.99999998245E-14  0.12500000000E+03  0.12500000000E+03 0.  0.
        -11    1    3    3    0    0  0.86347423098E+01 -0.85903878494E-01 -0.53108581760E+02  0.53806018354E+02  0.51100000000E-03 0. -1.
         23    2    1    0    0    0 -0.15936882952E+02 -0.12091640889E+02 -0.20662005600E+02  0.96240471266E+02  0.91842897474E+02 0.  0.
         11    1    3    3    0    0 -0.24571625262E+02 -0.12005737010E+02  0.32446576160E+02  0.42434452912E+02  0.51100000000E-03 0.  1.
         22    1    1    0    0    0  0.15936882952E+02  0.12091640889E+02  0.20662005600E+02  0.28759528734E+02  0.00000000000E+00 0. -1.
</event>
<event>
 5    1  0.1099741E-009  0.9118800E+02  0.7818608E-02  0.1130116E+00
         25   -1    0    0    0    0  0.00000000000E+00  0.00000000000E+00  0.99999998245E-14  0.12500000000E+03  0.12500000000E+03 0.  0.
        -11    1    3    3    0    0  0.34128377951E+02  0.77830075916E+01 -0.19851724737E+02  0.40241922967E+02  0.51100000000E-03 0.  1.
         23    2    1    0    0    0 -0.20465534911E+02  0.16860248446E+02 -0.11017819287E+02  0.96285919157E+02  0.91904732137E+02 0.  0.
         11    1    3    3    0    0 -0.54593912862E+02  0.90772408543E+01  0.88339054505E+01  0.56043996190E+02  0.51100000000E-03 0. -1.
         22    1    1    0    0    0  0.20465534911E+02 -0.16860248446E+02  0.11017819287E+02  0.28714080843E+02  0.00000000000E+00 0. -1.
</event>
<event>
 5    1  0.1099741E-009  0.9118800E+02  0.7818608E-02  0.1130116E+00
         25   -1    0    0    0    0  0.00000000000E+00  0.00000000000E+00  0.99999998245E-14  0.12500000000E+03  0.12500000000E+03 0.  0.
        -11    1    3    3    0    0  0.26856685511E+02 -0.17846685113E+02 -0.43396125000E+02  0.54064862817E+02  0.51100000000E-03 0.  1.
         23    2    1    0    0    0 -0.81097260972E+01 -0.30236199908E+00 -0.27560767901E+02  0.96269267196E+02  0.91882080946E+02 0.  0.
         11    1    3    3    0    0 -0.34966411608E+02  0.17544323114E+02  0.15835357098E+02  0.42204404379E+02  0.51100000000E-03 0. -1.
         22    1    1    0    0    0  0.81097260972E+01  0.30236199908E+00  0.27560767901E+02  0.28730732804E+02  0.00000000000E+00 0.  1.
</event>
<event>
 5    1  0.1099741E-009  0.9118800E+02  0.7818608E-02  0.1130116E+00
         25   -1    0    0    0    0  0.00000000000E+00  0.00000000000E+00  0.99999998245E-14  0.12500000000E+03  0.12500000000E+03 0.  0.
        -11    1    3    3    0    0  0.17935834421E+02  0.22132728672E+02 -0.32827199100E+02  0.43464661921E+02  0.51100000000E-03 0. -1.
         23    2    1    0    0    0 -0.18239494130E+02  0.22394045054E+02  0.48678466259E+01  0.95710610611E+02  0.91118892952E+02 0.  0.
         11    1    3    3    0    0 -0.36175328551E+02  0.26131638149E+00  0.37695045726E+02  0.52245948691E+02  0.51100000000E-03 0.  1.
         22    1    1    0    0    0  0.18239494130E+02 -0.22394045054E+02 -0.48678466259E+01  0.29289389389E+02  0.00000000000E+00 0.  1.
</event>
<event>
 5    1  0.1099741E-009  0.9118800E+02  0.7818608E-02  0.1130116E+00
         25   -1    0    0    0    0  0.00000000000E+00  0.00000000000E+00  0.99999998245E-14  0.12500000000E+03  0.12500000000E+03 0.  0.
        -11    1    3    3    0    0 -0.17110620621E+02 -0.36685374598E+02 -0.10794590364E+02  0.41894071523E+02  0.51100000000E-03 0.  1.
         23    2    1    0    0    0  0.26428077813E+02 -0.54090871913E+01  0.45228414016E+01  0.97647529994E+02  0.93738372604E+02 0.  0.
         11    1    3    3    0    0  0.43538698433E+02  0.31276287407E+02  0.15317431765E+02  0.55753458470E+02  0.51100000000E-03 0. -1.
         22    1    1    0    0    0 -0.26428077813E+02  0.54090871913E+01 -0.45228414016E+01  0.27352470006E+02  0.00000000000E+00 0. -1.
</event>
<event>
 5    1  0.1099741E-009  0.9118800E+02  0.7818608E-02  0.1130116E+00
         25   -1    0    0    0    0  0.00000000000E+00  0.00000000000E+00  0.99999998245E-14  0.12500000000E+03  0.12500000000E+03 0.  0.
        -11    1    3    3    0    0 -0.16759844156E+02  0.47960870604E+02  0.29363114821E+02  0.58679894320E+02  0.51100000000E-03 0. -1.
         23    2    1    0    0    0 -0.44773013943E+01  0.29121245768E+02  0.16398402238E+00  0.95536122563E+02  0.90879209068E+02 0.  0.
         11    1    3    3    0    0  0.12282542761E+02 -0.18839624836E+02 -0.29199130799E+02  0.36856228243E+02  0.51100000000E-03 0.  1.
         22    1    1    0    0    0  0.44773013943E+01 -0.29121245768E+02 -0.16398402238E+00  0.29463877437E+02  0.00000000000E+00 0. -1.
</event>
<event>
 5    1  0.1099741E-009  0.9118800E+02  0.7818608E-02  0.1130116E+00
         25   -1    0    0    0    0  0.00000000000E+00  0.00000000000E+00  0.99999998245E-14  0.12500000000E+03  0.12500000000E+03 0.  0.
        -11    1    3    3    0    0 -0.63745931492E+00  0.48491024702E+02  0.26152125933E+01  0.48565678912E+02  0.51100000000E-03 0. -1.
         23    2    1    0    0    0 -0.21403657023E+02  0.93516365138E+01 -0.16066538528E+02  0.96650338631E+02  0.92399051174E+02 0.  0.
         11    1    3    3    0    0 -0.20766197708E+02 -0.39139388188E+02 -0.18681751122E+02  0.48084659719E+02  0.51100000000E-03 0.  1.
         22    1    1    0    0    0  0.21403657023E+02 -0.93516365138E+01  0.16066538528E+02  0.28349661369E+02  0.00000000000E+00 0.  1.
</event>
<event>
 5    1  0.1099741E-009  0.9118800E+02  0.7818608E-02  0.1130116E+00
         25   -1    0    0    0    0  0.00000000000E+00  0.00000000000E+00  0.99999998245E-14  0.12500000000E+03  0.12500000000E+03 0.  0.
        -11    1    3    3    0    0 -0.35065026413E+02 -0.18518769652E+02 -0.22988208424E+02  0.45836215306E+02  0.51100000000E-03 0.  1.
         23    2    1    0    0    0  0.13024658146E+02 -0.23985705141E+02 -0.97971576700E+01  0.96001033305E+02  0.91516437465E+02 0.  0.
         11    1    3    3    0    0  0.48089684559E+02 -0.54669354898E+01  0.13191050755E+02  0.50164817999E+02  0.51100000000E-03 0. -1.
         22    1    1    0    0    0 -0.13024658146E+02  0.23985705141E+02  0.97971576700E+01  0.28998966695E+02  0.00000000000E+00 0. -1.
</event>
<event>
 5    1  0.1099741E-009  0.9118800E+02  0.7818608E-02  0.1130116E+00
         25   -1    0    0    0    0  0.00000000000E+00  0.00000000000E+00  0.99999998245E-14  0.12500000000E+03  0.12500000000E+03 0.  0.
        -11    1    3    3    0    0  0.17575938749E+02  0.37877181421E+02  0.11541841658E+02  0.43322149120E+02  0.51100000000E-03 0. -1.
         23    2    1    0    0    0  0.63386298527E+01  0.51974751756E+01 -0.27992946476E+02  0.95831574794E+02  0.91284684907E+02 0.  0.
         11    1    3    3    0    0 -0.11237308896E+02 -0.32679706245E+02 -0.39534788134E+02  0.52509425673E+02  0.51100000000E-03 0.  1.
         22    1    1    0    0    0 -0.63386298527E+01 -0.51974751756E+01  0.27992946476E+02  0.29168425206E+02  0.00000000000E+00 0.  1.
</event>
<event>
 5    1  0.1099741E-009  0.9118800E+02  0.7818608E-02  0.1130116E+00
         25   -1    0    0    0    0  0.00000000000E+00  0.00000000000E+00  0.99999998245E-14  0.12500000000E+03  0.12500000000E+03 0.  0.
        -11    1    3    3    0    0 -0.22779269216E+02  0.26046174921E+02 -0.51418683694E+02  0.61977248786E+02  0.51100000000E-03 0.  1.
         23    2    1    0    0    0 -0.15323335141E+02  0.11257853173E+02 -0.20586544380E+02  0.96975909160E+02  0.92838447261E+02 0.  0.
         11    1    3    3    0    0  0.74559340754E+01 -0.14788321748E+02  0.30832139313E+02  0.34998660374E+02  0.51100000000E-03 0. -1.
         22    1    1    0    0    0  0.15323335141E+02 -0.11257853173E+02  0.20586544380E+02  0.28024090840E+02  0.00000000000E+00 0.  1.
</event>
<event>
 5    1  0.1099741E-009  0.9118800E+02  0.7818608E-02  0.1130116E+00
         25   -1    0    0    0    0  0.00000000000E+00  0.00000000000E+00  0.99999998245E-14  0.12500000000E+03  0.12500000000E+03 0.  0.
        -11    1    3    3    0    0  0.62749269049E+01  0.19763969881E+01 -0.51403605892E+02  0.51822886370E+02  0.51100000000E-03 0. -1.
         23    2    1    0    0    0 -0.20934069349E+02 -0.77134085585E+01 -0.15834346236E+02  0.97642031292E+02  0.93731039806E+02 0.  0.
         11    1    3    3    0    0 -0.27208996253E+02 -0.96898055466E+01  0.35569259656E+02  0.45819144922E+02  0.51100000000E-03 0.  1.
         22    1    1    0    0    0  0.20934069349E+02  0.77134085585E+01  0.15834346236E+02  0.27357968708E+02  0.00000000000E+00 0. -1.
</event>
<event>
 5    1  0.1099741E-009  0.9118800E+02  0.7818608E-02  0.1130116E+00
         25   -1    0    0    0    0  0.00000000000E+00  0.00000000000E+00  0.99999998245E-14  0.12500000000E+03  0.12500000000E+03 0.  0.
        -11    1    3    3    0    0  0.31918036043E+02  0.30204894787E+02  0.13547897770E+02  0.45985239243E+02  0.51100000000E-03 0.  1.
         23    2    1    0    0    0  0.13876821480E+02  0.12428355269E+02 -0.26040402193E+02  0.92982305900E+02  0.87295913278E+02 0.  0.
         11    1    3    3    0    0 -0.18041214563E+02 -0.17776539518E+02 -0.39588299964E+02  0.46997066658E+02  0.51100000000E-03 0. -1.
         22    1    1    0    0    0 -0.13876821480E+02 -0.12428355269E+02  0.26040402193E+02  0.32017694100E+02  0.00000000000E+00 0. -1.
</event>
<event>
 5    1  0.1099741E-009  0.9118800E+02  0.7818608E-02  0.1130116E+00
         25   -1    0    0    0    0  0.00000000000E+00  0.00000000000E+00  0.99999998245E-14  0.12500000000E+03  0.12500000000E+03 0.  0.
        -11    1    3    3    0    0 -0.17936691876E+02 -0.89470331517E+01 -0.42055609006E+02  0.46588073225E+02  0.51100000000E-03 0. -1.
         23    2    1    0    0    0 -0.28841203516E+02  0.52788309586E+01  0.34316660122E+01  0.95479542549E+02  0.90801352617E+02 0.  0.
         11    1    3    3    0    0 -0.10904511640E+02  0.14225864110E+02  0.45487275018E+02  0.48891469324E+02  0.51100000000E-03 0.  1.
         22    1    1    0    0    0  0.28841203516E+02 -0.52788309586E+01 -0.34316660122E+01  0.29520457451E+02  0.00000000000E+00 0.  1.
</event>
<event>
 5    1  0.1099741E-009  0.9118800E+02  0.7818608E-02  0.1130116E+00
         25   -1    0    0    0    0  0.00000000000E+00  0.00000000000E+00  0.99999998245E-14  0.12500000000E+03  0.12500000000E+03 0.  0.
        -11    1    3    3    0    0  0.15573577889E+02  0.33893289947E+02  0.17736332447E+02  0.41302166052E+02  0.51100000000E-03 0. -1.
         23    2    1    0    0    0 -0.16077536097E+02  0.13176927293E+02 -0.21004386996E+02  0.95448302030E+02  0.90758335747E+02 0.  0.
         11    1    3    3    0    0 -0.31651113986E+02 -0.20716362654E+02 -0.38740719443E+02  0.54146135978E+02  0.51100000000E-03 0.  1.
         22    1    1    0    0    0  0.16077536097E+02 -0.13176927293E+02  0.21004386996E+02  0.29551697970E+02  0.00000000000E+00 0.  1.
</event>
<event>
 5    1  0.1099741E-009  0.9118800E+02  0.7818608E-02  0.1130116E+00
         25   -1    0    0    0    0  0.00000000000E+00  0.00000000000E+00  0.99999998245E-14  0.12500000000E+03  0.12500000000E+03 0.  0.
        -11    1    3    3    0    0  0.22703001995E+02 -0.25085807380E+02  0.22924239295E-01  0.33833778348E+02  0.51100000000E-03 0.  1.
         23    2    1    0    0    0 -0.15836601824E+02  0.19343697169E+02  0.16660742641E+02  0.94957414844E+02  0.90079707543E+02 0.  0.
         11    1    3    3    0    0 -0.38539603819E+02  0.44429504550E+02  0.16637818401E+02  0.61123636496E+02  0.51100000000E-03 0. -1.
         22    1    1    0    0    0  0.15836601824E+02 -0.19343697169E+02 -0.16660742641E+02  0.30042585156E+02  0.00000000000E+00 0. -1.
</event>
<event>
 5    1  0.1099741E-009  0.9118800E+02  0.7818608E-02  0.1130116E+00
         25   -1    0    0    0    0  0.00000000000E+00  0.00000000000E+00  0.99999998245E-14  0.12500000000E+03  0.12500000000E+03 0.  0.
        -11    1    3    3    0    0 -0.26076171198E+02 -0.12416392536E+01  0.33730417811E+02  0.42652660624E+02  0.51100000000E-03 0. -1.
         23    2    1    0    0    0 -0.19592673309E+02  0.14990938532E+02 -0.16154654398E+02  0.95511460799E+02  0.90845281660E+02 0.  0.
         11    1    3    3    0    0  0.64834978885E+01  0.16232577786E+02 -0.49885072208E+02  0.52858800175E+02  0.51100000000E-03 0.  1.
         22    1    1    0    0    0  0.19592673309E+02 -0.14990938532E+02  0.16154654398E+02  0.29488539201E+02  0.00000000000E+00 0.  1.
</event>
<event>
 5    1  0.1099741E-009  0.9118800E+02  0.7818608E-02  0.1130116E+00
         25   -1    0    0    0    0  0.00000000000E+00  0.00000000000E+00  0.99999998245E-14  0.12500000000E+03  0.12500000000E+03 0.  0.
        -11    1    3    3    0    0  0.19177637515E+01  0.21495593509E+02  0.38253477050E+02  0.43921143710E+02  0.51100000000E-03 0.  1.
         23    2    1    0    0    0 -0.22728236754E+02 -0.15045387809E+02  0.12044522721E+02  0.95200554236E+02  0.90416472829E+02 0.  0.
         11    1    3    3    0    0 -0.24646000506E+02 -0.36540981318E+02 -0.26208954329E+02  0.51279410526E+02  0.51100000000E-03 0. -1.
         22    1    1    0    0    0  0.22728236754E+02  0.15045387809E+02 -0.12044522721E+02  0.29799445764E+02  0.00000000000E+00 0. -1.
</event>
<event>
 5    1  0.1099741E-009  0.9118800E+02  0.7818608E-02  0.1130116E+00
         25   -1    0    0    0    0  0.00000000000E+00  0.00000000000E+00  0.99999998245E-14  0.12500000000E+03  0.12500000000E+03 0.  0.
        -11    1    3    3    0    0  0.28084175977E+02 -0.25393732117E+02  0.47683902922E+02  0.60887742357E+02  0.51100000000E-03 0. -1.
         23    2    1    0    0    0  0.17217671575E+02 -0.23516425358E+01  0.18996077644E+02  0.99254526554E+02  0.95857350467E+02 0.  0.
         11    1    3    3    0    0 -0.10866504402E+02  0.23042089581E+02 -0.28687825279E+02  0.38366784197E+02  0.51100000000E-03 0.  1.
         22    1    1    0    0    0 -0.17217671575E+02  0.23516425358E+01 -0.18996077644E+02  0.25745473446E+02  0.00000000000E+00 0. -1.
</event>
<event>
 5    1  0.1099741E-009  0.9118800E+02  0.7818608E-02  0.1130116E+00
         25   -1    0    0    0    0  0.00000000000E+00  0.00000000000E+00  0.99999998245E-14  0.12500000000E+03  0.12500000000E+03 0.  0.
        -11    1    3    3    0    0 -0.44953453136E+02  0.11378758509E+01  0.14098978678E+02  0.47126308049E+02  0.51100000000E-03 0. -1.
         23    2    1    0    0    0 -0.98762669145E+01  0.29501150784E+02  0.20258375954E+01  0.93823685855E+02  0.88492493827E+02 0.  0.
         11    1    3    3    0    0  0.35077186221E+02  0.28363274933E+02 -0.12073141082E+02  0.46697377806E+02  0.51100000000E-03 0.  1.
         22    1    1    0    0    0  0.98762669145E+01 -0.29501150784E+02 -0.20258375954E+01  0.31176314145E+02  0.00000000000E+00 0. -1.
</event>
<event>
 5    1  0.1099741E-009  0.9118800E+02  0.7818608E-02  0.1130116E+00
         25   -1    0    0    0    0  0.00000000000E+00  0.00000000000E+00  0.99999998245E-14  0.12500000000E+03  0.12500000000E+03 0.  0.
        -11    1    3    3    0    0 -0.28566185849E+02  0.97730898489E+01 -0.22911489175E+02  0.37900878560E+02  0.51100000000E-03 0. -1.
         23    2    1    0    0    0 -0.69883383361E+01 -0.16637234371E+02  0.23422059310E+02  0.95432664940E+02  0.90736796478E+02 0.  0.
         11    1    3    3    0    0  0.21577847512E+02 -0.26410324220E+02  0.46333548485E+02  0.57531786380E+02  0.51100000000E-03 0.  1.
         22    1    1    0    0    0  0.69883383361E+01  0.16637234371E+02 -0.23422059310E+02  0.29567335060E+02  0.00000000000E+00 0.  1.
</event>
<event>
 5    1  0.1099741E-009  0.9118800E+02  0.7818608E-02  0.1130116E+00
         25   -1    0    0    0    0  0.00000000000E+00  0.00000000000E+00  0.99999998245E-14  0.12500000000E+03  0.12500000000E+03 0.  0.
        -11    1    3    3    0    0  0.25538444417E+02  0.19488285088E+02  0.24851266519E+02  0.40615155383E+02  0.51100000000E-03 0. -1.
         23    2    1    0    0    0  0.13913154816E+02 -0.23783299917E+02 -0.81536236116E+01  0.96264955022E+02  0.91876214308E+02 0.  0.
         11    1    3    3    0    0 -0.11625289601E+02 -0.43271585005E+02 -0.33004890130E+02  0.55649799640E+02  0.51100000000E-03 0.  1.
         22    1    1    0    0    0 -0.13913154816E+02  0.23783299917E+02  0.81536236116E+01  0.28735044978E+02  0.00000000000E+00 0.  1.
</event>
<event>
 5    1  0.1099741E-009  0.9118800E+02  0.7818608E-02  0.1130116E+00
         25   -1    0    0    0    0  0.00000000000E+00  0.00000000000E+00  0.99999998245E-14  0.12500000000E+03  0.12500000000E+03 0.  0.
        -11    1    3    3    0    0  0.13002133244E+01  0.58013553043E+02  0.16290356607E+02  0.60271374714E+02  0.51100000000E-03 0. -1.
         23    2    1    0    0    0  0.18264834335E+01  0.22618710532E+02  0.18475676673E+02  0.95737519989E+02  0.91155800677E+02 0.  0.
         11    1    3    3    0    0  0.52627010907E+00 -0.35394842510E+02  0.21853200666E+01  0.35466145274E+02  0.51100000000E-03 0.  1.
         22    1    1    0    0    0 -0.18264834335E+01 -0.22618710532E+02 -0.18475676673E+02  0.29262480011E+02  0.00000000000E+00 0. -1.
</event>
<event>
 5    1  0.1099741E-009  0.9118800E+02  0.7818608E-02  0.1130116E+00
         25   -1    0    0    0    0  0.00000000000E+00  0.00000000000E+00  0.99999998245E-14  0.12500000000E+03  0.12500000000E+03 0.  0.
        -11    1    3    3    0    0  0.27106430413E+02 -0.33185614557E+02 -0.35171167668E+02  0.55435138843E+02  0.51100000000E-03 0.  1.
         23    2    1    0    0    0  0.23961242822E+02  0.25047595034E+01 -0.16104051470E+02  0.96021465678E+02  0.91544341275E+02 0.  0.
         11    1    3    3    0    0 -0.31451875912E+01  0.35690374060E+02  0.19067116198E+02  0.40586326834E+02  0.51100000000E-03 0. -1.
         22    1    1    0    0    0 -0.23961242822E+02 -0.25047595034E+01  0.16104051470E+02  0.28978534322E+02  0.00000000000E+00 0. -1.
</event>
<event>
 5    1  0.1099741E-009  0.9118800E+02  0.7818608E-02  0.1130116E+00
         25   -1    0    0    0    0  0.00000000000E+00  0.00000000000E+00  0.99999998245E-14  0.12500000000E+03  0.12500000000E+03 0.  0.
        -11    1    3    3    0    0 -0.25836261913E+01  0.27301363772E+02 -0.32671284026E+02  0.42655039424E+02  0.51100000000E-03 0. -1.
         23    2    1    0    0    0  0.14723663592E+02  0.18511287472E+02  0.16925463891E+02  0.95915203948E+02  0.91399130122E+02 0.  0.
         11    1    3    3    0    0  0.17307289784E+02 -0.87900763002E+01  0.49596747916E+02  0.53260164524E+02  0.51100000000E-03 0.  1.
         22    1    1    0    0    0 -0.14723663592E+02 -0.18511287472E+02 -0.16925463891E+02  0.29084796052E+02  0.00000000000E+00 0.  1.
</event>
<event>
 5    1  0.1099741E-009  0.9118800E+02  0.7818608E-02  0.1130116E+00
         25   -1    0    0    0    0  0.00000000000E+00  0.00000000000E+00  0.99999998245E-14  0.12500000000E+03  0.12500000000E+03 0.  0.
        -11    1    3    3    0    0 -0.14458085055E+01 -0.13824724086E+02 -0.29581188596E+02  0.32684248153E+02  0.51100000000E-03 0.  1.
         23    2    1    0    0    0 -0.31334983108E+02 -0.88380850127E+00  0.16858366692E+02  0.89406927481E+02  0.82016656053E+02 0.  0.
         11    1    3    3    0    0 -0.29889174602E+02  0.12940915585E+02  0.46439555288E+02  0.56722679328E+02  0.51100000000E-03 0. -1.
         22    1    1    0    0    0  0.31334983108E+02  0.88380850127E+00 -0.16858366692E+02  0.35593072519E+02  0.00000000000E+00 0. -1.
</event>
<event>
 5    1  0.1099741E-009  0.9118800E+02  0.7818608E-02  0.1130116E+00
         25   -1    0    0    0    0  0.00000000000E+00  0.00000000000E+00  0.99999998245E-14  0.12500000000E+03  0.12500000000E+03 0.  0.
        -11    1    3    3    0    0 -0.36631026216E+02 -0.19312655750E+02  0.78971633048E+01  0.42156564641E+02  0.51100000000E-03 0. -1.
         23    2    1    0    0    0 -0.18339401641E+02  0.18888454581E+02 -0.19180593422E+02  0.92426966168E+02  0.86497060886E+02 0.  0.
         11    1    3    3    0    0  0.18291624575E+02  0.38201110331E+02 -0.27077756727E+02  0.50270401527E+02  0.51100000000E-03 0.  1.
         22    1    1    0    0    0  0.18339401641E+02 -0.18888454581E+02  0.19180593422E+02  0.32573033832E+02  0.00000000000E+00 0.  1.
</event>
<event>
 5    1  0.1099741E-009  0.9118800E+02  0.7818608E-02  0.1130116E+00
         25   -1    0    0    0    0  0.00000000000E+00  0.00000000000E+00  0.99999998245E-14  0.12500000000E+03  0.12500000000E+03 0.  0.
        -11    1    3    3    0    0 -0.18223821034E+02  0.32172203887E+02  0.19536421978E+02  0.41819016488E+02  0.51100000000E-03 0. -1.
         23    2    1    0    0    0 -0.11226626150E+02 -0.11940767650E+01 -0.24802149277E+02  0.97749136477E+02  0.93873766938E+02 0.  0.
         11    1    3    3    0    0  0.69971948842E+01 -0.33366280652E+02 -0.44338571255E+02  0.55930119989E+02  0.51100000000E-03 0.  1.
         22    1    1    0    0    0  0.11226626150E+02  0.11940767650E+01  0.24802149277E+02  0.27250863523E+02  0.00000000000E+00 0.  1.
</event>
<event>
 5    1  0.1099741E-009  0.9118800E+02  0.7818608E-02  0.1130116E+00
         25   -1    0    0    0    0  0.00000000000E+00  0.00000000000E+00  0.99999998245E-14  0.12500000000E+03  0.12500000000E+03 0.  0.
        -11    1    3    3    0    0 -0.30577755312E+02 -0.26694202503E+02  0.28335613534E+02  0.49502389456E+02  0.51100000000E-03 0.  1.
         23    2    1    0    0    0  0.62029401041E+01 -0.32003622735E+02  0.10280705366E+02  0.90818115369E+02  0.84139936072E+02 0.  0.
         11    1    3    3    0    0  0.36780695416E+02 -0.53094202323E+01 -0.18054908168E+02  0.41315725913E+02  0.51100000000E-03 0. -1.
         22    1    1    0    0    0 -0.62029401041E+01  0.32003622735E+02 -0.10280705366E+02  0.34181884631E+02  0.00000000000E+00 0.  1.
</event>
<event>
 5    1  0.1099741E-009  0.9118800E+02  0.7818608E-02  0.1130116E+00
         25   -1    0    0    0    0  0.00000000000E+00  0.00000000000E+00  0.99999998245E-14  0.12500000000E+03  0.12500000000E+03 0.  0.
        -11    1    3    3    0    0 -0.11080316775E+02 -0.14575864292E+02  0.36900819716E+02  0.41193442873E+02  0.51100000000E-03 0.  1.
         23    2    1    0    0    0 -0.20472920195E+02  0.19851600322E+02 -0.48028936238E+01  0.96081246849E+02  0.91625933623E+02 0.  0.
         11    1    3    3    0    0 -0.93926034197E+01  0.34427464614E+02 -0.41703713340E+02  0.54887803976E+02  0.51100000000E-03 0. -1.
         22    1    1    0    0    0  0.20472920195E+02 -0.19851600322E+02  0.48028936238E+01  0.28918753151E+02  0.00000000000E+00 0. -1.
</event>
<event>
 5    1  0.1099741E-009  0.9118800E+02  0.7818608E-02  0.1130116E+00
         25   -1    0    0    0    0  0.00000000000E+00  0.00000000000E+00  0.99999998245E-14  0.12500000000E+03  0.12500000000E+03 0.  0.
        -11    1    3    3    0    0  0.20452760496E+02 -0.10706462475E+02 -0.40375800542E+02  0.46509665880E+02  0.51100000000E-03 0.  1.
         23    2    1    0    0    0 -0.11811631619E+01  0.25270303598E+02 -0.16338473112E+02  0.94884736528E+02  0.89978798236E+02 0.  0.
         11    1    3    3    0    0 -0.21633923658E+02  0.35976766073E+02  0.24037327430E+02  0.48375070648E+02  0.51100000000E-03 0. -1.
         22    1    1    0    0    0  0.11811631619E+01 -0.25270303598E+02  0.16338473112E+02  0.30115263472E+02  0.00000000000E+00 0.  1.
</event>
<event>
 5    1  0.1099741E-009  0.9118800E+02  0.7818608E-02  0.1130116E+00
         25   -1    0    0    0    0  0.00000000000E+00  0.00000000000E+00  0.99999998245E-14  0.12500000000E+03  0.12500000000E+03 0.  0.
        -11    1    3    3    0    0  0.41399697088E+02 -0.15016573823E+02 -0.43479587493E+02  0.61886241906E+02  0.51100000000E-03 0. -1.
         23    2    1    0    0    0  0.15169958889E+02 -0.87009271534E+01 -0.24608221567E+02  0.94810625135E+02  0.89875782521E+02 0.  0.
         11    1    3    3    0    0 -0.26229738199E+02  0.63156466699E+01  0.18871365926E+02  0.32924383229E+02  0.51100000000E-03 0.  1.
         22    1    1    0    0    0 -0.15169958889E+02  0.87009271534E+01  0.24608221567E+02  0.30189374865E+02  0.00000000000E+00 0. -1.
</event>
<event>
 5    1  0.1099741E-009  0.9118800E+02  0.7818608E-02  0.1130116E+00
         25   -1    0    0    0    0  0.00000000000E+00  0.00000000000E+00  0.99999998245E-14  0.12500000000E+03  0.12500000000E+03 0.  0.
        -11    1    3    3    0    0 -0.34235084959E+02 -0.35564767409E+02  0.20554792729E+02  0.53473294525E+02  0.51100000000E-03 0. -1.
         23    2    1    0    0    0 -0.28447365946E+02 -0.17695863215E+01 -0.47728838027E+01  0.96100787471E+02  0.91652587895E+02 0.  0.
         11    1    3    3    0    0  0.57877190134E+01  0.33795181087E+02 -0.25327676532E+02  0.42627492946E+02  0.51100000000E-03 0.  1.
         22    1    1    0    0    0  0.28447365946E+02  0.17695863215E+01  0.47728838027E+01  0.28899212529E+02  0.00000000000E+00 0. -1.
</event>
<event>
 5    1  0.1099741E-009  0.9118800E+02  0.7818608E-02  0.1130116E+00
         25   -1    0    0    0    0  0.00000000000E+00  0.00000000000E+00  0.99999998245E-14  0.12500000000E+03  0.12500000000E+03 0.  0.
        -11    1    3    3    0    0  0.96713273795E+01 -0.33918863752E+02  0.10260273354E+01  0.35285643311E+02  0.51100000000E-03 0. -1.
         23    2    1    0    0    0 -0.28522572102E+02  0.10961944764E+02  0.33246702305E+01  0.94263136392E+02  0.89111077302E+02 0.  0.
         11    1    3    3    0    0 -0.38193899482E+02  0.44880808516E+02  0.22986428951E+01  0.58977493081E+02  0.51100000000E-03 0.  1.
         22    1    1    0    0    0  0.28522572102E+02 -0.10961944764E+02 -0.33246702305E+01  0.30736863608E+02  0.00000000000E+00 0.  1.
</event>
<event>
 5    1  0.1099741E-009  0.9118800E+02  0.7818608E-02  0.1130116E+00
         25   -1    0    0    0    0  0.00000000000E+00  0.00000000000E+00  0.99999998245E-14  0.12500000000E+03  0.12500000000E+03 0.  0.
        -11    1    3    3    0    0 -0.87439719607E+01 -0.74063776557E+01 -0.35261928157E+02  0.37077150015E+02  0.51100000000E-03 0.  1.
         23    2    1    0    0    0  0.27358855508E+02  0.58325099459E+01  0.89096615014E+01  0.95641743665E+02  0.91024369903E+02 0.  0.
         11    1    3    3    0    0  0.36102827469E+02  0.13238887602E+02  0.44171589658E+02  0.58564593650E+02  0.51100000000E-03 0. -1.
         22    1    1    0    0    0 -0.27358855508E+02 -0.58325099459E+01 -0.89096615014E+01  0.29358256335E+02  0.00000000000E+00 0. -1.
</event>
<event>
 5    1  0.1099741E-009  0.9118800E+02  0.7818608E-02  0.1130116E+00
         25   -1    0    0    0    0  0.00000000000E+00  0.00000000000E+00  0.99999998245E-14  0.12500000000E+03  0.12500000000E+03 0.  0.
        -11    1    3    3    0    0  0.17308148409E+02 -0.25959794845E+02  0.19436091782E+02  0.36759279288E+02  0.51100000000E-03 0. -1.
         23    2    1    0    0    0  0.60014561041E+01  0.48349254169E+01 -0.28851988767E+02  0.95136456423E+02  0.90327814685E+02 0.  0.
         11    1    3    3    0    0 -0.11306692305E+02  0.30794720261E+02 -0.48288080549E+02  0.58377177135E+02  0.51100000000E-03 0.  1.
         22    1    1    0    0    0 -0.60014561041E+01 -0.48349254169E+01  0.28851988767E+02  0.29863543577E+02  0.00000000000E+00 0.  1.
</event>
<event>
 5    1  0.1099741E-009  0.9118800E+02  0.7818608E-02  0.1130116E+00
         25   -1    0    0    0    0  0.00000000000E+00  0.00000000000E+00  0.99999998245E-14  0.12500000000E+03  0.12500000000E+03 0.  0.
        -11    1    3    3    0    0  0.53879588770E+01  0.24281552975E+02 -0.25458116390E+02  0.35591285536E+02  0.51100000000E-03 0.  1.
         23    2    1    0    0    0  0.13062783611E+02 -0.17059189588E+02  0.18663821441E+02  0.96539668030E+02  0.92249211419E+02 0.  0.
         11    1    3    3    0    0  0.76748247338E+01 -0.41340742564E+02  0.44121937831E+02  0.60948382494E+02  0.51100000000E-03 0. -1.
         22    1    1    0    0    0 -0.13062783611E+02  0.17059189588E+02 -0.18663821441E+02  0.28460331970E+02  0.00000000000E+00 0. -1.
</event>
<event>
 5    1  0.1099741E-009  0.9118800E+02  0.7818608E-02  0.1130116E+00
         25   -1    0    0    0    0  0.00000000000E+00  0.00000000000E+00  0.99999998245E-14  0.12500000000E+03  0.12500000000E+03 0.  0.
        -11    1    3    3    0    0  0.86131462156E+00  0.61352872462E+02 -0.14575296736E+01  0.61376226792E+02  0.51100000000E-03 0. -1.
         23    2    1    0    0    0 -0.23173582309E+01  0.30013951965E+02  0.72073076887E+01  0.94045957520E+02  0.88805908474E+02 0.  0.
         11    1    3    3    0    0 -0.31786728524E+01 -0.31338920497E+02  0.86648373623E+01  0.32669730727E+02  0.51100000000E-03 0.  1.
         22    1    1    0    0    0  0.23173582309E+01 -0.30013951965E+02 -0.72073076887E+01  0.30954042480E+02  0.00000000000E+00 0. -1.
</event>
<event>
 5    1  0.1099741E-009  0.9118800E+02  0.7818608E-02  0.1130116E+00
         25   -1    0    0    0    0  0.00000000000E+00  0.00000000000E+00  0.99999998245E-14  0.12500000000E+03  0.12500000000E+03 0.  0.
        -11    1    3    3    0    0 -0.16350414839E+02 -0.49817726572E+02  0.13819527911E+02  0.54222885373E+02  0.51100000000E-03 0. -1.
         23    2    1    0    0    0  0.12560406582E+02 -0.22159034881E+02 -0.59379737554E+01  0.98845723625E+02  0.95322772233E+02 0.  0.
         11    1    3    3    0    0  0.28910821422E+02  0.27658691691E+02 -0.19757501666E+02  0.44622838252E+02  0.51100000000E-03 0.  1.
         22    1    1    0    0    0 -0.12560406582E+02  0.22159034881E+02  0.59379737554E+01  0.26154276375E+02  0.00000000000E+00 0. -1.
</event>
<event>
 5    1  0.1099741E-009  0.9118800E+02  0.7818608E-02  0.1130116E+00
         25   -1    0    0    0    0  0.00000000000E+00  0.00000000000E+00  0.99999998245E-14  0.12500000000E+03  0.12500000000E+03 0.  0.
        -11    1    3    3    0    0  0.22758714001E+02 -0.26683187423E+02 -0.45476236947E+02  0.57428561546E+02  0.51100000000E-03 0. -1.
         23    2    1    0    0    0  0.24692397534E+02 -0.12461733443E+02 -0.10186811837E+02  0.95524918460E+02  0.90863797054E+02 0.  0.
         11    1    3    3    0    0  0.19336835326E+01  0.14221453980E+02  0.35289425110E+02  0.38096356915E+02  0.51100000000E-03 0.  1.
         22    1    1    0    0    0 -0.24692397534E+02  0.12461733443E+02  0.10186811837E+02  0.29475081540E+02  0.00000000000E+00 0. -1.
</event>
<event>
 5    1  0.1099741E-009  0.9118800E+02  0.7818608E-02  0.1130116E+00
         25   -1    0    0    0    0  0.00000000000E+00  0.00000000000E+00  0.99999998245E-14  0.12500000000E+03  0.12500000000E+03 0.  0.
        -11    1    3    3    0    0 -0.28387540618E+01 -0.32430591599E+02 -0.10155910392E+02  0.34101969331E+02  0.51100000000E-03 0.  1.
         23    2    1    0    0    0  0.26739279821E+01 -0.12399394677E+02  0.37136654272E+02  0.85756835376E+02  0.76250959627E+02 0.  0.
         11    1    3    3    0    0  0.55126820439E+01  0.20031196922E+02  0.47292564664E+02  0.51654866045E+02  0.51100000000E-03 0. -1.
         22    1    1    0    0    0 -0.26739279821E+01  0.12399394677E+02 -0.37136654272E+02  0.39243164624E+02  0.00000000000E+00 0. -1.
</event>
<event>
 5    1  0.1099741E-009  0.9118800E+02  0.7818608E-02  0.1130116E+00
         25   -1    0    0    0    0  0.00000000000E+00  0.00000000000E+00  0.99999998245E-14  0.12500000000E+03  0.12500000000E+03 0.  0.
        -11    1    3    3    0    0  0.41511278175E+02  0.11504122309E+02 -0.81012523256E+01  0.43831054463E+02  0.51100000000E-03 0.  1.
         23    2    1    0    0    0  0.57833875829E+01 -0.38564086932E+01  0.27548309327E+02  0.96588227674E+02  0.92314987507E+02 0.  0.
         11    1    3    3    0    0 -0.35727890592E+02 -0.15360531003E+02  0.35649561653E+02  0.52757173210E+02  0.51100000000E-03 0. -1.
         22    1    1    0    0    0 -0.57833875829E+01  0.38564086932E+01 -0.27548309327E+02  0.28411772326E+02  0.00000000000E+00 0.  1.
</event>
<event>
 5    1  0.1099741E-009  0.9118800E+02  0.7818608E-02  0.1130116E+00
         25   -1    0    0    0    0  0.00000000000E+00  0.00000000000E+00  0.99999998245E-14  0.12500000000E+03  0.12500000000E+03 0.  0.
        -11    1    3    3    0    0  0.54367450801E+02 -0.47049387387E+01 -0.28599536455E+02  0.61610791594E+02  0.51100000000E-03 0. -1.
         23    2    1    0    0    0  0.34709867290E+02  0.36056437513E+01 -0.14376763010E+02  0.87257889980E+02  0.78673200614E+02 0.  0.
         11    1    3    3    0    0 -0.19657583511E+02  0.83105824900E+01  0.14222773446E+02  0.25647098385E+02  0.51100000000E-03 0.  1.
         22    1    1    0    0    0 -0.34709867290E+02 -0.36056437513E+01  0.14376763010E+02  0.37742110020E+02  0.00000000000E+00 0. -1.
</event>
<event>
 5    1  0.1099741E-009  0.9118800E+02  0.7818608E-02  0.1130116E+00
         25   -1    0    0    0    0  0.00000000000E+00  0.00000000000E+00  0.99999998245E-14  0.12500000000E+03  0.12500000000E+03 0.  0.
        -11    1    3    3    0    0  0.15629804181E+02 -0.26382392325E+02 -0.16831673591E+02  0.34980375065E+02  0.51100000000E-03 0.  1.
         23    2    1    0    0    0  0.12592872760E+02  0.25277379620E+02  0.12109829343E+02  0.94272580136E+02  0.89124323470E+02 0.  0.
         11    1    3    3    0    0 -0.30369314219E+01  0.51659771945E+02  0.28941502934E+02  0.59292205071E+02  0.51100000000E-03 0. -1.
         22    1    1    0    0    0 -0.12592872760E+02 -0.25277379620E+02 -0.12109829343E+02  0.30727419864E+02  0.00000000000E+00 0. -1.
</event>
<event>
 5    1  0.1099741E-009  0.9118800E+02  0.7818608E-02  0.1130116E+00
         25   -1    0    0    0    0  0.00000000000E+00  0.00000000000E+00  0.99999998245E-14  0.12500000000E+03  0.12500000000E+03 0.  0.
        -11    1    3    3    0    0  0.73193762653E+01 -0.39391666631E+02  0.43717068926E+02  0.59299736801E+02  0.51100000000E-03 0. -1.
         23    2    1    0    0    0 -0.10550160028E+02 -0.19615195473E+02  0.22178469496E+02  0.93568387263E+02  0.88131134202E+02 0.  0.
         11    1    3    3    0    0 -0.17869536294E+02  0.19776471158E+02 -0.21538599430E+02  0.34268650462E+02  0.51100000000E-03 0.  1.
         22    1    1    0    0    0  0.10550160028E+02  0.19615195473E+02 -0.22178469496E+02  0.31431612737E+02  0.00000000000E+00 0. -1.
</event>
<event>
 5    1  0.1099741E-009  0.9118800E+02  0.7818608E-02  0.1130116E+00
         25   -1    0    0    0    0  0.00000000000E+00  0.00000000000E+00  0.99999998245E-14  0.12500000000E+03  0.12500000000E+03 0.  0.
        -11    1    3    3    0    0 -0.10705438288E+02 -0.23030013592E+02 -0.30512702043E+02  0.39699029223E+02  0.51100000000E-03 0.  1.
         23    2    1    0    0    0 -0.26274245315E+01  0.27900864110E+02 -0.91034862139E+01  0.95534171673E+02  0.90876525672E+02 0.  0.
         11    1    3    3    0    0  0.80780137564E+01  0.50930877702E+02  0.21409215829E+02  0.55835142450E+02  0.51100000000E-03 0. -1.
         22    1    1    0    0    0  0.26274245315E+01 -0.27900864110E+02  0.91034862139E+01  0.29465828327E+02  0.00000000000E+00 0. -1.
</event>
<event>
 5    1  0.1099741E-009  0.9118800E+02  0.7818608E-02  0.1130116E+00
         25   -1    0    0    0    0  0.00000000000E+00  0.00000000000E+00  0.99999998245E-14  0.12500000000E+03  0.12500000000E+03 0.  0.
        -11    1    3    3    0    0 -0.13154096668E+02 -0.17565714932E+02 -0.42444844010E+02  0.47782312455E+02  0.51100000000E-03 0. -1.
         23    2    1    0    0    0  0.16356288388E+02  0.13544137714E+02 -0.18137358764E+02  0.97072672538E+02  0.92968640597E+02 0.  0.
         11    1    3    3    0    0  0.29510385056E+02  0.31109852647E+02  0.24307485246E+02  0.49290360083E+02  0.51100000000E-03 0.  1.
         22    1    1    0    0    0 -0.16356288388E+02 -0.13544137714E+02  0.18137358764E+02  0.27927327462E+02  0.00000000000E+00 0. -1.
</event>
<event>
 5    1  0.1099741E-009  0.9118800E+02  0.7818608E-02  0.1130116E+00
         25   -1    0    0    0    0  0.00000000000E+00  0.00000000000E+00  0.99999998245E-14  0.12500000000E+03  0.12500000000E+03 0.  0.
        -11    1    3    3    0    0 -0.29560062750E+02  0.18715915706E+02  0.29055452062E+02  0.45478589526E+02  0.51100000000E-03 0. -1.
         23    2    1    0    0    0 -0.18653236611E+02 -0.22752825033E+02  0.35626952748E+01  0.95363416515E+02  0.90641348891E+02 0.  0.
         11    1    3    3    0    0  0.10906826139E+02 -0.41468740739E+02 -0.25492756787E+02  0.49884826989E+02  0.51100000000E-03 0.  1.
         22    1    1    0    0    0  0.18653236611E+02  0.22752825033E+02 -0.35626952748E+01  0.29636583485E+02  0.00000000000E+00 0.  1.
</event>
<event>
 5    1  0.1099741E-009  0.9118800E+02  0.7818608E-02  0.1130116E+00
         25   -1    0    0    0    0  0.00000000000E+00  0.00000000000E+00  0.99999998245E-14  0.12500000000E+03  0.12500000000E+03 0.  0.
        -11    1    3    3    0    0  0.43997331686E+02  0.17449081656E+02 -0.35748178690E+02  0.59314146086E+02  0.51100000000E-03 0.  1.
         23    2    1    0    0    0  0.16922282745E+02  0.20534414239E+02 -0.10723233145E+02  0.96311787255E+02  0.91939908710E+02 0.  0.
         11    1    3    3    0    0 -0.27075048940E+02  0.30853325827E+01  0.25024945545E+02  0.36997641168E+02  0.51100000000E-03 0. -1.
         22    1    1    0    0    0 -0.16922282745E+02 -0.20534414239E+02  0.10723233145E+02  0.28688212745E+02  0.00000000000E+00 0.  1.
</event>
<event>
 5    1  0.1099741E-009  0.9118800E+02  0.7818608E-02  0.1130116E+00
         25   -1    0    0    0    0  0.00000000000E+00  0.00000000000E+00  0.99999998245E-14  0.12500000000E+03  0.12500000000E+03 0.  0.
        -11    1    3    3    0    0 -0.41909902478E+02  0.24349627058E+00  0.29203809692E+02  0.51081911837E+02  0.51100000000E-03 0.  1.
         23    2    1    0    0    0  0.14640250652E+01 -0.98178724186E+01  0.27636277180E+02  0.95635092294E+02  0.91015235392E+02 0.  0.
         11    1    3    3    0    0  0.43373927543E+02 -0.10061368689E+02 -0.15675325115E+01  0.44553180457E+02  0.51100000000E-03 0. -1.
         22    1    1    0    0    0 -0.14640250652E+01  0.98178724186E+01 -0.27636277180E+02  0.29364907706E+02  0.00000000000E+00 0. -1.
</event>
<event>
 5    1  0.1099741E-009  0.9118800E+02  0.7818608E-02  0.1130116E+00
         25   -1    0    0    0    0  0.00000000000E+00  0.00000000000E+00  0.99999998245E-14  0.12500000000E+03  0.12500000000E+03 0.  0.
        -11    1    3    3    0    0 -0.27150383245E+01 -0.19579959520E+02 -0.29981078250E+02  0.35911158449E+02  0.51100000000E-03 0.  1.
         23    2    1    0    0    0  0.20597119135E+02  0.12170606830E+02  0.15818319954E+02  0.96319270695E+02  0.91950082511E+02 0.  0.
         11    1    3    3    0    0  0.23312157460E+02  0.31750566350E+02  0.45799398204E+02  0.60408112246E+02  0.51100000000E-03 0. -1.
         22    1    1    0    0    0 -0.20597119135E+02 -0.12170606830E+02 -0.15818319954E+02  0.28680729305E+02  0.00000000000E+00 0. -1.
</event>
<event>
 5    1  0.1099741E-009  0.9118800E+02  0.7818608E-02  0.1130116E+00
         25   -1    0    0    0    0  0.00000000000E+00  0.00000000000E+00  0.99999998245E-14  0.12500000000E+03  0.12500000000E+03 0.  0.
        -11    1    3    3    0    0 -0.57737806650E+02  0.14902058130E+02  0.56661146539E+01  0.59898501725E+02  0.51100000000E-03 0. -1.
         23    2    1    0    0    0 -0.22584254799E+02  0.18932401067E+02  0.27092963850E+01  0.95405665037E+02  0.90699593490E+02 0.  0.
         11    1    3    3    0    0  0.35153551852E+02  0.40303429372E+01 -0.29568182689E+01  0.35507163313E+02  0.51100000000E-03 0.  1.
         22    1    1    0    0    0  0.22584254799E+02 -0.18932401067E+02 -0.27092963850E+01  0.29594334963E+02  0.00000000000E+00 0. -1.
</event>
<event>
 5    1  0.1099741E-009  0.9118800E+02  0.7818608E-02  0.1130116E+00
         25   -1    0    0    0    0  0.00000000000E+00  0.00000000000E+00  0.99999998245E-14  0.12500000000E+03  0.12500000000E+03 0.  0.
        -11    1    3    3    0    0 -0.15706435762E+02 -0.45726828027E+02 -0.71085189304E+01  0.48868865011E+02  0.51100000000E-03 0.  1.
         23    2    1    0    0    0 -0.16607213930E+01  0.26623266511E+01 -0.23065798748E+02  0.10172174726E+03  0.99022405621E+02 0.  0.
         11    1    3    3    0    0  0.14045714369E+02  0.48389154678E+02 -0.15957279818E+02  0.52852882249E+02  0.51100000000E-03 0. -1.
         22    1    1    0    0    0  0.16607213930E+01 -0.26623266511E+01  0.23065798748E+02  0.23278252740E+02  0.00000000000E+00 0.  1.
</event>
<event>
 5    1  0.1099741E-009  0.9118800E+02  0.7818608E-02  0.1130116E+00
         25   -1    0    0    0    0  0.00000000000E+00  0.00000000000E+00  0.99999998245E-14  0.12500000000E+03  0.12500000000E+03 0.  0.
        -11    1    3    3    0    0 -0.16553764731E+02 -0.37950884553E+02  0.45211112559E+02  0.61305313507E+02  0.51100000000E-03 0. -1.
         23    2    1    0    0    0 -0.26701134777E+01 -0.12520301793E+02  0.25853619521E+02  0.96150440119E+02  0.91720281453E+02 0.  0.
         11    1    3    3    0    0  0.13883651254E+02  0.25430582760E+02 -0.19357493038E+02  0.34845126612E+02  0.51100000000E-03 0.  1.
         22    1    1    0    0    0  0.26701134777E+01  0.12520301793E+02 -0.25853619521E+02  0.28849559881E+02  0.00000000000E+00 0. -1.
</event>
<event>
 5    1  0.1099741E-009  0.9118800E+02  0.7818608E-02  0.1130116E+00
         25   -1    0    0    0    0  0.00000000000E+00  0.00000000000E+00  0.99999998245E-14  0.12500000000E+03  0.12500000000E+03 0.  0.
        -11    1    3    3    0    0 -0.18822726167E+02  0.43082784490E+02  0.11624418667E+02  0.48430862571E+02  0.51100000000E-03 0.  1.
         23    2    1    0    0    0 -0.25838523109E+02  0.91571141666E+00 -0.11124028369E+02  0.96853742504E+02  0.92673813055E+02 0.  0.
         11    1    3    3    0    0 -0.70157969422E+01 -0.42167073073E+02 -0.22748447036E+02  0.48422879934E+02  0.51100000000E-03 0. -1.
         22    1    1    0    0    0  0.25838523109E+02 -0.91571141666E+00  0.11124028369E+02  0.28146257496E+02  0.00000000000E+00 0. -1.
</event>
<event>
 5    1  0.1099741E-009  0.9118800E+02  0.7818608E-02  0.1130116E+00
         25   -1    0    0    0    0  0.00000000000E+00  0.00000000000E+00  0.99999998245E-14  0.12500000000E+03  0.12500000000E+03 0.  0.
        -11    1    3    3    0    0  0.17397799894E+02  0.46442520874E+02 -0.76433642747E+00  0.49600155209E+02  0.51100000000E-03 0. -1.
         23    2    1    0    0    0  0.30275292362E+02  0.39074708593E+01  0.36299541713E+01  0.94258526005E+02  0.89104609876E+02 0.  0.
         11    1    3    3    0    0  0.12877492468E+02 -0.42535050015E+02  0.43942905988E+01  0.44658370796E+02  0.51100000000E-03 0.  1.
         22    1    1    0    0    0 -0.30275292362E+02 -0.39074708593E+01 -0.36299541713E+01  0.30741473995E+02  0.00000000000E+00 0.  1.
</event>
<event>
 5    1  0.1099741E-009  0.9118800E+02  0.7818608E-02  0.1130116E+00
         25   -1    0    0    0    0  0.00000000000E+00  0.00000000000E+00  0.99999998245E-14  0.12500000000E+03  0.12500000000E+03 0.  0.
        -11    1    3    3    0    0  0.36176705164E+02  0.41157281390E+02 -0.21630166695E+02  0.58911288558E+02  0.51100000000E-03 0.  1.
         23    2    1    0    0    0  0.28277918304E+02  0.10888369532E+02 -0.51689960705E+01  0.94260517652E+02  0.89107403806E+02 0.  0.
         11    1    3    3    0    0 -0.78987868607E+01 -0.30268911859E+02  0.16461170625E+02  0.35349229095E+02  0.51100000000E-03 0. -1.
         22    1    1    0    0    0 -0.28277918304E+02 -0.10888369532E+02  0.51689960705E+01  0.30739482348E+02  0.00000000000E+00 0.  1.
</event>
<event>
 5    1  0.1099741E-009  0.9118800E+02  0.7818608E-02  0.1130116E+00
         25   -1    0    0    0    0  0.00000000000E+00  0.00000000000E+00  0.99999998245E-14  0.12500000000E+03  0.12500000000E+03 0.  0.
        -11    1    3    3    0    0  0.17391356232E+02 -0.12983830107E+02 -0.26119698378E+02  0.33959943455E+02  0.51100000000E-03 0.  1.
         23    2    1    0    0    0 -0.78009263595E+01 -0.56578085722E+00  0.28536844674E+02  0.95410710317E+02  0.90706546507E+02 0.  0.
         11    1    3    3    0    0 -0.25192282592E+02  0.12418049250E+02  0.54656543051E+02  0.61450766862E+02  0.51100000000E-03 0. -1.
         22    1    1    0    0    0  0.78009263595E+01  0.56578085722E+00 -0.28536844674E+02  0.29589289683E+02  0.00000000000E+00 0. -1.
</event>
<event>
 5    1  0.1099741E-009  0.9118800E+02  0.7818608E-02  0.1130116E+00
         25   -1    0    0    0    0  0.00000000000E+00  0.00000000000E+00  0.99999998245E-14  0.12500000000E+03  0.12500000000E+03 0.  0.
        -11    1    3    3    0    0  0.19671258661E+02  0.41798642514E+02 -0.40689125754E+02  0.61560457181E+02  0.51100000000E-03 0.  1.
         23    2    1    0    0    0  0.16978175114E+01  0.21410409971E+02 -0.18742979287E+02  0.96494079353E+02  0.92187416919E+02 0.  0.
         11    1    3    3    0    0 -0.17973441150E+02 -0.20388232544E+02  0.21946146468E+02  0.34933622172E+02  0.51100000000E-03 0. -1.
         22    1    1    0    0    0 -0.16978175114E+01 -0.21410409971E+02  0.18742979287E+02  0.28505920647E+02  0.00000000000E+00 0.  1.
</event>
<event>
 5    1  0.1099741E-009  0.9118800E+02  0.7818608E-02  0.1130116E+00
         25   -1    0    0    0    0  0.00000000000E+00  0.00000000000E+00  0.99999998245E-14  0.12500000000E+03  0.12500000000E+03 0.  0.
        -11    1    3    3    0    0  0.21605168833E+02  0.19050660222E+02 -0.11682429361E+02  0.31083599072E+02  0.51100000000E-03 0. -1.
         23    2    1    0    0    0 -0.40269141709E+01 -0.12935041358E+02  0.31553773220E+02  0.90660926962E+02  0.83906088817E+02 0.  0.
         11    1    3    3    0    0 -0.25632083004E+02 -0.31985701580E+02  0.43236202581E+02  0.59577327891E+02  0.51100000000E-03 0.  1.
         22    1    1    0    0    0  0.40269141709E+01  0.12935041358E+02 -0.31553773220E+02  0.34339073038E+02  0.00000000000E+00 0.  1.
</event>
<event>
 5    1  0.1099741E-009  0.9118800E+02  0.7818608E-02  0.1130116E+00
         25   -1    0    0    0    0  0.00000000000E+00  0.00000000000E+00  0.99999998245E-14  0.12500000000E+03  0.12500000000E+03 0.  0.
        -11    1    3    3    0    0 -0.21580787742E+02 -0.50647635174E+01 -0.48946866042E+02  0.53732466206E+02  0.51100000000E-03 0. -1.
         23    2    1    0    0    0 -0.26460161580E+02  0.26426132787E+01 -0.58655029583E+01  0.97768994129E+02  0.93900205177E+02 0.  0.
         11    1    3    3    0    0 -0.48793738382E+01  0.77073767961E+01  0.43081363084E+02  0.44036527923E+02  0.51100000000E-03 0.  1.
         22    1    1    0    0    0  0.26460161580E+02 -0.26426132787E+01  0.58655029583E+01  0.27231005871E+02  0.00000000000E+00 0.  1.
</event>
<event>
 5    1  0.1099741E-009  0.9118800E+02  0.7818608E-02  0.1130116E+00
         25   -1    0    0    0    0  0.00000000000E+00  0.00000000000E+00  0.99999998245E-14  0.12500000000E+03  0.12500000000E+03 0.  0.
        -11    1    3    3    0    0  0.32916939636E+02 -0.37243131077E+02  0.33430874479E+02  0.59901578411E+02  0.51100000000E-03 0.  1.
         23    2    1    0    0    0  0.21776302367E+02 -0.60875058214E+01  0.16006395535E+02  0.97296755246E+02  0.93269442002E+02 0.  0.
         11    1    3    3    0    0 -0.11140637269E+02  0.31155625255E+02 -0.17424478944E+02  0.37395176835E+02  0.51100000000E-03 0. -1.
         22    1    1    0    0    0 -0.21776302367E+02  0.60875058214E+01 -0.16006395535E+02  0.27703244754E+02  0.00000000000E+00 0.  1.
</event>
<event>
 5    1  0.1099741E-009  0.9118800E+02  0.7818608E-02  0.1130116E+00
         25   -1    0    0    0    0  0.00000000000E+00  0.00000000000E+00  0.99999998245E-14  0.12500000000E+03  0.12500000000E+03 0.  0.
        -11    1    3    3    0    0 -0.38671415662E+02 -0.16712599341E+01  0.10969318654E+01  0.38723052034E+02  0.51100000000E-03 0.  1.
         23    2    1    0    0    0  0.14525541946E+02 -0.24402507801E+02 -0.54313138796E+00  0.96596325106E+02  0.92325951262E+02 0.  0.
         11    1    3    3    0    0  0.53196957608E+02 -0.22731247867E+02 -0.16400632533E+01  0.57873273072E+02  0.51100000000E-03 0. -1.
         22    1    1    0    0    0 -0.14525541946E+02  0.24402507801E+02  0.54313138796E+00  0.28403674894E+02  0.00000000000E+00 0. -1.
</event>
<event>
 5    1  0.1099741E-009  0.9118800E+02  0.7818608E-02  0.1130116E+00
         25   -1    0    0    0    0  0.00000000000E+00  0.00000000000E+00  0.99999998245E-14  0.12500000000E+03  0.12500000000E+03 0.  0.
        -11    1    3    3    0    0  0.69537679389E+01 -0.49898699542E+01 -0.35977360487E+02  0.36981402874E+02  0.51100000000E-03 0. -1.
         23    2    1    0    0    0  0.21705096516E+02 -0.12026570234E+02  0.18622584195E+02  0.93975006069E+02  0.88705983548E+02 0.  0.
         11    1    3    3    0    0  0.14751328577E+02 -0.70367002795E+01  0.54599944681E+02  0.56993603194E+02  0.51100000000E-03 0.  1.
         22    1    1    0    0    0 -0.21705096516E+02  0.12026570234E+02 -0.18622584195E+02  0.31024993931E+02  0.00000000000E+00 0.  1.
</event>
<event>
 5    1  0.1099741E-009  0.9118800E+02  0.7818608E-02  0.1130116E+00
         25   -1    0    0    0    0  0.00000000000E+00  0.00000000000E+00  0.99999998245E-14  0.12500000000E+03  0.12500000000E+03 0.  0.
        -11    1    3    3    0    0 -0.34224486239E+02  0.31247179182E+02  0.20266268523E+02  0.50580859080E+02  0.51100000000E-03 0.  1.
         23    2    1    0    0    0 -0.38047596882E+02  0.31367185477E+01  0.25033233342E+02  0.79347821484E+02  0.64899579128E+02 0.  0.
         11    1    3    3    0    0 -0.38231106427E+01 -0.28110460635E+02  0.47669648183E+01  0.28766962403E+02  0.51100000000E-03 0. -1.
         22    1    1    0    0    0  0.38047596882E+02 -0.31367185477E+01 -0.25033233342E+02  0.45652178516E+02  0.00000000000E+00 0.  1.
</event>
<event>
 5    1  0.1099741E-009  0.9118800E+02  0.7818608E-02  0.1130116E+00
         25   -1    0    0    0    0  0.00000000000E+00  0.00000000000E+00  0.99999998245E-14  0.12500000000E+03  0.12500000000E+03 0.  0.
        -11    1    3    3    0    0  0.53300426661E+02 -0.12971688925E+02 -0.13636935831E+02  0.56525801320E+02  0.51100000000E-03 0.  1.
         23    2    1    0    0    0  0.19997887991E+02 -0.21723591895E+02  0.39835571328E+01  0.95205727122E+02  0.90423624017E+02 0.  0.
         11    1    3    3    0    0 -0.33302538670E+02 -0.87519029701E+01  0.17620492963E+02  0.38679925801E+02  0.51100000000E-03 0. -1.
         22    1    1    0    0    0 -0.19997887991E+02  0.21723591895E+02 -0.39835571328E+01  0.29794272878E+02  0.00000000000E+00 0.  1.
</event>
<event>
 5    1  0.1099741E-009  0.9118800E+02  0.7818608E-02  0.1130116E+00
         25   -1    0    0    0    0  0.00000000000E+00  0.00000000000E+00  0.99999998245E-14  0.12500000000E+03  0.12500000000E+03 0.  0.
        -11    1    3    3    0    0 -0.42567837722E+02  0.19563973317E+02 -0.41331046837E+02  0.62474197020E+02  0.51100000000E-03 0. -1.
         23    2    1    0    0    0 -0.20274365911E+02  0.80997266709E+01 -0.20061780223E+02  0.95349864908E+02  0.90622658464E+02 0.  0.
         11    1    3    3    0    0  0.22293471811E+02 -0.11464246646E+02  0.21269266614E+02  0.32875667889E+02  0.51100000000E-03 0.  1.
         22    1    1    0    0    0  0.20274365911E+02 -0.80997266709E+01  0.20061780223E+02  0.29650135092E+02  0.00000000000E+00 0. -1.
</event>
<event>
 5    1  0.1099741E-009  0.9118800E+02  0.7818608E-02  0.1130116E+00
         25   -1    0    0    0    0  0.00000000000E+00  0.00000000000E+00  0.99999998245E-14  0.12500000000E+03  0.12500000000E+03 0.  0.
        -11    1    3    3    0    0 -0.42977820253E+01  0.47397925040E+02  0.30193042783E+02  0.56361813857E+02  0.51100000000E-03 0. -1.
         23    2    1    0    0    0 -0.59003713675E+01  0.25692963807E+02 -0.54087939860E+01  0.98089076124E+02  0.94325336104E+02 0.  0.
         11    1    3    3    0    0 -0.16025893421E+01 -0.21704961233E+02 -0.35601836769E+02  0.41727262268E+02  0.51100000000E-03 0.  1.
         22    1    1    0    0    0  0.59003713675E+01 -0.25692963807E+02  0.54087939860E+01  0.26910923876E+02  0.00000000000E+00 0. -1.
</event>
<event>
 5    1  0.1099741E-009  0.9118800E+02  0.7818608E-02  0.1130116E+00
         25   -1    0    0    0    0  0.00000000000E+00  0.00000000000E+00  0.99999998245E-14  0.12500000000E+03  0.12500000000E+03 0.  0.
        -11    1    3    3    0    0 -0.36221167579E+02 -0.17725433030E+02 -0.32847597740E+02  0.52010851122E+02  0.51100000000E-03 0.  1.
         23    2    1    0    0    0  0.95571195405E+00  0.54798298586E+01 -0.28399674986E+02  0.96060693513E+02  0.91597889595E+02 0.  0.
         11    1    3    3    0    0  0.37176879533E+02  0.23205262888E+02  0.44479227543E+01  0.44049842391E+02  0.51100000000E-03 0. -1.
         22    1    1    0    0    0 -0.95571195405E+00 -0.54798298586E+01  0.28399674986E+02  0.28939306487E+02  0.00000000000E+00 0.  1.
</event>
<event>
 5    1  0.1099741E-009  0.9118800E+02  0.7818608E-02  0.1130116E+00
         25   -1    0    0    0    0  0.00000000000E+00  0.00000000000E+00  0.99999998245E-14  0.12500000000E+03  0.12500000000E+03 0.  0.
        -11    1    3    3    0    0  0.47182688521E+02  0.22584700518E+02  0.32358352596E+02  0.61508843076E+02  0.51100000000E-03 0.  1.
         23    2    1    0    0    0  0.28551327098E+02  0.18434633797E+02  0.13234894904E+02  0.88528415918E+02  0.80666622463E+02 0.  0.
         11    1    3    3    0    0 -0.18631361423E+02 -0.41500667206E+01 -0.19123457692E+02  0.27019572843E+02  0.51100000000E-03 0. -1.
         22    1    1    0    0    0 -0.28551327098E+02 -0.18434633797E+02 -0.13234894904E+02  0.36471584082E+02  0.00000000000E+00 0.  1.
</event>
<event>
 5    1  0.1099741E-009  0.9118800E+02  0.7818608E-02  0.1130116E+00
         25   -1    0    0    0    0  0.00000000000E+00  0.00000000000E+00  0.99999998245E-14  0.12500000000E+03  0.12500000000E+03 0.  0.
        -11    1    3    3    0    0 -0.17996227062E+02 -0.26228215390E+02  0.47565742327E+02  0.57221353657E+02  0.51100000000E-03 0.  1.
         23    2    1    0    0    0 -0.21074519850E+02  0.78342578478E+00  0.21446460686E+02  0.94921771681E+02  0.90030233368E+02 0.  0.
         11    1    3    3    0    0 -0.30782927880E+01  0.27011641175E+02 -0.26119281641E+02  0.37700418024E+02  0.51100000000E-03 0. -1.
         22    1    1    0    0    0  0.21074519850E+02 -0.78342578478E+00 -0.21446460686E+02  0.30078228319E+02  0.00000000000E+00 0.  1.
</event>
<event>
 5    1  0.1099741E-009  0.9118800E+02  0.7818608E-02  0.1130116E+00
         25   -1    0    0    0    0  0.00000000000E+00  0.00000000000E+00  0.99999998245E-14  0.12500000000E+03  0.12500000000E+03 0.  0.
        -11    1    3    3    0    0 -0.93673387592E+01  0.27963814865E+02  0.31587458513E+02  0.43214459534E+02  0.51100000000E-03 0.  1.
         23    2    1    0    0    0  0.11147719751E+00  0.21332941256E+02 -0.19803835643E+02  0.95891604029E+02  0.91366848514E+02 0.  0.
         11    1    3    3    0    0  0.94788159568E+01 -0.66308736093E+01 -0.51391294157E+02  0.52677144495E+02  0.51100000000E-03 0. -1.
         22    1    1    0    0    0 -0.11147719751E+00 -0.21332941256E+02  0.19803835643E+02  0.29108395971E+02  0.00000000000E+00 0.  1.
</event>
<event>
 5    1  0.1099741E-009  0.9118800E+02  0.7818608E-02  0.1130116E+00
         25   -1    0    0    0    0  0.00000000000E+00  0.00000000000E+00  0.99999998245E-14  0.12500000000E+03  0.12500000000E+03 0.  0.
        -11    1    3    3    0    0 -0.40263157486E+02  0.40424723033E+01  0.42628664271E+02  0.58776410666E+02  0.51100000000E-03 0.  1.
         23    2    1    0    0    0 -0.14272302678E+02  0.15962122846E+02  0.23657792185E+02  0.93091080862E+02  0.87451530665E+02 0.  0.
         11    1    3    3    0    0  0.25990854808E+02  0.11919650543E+02 -0.18970872086E+02  0.34314670196E+02  0.51100000000E-03 0. -1.
         22    1    1    0    0    0  0.14272302678E+02 -0.15962122846E+02 -0.23657792185E+02  0.31908919138E+02  0.00000000000E+00 0. -1.
</event>
<event>
 5    1  0.1099741E-009  0.9118800E+02  0.7818608E-02  0.1130116E+00
         25   -1    0    0    0    0  0.00000000000E+00  0.00000000000E+00  0.99999998245E-14  0.12500000000E+03  0.12500000000E+03 0.  0.
        -11    1    3    3    0    0 -0.38594261091E+02 -0.37741701481E+01 -0.31882102429E+02  0.50201890453E+02  0.51100000000E-03 0. -1.
         23    2    1    0    0    0  0.10690971700E+02  0.21049137002E+01 -0.21479329196E+02  0.10091496065E+03  0.97998674296E+02 0.  0.
         11    1    3    3    0    0  0.49285232791E+02  0.58790838483E+01  0.10402773234E+02  0.50713070202E+02  0.51100000000E-03 0.  1.
         22    1    1    0    0    0 -0.10690971700E+02 -0.21049137002E+01  0.21479329196E+02  0.24085039345E+02  0.00000000000E+00 0.  1.
</event>
<event>
 5    1  0.1099741E-009  0.9118800E+02  0.7818608E-02  0.1130116E+00
         25   -1    0    0    0    0  0.00000000000E+00  0.00000000000E+00  0.99999998245E-14  0.12500000000E+03  0.12500000000E+03 0.  0.
        -11    1    3    3    0    0  0.18441753527E+02 -0.21018771773E+02 -0.27640981355E+02  0.39318073332E+02  0.51100000000E-03 0. -1.
         23    2    1    0    0    0 -0.24636859328E+02  0.10874133564E+02 -0.14101752101E+02  0.94601298866E+02  0.89584176708E+02 0.  0.
         11    1    3    3    0    0 -0.43078612855E+02  0.31892905337E+02  0.13539229254E+02  0.55283225534E+02  0.51100000000E-03 0.  1.
         22    1    1    0    0    0  0.24636859328E+02 -0.10874133564E+02  0.14101752101E+02  0.30398701134E+02  0.00000000000E+00 0.  1.
</event>
<event>
 5    1  0.1099741E-009  0.9118800E+02  0.7818608E-02  0.1130116E+00
         25   -1    0    0    0    0  0.00000000000E+00  0.00000000000E+00  0.99999998245E-14  0.12500000000E+03  0.12500000000E+03 0.  0.
        -11    1    3    3    0    0  0.48139859689E+01 -0.16656439701E+02 -0.30809495265E+02  0.35353025941E+02  0.51100000000E-03 0.  1.
         23    2    1    0    0    0  0.10377762236E+02 -0.74503376805E+01  0.27516434650E+02  0.94662570042E+02  0.89669629812E+02 0.  0.
         11    1    3    3    0    0  0.55637762670E+01  0.92061020209E+01  0.58325929915E+02  0.59309544101E+02  0.51100000000E-03 0. -1.
         22    1    1    0    0    0 -0.10377762236E+02  0.74503376805E+01 -0.27516434650E+02  0.30337429958E+02  0.00000000000E+00 0. -1.
</event>
<event>
 5    1  0.1099741E-009  0.9118800E+02  0.7818608E-02  0.1130116E+00
         25   -1    0    0    0    0  0.00000000000E+00  0.00000000000E+00  0.99999998245E-14  0.12500000000E+03  0.12500000000E+03 0.  0.
        -11    1    3    3    0    0  0.54503161432E+02  0.28676528574E+02  0.90200182626E+01  0.62243864170E+02  0.51100000000E-03 0. -1.
         23    2    1    0    0    0  0.24202887670E+02  0.15885263749E+02  0.13373551438E+01  0.96018801013E+02  0.91540702713E+02 0.  0.
         11    1    3    3    0    0 -0.30300273762E+02 -0.12791264825E+02 -0.76826631188E+01  0.33774936843E+02  0.51100000000E-03 0.  1.
         22    1    1    0    0    0 -0.24202887670E+02 -0.15885263749E+02 -0.13373551438E+01  0.28981198987E+02  0.00000000000E+00 0. -1.
</event>
<event>
 5    1  0.1099741E-009  0.9118800E+02  0.7818608E-02  0.1130116E+00
         25   -1    0    0    0    0  0.00000000000E+00  0.00000000000E+00  0.99999998245E-14  0.12500000000E+03  0.12500000000E+03 0.  0.
        -11    1    3    3    0    0 -0.28593094615E+02 -0.48883955229E+02 -0.12717773712E+02  0.58042638697E+02  0.51100000000E-03 0.  1.
         23    2    1    0    0    0  0.22206922124E+01 -0.28697895963E+02 -0.75691517221E+01  0.95237729180E+02  0.90467852273E+02 0.  0.
         11    1    3    3    0    0  0.30813786827E+02  0.20186059266E+02  0.51486219896E+01  0.37195090482E+02  0.51100000000E-03 0. -1.
         22    1    1    0    0    0 -0.22206922124E+01  0.28697895963E+02  0.75691517221E+01  0.29762270820E+02  0.00000000000E+00 0.  1.
</event>
<event>
 5    1  0.1099741E-009  0.9118800E+02  0.7818608E-02  0.1130116E+00
         25   -1    0    0    0    0  0.00000000000E+00  0.00000000000E+00  0.99999998245E-14  0.12500000000E+03  0.12500000000E+03 0.  0.
        -11    1    3    3    0    0  0.34262349954E+02  0.15247001570E+02  0.25474312047E+02  0.45335640017E+02  0.51100000000E-03 0. -1.
         23    2    1    0    0    0 -0.23316048043E+01 -0.17103432907E+02  0.25533734508E+02  0.94178978017E+02  0.88992946373E+02 0.  0.
         11    1    3    3    0    0 -0.36593954758E+02 -0.32350434477E+02  0.59422461238E-01  0.48843338000E+02  0.51100000000E-03 0.  1.
         22    1    1    0    0    0  0.23316048043E+01  0.17103432907E+02 -0.25533734508E+02  0.30821021983E+02  0.00000000000E+00 0. -1.
</event>
<event>
 5    1  0.1099741E-009  0.9118800E+02  0.7818608E-02  0.1130116E+00
         25   -1    0    0    0    0  0.00000000000E+00  0.00000000000E+00  0.99999998245E-14  0.12500000000E+03  0.12500000000E+03 0.  0.
        -11    1    3    3    0    0  0.56190835573E+01 -0.90821988758E+01 -0.37451918785E+02  0.38944918249E+02  0.51100000000E-03 0. -1.
         23    2    1    0    0    0 -0.18249593914E+02  0.21102718944E+02  0.54464545567E+01  0.96574020824E+02  0.92295748581E+02 0.  0.
         11    1    3    3    0    0 -0.23868677471E+02  0.30184917820E+02  0.42898373342E+02  0.57629102576E+02  0.51100000000E-03 0.  1.
         22    1    1    0    0    0  0.18249593914E+02 -0.21102718944E+02 -0.54464545567E+01  0.28425979176E+02  0.00000000000E+00 0.  1.
</event>
<event>
 5    1  0.1099741E-009  0.9118800E+02  0.7818608E-02  0.1130116E+00
         25   -1    0    0    0    0  0.00000000000E+00  0.00000000000E+00  0.99999998245E-14  0.12500000000E+03  0.12500000000E+03 0.  0.
        -11    1    3    3    0    0  0.33899261583E+02  0.12341017948E+02 -0.30565997370E+02  0.47283621428E+02  0.51100000000E-03 0.  1.
         23    2    1    0    0    0  0.87026603809E+01 -0.24854356059E+02 -0.14073135484E+02  0.95141526242E+02  0.90334830273E+02 0.  0.
         11    1    3    3    0    0 -0.25196601202E+02 -0.37195374007E+02  0.16492861886E+02  0.47857904813E+02  0.51100000000E-03 0. -1.
         22    1    1    0    0    0 -0.87026603809E+01  0.24854356059E+02  0.14073135484E+02  0.29858473758E+02  0.00000000000E+00 0. -1.
</event>
<event>
 5    1  0.1099741E-009  0.9118800E+02  0.7818608E-02  0.1130116E+00
         25   -1    0    0    0    0  0.00000000000E+00  0.00000000000E+00  0.99999998245E-14  0.12500000000E+03  0.12500000000E+03 0.  0.
        -11    1    3    3    0    0 -0.44817852850E+02 -0.22228361372E+01 -0.39344472598E+02  0.59678877828E+02  0.51100000000E-03 0. -1.
         23    2    1    0    0    0 -0.18812430303E+02  0.12068912470E+02 -0.14742423383E+02  0.98224914018E+02  0.94505177131E+02 0.  0.
         11    1    3    3    0    0  0.26005422547E+02  0.14291748608E+02  0.24602049215E+02  0.38546036190E+02  0.51100000000E-03 0.  1.
         22    1    1    0    0    0  0.18812430303E+02 -0.12068912470E+02  0.14742423383E+02  0.26775085982E+02  0.00000000000E+00 0. -1.
</event>
<event>
 5    1  0.1099741E-009  0.9118800E+02  0.7818608E-02  0.1130116E+00
         25   -1    0    0    0    0  0.00000000000E+00  0.00000000000E+00  0.99999998245E-14  0.12500000000E+03  0.12500000000E+03 0.  0.
        -11    1    3    3    0    0 -0.25004105298E+02  0.16923041178E+02  0.85795184468E+01  0.31387939428E+02  0.51100000000E-03 0. -1.
         23    2    1    0    0    0  0.28058440654E+02 -0.13596739898E+02 -0.29633237924E+01  0.93680218460E+02  0.88289606495E+02 0.  0.
         11    1    3    3    0    0  0.53062545952E+02 -0.30519781076E+02 -0.11542842239E+02  0.62292279033E+02  0.51100000000E-03 0.  1.
         22    1    1    0    0    0 -0.28058440654E+02  0.13596739898E+02  0.29633237924E+01  0.31319781540E+02  0.00000000000E+00 0.  1.
</event>
<event>
 5    1  0.1099741E-009  0.9118800E+02  0.7818608E-02  0.1130116E+00
         25   -1    0    0    0    0  0.00000000000E+00  0.00000000000E+00  0.99999998245E-14  0.12500000000E+03  0.12500000000E+03 0.  0.
        -11    1    3    3    0    0  0.34648084512E+02 -0.77170251370E+00 -0.15210911589E+02  0.37847815217E+02  0.51100000000E-03 0.  1.
         23    2    1    0    0    0 -0.15182876961E+02  0.24416207191E+02  0.17293644646E+01  0.96196152551E+02  0.91782559006E+02 0.  0.
         11    1    3    3    0    0 -0.49830961473E+02  0.25187909705E+02  0.16940276053E+02  0.58348337334E+02  0.51100000000E-03 0. -1.
         22    1    1    0    0    0  0.15182876961E+02 -0.24416207191E+02 -0.17293644646E+01  0.28803847449E+02  0.00000000000E+00 0. -1.
</event>
<event>
 5    1  0.1099741E-009  0.9118800E+02  0.7818608E-02  0.1130116E+00
         25   -1    0    0    0    0  0.00000000000E+00  0.00000000000E+00  0.99999998245E-14  0.12500000000E+03  0.12500000000E+03 0.  0.
        -11    1    3    3    0    0 -0.35378730176E+02  0.11214642980E+02  0.50277102551E+01  0.37452645257E+02  0.51100000000E-03 0.  1.
         23    2    1    0    0    0  0.20287659252E+02  0.16107288212E+02 -0.12796374176E+02  0.96107422346E+02  0.91661636394E+02 0.  0.
         11    1    3    3    0    0  0.55666389428E+02  0.48926452322E+01 -0.17824084431E+02  0.58654777089E+02  0.51100000000E-03 0. -1.
         22    1    1    0    0    0 -0.20287659252E+02 -0.16107288212E+02  0.12796374176E+02  0.28892577654E+02  0.00000000000E+00 0. -1.
</event>
<event>
 5    1  0.1099741E-009  0.9118800E+02  0.7818608E-02  0.1130116E+00
         25   -1    0    0    0    0  0.00000000000E+00  0.00000000000E+00  0.99999998245E-14  0.12500000000E+03  0.12500000000E+03 0.  0.
        -11    1    3    3    0    0 -0.61020274625E+02  0.36982257346E+01 -0.23447206874E+01  0.61177189412E+02  0.51100000000E-03 0. -1.
         23    2    1    0    0    0 -0.26959657565E+02  0.44774334679E+01 -0.96430691920E+01  0.96019673398E+02  0.91541893959E+02 0.  0.
         11    1    3    3    0    0  0.34060617060E+02  0.77920773336E+00 -0.72983485046E+01  0.34842483987E+02  0.51100000000E-03 0.  1.
         22    1    1    0    0    0  0.26959657565E+02 -0.44774334679E+01  0.96430691920E+01  0.28980326602E+02  0.00000000000E+00 0. -1.
</event>
<event>
 5    1  0.1099741E-009  0.9118800E+02  0.7818608E-02  0.1130116E+00
         25   -1    0    0    0    0  0.00000000000E+00  0.00000000000E+00  0.99999998245E-14  0.12500000000E+03  0.12500000000E+03 0.  0.
        -11    1    3    3    0    0  0.28633778431E+02  0.28318833499E+02 -0.20503795687E+02  0.45191318147E+02  0.51100000000E-03 0. -1.
         23    2    1    0    0    0  0.33851222334E+01 -0.17782267507E+02 -0.20363729528E+02  0.97753907244E+02  0.93880119359E+02 0.  0.
         11    1    3    3    0    0 -0.25248656198E+02 -0.46101101006E+02  0.14006615915E+00  0.52562589097E+02  0.51100000000E-03 0.  1.
         22    1    1    0    0    0 -0.33851222334E+01  0.17782267507E+02  0.20363729528E+02  0.27246092756E+02  0.00000000000E+00 0.  1.
</event>
<event>
 5    1  0.1099741E-009  0.9118800E+02  0.7818608E-02  0.1130116E+00
         25   -1    0    0    0    0  0.00000000000E+00  0.00000000000E+00  0.99999998245E-14  0.12500000000E+03  0.12500000000E+03 0.  0.
        -11    1    3    3    0    0 -0.12712039488E+02 -0.84143582745E+01 -0.49151588523E+02  0.51461403282E+02  0.51100000000E-03 0.  1.
         23    2    1    0    0    0  0.19878809853E+02  0.27870243351E+01 -0.20877947991E+02  0.96037553658E+02  0.91566306109E+02 0.  0.
         11    1    3    3    0    0  0.32590849341E+02  0.11201382610E+02  0.28273640532E+02  0.44576150376E+02  0.51100000000E-03 0. -1.
         22    1    1    0    0    0 -0.19878809853E+02 -0.27870243351E+01  0.20877947991E+02  0.28962446342E+02  0.00000000000E+00 0.  1.
</event>
<event>
 5    1  0.1099741E-009  0.9118800E+02  0.7818608E-02  0.1130116E+00
         25   -1    0    0    0    0  0.00000000000E+00  0.00000000000E+00  0.99999998245E-14  0.12500000000E+03  0.12500000000E+03 0.  0.
        -11    1    3    3    0    0 -0.20449456377E+02  0.15153692520E+02 -0.37305958603E+02  0.45161368565E+02  0.51100000000E-03 0. -1.
         23    2    1    0    0    0 -0.24267175336E+02 -0.10178214740E+02  0.82461759851E+01  0.97422993773E+02  0.93438474106E+02 0.  0.
         11    1    3    3    0    0 -0.38177189585E+01 -0.25331907260E+02  0.45552134589E+02  0.52261625207E+02  0.51100000000E-03 0.  1.
         22    1    1    0    0    0  0.24267175336E+02  0.10178214740E+02 -0.82461759851E+01  0.27577006227E+02  0.00000000000E+00 0.  1.
</event>
<event>
 5    1  0.1099741E-009  0.9118800E+02  0.7818608E-02  0.1130116E+00
         25   -1    0    0    0    0  0.00000000000E+00  0.00000000000E+00  0.99999998245E-14  0.12500000000E+03  0.12500000000E+03 0.  0.
        -11    1    3    3    0    0  0.59722064310E+02  0.13105667957E+02 -0.10618070940E+01  0.61152358357E+02  0.51100000000E-03 0. -1.
         23    2    1    0    0    0  0.49545017456E+02  0.39780095745E+01 -0.39988455485E+01  0.75134941285E+02  0.56202627353E+02 0.  0.
         11    1    3    3    0    0 -0.10177046854E+02 -0.91276583828E+01 -0.29370384545E+01  0.13982582929E+02  0.51100000000E-03 0.  1.
         22    1    1    0    0    0 -0.49545017456E+02 -0.39780095745E+01  0.39988455485E+01  0.49865058715E+02  0.00000000000E+00 0. -1.
</event>
<event>
 5    1  0.1099741E-009  0.9118800E+02  0.7818608E-02  0.1130116E+00
         25   -1    0    0    0    0  0.00000000000E+00  0.00000000000E+00  0.99999998245E-14  0.12500000000E+03  0.12500000000E+03 0.  0.
        -11    1    3    3    0    0  0.43716321556E+01  0.26669884092E+02  0.28257648576E+02  0.39101004955E+02  0.51100000000E-03 0.  1.
         23    2    1    0    0    0  0.14016860091E+02  0.56750171307E+01 -0.24224049673E+02  0.96443341078E+02  0.92118593506E+02 0.  0.
         11    1    3    3    0    0  0.96452279352E+01 -0.20994866961E+02 -0.52481698249E+02  0.57342336123E+02  0.51100000000E-03 0. -1.
         22    1    1    0    0    0 -0.14016860091E+02 -0.56750171307E+01  0.24224049673E+02  0.28556658922E+02  0.00000000000E+00 0. -1.
</event>
<event>
 5    1  0.1099741E-009  0.9118800E+02  0.7818608E-02  0.1130116E+00
         25   -1    0    0    0    0  0.00000000000E+00  0.00000000000E+00  0.99999998245E-14  0.12500000000E+03  0.12500000000E+03 0.  0.
        -11    1    3    3    0    0  0.12767460973E+02  0.33298651116E+02  0.13032178467E+02  0.37969012388E+02  0.51100000000E-03 0. -1.
         23    2    1    0    0    0  0.15892922643E+01 -0.17193641136E+02 -0.19412935103E+02  0.99019060934E+02  0.95549804989E+02 0.  0.
         11    1    3    3    0    0 -0.11178168709E+02 -0.50492292253E+02 -0.32445113571E+02  0.61050048546E+02  0.51100000000E-03 0.  1.
         22    1    1    0    0    0 -0.15892922643E+01  0.17193641136E+02  0.19412935103E+02  0.25980939066E+02  0.00000000000E+00 0.  1.
</event>
<event>
 5    1  0.1099741E-009  0.9118800E+02  0.7818608E-02  0.1130116E+00
         25   -1    0    0    0    0  0.00000000000E+00  0.00000000000E+00  0.99999998245E-14  0.12500000000E+03  0.12500000000E+03 0.  0.
        -11    1    3    3    0    0 -0.24192205384E+02  0.10633630226E+02  0.29213021575E+02  0.39392099753E+02  0.51100000000E-03 0. -1.
         23    2    1    0    0    0 -0.13715291660E+02  0.47909146266E+01 -0.25633849019E+02  0.95535507745E+02  0.90878363411E+02 0.  0.
         11    1    3    3    0    0  0.10476913724E+02 -0.58427155991E+01 -0.54846870595E+02  0.56143407993E+02  0.51100000000E-03 0.  1.
         22    1    1    0    0    0  0.13715291660E+02 -0.47909146266E+01  0.25633849019E+02  0.29464492255E+02  0.00000000000E+00 0.  1.
</event>
<event>
 5    1  0.1099741E-009  0.9118800E+02  0.7818608E-02  0.1130116E+00
         25   -1    0    0    0    0  0.00000000000E+00  0.00000000000E+00  0.99999998245E-14  0.12500000000E+03  0.12500000000E+03 0.  0.
        -11    1    3    3    0    0  0.83686631167E+01 -0.56976530224E+02  0.14984318279E+02  0.59505372138E+02  0.51100000000E-03 0.  1.
         23    2    1    0    0    0 -0.79706087387E+01 -0.27279769734E+02  0.13763464277E+02  0.93422327678E+02  0.87923727852E+02 0.  0.
         11    1    3    3    0    0 -0.16339271855E+02  0.29696760490E+02 -0.12208540021E+01  0.33916955540E+02  0.51100000000E-03 0. -1.
         22    1    1    0    0    0  0.79706087387E+01  0.27279769734E+02 -0.13763464277E+02  0.31577672322E+02  0.00000000000E+00 0.  1.
</event>
<event>
 5    1  0.1099741E-009  0.9118800E+02  0.7818608E-02  0.1130116E+00
         25   -1    0    0    0    0  0.00000000000E+00  0.00000000000E+00  0.99999998245E-14  0.12500000000E+03  0.12500000000E+03 0.  0.
        -11    1    3    3    0    0 -0.11922720797E+02  0.38682266488E+02 -0.11169831504E+02  0.41990881724E+02  0.51100000000E-03 0.  1.
         23    2    1    0    0    0 -0.15596261491E+02 -0.14498350770E+02 -0.19717151376E+02  0.95979117762E+02  0.91486498678E+02 0.  0.
         11    1    3    3    0    0 -0.36735406933E+01 -0.53180617258E+02 -0.85473198714E+01  0.53988236037E+02  0.51100000000E-03 0. -1.
         22    1    1    0    0    0  0.15596261491E+02  0.14498350770E+02  0.19717151376E+02  0.29020882238E+02  0.00000000000E+00 0. -1.
</event>
<event>
 5    1  0.1099741E-009  0.9118800E+02  0.7818608E-02  0.1130116E+00
         25   -1    0    0    0    0  0.00000000000E+00  0.00000000000E+00  0.99999998245E-14  0.12500000000E+03  0.12500000000E+03 0.  0.
        -11    1    3    3    0    0 -0.86911020049E-01  0.33873723707E+02 -0.24812644472E+02  0.41989332422E+02  0.51100000000E-03 0.  1.
         23    2    1    0    0    0  0.20614826416E+02 -0.15182250139E+02 -0.11842899147E+02  0.96791383450E+02  0.92589663908E+02 0.  0.
         11    1    3    3    0    0  0.20701737436E+02 -0.49055973846E+02  0.12969745325E+02  0.54802051028E+02  0.51100000000E-03 0. -1.
         22    1    1    0    0    0 -0.20614826416E+02  0.15182250139E+02  0.11842899147E+02  0.28208616550E+02  0.00000000000E+00 0. -1.
</event>
<event>
 5    1  0.1099741E-009  0.9118800E+02  0.7818608E-02  0.1130116E+00
         25   -1    0    0    0    0  0.00000000000E+00  0.00000000000E+00  0.99999998245E-14  0.12500000000E+03  0.12500000000E+03 0.  0.
        -11    1    3    3    0    0 -0.35123340177E+02  0.83012122207E+01  0.40491139015E+02  0.54241049848E+02  0.51100000000E-03 0. -1.
         23    2    1    0    0    0 -0.15156628251E+00  0.19206084076E+02  0.23577135019E+02  0.94589838317E+02  0.89568183968E+02 0.  0.
         11    1    3    3    0    0  0.34971773895E+02  0.10904871855E+02 -0.16914003997E+02  0.40348788470E+02  0.51100000000E-03 0.  1.
         22    1    1    0    0    0  0.15156628251E+00 -0.19206084076E+02 -0.23577135019E+02  0.30410161683E+02  0.00000000000E+00 0. -1.
</event>
<event>
 5    1  0.1099741E-009  0.9118800E+02  0.7818608E-02  0.1130116E+00
         25   -1    0    0    0    0  0.00000000000E+00  0.00000000000E+00  0.99999998245E-14  0.12500000000E+03  0.12500000000E+03 0.  0.
        -11    1    3    3    0    0  0.86615107944E+01 -0.45257339366E+02 -0.30594715495E+02  0.55310805023E+02  0.51100000000E-03 0.  1.
         23    2    1    0    0    0  0.68888638449E+01 -0.29266380023E+02  0.51374150386E+01  0.94498025015E+02  0.89439958932E+02 0.  0.
         11    1    3    3    0    0 -0.17726469495E+01  0.15990959344E+02  0.35732130534E+02  0.39187219992E+02  0.51100000000E-03 0. -1.
         22    1    1    0    0    0 -0.68888638449E+01  0.29266380023E+02 -0.51374150386E+01  0.30501974985E+02  0.00000000000E+00 0. -1.
</event>
<event>
 5    1  0.1099741E-009  0.9118800E+02  0.7818608E-02  0.1130116E+00
         25   -1    0    0    0    0  0.00000000000E+00  0.00000000000E+00  0.99999998245E-14  0.12500000000E+03  0.12500000000E+03 0.  0.
        -11    1    3    3    0    0  0.27046939186E+02 -0.29554225570E+02 -0.16811120121E+02  0.43446552548E+02  0.51100000000E-03 0.  1.
         23    2    1    0    0    0  0.35366734469E+02  0.11444012911E+02 -0.13654184849E+02  0.85399392651E+02  0.75662726377E+02 0.  0.
         11    1    3    3    0    0  0.83197952832E+01  0.40998238481E+02  0.31569352716E+01  0.41952840103E+02  0.51100000000E-03 0. -1.
         22    1    1    0    0    0 -0.35366734469E+02 -0.11444012911E+02  0.13654184849E+02  0.39600607349E+02  0.00000000000E+00 0. -1.
</event>
<event>
 5    1  0.1099741E-009  0.9118800E+02  0.7818608E-02  0.1130116E+00
         25   -1    0    0    0    0  0.00000000000E+00  0.00000000000E+00  0.99999998245E-14  0.12500000000E+03  0.12500000000E+03 0.  0.
        -11    1    3    3    0    0 -0.50211639042E+02 -0.82448746389E+01 -0.11874234391E+02  0.52251163583E+02  0.51100000000E-03 0.  1.
         23    2    1    0    0    0 -0.19898234845E+02  0.20172609241E+02 -0.13018117548E+02  0.93817548235E+02  0.88483823713E+02 0.  0.
         11    1    3    3    0    0  0.30313404198E+02  0.28417483880E+02 -0.11438831574E+01  0.41566384652E+02  0.51100000000E-03 0. -1.
         22    1    1    0    0    0  0.19898234845E+02 -0.20172609241E+02  0.13018117548E+02  0.31182451765E+02  0.00000000000E+00 0.  1.
</event>
<event>
 5    1  0.1099741E-009  0.9118800E+02  0.7818608E-02  0.1130116E+00
         25   -1    0    0    0    0  0.00000000000E+00  0.00000000000E+00  0.99999998245E-14  0.12500000000E+03  0.12500000000E+03 0.  0.
        -11    1    3    3    0    0  0.15855952465E+02  0.34437969877E+02  0.20577078858E+02  0.43137004676E+02  0.51100000000E-03 0. -1.
         23    2    1    0    0    0 -0.18368111295E+02 -0.54784843476E+01  0.22109094054E+02  0.95738876591E+02  0.91157660938E+02 0.  0.
         11    1    3    3    0    0 -0.34224063760E+02 -0.39916454225E+02  0.15320151961E+01  0.52601871915E+02  0.51100000000E-03 0.  1.
         22    1    1    0    0    0  0.18368111295E+02  0.54784843476E+01 -0.22109094054E+02  0.29261123409E+02  0.00000000000E+00 0. -1.
</event>
<event>
 5    1  0.1099741E-009  0.9118800E+02  0.7818608E-02  0.1130116E+00
         25   -1    0    0    0    0  0.00000000000E+00  0.00000000000E+00  0.99999998245E-14  0.12500000000E+03  0.12500000000E+03 0.  0.
        -11    1    3    3    0    0 -0.18621152940E+01 -0.36545051898E+02  0.70918799480E+00  0.36599333866E+02  0.51100000000E-03 0.  1.
         23    2    1    0    0    0 -0.79075445243E+01  0.21343914284E+02  0.16476254401E+02  0.96900909331E+02  0.92737410642E+02 0.  0.
         11    1    3    3    0    0 -0.60454292303E+01  0.57888966182E+02  0.15767066406E+02  0.60301575464E+02  0.51100000000E-03 0. -1.
         22    1    1    0    0    0  0.79075445243E+01 -0.21343914284E+02 -0.16476254401E+02  0.28099090669E+02  0.00000000000E+00 0. -1.
</event>
<event>
 5    1  0.1099741E-009  0.9118800E+02  0.7818608E-02  0.1130116E+00
         25   -1    0    0    0    0  0.00000000000E+00  0.00000000000E+00  0.99999998245E-14  0.12500000000E+03  0.12500000000E+03 0.  0.
        -11    1    3    3    0    0  0.28135968458E+02 -0.22894054422E+02 -0.82910901272E+01  0.37209039556E+02  0.51100000000E-03 0.  1.
         23    2    1    0    0    0 -0.15655522171E+02 -0.17960755760E+01  0.24518289258E+02  0.95854369623E+02  0.91315893501E+02 0.  0.
         11    1    3    3    0    0 -0.43791490628E+02  0.21097978846E+02  0.32809379385E+02  0.58645330068E+02  0.51100000000E-03 0. -1.
         22    1    1    0    0    0  0.15655522171E+02  0.17960755760E+01 -0.24518289258E+02  0.29145630377E+02  0.00000000000E+00 0. -1.
</event>
<event>
 5    1  0.1099741E-009  0.9118800E+02  0.7818608E-02  0.1130116E+00
         25   -1    0    0    0    0  0.00000000000E+00  0.00000000000E+00  0.99999998245E-14  0.12500000000E+03  0.12500000000E+03 0.  0.
        -11    1    3    3    0    0 -0.44005373167E+02 -0.13151171074E+02 -0.74869586662E+00  0.45934591693E+02  0.51100000000E-03 0.  1.
         23    2    1    0    0    0 -0.94525201010E+01 -0.31025263654E+02  0.16641149424E+02  0.88546674017E+02  0.80694910027E+02 0.  0.
         11    1    3    3    0    0  0.34552853066E+02 -0.17874092580E+02  0.17389845290E+02  0.42612082325E+02  0.51100000000E-03 0. -1.
         22    1    1    0    0    0  0.94525201010E+01  0.31025263654E+02 -0.16641149424E+02  0.36453325983E+02  0.00000000000E+00 0.  1.
</event>
<event>
 5    1  0.1099741E-009  0.9118800E+02  0.7818608E-02  0.1130116E+00
         25   -1    0    0    0    0  0.00000000000E+00  0.00000000000E+00  0.99999998245E-14  0.12500000000E+03  0.12500000000E+03 0.  0.
        -11    1    3    3    0    0 -0.19805836421E+02 -0.18129837777E+02 -0.50761080519E+02  0.57425164082E+02  0.51100000000E-03 0. -1.
         23    2    1    0    0    0 -0.13826566927E+02  0.51247571404E+01 -0.37161044606E+02  0.85020251064E+02  0.75033744183E+02 0.  0.
         11    1    3    3    0    0  0.59792694946E+01  0.23254594918E+02  0.13600035912E+02  0.27595086982E+02  0.51100000000E-03 0.  1.
         22    1    1    0    0    0  0.13826566927E+02 -0.51247571404E+01  0.37161044606E+02  0.39979748936E+02  0.00000000000E+00 0. -1.
</event>
<event>
 5    1  0.1099741E-009  0.9118800E+02  0.7818608E-02  0.1130116E+00
         25   -1    0    0    0    0  0.00000000000E+00  0.00000000000E+00  0.99999998245E-14  0.12500000000E+03  0.12500000000E+03 0.  0.
        -11    1    3    3    0    0  0.11570572554E+02  0.91872099218E+01 -0.59534516972E+02  0.61340375665E+02  0.51100000000E-03 0.  1.
         23    2    1    0    0    0  0.19108721838E+01  0.12075604452E+02 -0.28006071142E+02  0.94441667647E+02  0.89361159973E+02 0.  0.
         11    1    3    3    0    0 -0.96597003701E+01  0.28883945303E+01  0.31528445829E+02  0.33101291982E+02  0.51100000000E-03 0. -1.
         22    1    1    0    0    0 -0.19108721838E+01 -0.12075604452E+02  0.28006071142E+02  0.30558332353E+02  0.00000000000E+00 0.  1.
</event>
<event>
 5    1  0.1099741E-009  0.9118800E+02  0.7818608E-02  0.1130116E+00
         25   -1    0    0    0    0  0.00000000000E+00  0.00000000000E+00  0.99999998245E-14  0.12500000000E+03  0.12500000000E+03 0.  0.
        -11    1    3    3    0    0 -0.52374576870E+01 -0.45808578248E+02  0.36252312917E+02  0.58652254827E+02  0.51100000000E-03 0.  1.
         23    2    1    0    0    0  0.11685633967E+02 -0.20903831301E+02  0.85392551999E+01  0.99574754994E+02  0.96274029460E+02 0.  0.
         11    1    3    3    0    0  0.16923091654E+02  0.24904746947E+02 -0.27713057717E+02  0.40922500167E+02  0.51100000000E-03 0. -1.
         22    1    1    0    0    0 -0.11685633967E+02  0.20903831301E+02 -0.85392551999E+01  0.25425245006E+02  0.00000000000E+00 0.  1.
</event>
<event>
 5    1  0.1099741E-009  0.9118800E+02  0.7818608E-02  0.1130116E+00
         25   -1    0    0    0    0  0.00000000000E+00  0.00000000000E+00  0.99999998245E-14  0.12500000000E+03  0.12500000000E+03 0.  0.
        -11    1    3    3    0    0  0.22135105320E+02  0.48658971857E+02  0.11193061740E+02  0.54616325957E+02  0.51100000000E-03 0.  1.
         23    2    1    0    0    0  0.22022380530E+02  0.54159436616E+01  0.14655863354E+02  0.97997925624E+02  0.94204465956E+02 0.  0.
         11    1    3    3    0    0 -0.11272478998E+00 -0.43243028195E+02  0.34628016137E+01  0.43381599667E+02  0.51100000000E-03 0. -1.
         22    1    1    0    0    0 -0.22022380530E+02 -0.54159436616E+01 -0.14655863354E+02  0.27002074376E+02  0.00000000000E+00 0.  1.
</event>
<event>
 5    1  0.1099741E-009  0.9118800E+02  0.7818608E-02  0.1130116E+00
         25   -1    0    0    0    0  0.00000000000E+00  0.00000000000E+00  0.99999998245E-14  0.12500000000E+03  0.12500000000E+03 0.  0.
        -11    1    3    3    0    0  0.46219797475E+00  0.45376632396E+02  0.24693860473E+01  0.45446124833E+02  0.51100000000E-03 0.  1.
         23    2    1    0    0    0  0.95412600186E+01  0.19176872227E+01  0.27091283690E+02  0.96213704320E+02  0.91806459903E+02 0.  0.
         11    1    3    3    0    0  0.90790620438E+01 -0.43458945174E+02  0.24621897643E+02  0.50767579487E+02  0.51100000000E-03 0. -1.
         22    1    1    0    0    0 -0.95412600186E+01 -0.19176872227E+01 -0.27091283690E+02  0.28786295680E+02  0.00000000000E+00 0. -1.
</event>
<event>
 5    1  0.1099741E-009  0.9118800E+02  0.7818608E-02  0.1130116E+00
         25   -1    0    0    0    0  0.00000000000E+00  0.00000000000E+00  0.99999998245E-14  0.12500000000E+03  0.12500000000E+03 0.  0.
        -11    1    3    3    0    0  0.28237047033E+02  0.35292170613E+00 -0.21938810084E+02  0.35759848532E+02  0.51100000000E-03 0. -1.
         23    2    1    0    0    0 -0.33028479008E+01  0.16990058926E+02  0.24929453391E+02  0.94651218263E+02  0.89653803967E+02 0.  0.
         11    1    3    3    0    0 -0.31539894934E+02  0.16637137220E+02  0.46868263475E+02  0.58891369731E+02  0.51100000000E-03 0.  1.
         22    1    1    0    0    0  0.33028479008E+01 -0.16990058926E+02 -0.24929453391E+02  0.30348781737E+02  0.00000000000E+00 0.  1.
</event>
<event>
 5    1  0.1099741E-009  0.9118800E+02  0.7818608E-02  0.1130116E+00
         25   -1    0    0    0    0  0.00000000000E+00  0.00000000000E+00  0.99999998245E-14  0.12500000000E+03  0.12500000000E+03 0.  0.
        -11    1    3    3    0    0 -0.39946111108E+02 -0.27015598073E+02 -0.96005300819E+01  0.49170158735E+02  0.51100000000E-03 0.  1.
         23    2    1    0    0    0 -0.49803963360E+01 -0.19824418759E+02  0.20637479600E+02  0.95953184494E+02  0.91451058625E+02 0.  0.
         11    1    3    3    0    0  0.34965714772E+02  0.71911793141E+01  0.30238009682E+02  0.46783025760E+02  0.51100000000E-03 0. -1.
         22    1    1    0    0    0  0.49803963360E+01  0.19824418759E+02 -0.20637479600E+02  0.29046815506E+02  0.00000000000E+00 0.  1.
</event>
<event>
 5    1  0.1099741E-009  0.9118800E+02  0.7818608E-02  0.1130116E+00
         25   -1    0    0    0    0  0.00000000000E+00  0.00000000000E+00  0.99999998245E-14  0.12500000000E+03  0.12500000000E+03 0.  0.
        -11    1    3    3    0    0 -0.20145747196E+02 -0.34686829704E+02 -0.35069564393E+02  0.53281344127E+02  0.51100000000E-03 0.  1.
         23    2    1    0    0    0 -0.12689874947E+02 -0.19983309702E+02  0.84863118234E+01  0.99852771899E+02  0.96634326068E+02 0.  0.
         11    1    3    3    0    0  0.74558722495E+01  0.14703520002E+02  0.43555876217E+02  0.46571427772E+02  0.51100000000E-03 0. -1.
         22    1    1    0    0    0  0.12689874947E+02  0.19983309702E+02 -0.84863118234E+01  0.25147228101E+02  0.00000000000E+00 0.  1.
</event>
<event>
 5    1  0.1099741E-009  0.9118800E+02  0.7818608E-02  0.1130116E+00
         25   -1    0    0    0    0  0.00000000000E+00  0.00000000000E+00  0.99999998245E-14  0.12500000000E+03  0.12500000000E+03 0.  0.
        -11    1    3    3    0    0 -0.42962373045E+02 -0.11805763353E+02 -0.40428479131E+02  0.60163140469E+02  0.51100000000E-03 0. -1.
         23    2    1    0    0    0 -0.33076379729E+02 -0.19220566026E+02 -0.29003877778E+02  0.76992688259E+02  0.60192790805E+02 0.  0.
         11    1    3    3    0    0  0.98859933153E+01 -0.74148026736E+01  0.11424601352E+02  0.16829547791E+02  0.51100000000E-03 0.  1.
         22    1    1    0    0    0  0.33076379729E+02  0.19220566026E+02  0.29003877778E+02  0.48007311741E+02  0.00000000000E+00 0. -1.
</event>
<event>
 5    1  0.1099741E-009  0.9118800E+02  0.7818608E-02  0.1130116E+00
         25   -1    0    0    0    0  0.00000000000E+00  0.00000000000E+00  0.99999998245E-14  0.12500000000E+03  0.12500000000E+03 0.  0.
        -11    1    3    3    0    0  0.23109027919E+02 -0.85948518264E+01 -0.34788243651E+02  0.42639424784E+02  0.51100000000E-03 0.  1.
         23    2    1    0    0    0 -0.24944784379E+02  0.10209573729E+01 -0.17096458996E+02  0.94741554371E+02  0.89779666922E+02 0.  0.
         11    1    3    3    0    0 -0.48053812298E+02  0.96158091993E+01  0.17691784655E+02  0.52102129587E+02  0.51100000000E-03 0. -1.
         22    1    1    0    0    0  0.24944784379E+02 -0.10209573729E+01  0.17096458996E+02  0.30258445629E+02  0.00000000000E+00 0. -1.
</event>
<event>
 5    1  0.1099741E-009  0.9118800E+02  0.7818608E-02  0.1130116E+00
         25   -1    0    0    0    0  0.00000000000E+00  0.00000000000E+00  0.99999998245E-14  0.12500000000E+03  0.12500000000E+03 0.  0.
        -11    1    3    3    0    0  0.19620363448E+02 -0.41659730128E+02 -0.29830644999E+02  0.54866739993E+02  0.51100000000E-03 0.  1.
         23    2    1    0    0    0  0.14024101609E+02 -0.27317821692E+02  0.58621731206E+01  0.93738140145E+02  0.88371573689E+02 0.  0.
         11    1    3    3    0    0 -0.55962618386E+01  0.14341908436E+02  0.35692818120E+02  0.38871400152E+02  0.51100000000E-03 0. -1.
         22    1    1    0    0    0 -0.14024101609E+02  0.27317821692E+02 -0.58621731206E+01  0.31261859855E+02  0.00000000000E+00 0.  1.
</event>
<event>
 5    1  0.1099741E-009  0.9118800E+02  0.7818608E-02  0.1130116E+00
         25   -1    0    0    0    0  0.00000000000E+00  0.00000000000E+00  0.99999998245E-14  0.12500000000E+03  0.12500000000E+03 0.  0.
        -11    1    3    3    0    0  0.12866536429E+02 -0.50810336999E+00  0.36735487019E+02  0.38926879344E+02  0.51100000000E-03 0. -1.
         23    2    1    0    0    0 -0.18232789554E+02  0.93493728032E+01 -0.14662170589E+02  0.99804273515E+02  0.96571571276E+02 0.  0.
         11    1    3    3    0    0 -0.31099325983E+02  0.98574761732E+01 -0.51397657608E+02  0.60877394170E+02  0.51100000000E-03 0.  1.
         22    1    1    0    0    0  0.18232789554E+02 -0.93493728032E+01  0.14662170589E+02  0.25195726485E+02  0.00000000000E+00 0.  1.
</event>
<event>
 5    1  0.1099741E-009  0.9118800E+02  0.7818608E-02  0.1130116E+00
         25   -1    0    0    0    0  0.00000000000E+00  0.00000000000E+00  0.99999998245E-14  0.12500000000E+03  0.12500000000E+03 0.  0.
        -11    1    3    3    0    0 -0.29724399389E+02  0.14975733544E+02 -0.29699818084E+02  0.44608202258E+02  0.51100000000E-03 0. -1.
         23    2    1    0    0    0 -0.22184507824E+02 -0.93834688475E+01  0.15394927766E+02  0.96413190526E+02  0.92077671731E+02 0.  0.
         11    1    3    3    0    0  0.75398915647E+01 -0.24359202391E+02  0.45094745850E+02  0.51804988268E+02  0.51100000000E-03 0.  1.
         22    1    1    0    0    0  0.22184507824E+02  0.93834688475E+01 -0.15394927766E+02  0.28586809474E+02  0.00000000000E+00 0.  1.
</event>
<event>
 5    1  0.1099741E-009  0.9118800E+02  0.7818608E-02  0.1130116E+00
         25   -1    0    0    0    0  0.00000000000E+00  0.00000000000E+00  0.99999998245E-14  0.12500000000E+03  0.12500000000E+03 0.  0.
        -11    1    3    3    0    0 -0.10787603652E+02 -0.31549543302E+02  0.49952493351E+02  0.60058285585E+02  0.51100000000E-03 0.  1.
         23    2    1    0    0    0 -0.15358795748E+02 -0.83912199769E+01  0.25743586516E+02  0.93870634022E+02  0.88558785591E+02 0.  0.
         11    1    3    3    0    0 -0.45711920954E+01  0.23158323326E+02 -0.24208906835E+02  0.33812348437E+02  0.51100000000E-03 0. -1.
         22    1    1    0    0    0  0.15358795748E+02  0.83912199769E+01 -0.25743586516E+02  0.31129365978E+02  0.00000000000E+00 0. -1.
</event>
<event>
 5    1  0.1099741E-009  0.9118800E+02  0.7818608E-02  0.1130116E+00
         25   -1    0    0    0    0  0.00000000000E+00  0.00000000000E+00  0.99999998245E-14  0.12500000000E+03  0.12500000000E+03 0.  0.
        -11    1    3    3    0    0 -0.40378431633E+02  0.54297973786E+00 -0.25878733058E+02  0.47962708358E+02  0.51100000000E-03 0. -1.
         23    2    1    0    0    0  0.85960569708E+01  0.36227522016E+01 -0.26361924649E+02  0.97036316406E+02  0.92919745488E+02 0.  0.
         11    1    3    3    0    0  0.48974488604E+02  0.30797724637E+01 -0.48319159107E+00  0.49073608048E+02  0.51100000000E-03 0.  1.
         22    1    1    0    0    0 -0.85960569708E+01 -0.36227522016E+01  0.26361924649E+02  0.27963683594E+02  0.00000000000E+00 0.  1.
</event>
<event>
 5    1  0.1099741E-009  0.9118800E+02  0.7818608E-02  0.1130116E+00
         25   -1    0    0    0    0  0.00000000000E+00  0.00000000000E+00  0.99999998245E-14  0.12500000000E+03  0.12500000000E+03 0.  0.
        -11    1    3    3    0    0  0.28585141235E+02 -0.45081380276E+02 -0.28275446748E+02  0.60406473462E+02  0.51100000000E-03 0.  1.
         23    2    1    0    0    0  0.10595089790E+02 -0.14249128912E+02 -0.22127422315E+02  0.96628951011E+02  0.92370112877E+02 0.  0.
         11    1    3    3    0    0 -0.17990051445E+02  0.30832251364E+02  0.61480244328E+01  0.36222477550E+02  0.51100000000E-03 0. -1.
         22    1    1    0    0    0 -0.10595089790E+02  0.14249128912E+02  0.22127422315E+02  0.28371048989E+02  0.00000000000E+00 0.  1.
</event>
<event>
 5    1  0.1099741E-009  0.9118800E+02  0.7818608E-02  0.1130116E+00
         25   -1    0    0    0    0  0.00000000000E+00  0.00000000000E+00  0.99999998245E-14  0.12500000000E+03  0.12500000000E+03 0.  0.
        -11    1    3    3    0    0 -0.41653909750E+02 -0.89123692155E+01 -0.42662504104E+02  0.60287376616E+02  0.51100000000E-03 0. -1.
         23    2    1    0    0    0 -0.19781384675E+02  0.76636816390E+01 -0.18715797750E+02  0.96710138188E+02  0.92479914290E+02 0.  0.
         11    1    3    3    0    0  0.21872525076E+02  0.16576050855E+02  0.23946706354E+02  0.36422761573E+02  0.51100000000E-03 0.  1.
         22    1    1    0    0    0  0.19781384675E+02 -0.76636816390E+01  0.18715797750E+02  0.28289861812E+02  0.00000000000E+00 0. -1.
</event>
<event>
 5    1  0.1099741E-009  0.9118800E+02  0.7818608E-02  0.1130116E+00
         25   -1    0    0    0    0  0.00000000000E+00  0.00000000000E+00  0.99999998245E-14  0.12500000000E+03  0.12500000000E+03 0.  0.
        -11    1    3    3    0    0 -0.23556302827E+02  0.25394997440E+02 -0.18051362534E+02  0.39059659337E+02  0.51100000000E-03 0. -1.
         23    2    1    0    0    0  0.12165217806E+02  0.11198543081E+02  0.23886715542E+02  0.95948750960E+02  0.91444998442E+02 0.  0.
         11    1    3    3    0    0  0.35721520633E+02 -0.14196454359E+02  0.41938078076E+02  0.56889091623E+02  0.51100000000E-03 0.  1.
         22    1    1    0    0    0 -0.12165217806E+02 -0.11198543081E+02 -0.23886715542E+02  0.29051249040E+02  0.00000000000E+00 0.  1.
</event>
<event>
 5    1  0.1099741E-009  0.9118800E+02  0.7818608E-02  0.1130116E+00
         25   -1    0    0    0    0  0.00000000000E+00  0.00000000000E+00  0.99999998245E-14  0.12500000000E+03  0.12500000000E+03 0.  0.
        -11    1    3    3    0    0 -0.22407652244E+02 -0.47709598188E+02 -0.26737177747E+02  0.59103175147E+02  0.51100000000E-03 0.  1.
         23    2    1    0    0    0 -0.14329786170E+02 -0.21666662681E+02  0.22826586942E+01  0.98923236893E+02  0.95424363887E+02 0.  0.
         11    1    3    3    0    0  0.80778660740E+01  0.26042935507E+02  0.29019836441E+02  0.39820061746E+02  0.51100000000E-03 0. -1.
         22    1    1    0    0    0  0.14329786170E+02  0.21666662681E+02 -0.22826586942E+01  0.26076763107E+02  0.00000000000E+00 0.  1.
</event>
<event>
 5    1  0.1099741E-009  0.9118800E+02  0.7818608E-02  0.1130116E+00
         25   -1    0    0    0    0  0.00000000000E+00  0.00000000000E+00  0.99999998245E-14  0.12500000000E+03  0.12500000000E+03 0.  0.
        -11    1    3    3    0    0  0.11964107729E+02 -0.34861972526E+02 -0.10546408116E+02  0.38336975971E+02  0.51100000000E-03 0.  1.
         23    2    1    0    0    0 -0.28677977171E+02  0.28245039792E+01  0.46546387042E+01  0.95809764324E+02  0.91254814016E+02 0.  0.
         11    1    3    3    0    0 -0.40642084900E+02  0.37686476505E+02  0.15201046820E+02  0.57472788353E+02  0.51100000000E-03 0. -1.
         22    1    1    0    0    0  0.28677977171E+02 -0.28245039792E+01 -0.46546387042E+01  0.29190235676E+02  0.00000000000E+00 0. -1.
</event>
<event>
 5    1  0.1099741E-009  0.9118800E+02  0.7818608E-02  0.1130116E+00
         25   -1    0    0    0    0  0.00000000000E+00  0.00000000000E+00  0.99999998245E-14  0.12500000000E+03  0.12500000000E+03 0.  0.
        -11    1    3    3    0    0 -0.30095204880E+02 -0.21832417827E+02 -0.63794055099E+01  0.37723635030E+02  0.51100000000E-03 0.  1.
         23    2    1    0    0    0  0.12359115190E+02  0.16814736935E+02 -0.19305531876E+02  0.96571375913E+02  0.92292166397E+02 0.  0.
         11    1    3    3    0    0  0.42454320071E+02  0.38647154762E+02 -0.12926126366E+02  0.58847740883E+02  0.51100000000E-03 0. -1.
         22    1    1    0    0    0 -0.12359115190E+02 -0.16814736935E+02  0.19305531876E+02  0.28428624087E+02  0.00000000000E+00 0. -1.
</event>
<event>
 5    1  0.1099741E-009  0.9118800E+02  0.7818608E-02  0.1130116E+00
         25   -1    0    0    0    0  0.00000000000E+00  0.00000000000E+00  0.99999998245E-14  0.12500000000E+03  0.12500000000E+03 0.  0.
        -11    1    3    3    0    0 -0.19734336751E+02  0.31361410220E+02  0.17404097565E+02  0.40937570889E+02  0.51100000000E-03 0. -1.
         23    2    1    0    0    0  0.27531753853E+02  0.45926561507E+01  0.64963329420E+01  0.96341802178E+02  0.91980707458E+02 0.  0.
         11    1    3    3    0    0  0.47266090604E+02 -0.26768754070E+02 -0.10907764623E+02  0.55404231289E+02  0.51100000000E-03 0.  1.
         22    1    1    0    0    0 -0.27531753853E+02 -0.45926561507E+01 -0.64963329420E+01  0.28658197822E+02  0.00000000000E+00 0.  1.
</event>
<event>
 5    1  0.1099741E-009  0.9118800E+02  0.7818608E-02  0.1130116E+00
         25   -1    0    0    0    0  0.00000000000E+00  0.00000000000E+00  0.99999998245E-14  0.12500000000E+03  0.12500000000E+03 0.  0.
        -11    1    3    3    0    0 -0.37018126024E+02 -0.45660621332E+02  0.16477479074E+01  0.58804328652E+02  0.51100000000E-03 0.  1.
         23    2    1    0    0    0 -0.92092227782E+01 -0.24546597585E+02  0.13285249510E+02  0.95608792272E+02  0.90979107865E+02 0.  0.
         11    1    3    3    0    0  0.27808903246E+02  0.21114023747E+02  0.11637501603E+02  0.36804463620E+02  0.51100000000E-03 0. -1.
         22    1    1    0    0    0  0.92092227782E+01  0.24546597585E+02 -0.13285249510E+02  0.29391207728E+02  0.00000000000E+00 0.  1.
</event>
<event>
 5    1  0.1099741E-009  0.9118800E+02  0.7818608E-02  0.1130116E+00
         25   -1    0    0    0    0  0.00000000000E+00  0.00000000000E+00  0.99999998245E-14  0.12500000000E+03  0.12500000000E+03 0.  0.
        -11    1    3    3    0    0  0.18219115015E+02 -0.23567433734E+02 -0.36214108157E+02  0.46891595351E+02  0.51100000000E-03 0.  1.
         23    2    1    0    0    0  0.23021031162E+02  0.86996205536E+00  0.10386283316E+02  0.99729471892E+02  0.96474701207E+02 0.  0.
         11    1    3    3    0    0  0.48019161468E+01  0.24437395789E+02  0.46600391473E+02  0.52837876541E+02  0.51100000000E-03 0. -1.
         22    1    1    0    0    0 -0.23021031162E+02 -0.86996205536E+00 -0.10386283316E+02  0.25270528108E+02  0.00000000000E+00 0.  1.
</event>
<event>
 5    1  0.1099741E-009  0.9118800E+02  0.7818608E-02  0.1130116E+00
         25   -1    0    0    0    0  0.00000000000E+00  0.00000000000E+00  0.99999998245E-14  0.12500000000E+03  0.12500000000E+03 0.  0.
        -11    1    3    3    0    0 -0.18539674533E+01 -0.35913004511E+02  0.14068590183E-02  0.35960827167E+02  0.51100000000E-03 0.  1.
         23    2    1    0    0    0 -0.26693697120E+02  0.16209059255E+02 -0.16987771852E+01  0.93724244025E+02  0.88351915691E+02 0.  0.
         11    1    3    3    0    0 -0.24839729667E+02  0.52122063765E+02 -0.17001840443E+01  0.57763416858E+02  0.51100000000E-03 0. -1.
         22    1    1    0    0    0  0.26693697120E+02 -0.16209059255E+02  0.16987771852E+01  0.31275755975E+02  0.00000000000E+00 0. -1.
</event>
<event>
 5    1  0.1099741E-009  0.9118800E+02  0.7818608E-02  0.1130116E+00
         25   -1    0    0    0    0  0.00000000000E+00  0.00000000000E+00  0.99999998245E-14  0.12500000000E+03  0.12500000000E+03 0.  0.
        -11    1    3    3    0    0  0.34652646686E+02  0.25472067034E+02 -0.24654740720E+02  0.49573060845E+02  0.51100000000E-03 0.  1.
         23    2    1    0    0    0  0.12111072862E+02 -0.18250075158E+02 -0.50806429846E+01  0.10251542168E+03  0.10001927524E+03 0.  0.
         11    1    3    3    0    0 -0.22541573825E+02 -0.43722142191E+02  0.19574097735E+02  0.52942360834E+02  0.51100000000E-03 0. -1.
         22    1    1    0    0    0 -0.12111072862E+02  0.18250075158E+02  0.50806429846E+01  0.22484578321E+02  0.00000000000E+00 0. -1.
</event>
<event>
 5    1  0.1099741E-009  0.9118800E+02  0.7818608E-02  0.1130116E+00
         25   -1    0    0    0    0  0.00000000000E+00  0.00000000000E+00  0.99999998245E-14  0.12500000000E+03  0.12500000000E+03 0.  0.
        -11    1    3    3    0    0 -0.42369377761E+02 -0.11248889335E+02  0.36320611232E+02  0.56928801881E+02  0.51100000000E-03 0.  1.
         23    2    1    0    0    0 -0.34974768437E+01 -0.12378474491E+02  0.24082833407E+02  0.97697219191E+02  0.93804609683E+02 0.  0.
         11    1    3    3    0    0  0.38871900917E+02 -0.11295851560E+01 -0.12237777825E+02  0.40768417309E+02  0.51100000000E-03 0. -1.
         22    1    1    0    0    0  0.34974768437E+01  0.12378474491E+02 -0.24082833407E+02  0.27302780809E+02  0.00000000000E+00 0.  1.
</event>
<event>
 5    1  0.1099741E-009  0.9118800E+02  0.7818608E-02  0.1130116E+00
         25   -1    0    0    0    0  0.00000000000E+00  0.00000000000E+00  0.99999998245E-14  0.12500000000E+03  0.12500000000E+03 0.  0.
        -11    1    3    3    0    0 -0.34350506887E+02  0.27309080483E+01 -0.50879023762E+02  0.61449900255E+02  0.51100000000E-03 0. -1.
         23    2    1    0    0    0 -0.16162717052E+02  0.79951688936E+01 -0.32474060235E+02  0.87855407711E+02  0.79616907298E+02 0.  0.
         11    1    3    3    0    0  0.18187789835E+02  0.52642608453E+01  0.18404963526E+02  0.26405507456E+02  0.51100000000E-03 0.  1.
         22    1    1    0    0    0  0.16162717052E+02 -0.79951688936E+01  0.32474060235E+02  0.37144592289E+02  0.00000000000E+00 0. -1.
</event>
<event>
 5    1  0.1099741E-009  0.9118800E+02  0.7818608E-02  0.1130116E+00
         25   -1    0    0    0    0  0.00000000000E+00  0.00000000000E+00  0.99999998245E-14  0.12500000000E+03  0.12500000000E+03 0.  0.
        -11    1    3    3    0    0 -0.48260230365E+02 -0.36568841413E+02  0.40448069074E+01  0.60685174963E+02  0.51100000000E-03 0.  1.
         23    2    1    0    0    0 -0.18364759682E+02 -0.20063094768E+02  0.11215497192E+02  0.95579266714E+02  0.90938532418E+02 0.  0.
         11    1    3    3    0    0  0.29895470683E+02  0.16505746645E+02  0.71706902845E+01  0.34894091750E+02  0.51100000000E-03 0. -1.
         22    1    1    0    0    0  0.18364759682E+02  0.20063094768E+02 -0.11215497192E+02  0.29420733286E+02  0.00000000000E+00 0.  1.
</event>
<event>
 5    1  0.1099741E-009  0.9118800E+02  0.7818608E-02  0.1130116E+00
         25   -1    0    0    0    0  0.00000000000E+00  0.00000000000E+00  0.99999998245E-14  0.12500000000E+03  0.12500000000E+03 0.  0.
        -11    1    3    3    0    0  0.25334237468E+02 -0.12402718120E+02  0.26190155855E+02  0.38491236260E+02  0.51100000000E-03 0. -1.
         23    2    1    0    0    0 -0.27111521827E+02  0.29597385800E+01  0.13380287558E+02  0.94621936148E+02  0.89612968018E+02 0.  0.
         11    1    3    3    0    0 -0.52445759295E+02  0.15362456700E+02 -0.12809868297E+02  0.56130699888E+02  0.51100000000E-03 0.  1.
         22    1    1    0    0    0  0.27111521827E+02 -0.29597385800E+01 -0.13380287558E+02  0.30378063852E+02  0.00000000000E+00 0.  1.
</event>
<event>
 5    1  0.1099741E-009  0.9118800E+02  0.7818608E-02  0.1130116E+00
         25   -1    0    0    0    0  0.00000000000E+00  0.00000000000E+00  0.99999998245E-14  0.12500000000E+03  0.12500000000E+03 0.  0.
        -11    1    3    3    0    0 -0.23613545927E+02  0.34556724897E+02 -0.12807097657E+02  0.43769721698E+02  0.51100000000E-03 0. -1.
         23    2    1    0    0    0 -0.21293667520E+02 -0.98352099117E+01  0.15879615019E+02  0.96674855630E+02  0.92432212499E+02 0.  0.
         11    1    3    3    0    0  0.23198784077E+01 -0.44391934809E+02  0.28686712675E+02  0.52905133931E+02  0.51100000000E-03 0.  1.
         22    1    1    0    0    0  0.21293667520E+02  0.98352099117E+01 -0.15879615019E+02  0.28325144370E+02  0.00000000000E+00 0.  1.
</event>
<event>
 5    1  0.1099741E-009  0.9118800E+02  0.7818608E-02  0.1130116E+00
         25   -1    0    0    0    0  0.00000000000E+00  0.00000000000E+00  0.99999998245E-14  0.12500000000E+03  0.12500000000E+03 0.  0.
        -11    1    3    3    0    0 -0.38195703180E+02 -0.24891059339E+02  0.34241721193E+02  0.57017296033E+02  0.51100000000E-03 0. -1.
         23    2    1    0    0    0 -0.27053512117E+02 -0.33844415584E+02  0.19714389993E+02  0.77397540432E+02  0.61027740480E+02 0.  0.
         11    1    3    3    0    0  0.11142191063E+02 -0.89533562452E+01 -0.14527331200E+02  0.20380244399E+02  0.51100000000E-03 0.  1.
         22    1    1    0    0    0  0.27053512117E+02  0.33844415584E+02 -0.19714389993E+02  0.47602459568E+02  0.00000000000E+00 0. -1.
</event>
<event>
 5    1  0.1099741E-009  0.9118800E+02  0.7818608E-02  0.1130116E+00
         25   -1    0    0    0    0  0.00000000000E+00  0.00000000000E+00  0.99999998245E-14  0.12500000000E+03  0.12500000000E+03 0.  0.
        -11    1    3    3    0    0  0.26204028286E+02  0.21006234124E+02 -0.72016800980E+01  0.34347884462E+02  0.51100000000E-03 0. -1.
         23    2    1    0    0    0 -0.20161858251E+02 -0.18404199158E+02 -0.11557315531E+02  0.95355664671E+02  0.90630657991E+02 0.  0.
         11    1    3    3    0    0 -0.46365886537E+02 -0.39410433282E+02 -0.43556354329E+01  0.61007780210E+02  0.51100000000E-03 0.  1.
         22    1    1    0    0    0  0.20161858251E+02  0.18404199158E+02  0.11557315531E+02  0.29644335329E+02  0.00000000000E+00 0.  1.
</event>
<event>
 5    1  0.1099741E-009  0.9118800E+02  0.7818608E-02  0.1130116E+00
         25   -1    0    0    0    0  0.00000000000E+00  0.00000000000E+00  0.99999998245E-14  0.12500000000E+03  0.12500000000E+03 0.  0.
        -11    1    3    3    0    0 -0.41308817669E+02 -0.35424703954E+02 -0.11669594006E+01  0.54430596745E+02  0.51100000000E-03 0. -1.
         23    2    1    0    0    0 -0.27218856065E+02  0.31248174436E+01 -0.88929613956E+01  0.96195219634E+02  0.91781288444E+02 0.  0.
         11    1    3    3    0    0  0.14089961604E+02  0.38549521398E+02 -0.77260019950E+01  0.41764622889E+02  0.51100000000E-03 0.  1.
         22    1    1    0    0    0  0.27218856065E+02 -0.31248174436E+01  0.88929613956E+01  0.28804780366E+02  0.00000000000E+00 0. -1.
</event>
<event>
 5    1  0.1099741E-009  0.9118800E+02  0.7818608E-02  0.1130116E+00
         25   -1    0    0    0    0  0.00000000000E+00  0.00000000000E+00  0.99999998245E-14  0.12500000000E+03  0.12500000000E+03 0.  0.
        -11    1    3    3    0    0  0.22673550610E+02 -0.38056856824E+02 -0.32489463351E+01  0.44418125818E+02  0.51100000000E-03 0.  1.
         23    2    1    0    0    0  0.26394745361E+02  0.12027583350E+02  0.57206630722E+01  0.95435302642E+02  0.90740430132E+02 0.  0.
         11    1    3    3    0    0  0.37211947508E+01  0.50084440174E+02  0.89696094073E+01  0.51017176824E+02  0.51100000000E-03 0. -1.
         22    1    1    0    0    0 -0.26394745361E+02 -0.12027583350E+02 -0.57206630722E+01  0.29564697358E+02  0.00000000000E+00 0. -1.
</event>
<event>
 5    1  0.1099741E-009  0.9118800E+02  0.7818608E-02  0.1130116E+00
         25   -1    0    0    0    0  0.00000000000E+00  0.00000000000E+00  0.99999998245E-14  0.12500000000E+03  0.12500000000E+03 0.  0.
        -11    1    3    3    0    0  0.63849032496E+01 -0.52144490274E+02 -0.26478126957E+02  0.58829465940E+02  0.51100000000E-03 0. -1.
         23    2    1    0    0    0 -0.12033064324E+02 -0.22658797542E+02 -0.14047127075E+02  0.95750426975E+02  0.91173498034E+02 0.  0.
         11    1    3    3    0    0 -0.18417967573E+02  0.29485692732E+02  0.12430999882E+02  0.36920961035E+02  0.51100000000E-03 0.  1.
         22    1    1    0    0    0  0.12033064324E+02  0.22658797542E+02  0.14047127075E+02  0.29249573025E+02  0.00000000000E+00 0. -1.
</event>
<event>
 5    1  0.1099741E-009  0.9118800E+02  0.7818608E-02  0.1130116E+00
         25   -1    0    0    0    0  0.00000000000E+00  0.00000000000E+00  0.99999998245E-14  0.12500000000E+03  0.12500000000E+03 0.  0.
        -11    1    3    3    0    0  0.20206006372E+02  0.35428996996E+02  0.31265042886E+02  0.51390655070E+02  0.51100000000E-03 0.  1.
         23    2    1    0    0    0 -0.11879675761E+02  0.28023733434E+02  0.36926175179E+01  0.94339084229E+02  0.89217549044E+02 0.  0.
         11    1    3    3    0    0 -0.32085682133E+02 -0.74052635616E+01 -0.27572425368E+02  0.42948429159E+02  0.51100000000E-03 0. -1.
         22    1    1    0    0    0  0.11879675761E+02 -0.28023733434E+02 -0.36926175179E+01  0.30660915771E+02  0.00000000000E+00 0. -1.
</event>
<event>
 5    1  0.1099741E-009  0.9118800E+02  0.7818608E-02  0.1130116E+00
         25   -1    0    0    0    0  0.00000000000E+00  0.00000000000E+00  0.99999998245E-14  0.12500000000E+03  0.12500000000E+03 0.  0.
        -11    1    3    3    0    0 -0.45089453534E+02  0.27167645149E+02 -0.27918753127E+02  0.59586882276E+02  0.51100000000E-03 0. -1.
         23    2    1    0    0    0 -0.12532411544E+02  0.18200135276E+02 -0.21900233953E+02  0.93888482673E+02  0.88583975234E+02 0.  0.
         11    1    3    3    0    0  0.32557041991E+02 -0.89675098733E+01  0.60185191738E+01  0.34301600397E+02  0.51100000000E-03 0.  1.
         22    1    1    0    0    0  0.12532411544E+02 -0.18200135276E+02  0.21900233953E+02  0.31111517327E+02  0.00000000000E+00 0. -1.
</event>
<event>
 5    1  0.1099741E-009  0.9118800E+02  0.7818608E-02  0.1130116E+00
         25   -1    0    0    0    0  0.00000000000E+00  0.00000000000E+00  0.99999998245E-14  0.12500000000E+03  0.12500000000E+03 0.  0.
        -11    1    3    3    0    0 -0.33807970043E+02  0.70912777283E+01 -0.65456070933E+01  0.35158356485E+02  0.51100000000E-03 0.  1.
         23    2    1    0    0    0  0.20808495527E+02  0.33677709902E+01  0.19950442110E+02  0.95976638583E+02  0.91483111260E+02 0.  0.
         11    1    3    3    0    0  0.54616465570E+02 -0.37235067382E+01  0.26496049203E+02  0.60818282099E+02  0.51100000000E-03 0. -1.
         22    1    1    0    0    0 -0.20808495527E+02 -0.33677709902E+01 -0.19950442110E+02  0.29023361417E+02  0.00000000000E+00 0. -1.
</event>
<event>
 5    1  0.1099741E-009  0.9118800E+02  0.7818608E-02  0.1130116E+00
         25   -1    0    0    0    0  0.00000000000E+00  0.00000000000E+00  0.99999998245E-14  0.12500000000E+03  0.12500000000E+03 0.  0.
        -11    1    3    3    0    0  0.21352905005E+02 -0.55838232856E+02  0.15404544773E+02  0.61734551109E+02  0.51100000000E-03 0. -1.
         23    2    1    0    0    0  0.66516889341E+01 -0.25444987985E+02  0.35843504363E+00  0.98697512381E+02  0.95128219238E+02 0.  0.
         11    1    3    3    0    0 -0.14701216071E+02  0.30393244871E+02 -0.15046109729E+02  0.36962961272E+02  0.51100000000E-03 0.  1.
         22    1    1    0    0    0 -0.66516889341E+01  0.25444987985E+02 -0.35843504363E+00  0.26302487619E+02  0.00000000000E+00 0. -1.
</event>
<event>
 5    1  0.1099741E-009  0.9118800E+02  0.7818608E-02  0.1130116E+00
         25   -1    0    0    0    0  0.00000000000E+00  0.00000000000E+00  0.99999998245E-14  0.12500000000E+03  0.12500000000E+03 0.  0.
        -11    1    3    3    0    0  0.22715065091E+02 -0.69437470862E+01  0.52932074836E+02  0.58017190146E+02  0.51100000000E-03 0. -1.
         23    2    1    0    0    0  0.21407281377E+02  0.80870083355E+01  0.18627096717E+02  0.95493388337E+02  0.90820411165E+02 0.  0.
         11    1    3    3    0    0 -0.13077837147E+01  0.15030755422E+02 -0.34304978119E+02  0.37476198191E+02  0.51100000000E-03 0.  1.
         22    1    1    0    0    0 -0.21407281377E+02 -0.80870083355E+01 -0.18627096717E+02  0.29506611663E+02  0.00000000000E+00 0. -1.
</event>
<event>
 5    1  0.1099741E-009  0.9118800E+02  0.7818608E-02  0.1130116E+00
         25   -1    0    0    0    0  0.00000000000E+00  0.00000000000E+00  0.99999998245E-14  0.12500000000E+03  0.12500000000E+03 0.  0.
        -11    1    3    3    0    0  0.14864852824E+02 -0.31008510035E+02  0.87844295635E+01  0.35491657430E+02  0.51100000000E-03 0.  1.
         23    2    1    0    0    0 -0.29638130126E+02  0.69403277425E+01  0.54774064197E+01  0.94071228805E+02  0.88841472304E+02 0.  0.
         11    1    3    3    0    0 -0.44502982951E+02  0.37948837777E+02 -0.33070231438E+01  0.58579571375E+02  0.51100000000E-03 0. -1.
         22    1    1    0    0    0  0.29638130126E+02 -0.69403277425E+01 -0.54774064197E+01  0.30928771195E+02  0.00000000000E+00 0. -1.
</event>
<event>
 5    1  0.1099741E-009  0.9118800E+02  0.7818608E-02  0.1130116E+00
         25   -1    0    0    0    0  0.00000000000E+00  0.00000000000E+00  0.99999998245E-14  0.12500000000E+03  0.12500000000E+03 0.  0.
        -11    1    3    3    0    0 -0.30474098819E+02 -0.22399633781E+02 -0.86168568149E+01  0.38790005336E+02  0.51100000000E-03 0. -1.
         23    2    1    0    0    0  0.26110307502E+02 -0.79986282892E+01 -0.45058971200E+01  0.97322765289E+02  0.93304294233E+02 0.  0.
         11    1    3    3    0    0  0.56584406321E+02  0.14401005491E+02  0.41109596949E+01  0.58532759953E+02  0.51100000000E-03 0.  1.
         22    1    1    0    0    0 -0.26110307502E+02  0.79986282892E+01  0.45058971200E+01  0.27677234711E+02  0.00000000000E+00 0.  1.
</event>
<event>
 5    1  0.1099741E-009  0.9118800E+02  0.7818608E-02  0.1130116E+00
         25   -1    0    0    0    0  0.00000000000E+00  0.00000000000E+00  0.99999998245E-14  0.12500000000E+03  0.12500000000E+03 0.  0.
        -11    1    3    3    0    0  0.35659388507E+02  0.11204170154E+02 -0.77706285928E+01  0.38177324246E+02  0.51100000000E-03 0.  1.
         23    2    1    0    0    0 -0.65617462451E+01 -0.28027274420E+02 -0.40445037086E+01  0.95932103010E+02  0.91422238829E+02 0.  0.
         11    1    3    3    0    0 -0.42221134753E+02 -0.39231444574E+02  0.37261248842E+01  0.57754778764E+02  0.51100000000E-03 0. -1.
         22    1    1    0    0    0  0.65617462451E+01  0.28027274420E+02  0.40445037086E+01  0.29067896990E+02  0.00000000000E+00 0. -1.
</event>
<event>
 5    1  0.1099741E-009  0.9118800E+02  0.7818608E-02  0.1130116E+00
         25   -1    0    0    0    0  0.00000000000E+00  0.00000000000E+00  0.99999998245E-14  0.12500000000E+03  0.12500000000E+03 0.  0.
        -11    1    3    3    0    0  0.14748665852E+02 -0.25595878948E+02  0.35711848363E+02  0.46346610203E+02  0.51100000000E-03 0.  1.
         23    2    1    0    0    0  0.29787476948E+02 -0.87147592045E+00 -0.34065086012E+01  0.95005707976E+02  0.90146697077E+02 0.  0.
         11    1    3    3    0    0  0.15038811096E+02  0.24724403028E+02 -0.39118356964E+02  0.48659097773E+02  0.51100000000E-03 0. -1.
         22    1    1    0    0    0 -0.29787476948E+02  0.87147592045E+00  0.34065086012E+01  0.29994292024E+02  0.00000000000E+00 0. -1.
</event>
<event>
 5    1  0.1099741E-009  0.9118800E+02  0.7818608E-02  0.1130116E+00
         25   -1    0    0    0    0  0.00000000000E+00  0.00000000000E+00  0.99999998245E-14  0.12500000000E+03  0.12500000000E+03 0.  0.
        -11    1    3    3    0    0  0.21394079620E+02 -0.35476871113E+02 -0.32986178297E+02  0.52956614182E+02  0.51100000000E-03 0. -1.
         23    2    1    0    0    0  0.22497325012E+02  0.43507761300E+01 -0.19161762691E+02  0.95129746653E+02  0.90318528903E+02 0.  0.
         11    1    3    3    0    0  0.11032453914E+01  0.39827647243E+02  0.13824415606E+02  0.42173132471E+02  0.51100000000E-03 0.  1.
         22    1    1    0    0    0 -0.22497325012E+02 -0.43507761300E+01  0.19161762691E+02  0.29870253347E+02  0.00000000000E+00 0. -1.
</event>
<event>
 5    1  0.1099741E-009  0.9118800E+02  0.7818608E-02  0.1130116E+00
         25   -1    0    0    0    0  0.00000000000E+00  0.00000000000E+00  0.99999998245E-14  0.12500000000E+03  0.12500000000E+03 0.  0.
        -11    1    3    3    0    0 -0.26357591539E+02  0.28481213753E+02 -0.18196346302E+01  0.38848593785E+02  0.51100000000E-03 0.  1.
         23    2    1    0    0    0  0.15102372696E+00 -0.13382865641E+02  0.26059815887E+02  0.95704302278E+02  0.91110238555E+02 0.  0.
         11    1    3    3    0    0  0.26508615266E+02 -0.41864079395E+02  0.27879450517E+02  0.56855708493E+02  0.51100000000E-03 0. -1.
         22    1    1    0    0    0 -0.15102372696E+00  0.13382865641E+02 -0.26059815887E+02  0.29295697722E+02  0.00000000000E+00 0. -1.
</event>
<event>
 5    1  0.1099741E-009  0.9118800E+02  0.7818608E-02  0.1130116E+00
         25   -1    0    0    0    0  0.00000000000E+00  0.00000000000E+00  0.99999998245E-14  0.12500000000E+03  0.12500000000E+03 0.  0.
        -11    1    3    3    0    0  0.33104781490E+02 -0.86551140853E+01  0.46857075084E+02  0.58020884542E+02  0.51100000000E-03 0.  1.
         23    2    1    0    0    0  0.11837317759E+01 -0.16538747352E+01  0.30256259844E+02  0.94675459076E+02  0.89687595401E+02 0.  0.
         11    1    3    3    0    0 -0.31921049714E+02  0.70012393501E+01 -0.16600815241E+02  0.36654574533E+02  0.51100000000E-03 0. -1.
         22    1    1    0    0    0 -0.11837317759E+01  0.16538747352E+01 -0.30256259844E+02  0.30324540924E+02  0.00000000000E+00 0.  1.
</event>
<event>
 5    1  0.1099741E-009  0.9118800E+02  0.7818608E-02  0.1130116E+00
         25   -1    0    0    0    0  0.00000000000E+00  0.00000000000E+00  0.99999998245E-14  0.12500000000E+03  0.12500000000E+03 0.  0.
        -11    1    3    3    0    0 -0.39383086755E+01 -0.26841084802E+02  0.37274463196E+02  0.46101406870E+02  0.51100000000E-03 0. -1.
         23    2    1    0    0    0 -0.67193755102E+01 -0.28712815594E+02 -0.10277784075E+02  0.93771669400E+02  0.88418987497E+02 0.  0.
         11    1    3    3    0    0 -0.27810668346E+01 -0.18717307920E+01 -0.47552247271E+02  0.47670262530E+02  0.51100000000E-03 0.  1.
         22    1    1    0    0    0  0.67193755102E+01  0.28712815594E+02  0.10277784075E+02  0.31228330600E+02  0.00000000000E+00 0.  1.
</event>
<event>
 5    1  0.1099741E-009  0.9118800E+02  0.7818608E-02  0.1130116E+00
         25   -1    0    0    0    0  0.00000000000E+00  0.00000000000E+00  0.99999998245E-14  0.12500000000E+03  0.12500000000E+03 0.  0.
        -11    1    3    3    0    0  0.17797201674E+02 -0.53736053620E+02 -0.98573196659E+01  0.57458424946E+02  0.51100000000E-03 0.  1.
         23    2    1    0    0    0  0.18557579951E+02 -0.15669899686E+02 -0.15844981641E+02  0.96000121155E+02  0.91515191574E+02 0.  0.
         11    1    3    3    0    0  0.76037827785E+00  0.38066153934E+02 -0.59876619750E+01  0.38541696209E+02  0.51100000000E-03 0. -1.
         22    1    1    0    0    0 -0.18557579951E+02  0.15669899686E+02  0.15844981641E+02  0.28999878845E+02  0.00000000000E+00 0.  1.
</event>
<event>
 5    1  0.1099741E-009  0.9118800E+02  0.7818608E-02  0.1130116E+00
         25   -1    0    0    0    0  0.00000000000E+00  0.00000000000E+00  0.99999998245E-14  0.12500000000E+03  0.12500000000E+03 0.  0.
        -11    1    3    3    0    0 -0.32728772438E+02  0.11459556568E+02 -0.17814583443E+02  0.38985296787E+02  0.51100000000E-03 0.  1.
         23    2    1    0    0    0 -0.60956110676E+01 -0.15976537635E+02  0.23925554113E+02  0.95591865603E+02  0.90955848634E+02 0.  0.
         11    1    3    3    0    0  0.26633161371E+02 -0.27436094203E+02  0.41740137556E+02  0.56606568816E+02  0.51100000000E-03 0. -1.
         22    1    1    0    0    0  0.60956110676E+01  0.15976537635E+02 -0.23925554113E+02  0.29408134397E+02  0.00000000000E+00 0.  1.
</event>
<event>
 5    1  0.1099741E-009  0.9118800E+02  0.7818608E-02  0.1130116E+00
         25   -1    0    0    0    0  0.00000000000E+00  0.00000000000E+00  0.99999998245E-14  0.12500000000E+03  0.12500000000E+03 0.  0.
        -11    1    3    3    0    0  0.25024762037E+02  0.43879859919E+02  0.35671379413E+02  0.61839535340E+02  0.51100000000E-03 0.  1.
         23    2    1    0    0    0  0.62099451984E+01  0.20784061437E+02  0.19978255437E+02  0.95509809775E+02  0.90843009879E+02 0.  0.
         11    1    3    3    0    0 -0.18814816838E+02 -0.23095798482E+02 -0.15693123976E+02  0.33670274436E+02  0.51100000000E-03 0. -1.
         22    1    1    0    0    0 -0.62099451984E+01 -0.20784061437E+02 -0.19978255437E+02  0.29490190225E+02  0.00000000000E+00 0.  1.
</event>
<event>
 5    1  0.1099741E-009  0.9118800E+02  0.7818608E-02  0.1130116E+00
         25   -1    0    0    0    0  0.00000000000E+00  0.00000000000E+00  0.99999998245E-14  0.12500000000E+03  0.12500000000E+03 0.  0.
        -11    1    3    3    0    0 -0.21995193102E+02  0.35540378105E+02  0.16918580834E+02  0.45090413318E+02  0.51100000000E-03 0. -1.
         23    2    1    0    0    0 -0.20413477700E+02 -0.22882430182E+00 -0.19930651420E+02  0.96469432211E+02  0.92153990975E+02 0.  0.
         11    1    3    3    0    0  0.15817154024E+01 -0.35769202407E+02 -0.36849232254E+02  0.51379018893E+02  0.51100000000E-03 0.  1.
         22    1    1    0    0    0  0.20413477700E+02  0.22882430182E+00  0.19930651420E+02  0.28530567789E+02  0.00000000000E+00 0.  1.
</event>
<event>
 5    1  0.1099741E-009  0.9118800E+02  0.7818608E-02  0.1130116E+00
         25   -1    0    0    0    0  0.00000000000E+00  0.00000000000E+00  0.99999998245E-14  0.12500000000E+03  0.12500000000E+03 0.  0.
        -11    1    3    3    0    0  0.30544750658E+02  0.70362508589E+01 -0.42121877825E+02  0.52504697035E+02  0.51100000000E-03 0.  1.
         23    2    1    0    0    0  0.99994167606E+01 -0.16498615519E+02 -0.35732028063E+02  0.84392482481E+02  0.73980542173E+02 0.  0.
         11    1    3    3    0    0 -0.20545333898E+02 -0.23534866378E+02  0.63898497624E+01  0.31887785446E+02  0.51100000000E-03 0. -1.
         22    1    1    0    0    0 -0.99994167606E+01  0.16498615519E+02  0.35732028063E+02  0.40607517519E+02  0.00000000000E+00 0.  1.
</event>
<event>
 5    1  0.1099741E-009  0.9118800E+02  0.7818608E-02  0.1130116E+00
         25   -1    0    0    0    0  0.00000000000E+00  0.00000000000E+00  0.99999998245E-14  0.12500000000E+03  0.12500000000E+03 0.  0.
        -11    1    3    3    0    0 -0.66525755290E+01  0.38594896461E+02 -0.10605705396E+02  0.40574669206E+02  0.51100000000E-03 0.  1.
         23    2    1    0    0    0 -0.25956105425E+02 -0.63128384900E+01  0.13492760409E+02  0.95072990091E+02  0.90239944164E+02 0.  0.
         11    1    3    3    0    0 -0.19303529896E+02 -0.44907734951E+02  0.24098465805E+02  0.54498320885E+02  0.51100000000E-03 0. -1.
         22    1    1    0    0    0  0.25956105425E+02  0.63128384900E+01 -0.13492760409E+02  0.29927009909E+02  0.00000000000E+00 0. -1.
</event>
<event>
 5    1  0.1099741E-009  0.9118800E+02  0.7818608E-02  0.1130116E+00
         25   -1    0    0    0    0  0.00000000000E+00  0.00000000000E+00  0.99999998245E-14  0.12500000000E+03  0.12500000000E+03 0.  0.
        -11    1    3    3    0    0 -0.30506413213E+02  0.37039412492E+02 -0.33543547341E+01  0.48102089568E+02  0.51100000000E-03 0. -1.
         23    2    1    0    0    0 -0.29368318751E+02 -0.89883311051E+01 -0.29497211574E+01  0.94145679440E+02  0.88946162705E+02 0.  0.
         11    1    3    3    0    0  0.11380944617E+01 -0.46027743597E+02  0.40463357673E+00  0.46043589872E+02  0.51100000000E-03 0.  1.
         22    1    1    0    0    0  0.29368318751E+02  0.89883311051E+01  0.29497211574E+01  0.30854320560E+02  0.00000000000E+00 0.  1.
</event>
<event>
 5    1  0.1099741E-009  0.9118800E+02  0.7818608E-02  0.1130116E+00
         25   -1    0    0    0    0  0.00000000000E+00  0.00000000000E+00  0.99999998245E-14  0.12500000000E+03  0.12500000000E+03 0.  0.
        -11    1    3    3    0    0  0.22259980069E+02 -0.30758373717E+02 -0.14965826087E+01  0.37997684484E+02  0.51100000000E-03 0. -1.
         23    2    1    0    0    0 -0.74105878315E+00  0.11154128261E+02 -0.29533769477E+02  0.93421410974E+02  0.87922424577E+02 0.  0.
         11    1    3    3    0    0 -0.23001038852E+02  0.41912501978E+02 -0.28037186868E+02  0.55423726490E+02  0.51100000000E-03 0.  1.
         22    1    1    0    0    0  0.74105878315E+00 -0.11154128261E+02  0.29533769477E+02  0.31578589026E+02  0.00000000000E+00 0.  1.
</event>
<event>
 5    1  0.1099741E-009  0.9118800E+02  0.7818608E-02  0.1130116E+00
         25   -1    0    0    0    0  0.00000000000E+00  0.00000000000E+00  0.99999998245E-14  0.12500000000E+03  0.12500000000E+03 0.  0.
        -11    1    3    3    0    0  0.37464926753E+02  0.81841376384E+01  0.40471364482E+02  0.55754212297E+02  0.51100000000E-03 0. -1.
         23    2    1    0    0    0  0.24390528551E+02  0.28522553353E+01 -0.18547061804E+01  0.10037332384E+03  0.97305349087E+02 0.  0.
         11    1    3    3    0    0 -0.13074398202E+02 -0.53318823031E+01 -0.42326070663E+02  0.44619111547E+02  0.51100000000E-03 0.  1.
         22    1    1    0    0    0 -0.24390528551E+02 -0.28522553353E+01  0.18547061804E+01  0.24626676156E+02  0.00000000000E+00 0. -1.
</event>
<event>
 5    1  0.1099741E-009  0.9118800E+02  0.7818608E-02  0.1130116E+00
         25   -1    0    0    0    0  0.00000000000E+00  0.00000000000E+00  0.99999998245E-14  0.12500000000E+03  0.12500000000E+03 0.  0.
        -11    1    3    3    0    0  0.57527281185E+01 -0.71908458879E+01  0.46210047310E+02  0.47118686506E+02  0.51100000000E-03 0.  1.
         23    2    1    0    0    0  0.63531290531E+01 -0.29357352134E+02  0.41345037826E+01  0.94679866514E+02  0.89693737956E+02 0.  0.
         11    1    3    3    0    0  0.60040093461E+00 -0.22166506246E+02 -0.42075543527E+02  0.47561180009E+02  0.51100000000E-03 0. -1.
         22    1    1    0    0    0 -0.63531290531E+01  0.29357352134E+02 -0.41345037826E+01  0.30320133486E+02  0.00000000000E+00 0.  1.
</event>
<event>
 5    1  0.1099741E-009  0.9118800E+02  0.7818608E-02  0.1130116E+00
         25   -1    0    0    0    0  0.00000000000E+00  0.00000000000E+00  0.99999998245E-14  0.12500000000E+03  0.12500000000E+03 0.  0.
        -11    1    3    3    0    0  0.38810480430E+02  0.40199305662E+02  0.17601934663E+02  0.58583834554E+02  0.51100000000E-03 0.  1.
         23    2    1    0    0    0  0.13490795598E+02  0.26570547698E+02 -0.45153375794E+01  0.94860593166E+02  0.89945251634E+02 0.  0.
         11    1    3    3    0    0 -0.25319684832E+02 -0.13628757963E+02 -0.22117272243E+02  0.36276758611E+02  0.51100000000E-03 0. -1.
         22    1    1    0    0    0 -0.13490795598E+02 -0.26570547698E+02  0.45153375794E+01  0.30139406834E+02  0.00000000000E+00 0.  1.
</event>
<event>
 5    1  0.1099741E-009  0.9118800E+02  0.7818608E-02  0.1130116E+00
         25   -1    0    0    0    0  0.00000000000E+00  0.00000000000E+00  0.99999998245E-14  0.12500000000E+03  0.12500000000E+03 0.  0.
        -11    1    3    3    0    0  0.99606498869E+01  0.33195647003E+02 -0.27137112112E+02  0.44018046074E+02  0.51100000000E-03 0. -1.
         23    2    1    0    0    0  0.26326372830E+02  0.31894854936E+01  0.11925802271E+02  0.95922938871E+02  0.91409708007E+02 0.  0.
         11    1    3    3    0    0  0.16365722943E+02 -0.30006161510E+02  0.39062914383E+02  0.51904892797E+02  0.51100000000E-03 0.  1.
         22    1    1    0    0    0 -0.26326372830E+02 -0.31894854936E+01 -0.11925802271E+02  0.29077061129E+02  0.00000000000E+00 0.  1.
</event>
<event>
 5    1  0.1099741E-009  0.9118800E+02  0.7818608E-02  0.1130116E+00
         25   -1    0    0    0    0  0.00000000000E+00  0.00000000000E+00  0.99999998245E-14  0.12500000000E+03  0.12500000000E+03 0.  0.
        -11    1    3    3    0    0  0.43198574062E+02 -0.15158173513E+02 -0.11902427844E+02  0.47302799220E+02  0.51100000000E-03 0. -1.
         23    2    1    0    0    0  0.12642744623E+01 -0.32922424682E+00 -0.29744418692E+02  0.95226904396E+02  0.90452894365E+02 0.  0.
         11    1    3    3    0    0 -0.41934299600E+02  0.14828949266E+02 -0.17841990847E+02  0.47924105176E+02  0.51100000000E-03 0.  1.
         22    1    1    0    0    0 -0.12642744623E+01  0.32922424682E+00  0.29744418692E+02  0.29773095604E+02  0.00000000000E+00 0.  1.
</event>
<event>
 5    1  0.1099741E-009  0.9118800E+02  0.7818608E-02  0.1130116E+00
         25   -1    0    0    0    0  0.00000000000E+00  0.00000000000E+00  0.99999998245E-14  0.12500000000E+03  0.12500000000E+03 0.  0.
        -11    1    3    3    0    0 -0.46375042886E+01  0.16797994472E+01 -0.33033925399E+02  0.33400125744E+02  0.51100000000E-03 0. -1.
         23    2    1    0    0    0 -0.59814196741E+01  0.16716451357E+01  0.28946305969E+02  0.95394925975E+02  0.90684791965E+02 0.  0.
         11    1    3    3    0    0 -0.13439153855E+01 -0.81543114789E-02  0.61980231368E+02  0.61994800231E+02  0.51100000000E-03 0.  1.
         22    1    1    0    0    0  0.59814196741E+01 -0.16716451357E+01 -0.28946305969E+02  0.29605074025E+02  0.00000000000E+00 0.  1.
</event>
<event>
 5    1  0.1099741E-009  0.9118800E+02  0.7818608E-02  0.1130116E+00
         25   -1    0    0    0    0  0.00000000000E+00  0.00000000000E+00  0.99999998245E-14  0.12500000000E+03  0.12500000000E+03 0.  0.
        -11    1    3    3    0    0 -0.59830124471E+02 -0.11260248282E+02  0.81296925042E+01  0.61420915705E+02  0.51100000000E-03 0.  1.
         23    2    1    0    0    0 -0.29394642464E+02 -0.22145910248E+01 -0.36713348429E+01  0.95294308315E+02  0.90545994272E+02 0.  0.
         11    1    3    3    0    0  0.30435482007E+02  0.90456572569E+01 -0.11801027347E+02  0.33873392610E+02  0.51100000000E-03 0. -1.
         22    1    1    0    0    0  0.29394642464E+02  0.22145910248E+01  0.36713348429E+01  0.29705691685E+02  0.00000000000E+00 0.  1.
</event>
<event>
 5    1  0.1099741E-009  0.9118800E+02  0.7818608E-02  0.1130116E+00
         25   -1    0    0    0    0  0.00000000000E+00  0.00000000000E+00  0.99999998245E-14  0.12500000000E+03  0.12500000000E+03 0.  0.
        -11    1    3    3    0    0 -0.27369487988E+02 -0.19125420098E+02  0.95986984042E+01  0.34741985809E+02  0.51100000000E-03 0.  1.
         23    2    1    0    0    0  0.15576010012E+02  0.85643923624E+01 -0.23433622552E+02  0.95587492961E+02  0.90949839143E+02 0.  0.
         11    1    3    3    0    0  0.42945498000E+02  0.27689812460E+02 -0.33032320956E+02  0.60845507152E+02  0.51100000000E-03 0. -1.
         22    1    1    0    0    0 -0.15576010012E+02 -0.85643923624E+01  0.23433622552E+02  0.29412507039E+02  0.00000000000E+00 0. -1.
</event>
<event>
 5    1  0.1099741E-009  0.9118800E+02  0.7818608E-02  0.1130116E+00
         25   -1    0    0    0    0  0.00000000000E+00  0.00000000000E+00  0.99999998245E-14  0.12500000000E+03  0.12500000000E+03 0.  0.
        -11    1    3    3    0    0 -0.25511781135E+02  0.33463297303E+02 -0.97199919435E+01  0.43187052304E+02  0.51100000000E-03 0.  1.
         23    2    1    0    0    0 -0.19378573566E+02 -0.16565791441E+02 -0.17346018332E+02  0.94164324047E+02  0.88972360943E+02 0.  0.
         11    1    3    3    0    0  0.61332075690E+01 -0.50029088744E+02 -0.76260263880E+01  0.50977271743E+02  0.51100000000E-03 0. -1.
         22    1    1    0    0    0  0.19378573566E+02  0.16565791441E+02  0.17346018332E+02  0.30835675953E+02  0.00000000000E+00 0.  1.
</event>
<event>
 5    1  0.1099741E-009  0.9118800E+02  0.7818608E-02  0.1130116E+00
         25   -1    0    0    0    0  0.00000000000E+00  0.00000000000E+00  0.99999998245E-14  0.12500000000E+03  0.12500000000E+03 0.  0.
        -11    1    3    3    0    0  0.39668194109E+02  0.42902168752E+02 -0.11012536446E+02  0.59459546473E+02  0.51100000000E-03 0.  1.
         23    2    1    0    0    0  0.95283532227E+01  0.27352900897E+02  0.24130011797E+01  0.95934672249E+02  0.91425751636E+02 0.  0.
         11    1    3    3    0    0 -0.30139840887E+02 -0.15549267855E+02  0.13425537626E+02  0.36475125775E+02  0.51100000000E-03 0. -1.
         22    1    1    0    0    0 -0.95283532227E+01 -0.27352900897E+02 -0.24130011797E+01  0.29065327751E+02  0.00000000000E+00 0.  1.
</event>
<event>
 5    1  0.1099741E-009  0.9118800E+02  0.7818608E-02  0.1130116E+00
         25   -1    0    0    0    0  0.00000000000E+00  0.00000000000E+00  0.99999998245E-14  0.12500000000E+03  0.12500000000E+03 0.  0.
        -11    1    3    3    0    0  0.27590516222E+02  0.80692462556E+01 -0.18255072656E+02  0.34052855952E+02  0.51100000000E-03 0.  1.
         23    2    1    0    0    0 -0.28683783265E+02 -0.16109382271E+01  0.52374632828E+01  0.95797507538E+02  0.91238023238E+02 0.  0.
         11    1    3    3    0    0 -0.56274299487E+02 -0.96801844827E+01  0.23492535939E+02  0.61744651586E+02  0.51100000000E-03 0. -1.
         22    1    1    0    0    0  0.28683783265E+02  0.16109382271E+01 -0.52374632828E+01  0.29202492462E+02  0.00000000000E+00 0. -1.
</event>
<event>
 5    1  0.1099741E-009  0.9118800E+02  0.7818608E-02  0.1130116E+00
         25   -1    0    0    0    0  0.00000000000E+00  0.00000000000E+00  0.99999998245E-14  0.12500000000E+03  0.12500000000E+03 0.  0.
        -11    1    3    3    0    0  0.77836328680E+01  0.23187427399E+02  0.38806051665E+02  0.45871029813E+02  0.51100000000E-03 0. -1.
         23    2    1    0    0    0 -0.17887668652E+01 -0.22238767382E+02  0.15636535425E+02  0.97755483090E+02  0.93882217553E+02 0.  0.
         11    1    3    3    0    0 -0.95723997332E+01 -0.45426194780E+02 -0.23169516240E+02  0.51884453278E+02  0.51100000000E-03 0.  1.
         22    1    1    0    0    0  0.17887668652E+01  0.22238767382E+02 -0.15636535425E+02  0.27244516910E+02  0.00000000000E+00 0. -1.
</event>
<event>
 5    1  0.1099741E-009  0.9118800E+02  0.7818608E-02  0.1130116E+00
         25   -1    0    0    0    0  0.00000000000E+00  0.00000000000E+00  0.99999998245E-14  0.12500000000E+03  0.12500000000E+03 0.  0.
        -11    1    3    3    0    0 -0.24042185436E+02 -0.87609988573E+01 -0.22347937249E+02  0.33973696900E+02  0.51100000000E-03 0. -1.
         23    2    1    0    0    0  0.19873907689E+02 -0.20774300021E+01  0.20979885782E+02  0.96026848123E+02  0.91551690486E+02 0.  0.
         11    1    3    3    0    0  0.43916093125E+02  0.66835688552E+01  0.43327823030E+02  0.62053151224E+02  0.51100000000E-03 0.  1.
         22    1    1    0    0    0 -0.19873907689E+02  0.20774300021E+01 -0.20979885782E+02  0.28973151877E+02  0.00000000000E+00 0.  1.
</event>
<event>
 5    1  0.1099741E-009  0.9118800E+02  0.7818608E-02  0.1130116E+00
         25   -1    0    0    0    0  0.00000000000E+00  0.00000000000E+00  0.99999998245E-14  0.12500000000E+03  0.12500000000E+03 0.  0.
        -11    1    3    3    0    0  0.16836720239E+02 -0.11905533733E+02 -0.39399554585E+02  0.44469560192E+02  0.51100000000E-03 0.  1.
         23    2    1    0    0    0 -0.21571676414E+02 -0.16577806643E+02 -0.30419196265E+02  0.84189604293E+02  0.73636954535E+02 0.  0.
         11    1    3    3    0    0 -0.38408396653E+02 -0.46722729096E+01  0.89803583203E+01  0.39720044101E+02  0.51100000000E-03 0. -1.
         22    1    1    0    0    0  0.21571676414E+02  0.16577806643E+02  0.30419196265E+02  0.40810395707E+02  0.00000000000E+00 0. -1.
</event>
<event>
 5    1  0.1099741E-009  0.9118800E+02  0.7818608E-02  0.1130116E+00
         25   -1    0    0    0    0  0.00000000000E+00  0.00000000000E+00  0.99999998245E-14  0.12500000000E+03  0.12500000000E+03 0.  0.
        -11    1    3    3    0    0 -0.37722120603E+01  0.39439452743E+02  0.18870801986E+02  0.43884019693E+02  0.51100000000E-03 0.  1.
         23    2    1    0    0    0  0.22245235236E+02  0.84453915285E+01 -0.15184320220E+02  0.96773439647E+02  0.92565435838E+02 0.  0.
         11    1    3    3    0    0  0.26017447297E+02 -0.30994061215E+02 -0.34055122206E+02  0.52889419955E+02  0.51100000000E-03 0. -1.
         22    1    1    0    0    0 -0.22245235236E+02 -0.84453915285E+01  0.15184320220E+02  0.28226560353E+02  0.00000000000E+00 0. -1.
</event>
<event>
 5    1  0.1099741E-009  0.9118800E+02  0.7818608E-02  0.1130116E+00
         25   -1    0    0    0    0  0.00000000000E+00  0.00000000000E+00  0.99999998245E-14  0.12500000000E+03  0.12500000000E+03 0.  0.
        -11    1    3    3    0    0 -0.40838011989E+02  0.25384325398E+02 -0.22866343735E+02  0.53244500892E+02  0.51100000000E-03 0. -1.
         23    2    1    0    0    0 -0.13795233081E+02  0.22254465502E+02  0.10917415076E+02  0.96631714143E+02  0.92373852013E+02 0.  0.
         11    1    3    3    0    0  0.27042778908E+02 -0.31298598966E+01  0.33783758811E+02  0.43387213251E+02  0.51100000000E-03 0.  1.
         22    1    1    0    0    0  0.13795233081E+02 -0.22254465502E+02 -0.10917415076E+02  0.28368285857E+02  0.00000000000E+00 0. -1.
</event>
<event>
 5    1  0.1099741E-009  0.9118800E+02  0.7818608E-02  0.1130116E+00
         25   -1    0    0    0    0  0.00000000000E+00  0.00000000000E+00  0.99999998245E-14  0.12500000000E+03  0.12500000000E+03 0.  0.
        -11    1    3    3    0    0 -0.14311509175E+02 -0.29689731671E+02  0.34834327184E+02  0.47955498248E+02  0.51100000000E-03 0. -1.
         23    2    1    0    0    0  0.20530300704E+01 -0.26647183909E+02 -0.10527821125E+02  0.96275056826E+02  0.91889957049E+02 0.  0.
         11    1    3    3    0    0  0.16364539246E+02  0.30425477628E+01 -0.45362148309E+02  0.48319558577E+02  0.51100000000E-03 0.  1.
         22    1    1    0    0    0 -0.20530300704E+01  0.26647183909E+02  0.10527821125E+02  0.28724943174E+02  0.00000000000E+00 0.  1.
</event>
<event>
 5    1  0.1099741E-009  0.9118800E+02  0.7818608E-02  0.1130116E+00
         25   -1    0    0    0    0  0.00000000000E+00  0.00000000000E+00  0.99999998245E-14  0.12500000000E+03  0.12500000000E+03 0.  0.
        -11    1    3    3    0    0 -0.23147038944E+02  0.18593154655E+02 -0.49956262468E+02  0.58112984538E+02  0.51100000000E-03 0. -1.
         23    2    1    0    0    0  0.10853546178E+01 -0.22774729803E+01 -0.27955630474E+02  0.96930761445E+02  0.92777639339E+02 0.  0.
         11    1    3    3    0    0  0.24232393561E+02 -0.20870627635E+02  0.22000631994E+02  0.38817776907E+02  0.51100000000E-03 0.  1.
         22    1    1    0    0    0 -0.10853546178E+01  0.22774729803E+01  0.27955630474E+02  0.28069238555E+02  0.00000000000E+00 0. -1.
</event>
<event>
 5    1  0.1099741E-009  0.9118800E+02  0.7818608E-02  0.1130116E+00
         25   -1    0    0    0    0  0.00000000000E+00  0.00000000000E+00  0.99999998245E-14  0.12500000000E+03  0.12500000000E+03 0.  0.
        -11    1    3    3    0    0 -0.16450541735E+02 -0.88940559624E+01 -0.51887490281E+02  0.55154657127E+02  0.51100000000E-03 0. -1.
         23    2    1    0    0    0 -0.49351235194E+01 -0.24744590792E+02 -0.19082710231E+02  0.93364576068E+02  0.87841584782E+02 0.  0.
         11    1    3    3    0    0  0.11515418215E+02 -0.15850534830E+02  0.32804780051E+02  0.38209918941E+02  0.51100000000E-03 0.  1.
         22    1    1    0    0    0  0.49351235194E+01  0.24744590792E+02  0.19082710231E+02  0.31635423932E+02  0.00000000000E+00 0. -1.
</event>
<event>
 5    1  0.1099741E-009  0.9118800E+02  0.7818608E-02  0.1130116E+00
         25   -1    0    0    0    0  0.00000000000E+00  0.00000000000E+00  0.99999998245E-14  0.12500000000E+03  0.12500000000E+03 0.  0.
        -11    1    3    3    0    0  0.21003474814E+02 -0.30614430877E+02 -0.13188726930E+02  0.39399642771E+02  0.51100000000E-03 0. -1.
         23    2    1    0    0    0 -0.26154951207E+02 -0.32014444315E+01 -0.16266292047E+02  0.94033518507E+02  0.88788398041E+02 0.  0.
         11    1    3    3    0    0 -0.47158426021E+02  0.27412986445E+02 -0.30775651171E+01  0.54633875736E+02  0.51100000000E-03 0.  1.
         22    1    1    0    0    0  0.26154951207E+02  0.32014444315E+01  0.16266292047E+02  0.30966481493E+02  0.00000000000E+00 0.  1.
</event>
<event>
 5    1  0.1099741E-009  0.9118800E+02  0.7818608E-02  0.1130116E+00
         25   -1    0    0    0    0  0.00000000000E+00  0.00000000000E+00  0.99999998245E-14  0.12500000000E+03  0.12500000000E+03 0.  0.
        -11    1    3    3    0    0  0.38500445698E+02 -0.15145274163E+02 -0.10787011578E+02  0.42755388753E+02  0.51100000000E-03 0. -1.
         23    2    1    0    0    0 -0.13052122020E+02 -0.25738225154E+02 -0.25008555553E+01  0.96033322561E+02  0.91560529926E+02 0.  0.
         11    1    3    3    0    0 -0.51552567718E+02 -0.10592950992E+02  0.82861560225E+01  0.53277933808E+02  0.51100000000E-03 0.  1.
         22    1    1    0    0    0  0.13052122020E+02  0.25738225154E+02  0.25008555553E+01  0.28966677439E+02  0.00000000000E+00 0. -1.
</event>
<event>
 5    1  0.1099741E-009  0.9118800E+02  0.7818608E-02  0.1130116E+00
         25   -1    0    0    0    0  0.00000000000E+00  0.00000000000E+00  0.99999998245E-14  0.12500000000E+03  0.12500000000E+03 0.  0.
        -11    1    3    3    0    0 -0.32311543936E+01  0.17250396657E+02  0.45919287947E+02  0.49158901019E+02  0.51100000000E-03 0. -1.
         23    2    1    0    0    0 -0.18638312644E+02 -0.15397563964E+02  0.16481029619E+02  0.95740881566E+02  0.91160410220E+02 0.  0.
         11    1    3    3    0    0 -0.15407158251E+02 -0.32647960620E+02 -0.29438258328E+02  0.46581980547E+02  0.51100000000E-03 0.  1.
         22    1    1    0    0    0  0.18638312644E+02  0.15397563964E+02 -0.16481029619E+02  0.29259118434E+02  0.00000000000E+00 0. -1.
</event>
<event>
 5    1  0.1099741E-009  0.9118800E+02  0.7818608E-02  0.1130116E+00
         25   -1    0    0    0    0  0.00000000000E+00  0.00000000000E+00  0.99999998245E-14  0.12500000000E+03  0.12500000000E+03 0.  0.
        -11    1    3    3    0    0 -0.46735358465E+02 -0.35522227228E+02  0.66606010532E+01  0.59079488528E+02  0.51100000000E-03 0.  1.
         23    2    1    0    0    0 -0.12096519373E+02 -0.26948140891E+02 -0.41527118826E+00  0.95458494815E+02  0.90772373021E+02 0.  0.
         11    1    3    3    0    0  0.34638839092E+02  0.85740863370E+01 -0.70758722414E+01  0.36379006287E+02  0.51100000000E-03 0. -1.
         22    1    1    0    0    0  0.12096519373E+02  0.26948140891E+02  0.41527118826E+00  0.29541505185E+02  0.00000000000E+00 0.  1.
</event>
<event>
 5    1  0.1099741E-009  0.9118800E+02  0.7818608E-02  0.1130116E+00
         25   -1    0    0    0    0  0.00000000000E+00  0.00000000000E+00  0.99999998245E-14  0.12500000000E+03  0.12500000000E+03 0.  0.
        -11    1    3    3    0    0  0.11982808081E+02  0.53281020082E+02  0.39812208326E+01  0.54756779581E+02  0.51100000000E-03 0.  1.
         23    2    1    0    0    0 -0.11729724218E+02  0.23915462356E+02 -0.12049689168E+02  0.95764220911E+02  0.91192407730E+02 0.  0.
         11    1    3    3    0    0 -0.23712532299E+02 -0.29365557727E+02 -0.16030910001E+02  0.41007441329E+02  0.51100000000E-03 0. -1.
         22    1    1    0    0    0  0.11729724218E+02 -0.23915462356E+02  0.12049689168E+02  0.29235779089E+02  0.00000000000E+00 0.  1.
</event>
<event>
 5    1  0.1099741E-009  0.9118800E+02  0.7818608E-02  0.1130116E+00
         25   -1    0    0    0    0  0.00000000000E+00  0.00000000000E+00  0.99999998245E-14  0.12500000000E+03  0.12500000000E+03 0.  0.
        -11    1    3    3    0    0 -0.20751130483E+02 -0.53510470163E+02  0.62324484300E+00  0.57396587597E+02  0.51100000000E-03 0. -1.
         23    2    1    0    0    0  0.62220082980E+01 -0.28650339050E+02 -0.69892220927E+01  0.94860249829E+02  0.89944774485E+02 0.  0.
         11    1    3    3    0    0  0.26973138781E+02  0.24860131113E+02 -0.76124669357E+01  0.37463662231E+02  0.51100000000E-03 0.  1.
         22    1    1    0    0    0 -0.62220082980E+01  0.28650339050E+02  0.69892220927E+01  0.30139750171E+02  0.00000000000E+00 0. -1.
</event>
<event>
 5    1  0.1099741E-009  0.9118800E+02  0.7818608E-02  0.1130116E+00
         25   -1    0    0    0    0  0.00000000000E+00  0.00000000000E+00  0.99999998245E-14  0.12500000000E+03  0.12500000000E+03 0.  0.
        -11    1    3    3    0    0 -0.31510661915E+02 -0.28726106031E+02  0.56189077574E+01  0.43007942368E+02  0.51100000000E-03 0.  1.
         23    2    1    0    0    0 -0.40682318409E+01  0.21370329201E+02 -0.81584045670E+01  0.10176638114E+03  0.99078732753E+02 0.  0.
         11    1    3    3    0    0  0.27442430074E+02  0.50096435232E+02 -0.13777312324E+02  0.58758438768E+02  0.51100000000E-03 0. -1.
         22    1    1    0    0    0  0.40682318409E+01 -0.21370329201E+02  0.81584045670E+01  0.23233618864E+02  0.00000000000E+00 0. -1.
</event>
<event>
 5    1  0.1099741E-009  0.9118800E+02  0.7818608E-02  0.1130116E+00
         25   -1    0    0    0    0  0.00000000000E+00  0.00000000000E+00  0.99999998245E-14  0.12500000000E+03  0.12500000000E+03 0.  0.
        -11    1    3    3    0    0 -0.12116790045E+02 -0.52696308388E+01  0.51810717781E+02  0.53469019885E+02  0.51100000000E-03 0.  1.
         23    2    1    0    0    0  0.15950496843E+02  0.79438338283E+01  0.23820786037E+02  0.95251845556E+02  0.90487354857E+02 0.  0.
         11    1    3    3    0    0  0.28067286887E+02  0.13213464667E+02 -0.27989931744E+02  0.41782825671E+02  0.51100000000E-03 0. -1.
         22    1    1    0    0    0 -0.15950496843E+02 -0.79438338283E+01 -0.23820786037E+02  0.29748154444E+02  0.00000000000E+00 0.  1.
</event>
<event>
 5    1  0.1099741E-009  0.9118800E+02  0.7818608E-02  0.1130116E+00
         25   -1    0    0    0    0  0.00000000000E+00  0.00000000000E+00  0.99999998245E-14  0.12500000000E+03  0.12500000000E+03 0.  0.
        -11    1    3    3    0    0  0.11640824017E+02  0.20656188889E+02  0.20484795477E+02  0.31333907659E+02  0.51100000000E-03 0. -1.
         23    2    1    0    0    0 -0.32982182246E+02 -0.28504653053E+01 -0.10185903079E+02  0.90363283647E+02  0.83461493587E+02 0.  0.
         11    1    3    3    0    0 -0.44623006263E+02 -0.23506654194E+02 -0.30670698556E+02  0.59029375988E+02  0.51100000000E-03 0.  1.
         22    1    1    0    0    0  0.32982182246E+02  0.28504653053E+01  0.10185903079E+02  0.34636716353E+02  0.00000000000E+00 0.  1.
</event>
<event>
 5    1  0.1099741E-009  0.9118800E+02  0.7818608E-02  0.1130116E+00
         25   -1    0    0    0    0  0.00000000000E+00  0.00000000000E+00  0.99999998245E-14  0.12500000000E+03  0.12500000000E+03 0.  0.
        -11    1    3    3    0    0  0.55701199606E+02  0.83669294138E+01 -0.22506407206E+02  0.60656141576E+02  0.51100000000E-03 0.  1.
         23    2    1    0    0    0  0.28875337853E+02  0.17881942674E+01 -0.34696127457E+00  0.96067264958E+02  0.91606856946E+02 0.  0.
         11    1    3    3    0    0 -0.26825861752E+02 -0.65787351464E+01  0.22159445932E+02  0.35411123382E+02  0.51100000000E-03 0. -1.
         22    1    1    0    0    0 -0.28875337853E+02 -0.17881942674E+01  0.34696127457E+00  0.28932735042E+02  0.00000000000E+00 0.  1.
</event>
<event>
 5    1  0.1099741E-009  0.9118800E+02  0.7818608E-02  0.1130116E+00
         25   -1    0    0    0    0  0.00000000000E+00  0.00000000000E+00  0.99999998245E-14  0.12500000000E+03  0.12500000000E+03 0.  0.
        -11    1    3    3    0    0 -0.41380252099E+01 -0.22086102671E+02  0.28630605608E+02  0.36395477213E+02  0.51100000000E-03 0.  1.
         23    2    1    0    0    0  0.22736167969E+02  0.14381178107E+02 -0.10366805623E+02  0.96169074304E+02  0.91745673337E+02 0.  0.
         11    1    3    3    0    0  0.26874193179E+02  0.36467280777E+02 -0.38997411230E+02  0.59773597091E+02  0.51100000000E-03 0. -1.
         22    1    1    0    0    0 -0.22736167969E+02 -0.14381178107E+02  0.10366805623E+02  0.28830925696E+02  0.00000000000E+00 0. -1.
</event>
<event>
 5    1  0.1099741E-009  0.9118800E+02  0.7818608E-02  0.1130116E+00
         25   -1    0    0    0    0  0.00000000000E+00  0.00000000000E+00  0.99999998245E-14  0.12500000000E+03  0.12500000000E+03 0.  0.
        -11    1    3    3    0    0  0.16518768849E+02 -0.28737011817E+02 -0.98979553611E+01  0.34592702888E+02  0.51100000000E-03 0.  1.
         23    2    1    0    0    0 -0.55464418693E+01  0.17959494041E+02  0.22593358154E+02  0.95610099076E+02  0.90980903321E+02 0.  0.
         11    1    3    3    0    0 -0.22065210718E+02  0.46696505858E+02  0.32491313515E+02  0.61017396189E+02  0.51100000000E-03 0. -1.
         22    1    1    0    0    0  0.55464418693E+01 -0.17959494041E+02 -0.22593358154E+02  0.29389900924E+02  0.00000000000E+00 0. -1.
</event>
<event>
 5    1  0.1099741E-009  0.9118800E+02  0.7818608E-02  0.1130116E+00
         25   -1    0    0    0    0  0.00000000000E+00  0.00000000000E+00  0.99999998245E-14  0.12500000000E+03  0.12500000000E+03 0.  0.
        -11    1    3    3    0    0  0.48308862076E+02 -0.47589677017E+01 -0.35316203771E+02  0.60030227200E+02  0.51100000000E-03 0. -1.
         23    2    1    0    0    0  0.26340165782E+02  0.97529805407E+01 -0.20343117785E+02  0.90319062814E+02  0.83395237895E+02 0.  0.
         11    1    3    3    0    0 -0.21968696294E+02  0.14511948242E+02  0.14973085986E+02  0.30288835614E+02  0.51100000000E-03 0.  1.
         22    1    1    0    0    0 -0.26340165782E+02 -0.97529805407E+01  0.20343117785E+02  0.34680937186E+02  0.00000000000E+00 0. -1.
</event>
<event>
 5    1  0.1099741E-009  0.9118800E+02  0.7818608E-02  0.1130116E+00
         25   -1    0    0    0    0  0.00000000000E+00  0.00000000000E+00  0.99999998245E-14  0.12500000000E+03  0.12500000000E+03 0.  0.
        -11    1    3    3    0    0 -0.32743551726E+02 -0.39072771880E+02  0.32639984186E+02  0.60532555290E+02  0.51100000000E-03 0.  1.
         23    2    1    0    0    0 -0.74866218192E+01 -0.16690539806E+02  0.22966244121E+02  0.95638937446E+02  0.91020516157E+02 0.  0.
         11    1    3    3    0    0  0.25256929907E+02  0.22382232074E+02 -0.96737400648E+01  0.35106382155E+02  0.51100000000E-03 0. -1.
         22    1    1    0    0    0  0.74866218192E+01  0.16690539806E+02 -0.22966244121E+02  0.29361062554E+02  0.00000000000E+00 0.  1.
</event>
<event>
 4    1  0.1099741E-009  0.9118800E+02  0.7818608E-02  0.1130116E+00
         25   -1    0    0    0    0  0.00000000000E+00  0.00000000000E+00  0.99999998245E-14  0.12500000000E+03  0.12500000000E+03 0.  0.
        -11    1    1    0    0    0 -0.34174781037E+02 -0.38047434009E+02 -0.10757280632E+02  0.52261285675E+02  0.51100000000E-03 0.  1.
         11    1    1    0    0    0 -0.56820459132E+01 -0.24715749899E+01  0.14511091226E+02  0.15778659560E+02  0.51100000000E-03 0. -1.
         22    1    1    0    0    0  0.39856826950E+02  0.40519008999E+02 -0.37538105941E+01  0.56960054764E+02  0.00000000000E+00 0.  1.
</event>
<event>
 5    1  0.1099741E-009  0.9118800E+02  0.7818608E-02  0.1130116E+00
         25   -1    0    0    0    0  0.00000000000E+00  0.00000000000E+00  0.99999998245E-14  0.12500000000E+03  0.12500000000E+03 0.  0.
        -11    1    3    3    0    0 -0.43023551949E+02 -0.18977942349E+02  0.41047617357E+02  0.62418708807E+02  0.51100000000E-03 0.  1.
         23    2    1    0    0    0 -0.21680290276E+02 -0.83041438082E+01  0.17677268907E+02  0.95819876168E+02  0.91268664075E+02 0.  0.
         11    1    3    3    0    0  0.21343261673E+02  0.10673798541E+02 -0.23370348450E+02  0.33401167361E+02  0.51100000000E-03 0. -1.
         22    1    1    0    0    0  0.21680290276E+02  0.83041438082E+01 -0.17677268907E+02  0.29180123832E+02  0.00000000000E+00 0.  1.
</event>
<event>
 5    1  0.1099741E-009  0.9118800E+02  0.7818608E-02  0.1130116E+00
         25   -1    0    0    0    0  0.00000000000E+00  0.00000000000E+00  0.99999998245E-14  0.12500000000E+03  0.12500000000E+03 0.  0.
        -11    1    3    3    0    0 -0.18990270906E+02 -0.32648310536E+02  0.11022328472E+02  0.39345066974E+02  0.51100000000E-03 0. -1.
         23    2    1    0    0    0 -0.11018615987E+02  0.11446868769E+02 -0.23999766116E+02  0.96217549157E+02  0.91811694731E+02 0.  0.
         11    1    3    3    0    0  0.79716549191E+01  0.44095179305E+02 -0.35022094589E+02  0.56872482184E+02  0.51100000000E-03 0.  1.
         22    1    1    0    0    0  0.11018615987E+02 -0.11446868769E+02  0.23999766116E+02  0.28782450843E+02  0.00000000000E+00 0.  1.
</event>
<event>
 5    1  0.1099741E-009  0.9118800E+02  0.7818608E-02  0.1130116E+00
         25   -1    0    0    0    0  0.00000000000E+00  0.00000000000E+00  0.99999998245E-14  0.12500000000E+03  0.12500000000E+03 0.  0.
        -11    1    3    3    0    0  0.30192709566E+02  0.42818857515E+02  0.32248773217E+02  0.61522659598E+02  0.51100000000E-03 0. -1.
         23    2    1    0    0    0  0.17106759557E+02  0.22614995369E+02  0.83574368491E+01  0.95437760762E+02  0.90743816265E+02 0.  0.
         11    1    3    3    0    0 -0.13085950009E+02 -0.20203862145E+02 -0.23891336368E+02  0.33915101163E+02  0.51100000000E-03 0.  1.
         22    1    1    0    0    0 -0.17106759557E+02 -0.22614995369E+02 -0.83574368491E+01  0.29562239238E+02  0.00000000000E+00 0. -1.
</event>
<event>
 5    1  0.1099741E-009  0.9118800E+02  0.7818608E-02  0.1130116E+00
         25   -1    0    0    0    0  0.00000000000E+00  0.00000000000E+00  0.99999998245E-14  0.12500000000E+03  0.12500000000E+03 0.  0.
        -11    1    3    3    0    0 -0.85340007823E+01  0.26851038150E+02  0.15692491992E+02  0.32249987974E+02  0.51100000000E-03 0. -1.
         23    2    1    0    0    0  0.25153644449E+02 -0.19941280451E+02 -0.27450055128E+01  0.92783613636E+02  0.87010938445E+02 0.  0.
         11    1    3    3    0    0  0.33687645231E+02 -0.46792318602E+02 -0.18437497505E+02  0.60533625662E+02  0.51100000000E-03 0.  1.
         22    1    1    0    0    0 -0.25153644449E+02  0.19941280451E+02  0.27450055128E+01  0.32216386364E+02  0.00000000000E+00 0.  1.
</event>
<event>
 5    1  0.1099741E-009  0.9118800E+02  0.7818608E-02  0.1130116E+00
         25   -1    0    0    0    0  0.00000000000E+00  0.00000000000E+00  0.99999998245E-14  0.12500000000E+03  0.12500000000E+03 0.  0.
        -11    1    3    3    0    0 -0.39593222708E+02 -0.63269810576E+01 -0.22862906942E+02  0.46155893316E+02  0.51100000000E-03 0.  1.
         23    2    1    0    0    0 -0.25322080623E+02  0.28310922640E+02 -0.10845427792E+02  0.85498868221E+02  0.75826888735E+02 0.  0.
         11    1    3    3    0    0  0.14271142085E+02  0.34637903698E+02  0.12017479150E+02  0.39342974905E+02  0.51100000000E-03 0. -1.
         22    1    1    0    0    0  0.25322080623E+02 -0.28310922640E+02  0.10845427792E+02  0.39501131779E+02  0.00000000000E+00 0.  1.
</event>
<event>
 5    1  0.1099741E-009  0.9118800E+02  0.7818608E-02  0.1130116E+00
         25   -1    0    0    0    0  0.00000000000E+00  0.00000000000E+00  0.99999998245E-14  0.12500000000E+03  0.12500000000E+03 0.  0.
        -11    1    3    3    0    0  0.20226875315E+02 -0.56365978288E+02 -0.78067822957E+01  0.60392018045E+02  0.51100000000E-03 0.  1.
         23    2    1    0    0    0  0.15217010619E+02 -0.26069818384E+02  0.62657444848E+01  0.94170592015E+02  0.88981166568E+02 0.  0.
         11    1    3    3    0    0 -0.50098646959E+01  0.30296159904E+02  0.14072526780E+02  0.33778573970E+02  0.51100000000E-03 0. -1.
         22    1    1    0    0    0 -0.15217010619E+02  0.26069818384E+02 -0.62657444848E+01  0.30829407985E+02  0.00000000000E+00 0.  1.
</event>
<event>
 5    1  0.1099741E-009  0.9118800E+02  0.7818608E-02  0.1130116E+00
         25   -1    0    0    0    0  0.00000000000E+00  0.00000000000E+00  0.99999998245E-14  0.12500000000E+03  0.12500000000E+03 0.  0.
        -11    1    3    3    0    0  0.39840887450E+02  0.30214746631E+02  0.25392801348E+02  0.56080492039E+02  0.51100000000E-03 0.  1.
         23    2    1    0    0    0  0.28889459818E+02 -0.12135325897E+00  0.17747015115E+01  0.96055826482E+02  0.91591247511E+02 0.  0.
         11    1    3    3    0    0 -0.10951427632E+02 -0.30336099890E+02 -0.23618099837E+02  0.39975334443E+02  0.51100000000E-03 0. -1.
         22    1    1    0    0    0 -0.28889459818E+02  0.12135325897E+00 -0.17747015115E+01  0.28944173518E+02  0.00000000000E+00 0. -1.
</event>
<event>
 5    1  0.1099741E-009  0.9118800E+02  0.7818608E-02  0.1130116E+00
         25   -1    0    0    0    0  0.00000000000E+00  0.00000000000E+00  0.99999998245E-14  0.12500000000E+03  0.12500000000E+03 0.  0.
        -11    1    3    3    0    0  0.37176349420E+02  0.24241432357E+01 -0.20593152278E+02  0.42568008499E+02  0.51100000000E-03 0.  1.
         23    2    1    0    0    0 -0.16024695959E+02 -0.66008226468E+01 -0.22543817201E+02  0.96564363307E+02  0.92282668073E+02 0.  0.
         11    1    3    3    0    0 -0.53201045379E+02 -0.90249658825E+01 -0.19506649230E+01  0.53996354807E+02  0.51100000000E-03 0. -1.
         22    1    1    0    0    0  0.16024695959E+02  0.66008226468E+01  0.22543817201E+02  0.28435636693E+02  0.00000000000E+00 0. -1.
</event>
<event>
 5    1  0.1099741E-009  0.9118800E+02  0.7818608E-02  0.1130116E+00
         25   -1    0    0    0    0  0.00000000000E+00  0.00000000000E+00  0.99999998245E-14  0.12500000000E+03  0.12500000000E+03 0.  0.
        -11    1    3    3    0    0 -0.59368684244E+01 -0.25097520302E+02 -0.26331213977E+02  0.36857356956E+02  0.51100000000E-03 0.  1.
         23    2    1    0    0    0  0.15562436997E+01  0.29223794041E+02 -0.83239787671E+01  0.94574013490E+02  0.89546096355E+02 0.  0.
         11    1    3    3    0    0  0.74931121240E+01  0.54321314343E+02  0.18007235210E+02  0.57716656534E+02  0.51100000000E-03 0. -1.
         22    1    1    0    0    0 -0.15562436997E+01 -0.29223794041E+02  0.83239787671E+01  0.30425986510E+02  0.00000000000E+00 0.  1.
</event>
<event>
 5    1  0.1099741E-009  0.9118800E+02  0.7818608E-02  0.1130116E+00
         25   -1    0    0    0    0  0.00000000000E+00  0.00000000000E+00  0.99999998245E-14  0.12500000000E+03  0.12500000000E+03 0.  0.
        -11    1    3    3    0    0  0.47498607010E+02  0.34273278105E+02 -0.19200812572E+02  0.61639650094E+02  0.51100000000E-03 0. -1.
         23    2    1    0    0    0  0.17673286081E+02  0.21737944841E+02 -0.95593269381E+01  0.95398242986E+02  0.90689364021E+02 0.  0.
         11    1    3    3    0    0 -0.29825320929E+02 -0.12535333265E+02  0.96414856338E+01  0.33758592892E+02  0.51100000000E-03 0.  1.
         22    1    1    0    0    0 -0.17673286081E+02 -0.21737944841E+02  0.95593269381E+01  0.29601757014E+02  0.00000000000E+00 0. -1.
</event>
<event>
 5    1  0.1099741E-009  0.9118800E+02  0.7818608E-02  0.1130116E+00
         25   -1    0    0    0    0  0.00000000000E+00  0.00000000000E+00  0.99999998245E-14  0.12500000000E+03  0.12500000000E+03 0.  0.
        -11    1    3    3    0    0  0.11083576299E+02  0.29394905368E+02  0.52145125863E+02  0.60877091559E+02  0.51100000000E-03 0. -1.
         23    2    1    0    0    0  0.14626874144E+02  0.10927762635E+02  0.21946610662E+02  0.96451529586E+02  0.92129704203E+02 0.  0.
         11    1    3    3    0    0  0.35432978452E+01 -0.18467142732E+02 -0.30198515201E+02  0.35574438027E+02  0.51100000000E-03 0.  1.
         22    1    1    0    0    0 -0.14626874144E+02 -0.10927762635E+02 -0.21946610662E+02  0.28548470414E+02  0.00000000000E+00 0. -1.
</event>
<event>
 5    1  0.1099741E-009  0.9118800E+02  0.7818608E-02  0.1130116E+00
         25   -1    0    0    0    0  0.00000000000E+00  0.00000000000E+00  0.99999998245E-14  0.12500000000E+03  0.12500000000E+03 0.  0.
        -11    1    3    3    0    0 -0.29833639114E+02 -0.31722907831E+02  0.25228248069E+02  0.50327461737E+02  0.51100000000E-03 0.  1.
         23    2    1    0    0    0 -0.30839906167E+01 -0.24377841159E+02 -0.12717850160E+02  0.97331717611E+02  0.93316286910E+02 0.  0.
         11    1    3    3    0    0  0.26749648497E+02  0.73450666726E+01 -0.37946098229E+02  0.47004255873E+02  0.51100000000E-03 0. -1.
         22    1    1    0    0    0  0.30839906167E+01  0.24377841159E+02  0.12717850160E+02  0.27668282389E+02  0.00000000000E+00 0. -1.
</event>
<event>
 5    1  0.1099741E-009  0.9118800E+02  0.7818608E-02  0.1130116E+00
         25   -1    0    0    0    0  0.00000000000E+00  0.00000000000E+00  0.99999998245E-14  0.12500000000E+03  0.12500000000E+03 0.  0.
        -11    1    3    3    0    0  0.33696467763E+02  0.21351731049E+02  0.29529347900E+02  0.49631952875E+02  0.51100000000E-03 0.  1.
         23    2    1    0    0    0  0.23908610086E+02  0.12108717296E+02 -0.13694519823E+02  0.94903778577E+02  0.90005247870E+02 0.  0.
         11    1    3    3    0    0 -0.97878576774E+01 -0.92430137535E+01 -0.43223867723E+02  0.45271825702E+02  0.51100000000E-03 0. -1.
         22    1    1    0    0    0 -0.23908610086E+02 -0.12108717296E+02  0.13694519823E+02  0.30096221423E+02  0.00000000000E+00 0.  1.
</event>
<event>
 5    1  0.1099741E-009  0.9118800E+02  0.7818608E-02  0.1130116E+00
         25   -1    0    0    0    0  0.00000000000E+00  0.00000000000E+00  0.99999998245E-14  0.12500000000E+03  0.12500000000E+03 0.  0.
        -11    1    3    3    0    0 -0.45242334314E+02 -0.19328948996E+02 -0.63787082732E+01  0.49610130044E+02  0.51100000000E-03 0.  1.
         23    2    1    0    0    0 -0.43409038068E+00 -0.23125626911E+02 -0.17573662273E+02  0.95951477487E+02  0.91448725370E+02 0.  0.
         11    1    3    3    0    0  0.44808243933E+02 -0.37966779154E+01 -0.11194954000E+02  0.46341347444E+02  0.51100000000E-03 0. -1.
         22    1    1    0    0    0  0.43409038068E+00  0.23125626911E+02  0.17573662273E+02  0.29048522513E+02  0.00000000000E+00 0.  1.
</event>
<event>
 5    1  0.1099741E-009  0.9118800E+02  0.7818608E-02  0.1130116E+00
         25   -1    0    0    0    0  0.00000000000E+00  0.00000000000E+00  0.99999998245E-14  0.12500000000E+03  0.12500000000E+03 0.  0.
        -11    1    3    3    0    0  0.30883761256E+02 -0.14611717857E+02  0.49451302880E+01  0.34521925234E+02  0.51100000000E-03 0. -1.
         23    2    1    0    0    0 -0.18301408664E+02 -0.12249171574E+02  0.28397898919E+02  0.89063605825E+02  0.81491726305E+02 0.  0.
         11    1    3    3    0    0 -0.49185169919E+02  0.23625462832E+01  0.23452768631E+02  0.54541680591E+02  0.51100000000E-03 0.  1.
         22    1    1    0    0    0  0.18301408664E+02  0.12249171574E+02 -0.28397898919E+02  0.35936394175E+02  0.00000000000E+00 0. -1.
</event>
<event>
 5    1  0.1099741E-009  0.9118800E+02  0.7818608E-02  0.1130116E+00
         25   -1    0    0    0    0  0.00000000000E+00  0.00000000000E+00  0.99999998245E-14  0.12500000000E+03  0.12500000000E+03 0.  0.
        -11    1    3    3    0    0  0.60538534782E+01 -0.12796529108E+02 -0.31245543156E+02  0.34302831757E+02  0.51100000000E-03 0.  1.
         23    2    1    0    0    0  0.99636868183E+01 -0.10281966516E+02  0.27905274853E+02  0.93636035725E+02  0.88227030616E+02 0.  0.
         11    1    3    3    0    0  0.39098333401E+01  0.25145625925E+01  0.59150818009E+02  0.59333203968E+02  0.51100000000E-03 0. -1.
         22    1    1    0    0    0 -0.99636868183E+01  0.10281966516E+02 -0.27905274853E+02  0.31363964275E+02  0.00000000000E+00 0. -1.
</event>
<event>
 5    1  0.1099741E-009  0.9118800E+02  0.7818608E-02  0.1130116E+00
         25   -1    0    0    0    0  0.00000000000E+00  0.00000000000E+00  0.99999998245E-14  0.12500000000E+03  0.12500000000E+03 0.  0.
        -11    1    3    3    0    0 -0.11428560301E+02  0.45984048520E+02  0.14352880185E+02  0.49509088849E+02  0.51100000000E-03 0. -1.
         23    2    1    0    0    0  0.13289981903E+02  0.91048461255E+01  0.25087707854E+02  0.95185323625E+02  0.90395414188E+02 0.  0.
         11    1    3    3    0    0  0.24718542204E+02 -0.36879202394E+02  0.10734827669E+02  0.45676234776E+02  0.51100000000E-03 0.  1.
         22    1    1    0    0    0 -0.13289981903E+02 -0.91048461255E+01 -0.25087707854E+02  0.29814676375E+02  0.00000000000E+00 0. -1.
</event>
<event>
 5    1  0.1099741E-009  0.9118800E+02  0.7818608E-02  0.1130116E+00
         25   -1    0    0    0    0  0.00000000000E+00  0.00000000000E+00  0.99999998245E-14  0.12500000000E+03  0.12500000000E+03 0.  0.
        -11    1    3    3    0    0 -0.56477625274E+02  0.10335810910E+02  0.38434940969E+01  0.57544101270E+02  0.51100000000E-03 0.  1.
         23    2    1    0    0    0 -0.20020597676E+02  0.16914251771E+02  0.13057218647E+02  0.95718483594E+02  0.91129692737E+02 0.  0.
         11    1    3    3    0    0  0.36457027598E+02  0.65784408609E+01  0.92137245498E+01  0.38174382324E+02  0.51100000000E-03 0. -1.
         22    1    1    0    0    0  0.20020597676E+02 -0.16914251771E+02 -0.13057218647E+02  0.29281516406E+02  0.00000000000E+00 0.  1.
</event>
<event>
 5    1  0.1099741E-009  0.9118800E+02  0.7818608E-02  0.1130116E+00
         25   -1    0    0    0    0  0.00000000000E+00  0.00000000000E+00  0.99999998245E-14  0.12500000000E+03  0.12500000000E+03 0.  0.
        -11    1    3    3    0    0  0.31147541779E+02  0.28734949599E+02  0.87005475947E+01  0.43261602098E+02  0.51100000000E-03 0. -1.
         23    2    1    0    0    0 -0.14438036650E+02  0.21195010837E+02 -0.15103250018E+02  0.95237716019E+02  0.90467834088E+02 0.  0.
         11    1    3    3    0    0 -0.45585578429E+02 -0.75399387618E+01 -0.23803797613E+02  0.51976113921E+02  0.51100000000E-03 0.  1.
         22    1    1    0    0    0  0.14438036650E+02 -0.21195010837E+02  0.15103250018E+02  0.29762283981E+02  0.00000000000E+00 0. -1.
</event>
<event>
 5    1  0.1099741E-009  0.9118800E+02  0.7818608E-02  0.1130116E+00
         25   -1    0    0    0    0  0.00000000000E+00  0.00000000000E+00  0.99999998245E-14  0.12500000000E+03  0.12500000000E+03 0.  0.
        -11    1    3    3    0    0 -0.26528831168E+02  0.52601128333E+02 -0.17950999600E+02  0.61586491797E+02  0.51100000000E-03 0. -1.
         23    2    1    0    0    0 -0.58907430157E+01  0.28346496541E+02 -0.77204058790E+01  0.95036198733E+02  0.90188966527E+02 0.  0.
         11    1    3    3    0    0  0.20638088152E+02 -0.24254631792E+02  0.10230593721E+02  0.33449706936E+02  0.51100000000E-03 0.  1.
         22    1    1    0    0    0  0.58907430157E+01 -0.28346496541E+02  0.77204058790E+01  0.29963801267E+02  0.00000000000E+00 0. -1.
</event>
<event>
 5    1  0.1099741E-009  0.9118800E+02  0.7818608E-02  0.1130116E+00
         25   -1    0    0    0    0  0.00000000000E+00  0.00000000000E+00  0.99999998245E-14  0.12500000000E+03  0.12500000000E+03 0.  0.
        -11    1    3    3    0    0 -0.31546014648E+02 -0.34490436710E+02  0.61463232011E+01  0.47143595045E+02  0.51100000000E-03 0.  1.
         23    2    1    0    0    0 -0.54908521827E+01  0.11067215636E+01  0.28050141553E+02  0.96396071398E+02  0.92054428734E+02 0.  0.
         11    1    3    3    0    0  0.26055162465E+02  0.35597158274E+02  0.21903818352E+02  0.49252476353E+02  0.51100000000E-03 0. -1.
         22    1    1    0    0    0  0.54908521827E+01 -0.11067215636E+01 -0.28050141553E+02  0.28603928602E+02  0.00000000000E+00 0. -1.
</event>
<event>
 5    1  0.1099741E-009  0.9118800E+02  0.7818608E-02  0.1130116E+00
         25   -1    0    0    0    0  0.00000000000E+00  0.00000000000E+00  0.99999998245E-14  0.12500000000E+03  0.12500000000E+03 0.  0.
        -11    1    3    3    0    0 -0.19796622560E+02  0.23459568730E+02 -0.12874999140E+02  0.33286982935E+02  0.51100000000E-03 0.  1.
         23    2    1    0    0    0  0.18068139423E+02 -0.11512601082E+02  0.21027192872E+02  0.94980997919E+02  0.90112426888E+02 0.  0.
         11    1    3    3    0    0  0.37864761983E+02 -0.34972169813E+02  0.33902192012E+02  0.61694014984E+02  0.51100000000E-03 0. -1.
         22    1    1    0    0    0 -0.18068139423E+02  0.11512601082E+02 -0.21027192872E+02  0.30019002081E+02  0.00000000000E+00 0. -1.
</event>
<event>
 5    1  0.1099741E-009  0.9118800E+02  0.7818608E-02  0.1130116E+00
         25   -1    0    0    0    0  0.00000000000E+00  0.00000000000E+00  0.99999998245E-14  0.12500000000E+03  0.12500000000E+03 0.  0.
        -11    1    3    3    0    0  0.18374777856E+02  0.25060058322E+02  0.42722347385E+02  0.52828382057E+02  0.51100000000E-03 0. -1.
         23    2    1    0    0    0  0.78739996053E+01 -0.13312981268E+02  0.23130097314E+02  0.97174890085E+02  0.93105974681E+02 0.  0.
         11    1    3    3    0    0 -0.10500778251E+02 -0.38373039589E+02 -0.19592250071E+02  0.44346508028E+02  0.51100000000E-03 0.  1.
         22    1    1    0    0    0 -0.78739996053E+01  0.13312981268E+02 -0.23130097314E+02  0.27825109915E+02  0.00000000000E+00 0. -1.
</event>
<event>
 5    1  0.1099741E-009  0.9118800E+02  0.7818608E-02  0.1130116E+00
         25   -1    0    0    0    0  0.00000000000E+00  0.00000000000E+00  0.99999998245E-14  0.12500000000E+03  0.12500000000E+03 0.  0.
        -11    1    3    3    0    0 -0.44027267589E+02  0.24159050238E+02 -0.57292263400E+01  0.50545860706E+02  0.51100000000E-03 0. -1.
         23    2    1    0    0    0 -0.22412593429E+02 -0.15800630312E+02 -0.91141717041E+01  0.96102726974E+02  0.91655233039E+02 0.  0.
         11    1    3    3    0    0  0.21614674160E+02 -0.39959680551E+02 -0.33849453641E+01  0.45556866268E+02  0.51100000000E-03 0.  1.
         22    1    1    0    0    0  0.22412593429E+02  0.15800630312E+02  0.91141717041E+01  0.28897273026E+02  0.00000000000E+00 0.  1.
</event>
<event>
 5    1  0.1099741E-009  0.9118800E+02  0.7818608E-02  0.1130116E+00
         25   -1    0    0    0    0  0.00000000000E+00  0.00000000000E+00  0.99999998245E-14  0.12500000000E+03  0.12500000000E+03 0.  0.
        -11    1    3    3    0    0  0.22968172116E+02 -0.36755727786E+02  0.57035396165E-01  0.43341939374E+02  0.51100000000E-03 0.  1.
         23    2    1    0    0    0 -0.23163106880E+02 -0.14779493486E+02  0.10658519297E+02  0.95528539540E+02  0.90868778384E+02 0.  0.
         11    1    3    3    0    0 -0.46131278996E+02  0.21976234299E+02  0.10601483901E+02  0.52186600166E+02  0.51100000000E-03 0. -1.
         22    1    1    0    0    0  0.23163106880E+02  0.14779493486E+02 -0.10658519297E+02  0.29471460460E+02  0.00000000000E+00 0. -1.
</event>
<event>
 5    1  0.1099741E-009  0.9118800E+02  0.7818608E-02  0.1130116E+00
         25   -1    0    0    0    0  0.00000000000E+00  0.00000000000E+00  0.99999998245E-14  0.12500000000E+03  0.12500000000E+03 0.  0.
        -11    1    3    3    0    0  0.14737510976E+02  0.25662165086E+02 -0.16114101124E+02  0.33695774245E+02  0.51100000000E-03 0.  1.
         23    2    1    0    0    0 -0.16360994629E+02 -0.16380192394E+02  0.17602164836E+02  0.95916859609E+02  0.91401394422E+02 0.  0.
         11    1    3    3    0    0 -0.31098505604E+02 -0.42042357480E+02  0.33716265960E+02  0.62221085364E+02  0.51100000000E-03 0. -1.
         22    1    1    0    0    0  0.16360994629E+02  0.16380192394E+02 -0.17602164836E+02  0.29083140391E+02  0.00000000000E+00 0. -1.
</event>
<event>
 5    1  0.1099741E-009  0.9118800E+02  0.7818608E-02  0.1130116E+00
         25   -1    0    0    0    0  0.00000000000E+00  0.00000000000E+00  0.99999998245E-14  0.12500000000E+03  0.12500000000E+03 0.  0.
        -11    1    3    3    0    0 -0.23356801269E+02  0.40533035211E+01 -0.32411668397E+02  0.40155767749E+02  0.51100000000E-03 0.  1.
         23    2    1    0    0    0  0.26884812816E+02 -0.44498666978E+01 -0.14224543956E+02  0.94260251716E+02  0.89107030750E+02 0.  0.
         11    1    3    3    0    0  0.50241614085E+02 -0.85031702189E+01  0.18187124441E+02  0.54104483967E+02  0.51100000000E-03 0. -1.
         22    1    1    0    0    0 -0.26884812816E+02  0.44498666978E+01  0.14224543956E+02  0.30739748284E+02  0.00000000000E+00 0. -1.
</event>
<event>
 5    1  0.1099741E-009  0.9118800E+02  0.7818608E-02  0.1130116E+00
         25   -1    0    0    0    0  0.00000000000E+00  0.00000000000E+00  0.99999998245E-14  0.12500000000E+03  0.12500000000E+03 0.  0.
        -11    1    3    3    0    0  0.33845290887E+02  0.66202706125E+01  0.19557846923E+02  0.39646450973E+02  0.51100000000E-03 0.  1.
         23    2    1    0    0    0 -0.96227275142E+00 -0.26457969743E+02 -0.10745522165E+02  0.96426999137E+02  0.92096415697E+02 0.  0.
         11    1    3    3    0    0 -0.34807563639E+02 -0.33078240355E+02 -0.30303369088E+02  0.56780548164E+02  0.51100000000E-03 0. -1.
         22    1    1    0    0    0  0.96227275142E+00  0.26457969743E+02  0.10745522165E+02  0.28573000863E+02  0.00000000000E+00 0. -1.
</event>
<event>
 5    1  0.1099741E-009  0.9118800E+02  0.7818608E-02  0.1130116E+00
         25   -1    0    0    0    0  0.00000000000E+00  0.00000000000E+00  0.99999998245E-14  0.12500000000E+03  0.12500000000E+03 0.  0.
        -11    1    3    3    0    0 -0.58415217662E+00  0.10083850348E+01 -0.47888900527E+02  0.47903077856E+02  0.51100000000E-03 0.  1.
         23    2    1    0    0    0 -0.13397528086E+02 -0.24956449461E+02 -0.11442441287E+02  0.94450898686E+02  0.89374071584E+02 0.  0.
         11    1    3    3    0    0 -0.12813375910E+02 -0.25964834496E+02  0.36446459240E+02  0.46547820830E+02  0.51100000000E-03 0. -1.
         22    1    1    0    0    0  0.13397528086E+02  0.24956449461E+02  0.11442441287E+02  0.30549101314E+02  0.00000000000E+00 0.  1.
</event>
<event>
 5    1  0.1099741E-009  0.9118800E+02  0.7818608E-02  0.1130116E+00
         25   -1    0    0    0    0  0.00000000000E+00  0.00000000000E+00  0.99999998245E-14  0.12500000000E+03  0.12500000000E+03 0.  0.
        -11    1    3    3    0    0  0.28876520863E+02 -0.52468629714E+02 -0.22121104273E+00  0.59890395689E+02  0.51100000000E-03 0.  1.
         23    2    1    0    0    0  0.42814230184E+01 -0.33202432760E+02 -0.36665532395E+01  0.91322474305E+02  0.84885915064E+02 0.  0.
         11    1    3    3    0    0 -0.24595097844E+02  0.19266196954E+02 -0.34453421968E+01  0.31432078616E+02  0.51100000000E-03 0. -1.
         22    1    1    0    0    0 -0.42814230184E+01  0.33202432760E+02  0.36665532395E+01  0.33677525695E+02  0.00000000000E+00 0.  1.
</event>
<event>
 5    1  0.1099741E-009  0.9118800E+02  0.7818608E-02  0.1130116E+00
         25   -1    0    0    0    0  0.00000000000E+00  0.00000000000E+00  0.99999998245E-14  0.12500000000E+03  0.12500000000E+03 0.  0.
        -11    1    3    3    0    0 -0.13967598610E+02  0.38145937296E+02  0.79916917415E+00  0.40630592104E+02  0.51100000000E-03 0. -1.
         23    2    1    0    0    0  0.25488076062E+02  0.37677871917E+01 -0.14862394836E+02  0.95255605202E+02  0.90492548314E+02 0.  0.
         11    1    3    3    0    0  0.39455674672E+02 -0.34378150104E+02 -0.15661564010E+02  0.54625013097E+02  0.51100000000E-03 0.  1.
         22    1    1    0    0    0 -0.25488076062E+02 -0.37677871917E+01  0.14862394836E+02  0.29744394798E+02  0.00000000000E+00 0.  1.
</event>
<event>
 5    1  0.1099741E-009  0.9118800E+02  0.7818608E-02  0.1130116E+00
         25   -1    0    0    0    0  0.00000000000E+00  0.00000000000E+00  0.99999998245E-14  0.12500000000E+03  0.12500000000E+03 0.  0.
        -11    1    3    3    0    0  0.16223017905E+02  0.26266734507E+02 -0.16416227503E+02  0.34965986005E+02  0.51100000000E-03 0.  1.
         23    2    1    0    0    0 -0.27681698434E+02 -0.95742696049E+01  0.44739173954E+01  0.95369627010E+02  0.90649913141E+02 0.  0.
         11    1    3    3    0    0 -0.43904716339E+02 -0.35841004112E+02  0.20890144898E+02  0.60403641005E+02  0.51100000000E-03 0. -1.
         22    1    1    0    0    0  0.27681698434E+02  0.95742696049E+01 -0.44739173954E+01  0.29630372990E+02  0.00000000000E+00 0. -1.
</event>
<event>
 5    1  0.1099741E-009  0.9118800E+02  0.7818608E-02  0.1130116E+00
         25   -1    0    0    0    0  0.00000000000E+00  0.00000000000E+00  0.99999998245E-14  0.12500000000E+03  0.12500000000E+03 0.  0.
        -11    1    3    3    0    0 -0.12235928368E+02 -0.29579905323E+02 -0.23089247943E+02  0.39469001923E+02  0.51100000000E-03 0. -1.
         23    2    1    0    0    0  0.14622893661E+01 -0.27386779607E+01  0.26944742262E+02  0.97876987948E+02  0.94043856722E+02 0.  0.
         11    1    3    3    0    0  0.13698217734E+02  0.26841227363E+02  0.50033990205E+02  0.58407986025E+02  0.51100000000E-03 0.  1.
         22    1    1    0    0    0 -0.14622893661E+01  0.27386779607E+01 -0.26944742262E+02  0.27123012052E+02  0.00000000000E+00 0.  1.
</event>
<event>
 5    1  0.1099741E-009  0.9118800E+02  0.7818608E-02  0.1130116E+00
         25   -1    0    0    0    0  0.00000000000E+00  0.00000000000E+00  0.99999998245E-14  0.12500000000E+03  0.12500000000E+03 0.  0.
        -11    1    3    3    0    0  0.32910006973E+02 -0.28590790305E+02  0.46412451591E+00  0.43597216207E+02  0.51100000000E-03 0. -1.
         23    2    1    0    0    0  0.18358558684E+02  0.18869648134E+02 -0.13838535268E+02  0.95257684085E+02  0.90495419891E+02 0.  0.
         11    1    3    3    0    0 -0.14551448289E+02  0.47460438439E+02 -0.14302659784E+02  0.51660467877E+02  0.51100000000E-03 0.  1.
         22    1    1    0    0    0 -0.18358558684E+02 -0.18869648134E+02  0.13838535268E+02  0.29742315915E+02  0.00000000000E+00 0.  1.
</event>
<event>
 5    1  0.1099741E-009  0.9118800E+02  0.7818608E-02  0.1130116E+00
         25   -1    0    0    0    0  0.00000000000E+00  0.00000000000E+00  0.99999998245E-14  0.12500000000E+03  0.12500000000E+03 0.  0.
        -11    1    3    3    0    0  0.36025392971E+02  0.27536919156E+02  0.22374360928E+02  0.50564047332E+02  0.51100000000E-03 0.  1.
         23    2    1    0    0    0 -0.89726596047E+01  0.11265366074E+02  0.22347582842E+02  0.98413696157E+02  0.94754546272E+02 0.  0.
         11    1    3    3    0    0 -0.44998052576E+02 -0.16271553082E+02 -0.26778086646E-01  0.47849648825E+02  0.51100000000E-03 0. -1.
         22    1    1    0    0    0  0.89726596047E+01 -0.11265366074E+02 -0.22347582842E+02  0.26586303843E+02  0.00000000000E+00 0. -1.
</event>
<event>
 5    1  0.1099741E-009  0.9118800E+02  0.7818608E-02  0.1130116E+00
         25   -1    0    0    0    0  0.00000000000E+00  0.00000000000E+00  0.99999998245E-14  0.12500000000E+03  0.12500000000E+03 0.  0.
        -11    1    3    3    0    0 -0.18526057387E+02 -0.29343574782E+02  0.13312006383E+02  0.37168127441E+02  0.51100000000E-03 0.  1.
         23    2    1    0    0    0  0.19402300551E+02 -0.69972866334E+01 -0.22907774436E+02  0.94175052044E+02  0.88987431759E+02 0.  0.
         11    1    3    3    0    0  0.37928357938E+02  0.22346288148E+02 -0.36219780818E+02  0.57006924603E+02  0.51100000000E-03 0. -1.
         22    1    1    0    0    0 -0.19402300551E+02  0.69972866334E+01  0.22907774436E+02  0.30824947956E+02  0.00000000000E+00 0. -1.
</event>
<event>
 5    1  0.1099741E-009  0.9118800E+02  0.7818608E-02  0.1130116E+00
         25   -1    0    0    0    0  0.00000000000E+00  0.00000000000E+00  0.99999998245E-14  0.12500000000E+03  0.12500000000E+03 0.  0.
        -11    1    3    3    0    0 -0.14521664613E+02  0.14326853529E+02  0.57393062634E+02  0.60910599357E+02  0.51100000000E-03 0.  1.
         23    2    1    0    0    0 -0.13565525088E+02 -0.49563728667E+00  0.24819654262E+02  0.96710702290E+02  0.92480676752E+02 0.  0.
         11    1    3    3    0    0  0.95613952554E+00 -0.14822490816E+02 -0.32573408372E+02  0.35800102933E+02  0.51100000000E-03 0. -1.
         22    1    1    0    0    0  0.13565525088E+02  0.49563728667E+00 -0.24819654262E+02  0.28289297710E+02  0.00000000000E+00 0.  1.
</event>
<event>
 5    1  0.1099741E-009  0.9118800E+02  0.7818608E-02  0.1130116E+00
         25   -1    0    0    0    0  0.00000000000E+00  0.00000000000E+00  0.99999998245E-14  0.12500000000E+03  0.12500000000E+03 0.  0.
        -11    1    3    3    0    0 -0.27869862624E+02  0.29337071765E+02 -0.27303005728E+02  0.48814415335E+02  0.51100000000E-03 0.  1.
         23    2    1    0    0    0 -0.27192256859E+02 -0.34685966432E+01  0.74326433007E+01  0.96597637735E+02  0.92327728413E+02 0.  0.
         11    1    3    3    0    0  0.67760576473E+00 -0.32805668409E+02  0.34735649028E+02  0.47783222401E+02  0.51100000000E-03 0. -1.
         22    1    1    0    0    0  0.27192256859E+02  0.34685966432E+01 -0.74326433007E+01  0.28402362265E+02  0.00000000000E+00 0.  1.
</event>
<event>
 5    1  0.1099741E-009  0.9118800E+02  0.7818608E-02  0.1130116E+00
         25   -1    0    0    0    0  0.00000000000E+00  0.00000000000E+00  0.99999998245E-14  0.12500000000E+03  0.12500000000E+03 0.  0.
        -11    1    3    3    0    0  0.61241700720E+01 -0.28428426445E+02  0.42699835080E+02  0.51661947363E+02  0.51100000000E-03 0.  1.
         23    2    1    0    0    0  0.23479701512E+02 -0.17402909519E+02  0.39777565901E+01  0.95504573400E+02  0.90835804340E+02 0.  0.
         11    1    3    3    0    0  0.17355531440E+02  0.11025516927E+02 -0.38722078489E+02  0.43842626038E+02  0.51100000000E-03 0. -1.
         22    1    1    0    0    0 -0.23479701512E+02  0.17402909519E+02 -0.39777565901E+01  0.29495426600E+02  0.00000000000E+00 0. -1.
</event>
<event>
 5    1  0.1099741E-009  0.9118800E+02  0.7818608E-02  0.1130116E+00
         25   -1    0    0    0    0  0.00000000000E+00  0.00000000000E+00  0.99999998245E-14  0.12500000000E+03  0.12500000000E+03 0.  0.
        -11    1    3    3    0    0 -0.49780228863E+02 -0.29260824547E+02  0.69928263396E+00  0.57747346565E+02  0.51100000000E-03 0. -1.
         23    2    1    0    0    0 -0.21545749254E+02 -0.20638386451E+02 -0.15454186511E+02  0.91399491270E+02  0.84999251864E+02 0.  0.
         11    1    3    3    0    0  0.28234479609E+02  0.86224380956E+01 -0.16153469145E+02  0.33652144705E+02  0.51100000000E-03 0.  1.
         22    1    1    0    0    0  0.21545749254E+02  0.20638386451E+02  0.15454186511E+02  0.33600508730E+02  0.00000000000E+00 0. -1.
</event>
<event>
 5    1  0.1099741E-009  0.9118800E+02  0.7818608E-02  0.1130116E+00
         25   -1    0    0    0    0  0.00000000000E+00  0.00000000000E+00  0.99999998245E-14  0.12500000000E+03  0.12500000000E+03 0.  0.
        -11    1    3    3    0    0 -0.41128448891E+02 -0.16398402283E+02 -0.24130602256E+02  0.50425617211E+02  0.51100000000E-03 0. -1.
         23    2    1    0    0    0 -0.19426188582E+02  0.20157914445E+02 -0.11018232624E+02  0.94914791545E+02  0.90020541469E+02 0.  0.
         11    1    3    3    0    0  0.21702260310E+02  0.36556316728E+02  0.13112369632E+02  0.44489174334E+02  0.51100000000E-03 0.  1.
         22    1    1    0    0    0  0.19426188582E+02 -0.20157914445E+02  0.11018232624E+02  0.30085208455E+02  0.00000000000E+00 0. -1.
</event>
<event>
 5    1  0.1099741E-009  0.9118800E+02  0.7818608E-02  0.1130116E+00
         25   -1    0    0    0    0  0.00000000000E+00  0.00000000000E+00  0.99999998245E-14  0.12500000000E+03  0.12500000000E+03 0.  0.
        -11    1    3    3    0    0  0.30221510453E+02  0.80144878729E+01  0.11052545004E+02  0.33162184205E+02  0.51100000000E-03 0.  1.
         23    2    1    0    0    0 -0.26946074582E+02  0.76070240501E+01 -0.11649684694E+02  0.94673890725E+02  0.89685409523E+02 0.  0.
         11    1    3    3    0    0 -0.57167585035E+02 -0.40746382276E+00 -0.22702229698E+02  0.61511706520E+02  0.51100000000E-03 0. -1.
         22    1    1    0    0    0  0.26946074582E+02 -0.76070240501E+01  0.11649684694E+02  0.30326109275E+02  0.00000000000E+00 0. -1.
</event>
<event>
 5    1  0.1099741E-009  0.9118800E+02  0.7818608E-02  0.1130116E+00
         25   -1    0    0    0    0  0.00000000000E+00  0.00000000000E+00  0.99999998245E-14  0.12500000000E+03  0.12500000000E+03 0.  0.
        -11    1    3    3    0    0  0.30299540262E+02 -0.17738273651E+02 -0.35462771468E+00  0.35111739536E+02  0.51100000000E-03 0.  1.
         23    2    1    0    0    0 -0.18083369492E+02  0.17208178548E+02 -0.14061674865E+02  0.96349339255E+02  0.91990949629E+02 0.  0.
         11    1    3    3    0    0 -0.48382909753E+02  0.34946452199E+02 -0.13707047150E+02  0.61237599719E+02  0.51100000000E-03 0. -1.
         22    1    1    0    0    0  0.18083369492E+02 -0.17208178548E+02  0.14061674865E+02  0.28650660745E+02  0.00000000000E+00 0. -1.
</event>
<event>
 5    1  0.1099741E-009  0.9118800E+02  0.7818608E-02  0.1130116E+00
         25   -1    0    0    0    0  0.00000000000E+00  0.00000000000E+00  0.99999998245E-14  0.12500000000E+03  0.12500000000E+03 0.  0.
        -11    1    3    3    0    0  0.37201754004E+02  0.37003701951E+02 -0.23392190314E+02  0.57449447578E+02  0.51100000000E-03 0. -1.
         23    2    1    0    0    0  0.79698157683E+01  0.10410739780E+02 -0.24750764508E+02  0.96991040543E+02  0.92858818298E+02 0.  0.
         11    1    3    3    0    0 -0.29231938236E+02 -0.26592962172E+02 -0.13585741933E+01  0.39541592965E+02  0.51100000000E-03 0.  1.
         22    1    1    0    0    0 -0.79698157683E+01 -0.10410739780E+02  0.24750764508E+02  0.28008959457E+02  0.00000000000E+00 0. -1.
</event>
<event>
 5    1  0.1099741E-009  0.9118800E+02  0.7818608E-02  0.1130116E+00
         25   -1    0    0    0    0  0.00000000000E+00  0.00000000000E+00  0.99999998245E-14  0.12500000000E+03  0.12500000000E+03 0.  0.
        -11    1    3    3    0    0  0.40629089102E+02 -0.95791360039E+01 -0.39236716230E+02  0.57288765291E+02  0.51100000000E-03 0. -1.
         23    2    1    0    0    0  0.11884714081E+02  0.10946325300E+02 -0.24702079753E+02  0.95482865815E+02  0.90805927416E+02 0.  0.
         11    1    3    3    0    0 -0.28744375021E+02  0.20525461303E+02  0.14534636477E+02  0.38194100524E+02  0.51100000000E-03 0.  1.
         22    1    1    0    0    0 -0.11884714081E+02 -0.10946325300E+02  0.24702079753E+02  0.29517134185E+02  0.00000000000E+00 0. -1.
</event>
<event>
 5    1  0.1099741E-009  0.9118800E+02  0.7818608E-02  0.1130116E+00
         25   -1    0    0    0    0  0.00000000000E+00  0.00000000000E+00  0.99999998245E-14  0.12500000000E+03  0.12500000000E+03 0.  0.
        -11    1    3    3    0    0  0.16887623598E+02 -0.33460069035E+02 -0.17750533661E+02  0.41471068182E+02  0.51100000000E-03 0. -1.
         23    2    1    0    0    0 -0.89194009018E+01 -0.13683404934E+02  0.24973299958E+02  0.95159473968E+02  0.90359661863E+02 0.  0.
         11    1    3    3    0    0 -0.25807024500E+02  0.19776664101E+02  0.42723833620E+02  0.53688405786E+02  0.51100000000E-03 0.  1.
         22    1    1    0    0    0  0.89194009018E+01  0.13683404934E+02 -0.24973299958E+02  0.29840526032E+02  0.00000000000E+00 0.  1.
</event>
<event>
 5    1  0.1099741E-009  0.9118800E+02  0.7818608E-02  0.1130116E+00
         25   -1    0    0    0    0  0.00000000000E+00  0.00000000000E+00  0.99999998245E-14  0.12500000000E+03  0.12500000000E+03 0.  0.
        -11    1    3    3    0    0  0.23087020152E+02  0.32619861960E+02 -0.37078449623E+02  0.54514927502E+02  0.51100000000E-03 0. -1.
         23    2    1    0    0    0  0.17006176353E+02  0.31467399717E+02 -0.30502640911E+01  0.89101373422E+02  0.81549637372E+02 0.  0.
         11    1    3    3    0    0 -0.60808437986E+01 -0.11524622426E+01  0.34028185532E+02  0.34586445920E+02  0.51100000000E-03 0.  1.
         22    1    1    0    0    0 -0.17006176353E+02 -0.31467399717E+02  0.30502640911E+01  0.35898626578E+02  0.00000000000E+00 0. -1.
</event>
<event>
 5    1  0.1099741E-009  0.9118800E+02  0.7818608E-02  0.1130116E+00
         25   -1    0    0    0    0  0.00000000000E+00  0.00000000000E+00  0.99999998245E-14  0.12500000000E+03  0.12500000000E+03 0.  0.
        -11    1    3    3    0    0  0.88690694503E+01  0.39891588161E+02  0.28437668147E+02  0.49786546062E+02  0.51100000000E-03 0.  1.
         23    2    1    0    0    0  0.14577224855E+01  0.28244087274E+02 -0.13299218246E+02  0.93747438077E+02  0.88384724468E+02 0.  0.
         11    1    3    3    0    0 -0.74113469648E+01 -0.11647500887E+02 -0.41736886393E+02  0.43960892015E+02  0.51100000000E-03 0. -1.
         22    1    1    0    0    0 -0.14577224855E+01 -0.28244087274E+02  0.13299218246E+02  0.31252561923E+02  0.00000000000E+00 0.  1.
</event>
<event>
 5    1  0.1099741E-009  0.9118800E+02  0.7818608E-02  0.1130116E+00
         25   -1    0    0    0    0  0.00000000000E+00  0.00000000000E+00  0.99999998245E-14  0.12500000000E+03  0.12500000000E+03 0.  0.
        -11    1    3    3    0    0  0.62417545071E+01  0.31326670715E+02  0.12389073051E+02  0.34260895037E+02  0.51100000000E-03 0. -1.
         23    2    1    0    0    0 -0.16306030108E+02 -0.16601443587E+02 -0.18228379334E+02  0.95440426928E+02  0.90747488846E+02 0.  0.
         11    1    3    3    0    0 -0.22547784615E+02 -0.47928114302E+02 -0.30617452385E+02  0.61179531891E+02  0.51100000000E-03 0.  1.
         22    1    1    0    0    0  0.16306030108E+02  0.16601443587E+02  0.18228379334E+02  0.29559573072E+02  0.00000000000E+00 0.  1.
</event>
<event>
 5    1  0.1099741E-009  0.9118800E+02  0.7818608E-02  0.1130116E+00
         25   -1    0    0    0    0  0.00000000000E+00  0.00000000000E+00  0.99999998245E-14  0.12500000000E+03  0.12500000000E+03 0.  0.
        -11    1    3    3    0    0  0.35223290806E+02  0.33838484687E+02 -0.32161503305E+02  0.58481497554E+02  0.51100000000E-03 0.  1.
         23    2    1    0    0    0  0.26265358805E+02  0.33866029029E+01 -0.14367780998E+02  0.94870757010E+02  0.89959375568E+02 0.  0.
         11    1    3    3    0    0 -0.89579320009E+01 -0.30451881784E+02  0.17793722308E+02  0.36389259456E+02  0.51100000000E-03 0. -1.
         22    1    1    0    0    0 -0.26265358805E+02 -0.33866029029E+01  0.14367780998E+02  0.30129242990E+02  0.00000000000E+00 0.  1.
</event>
<event>
 5    1  0.1099741E-009  0.9118800E+02  0.7818608E-02  0.1130116E+00
         25   -1    0    0    0    0  0.00000000000E+00  0.00000000000E+00  0.99999998245E-14  0.12500000000E+03  0.12500000000E+03 0.  0.
        -11    1    3    3    0    0  0.19778431457E+02  0.10140483048E+02 -0.52148603155E+02  0.56687675544E+02  0.51100000000E-03 0.  1.
         23    2    1    0    0    0  0.40288459258E+01  0.22478515695E+02 -0.19540321102E+02  0.94944394597E+02  0.90061638056E+02 0.  0.
         11    1    3    3    0    0 -0.15749585532E+02  0.12338032647E+02  0.32608282053E+02  0.38256719053E+02  0.51100000000E-03 0. -1.
         22    1    1    0    0    0 -0.40288459258E+01 -0.22478515695E+02  0.19540321102E+02  0.30055605403E+02  0.00000000000E+00 0.  1.
</event>
<event>
 5    1  0.1099741E-009  0.9118800E+02  0.7818608E-02  0.1130116E+00
         25   -1    0    0    0    0  0.00000000000E+00  0.00000000000E+00  0.99999998245E-14  0.12500000000E+03  0.12500000000E+03 0.  0.
        -11    1    3    3    0    0  0.81220868229E+00  0.40525362489E+02 -0.20280930077E+02  0.45324174707E+02  0.51100000000E-03 0.  1.
         23    2    1    0    0    0 -0.38469200959E+01  0.14283596472E+02  0.23882975081E+02  0.96907004056E+02  0.92745625310E+02 0.  0.
         11    1    3    3    0    0 -0.46591287781E+01 -0.26241766017E+02  0.44163905158E+02  0.51582829350E+02  0.51100000000E-03 0. -1.
         22    1    1    0    0    0  0.38469200959E+01 -0.14283596472E+02 -0.23882975081E+02  0.28092995944E+02  0.00000000000E+00 0. -1.
</event>
<event>
 5    1  0.1099741E-009  0.9118800E+02  0.7818608E-02  0.1130116E+00
         25   -1    0    0    0    0  0.00000000000E+00  0.00000000000E+00  0.99999998245E-14  0.12500000000E+03  0.12500000000E+03 0.  0.
        -11    1    3    3    0    0  0.37632716760E+02  0.13817420420E+02 -0.23802424048E+02  0.46622932862E+02  0.51100000000E-03 0. -1.
         23    2    1    0    0    0  0.17590724999E+02  0.50251408309E+01  0.21400692094E+02  0.96845510687E+02  0.92662709176E+02 0.  0.
         11    1    3    3    0    0 -0.20041991761E+02 -0.87922795892E+01  0.45203116143E+02  0.50222577825E+02  0.51100000000E-03 0.  1.
         22    1    1    0    0    0 -0.17590724999E+02 -0.50251408309E+01 -0.21400692094E+02  0.28154489313E+02  0.00000000000E+00 0.  1.
</event>
<event>
 5    1  0.1099741E-009  0.9118800E+02  0.7818608E-02  0.1130116E+00
         25   -1    0    0    0    0  0.00000000000E+00  0.00000000000E+00  0.99999998245E-14  0.12500000000E+03  0.12500000000E+03 0.  0.
        -11    1    3    3    0    0  0.10464473454E+02  0.33210825429E+02  0.11459259410E+02  0.36657587984E+02  0.51100000000E-03 0.  1.
         23    2    1    0    0    0  0.44447355546E+01 -0.26838140806E+02  0.48345764270E+01  0.97370041526E+02  0.93367608845E+02 0.  0.
         11    1    3    3    0    0 -0.60197378993E+01 -0.60048966234E+02 -0.66246829831E+01  0.60712453542E+02  0.51100000000E-03 0. -1.
         22    1    1    0    0    0 -0.44447355546E+01  0.26838140806E+02 -0.48345764270E+01  0.27629958474E+02  0.00000000000E+00 0. -1.
</event>
<event>
 5    1  0.1099741E-009  0.9118800E+02  0.7818608E-02  0.1130116E+00
         25   -1    0    0    0    0  0.00000000000E+00  0.00000000000E+00  0.99999998245E-14  0.12500000000E+03  0.12500000000E+03 0.  0.
        -11    1    3    3    0    0  0.38956530463E+02  0.23977415250E+02 -0.55905477406E+01  0.46084508591E+02  0.51100000000E-03 0. -1.
         23    2    1    0    0    0  0.12478592870E+02 -0.11354931069E+02 -0.25424009379E+02  0.94487215917E+02  0.89424851016E+02 0.  0.
         11    1    3    3    0    0 -0.26477937594E+02 -0.35332346319E+02 -0.19833461638E+02  0.48402707326E+02  0.51100000000E-03 0.  1.
         22    1    1    0    0    0 -0.12478592870E+02  0.11354931069E+02  0.25424009379E+02  0.30512784083E+02  0.00000000000E+00 0. -1.
</event>
<event>
 5    1  0.1099741E-009  0.9118800E+02  0.7818608E-02  0.1130116E+00
         25   -1    0    0    0    0  0.00000000000E+00  0.00000000000E+00  0.99999998245E-14  0.12500000000E+03  0.12500000000E+03 0.  0.
        -11    1    3    3    0    0 -0.11421050181E+02 -0.43728289654E+02  0.41387679862E+02  0.61282491365E+02  0.51100000000E-03 0. -1.
         23    2    1    0    0    0 -0.13297448069E+02 -0.20065770729E+02  0.25984066852E+02  0.89579257344E+02  0.82278881470E+02 0.  0.
         11    1    3    3    0    0 -0.18763978883E+01  0.23662518924E+02 -0.15403613010E+02  0.28296765979E+02  0.51100000000E-03 0.  1.
         22    1    1    0    0    0  0.13297448069E+02  0.20065770729E+02 -0.25984066852E+02  0.35420742656E+02  0.00000000000E+00 0. -1.
</event>
<event>
 5    1  0.1099741E-009  0.9118800E+02  0.7818608E-02  0.1130116E+00
         25   -1    0    0    0    0  0.00000000000E+00  0.00000000000E+00  0.99999998245E-14  0.12500000000E+03  0.12500000000E+03 0.  0.
        -11    1    3    3    0    0  0.17381225139E+01  0.20245477488E+02 -0.25355207404E+02  0.32492875701E+02  0.51100000000E-03 0. -1.
         23    2    1    0    0    0 -0.90475392825E+01 -0.12883699377E+02  0.26032071209E+02  0.94577698835E+02  0.89551240688E+02 0.  0.
         11    1    3    3    0    0 -0.10785661796E+02 -0.33129176864E+02  0.51387278613E+02  0.62084823134E+02  0.51100000000E-03 0.  1.
         22    1    1    0    0    0  0.90475392825E+01  0.12883699377E+02 -0.26032071209E+02  0.30422301165E+02  0.00000000000E+00 0.  1.
</event>
<event>
 5    1  0.1099741E-009  0.9118800E+02  0.7818608E-02  0.1130116E+00
         25   -1    0    0    0    0  0.00000000000E+00  0.00000000000E+00  0.99999998245E-14  0.12500000000E+03  0.12500000000E+03 0.  0.
        -11    1    3    3    0    0 -0.30389430322E+02 -0.34742252714E+02 -0.25078391092E+02  0.52530632006E+02  0.51100000000E-03 0.  1.
         23    2    1    0    0    0 -0.28947408237E+02 -0.84818949521E+00  0.20490467463E+01  0.95967768573E+02  0.91470990720E+02 0.  0.
         11    1    3    3    0    0  0.14420220852E+01  0.33894063219E+02  0.27127437838E+02  0.43437136567E+02  0.51100000000E-03 0. -1.
         22    1    1    0    0    0  0.28947408237E+02  0.84818949521E+00 -0.20490467463E+01  0.29032231427E+02  0.00000000000E+00 0.  1.
</event>
<event>
 5    1  0.1099741E-009  0.9118800E+02  0.7818608E-02  0.1130116E+00
         25   -1    0    0    0    0  0.00000000000E+00  0.00000000000E+00  0.99999998245E-14  0.12500000000E+03  0.12500000000E+03 0.  0.
        -11    1    3    3    0    0 -0.36938624034E+02  0.26537662477E+02 -0.15712902897E+02  0.48120731427E+02  0.51100000000E-03 0.  1.
         23    2    1    0    0    0 -0.22531897141E+02 -0.16840595209E+02  0.11665478718E+01  0.96845908473E+02  0.92663245779E+02 0.  0.
         11    1    3    3    0    0  0.14406726893E+02 -0.43378257686E+02  0.16879450769E+02  0.48725177046E+02  0.51100000000E-03 0. -1.
         22    1    1    0    0    0  0.22531897141E+02  0.16840595209E+02 -0.11665478718E+01  0.28154091527E+02  0.00000000000E+00 0.  1.
</event>
<event>
 5    1  0.1099741E-009  0.9118800E+02  0.7818608E-02  0.1130116E+00
         25   -1    0    0    0    0  0.00000000000E+00  0.00000000000E+00  0.99999998245E-14  0.12500000000E+03  0.12500000000E+03 0.  0.
        -11    1    3    3    0    0  0.94844482028E+01 -0.38267711910E+02  0.55437018039E+01  0.39813379190E+02  0.51100000000E-03 0. -1.
         23    2    1    0    0    0 -0.27691362340E+02  0.39133760032E+01 -0.36874257950E+01  0.96791434475E+02  0.92589732794E+02 0.  0.
         11    1    3    3    0    0 -0.37175810543E+02  0.42181087914E+02 -0.92311275989E+01  0.56978055285E+02  0.51100000000E-03 0.  1.
         22    1    1    0    0    0  0.27691362340E+02 -0.39133760032E+01  0.36874257950E+01  0.28208565525E+02  0.00000000000E+00 0.  1.
</event>
<event>
 5    1  0.1099741E-009  0.9118800E+02  0.7818608E-02  0.1130116E+00
         25   -1    0    0    0    0  0.00000000000E+00  0.00000000000E+00  0.99999998245E-14  0.12500000000E+03  0.12500000000E+03 0.  0.
        -11    1    3    3    0    0 -0.13186323610E+02  0.24140052762E+02  0.30792231645E+02  0.41289015581E+02  0.51100000000E-03 0.  1.
         23    2    1    0    0    0 -0.25622124929E+02 -0.10473114314E+02 -0.93979953493E+01  0.95768138515E+02  0.91197777543E+02 0.  0.
         11    1    3    3    0    0 -0.12435801319E+02 -0.34613167076E+02 -0.40190226995E+02  0.54479122934E+02  0.51100000000E-03 0. -1.
         22    1    1    0    0    0  0.25622124929E+02  0.10473114314E+02  0.93979953493E+01  0.29231861485E+02  0.00000000000E+00 0. -1.
</event>
<event>
 5    1  0.1099741E-009  0.9118800E+02  0.7818608E-02  0.1130116E+00
         25   -1    0    0    0    0  0.00000000000E+00  0.00000000000E+00  0.99999998245E-14  0.12500000000E+03  0.12500000000E+03 0.  0.
        -11    1    3    3    0    0  0.26232880632E+02 -0.14725507599E+02  0.11207030537E+02  0.32102992602E+02  0.51100000000E-03 0.  1.
         23    2    1    0    0    0 -0.14218327082E+02  0.80362605448E+01  0.36535965394E+02  0.84979766670E+02  0.74966270198E+02 0.  0.
         11    1    3    3    0    0 -0.40451207714E+02  0.22761768144E+02  0.25328934856E+02  0.52876774067E+02  0.51100000000E-03 0. -1.
         22    1    1    0    0    0  0.14218327082E+02 -0.80362605448E+01 -0.36535965394E+02  0.40020233330E+02  0.00000000000E+00 0. -1.
</event>
<event>
 5    1  0.1099741E-009  0.9118800E+02  0.7818608E-02  0.1130116E+00
         25   -1    0    0    0    0  0.00000000000E+00  0.00000000000E+00  0.99999998245E-14  0.12500000000E+03  0.12500000000E+03 0.  0.
        -11    1    3    3    0    0 -0.18684414973E+02 -0.15212819710E+02  0.35519201847E+02  0.42920285956E+02  0.51100000000E-03 0.  1.
         23    2    1    0    0    0 -0.17717869209E+02  0.70010574589E+00 -0.18578323831E+02  0.99317960483E+02  0.95940033984E+02 0.  0.
         11    1    3    3    0    0  0.96654576404E+00  0.15912925456E+02 -0.54097525679E+02  0.56397674527E+02  0.51100000000E-03 0. -1.
         22    1    1    0    0    0  0.17717869209E+02 -0.70010574589E+00  0.18578323831E+02  0.25682039517E+02  0.00000000000E+00 0. -1.
</event>
<event>
 5    1  0.1099741E-009  0.9118800E+02  0.7818608E-02  0.1130116E+00
         25   -1    0    0    0    0  0.00000000000E+00  0.00000000000E+00  0.99999998245E-14  0.12500000000E+03  0.12500000000E+03 0.  0.
        -11    1    3    3    0    0  0.29549337160E+02 -0.15512644577E+02  0.22565193006E+02  0.40286392294E+02  0.51100000000E-03 0.  1.
         23    2    1    0    0    0 -0.11656577811E+02 -0.25082124878E+02 -0.11937673020E+02  0.94875311922E+02  0.89965704468E+02 0.  0.
         11    1    3    3    0    0 -0.41205914971E+02 -0.95694803011E+01 -0.34502866027E+02  0.54588919628E+02  0.51100000000E-03 0. -1.
         22    1    1    0    0    0  0.11656577811E+02  0.25082124878E+02  0.11937673020E+02  0.30124688078E+02  0.00000000000E+00 0. -1.
</event>
<event>
 5    1  0.1099741E-009  0.9118800E+02  0.7818608E-02  0.1130116E+00
         25   -1    0    0    0    0  0.00000000000E+00  0.00000000000E+00  0.99999998245E-14  0.12500000000E+03  0.12500000000E+03 0.  0.
        -11    1    3    3    0    0  0.30170593334E+02 -0.42289843423E+02 -0.16757388103E+02  0.54584847853E+02  0.51100000000E-03 0.  1.
         23    2    1    0    0    0  0.76554724460E+01 -0.10479444386E+02 -0.27140298800E+02  0.94916435850E+02  0.90022824675E+02 0.  0.
         11    1    3    3    0    0 -0.22515120888E+02  0.31810399037E+02 -0.10382910697E+02  0.40331587996E+02  0.51100000000E-03 0. -1.
         22    1    1    0    0    0 -0.76554724460E+01  0.10479444386E+02  0.27140298800E+02  0.30083564150E+02  0.00000000000E+00 0.  1.
</event>
<event>
 5    1  0.1099741E-009  0.9118800E+02  0.7818608E-02  0.1130116E+00
         25   -1    0    0    0    0  0.00000000000E+00  0.00000000000E+00  0.99999998245E-14  0.12500000000E+03  0.12500000000E+03 0.  0.
        -11    1    3    3    0    0  0.44656177666E+02  0.99631583468E+01  0.30105817717E+01  0.45853051489E+02  0.51100000000E-03 0. -1.
         23    2    1    0    0    0  0.70630007738E+01 -0.34728089166E+01 -0.27689002265E+02  0.96214114081E+02  0.91807017817E+02 0.  0.
         11    1    3    3    0    0 -0.37593176892E+02 -0.13435967263E+02 -0.30699584036E+02  0.50361062592E+02  0.51100000000E-03 0.  1.
         22    1    1    0    0    0 -0.70630007738E+01  0.34728089166E+01  0.27689002265E+02  0.28785885919E+02  0.00000000000E+00 0. -1.
</event>
<event>
 5    1  0.1099741E-009  0.9118800E+02  0.7818608E-02  0.1130116E+00
         25   -1    0    0    0    0  0.00000000000E+00  0.00000000000E+00  0.99999998245E-14  0.12500000000E+03  0.12500000000E+03 0.  0.
        -11    1    3    3    0    0 -0.18820285225E+02 -0.12359918773E+02 -0.42334635725E+02  0.47949891661E+02  0.51100000000E-03 0.  1.
         23    2    1    0    0    0  0.17673445895E+02  0.94869342819E+01 -0.22426778894E+02  0.94911579911E+02  0.90016081773E+02 0.  0.
         11    1    3    3    0    0  0.36493731120E+02  0.21846853055E+02  0.19907856831E+02  0.46961688251E+02  0.51100000000E-03 0. -1.
         22    1    1    0    0    0 -0.17673445895E+02 -0.94869342819E+01  0.22426778894E+02  0.30088420089E+02  0.00000000000E+00 0.  1.
</event>
<event>
 5    1  0.1099741E-009  0.9118800E+02  0.7818608E-02  0.1130116E+00
         25   -1    0    0    0    0  0.00000000000E+00  0.00000000000E+00  0.99999998245E-14  0.12500000000E+03  0.12500000000E+03 0.  0.
        -11    1    3    3    0    0  0.78002006768E+01 -0.28600491710E+02 -0.24856694463E+02  0.38687032925E+02  0.51100000000E-03 0.  1.
         23    2    1    0    0    0  0.22090045841E+02  0.93235981721E+01  0.15952712330E+02  0.96200891701E+02  0.91789013097E+02 0.  0.
         11    1    3    3    0    0  0.14289845164E+02  0.37924089883E+02  0.40809406793E+02  0.57513858776E+02  0.51100000000E-03 0. -1.
         22    1    1    0    0    0 -0.22090045841E+02 -0.93235981721E+01 -0.15952712330E+02  0.28799108299E+02  0.00000000000E+00 0. -1.
</event>
<event>
 5    1  0.1099741E-009  0.9118800E+02  0.7818608E-02  0.1130116E+00
         25   -1    0    0    0    0  0.00000000000E+00  0.00000000000E+00  0.99999998245E-14  0.12500000000E+03  0.12500000000E+03 0.  0.
        -11    1    3    3    0    0 -0.63600735874E+01  0.10300230158E+02  0.18219030494E+02  0.21874147978E+02  0.51100000000E-03 0.  1.
         23    2    1    0    0    0  0.36281493333E+02 -0.17211234833E+02 -0.14558391338E+02  0.82285598198E+02  0.70330644455E+02 0.  0.
         11    1    3    3    0    0  0.42641566921E+02 -0.27511464991E+02 -0.32777421833E+02  0.60411450220E+02  0.51100000000E-03 0. -1.
         22    1    1    0    0    0 -0.36281493333E+02  0.17211234833E+02  0.14558391338E+02  0.42714401802E+02  0.00000000000E+00 0. -1.
</event>
<event>
 5    1  0.1099741E-009  0.9118800E+02  0.7818608E-02  0.1130116E+00
         25   -1    0    0    0    0  0.00000000000E+00  0.00000000000E+00  0.99999998245E-14  0.12500000000E+03  0.12500000000E+03 0.  0.
        -11    1    3    3    0    0  0.20201158288E+02 -0.53641974932E+01 -0.50354815410E+02  0.54520352587E+02  0.51100000000E-03 0.  1.
         23    2    1    0    0    0  0.25625005399E+02  0.70270537384E+01 -0.10810629490E+02  0.96313938996E+02  0.91942834136E+02 0.  0.
         11    1    3    3    0    0  0.54238471112E+01  0.12391251232E+02  0.39544185920E+02  0.41793586409E+02  0.51100000000E-03 0. -1.
         22    1    1    0    0    0 -0.25625005399E+02 -0.70270537384E+01  0.10810629490E+02  0.28686061004E+02  0.00000000000E+00 0.  1.
</event>
<event>
 4    1  0.1099741E-009  0.9118800E+02  0.7818608E-02  0.1130116E+00
         25   -1    0    0    0    0  0.00000000000E+00  0.00000000000E+00  0.99999998245E-14  0.12500000000E+03  0.12500000000E+03 0.  0.
        -11    1    1    0    0    0  0.20413261548E+02  0.37035708555E+02 -0.30450522980E+00  0.42289924083E+02  0.51100000000E-03 0.  1.
         11    1    1    0    0    0  0.15390648304E+02 -0.99455499980E+01 -0.25135474158E+02  0.31105917144E+02  0.51100000000E-03 0. -1.
         22    1    1    0    0    0 -0.35803909853E+02 -0.27090158557E+02  0.25439979388E+02  0.51604158773E+02  0.00000000000E+00 0.  1.
</event>
<event>
 5    1  0.1099741E-009  0.9118800E+02  0.7818608E-02  0.1130116E+00
         25   -1    0    0    0    0  0.00000000000E+00  0.00000000000E+00  0.99999998245E-14  0.12500000000E+03  0.12500000000E+03 0.  0.
        -11    1    3    3    0    0  0.14707760510E+02 -0.56876297138E+02  0.87437436848E+01  0.59394313274E+02  0.51100000000E-03 0. -1.
         23    2    1    0    0    0 -0.10422680879E+01 -0.24769747330E+02  0.15462463791E+02  0.95781606956E+02  0.91216236159E+02 0.  0.
         11    1    3    3    0    0 -0.15750028598E+02  0.32106549808E+02  0.67187201066E+01  0.36387293682E+02  0.51100000000E-03 0.  1.
         22    1    1    0    0    0  0.10422680879E+01  0.24769747330E+02 -0.15462463791E+02  0.29218393044E+02  0.00000000000E+00 0. -1.
</event>
<event>
 5    1  0.1099741E-009  0.9118800E+02  0.7818608E-02  0.1130116E+00
         25   -1    0    0    0    0  0.00000000000E+00  0.00000000000E+00  0.99999998245E-14  0.12500000000E+03  0.12500000000E+03 0.  0.
        -11    1    3    3    0    0  0.17249642149E+02 -0.98464403126E+00 -0.40170575707E+02  0.43728650002E+02  0.51100000000E-03 0.  1.
         23    2    1    0    0    0  0.17214028274E+02 -0.28367229846E+02 -0.64581469751E+00  0.91812056780E+02  0.85603821147E+02 0.  0.
         11    1    3    3    0    0 -0.35613875223E-01 -0.27382585815E+02  0.39524761009E+02  0.48083406778E+02  0.51100000000E-03 0. -1.
         22    1    1    0    0    0 -0.17214028274E+02  0.28367229846E+02  0.64581469751E+00  0.33187943220E+02  0.00000000000E+00 0. -1.
</event>
<event>
 5    1  0.1099741E-009  0.9118800E+02  0.7818608E-02  0.1130116E+00
         25   -1    0    0    0    0  0.00000000000E+00  0.00000000000E+00  0.99999998245E-14  0.12500000000E+03  0.12500000000E+03 0.  0.
        -11    1    3    3    0    0  0.39472793282E+02  0.86056280722E+01 -0.24095144989E+02  0.47039709356E+02  0.51100000000E-03 0. -1.
         23    2    1    0    0    0  0.76259729099E+00 -0.20177887291E+02 -0.21730283489E+02  0.95336320008E+02  0.90603973434E+02 0.  0.
         11    1    3    3    0    0 -0.38710195991E+02 -0.28783515363E+02  0.23648615006E+01  0.48296610652E+02  0.51100000000E-03 0.  1.
         22    1    1    0    0    0 -0.76259729099E+00  0.20177887291E+02  0.21730283489E+02  0.29663679992E+02  0.00000000000E+00 0.  1.
</event>
<event>
 5    1  0.1099741E-009  0.9118800E+02  0.7818608E-02  0.1130116E+00
         25   -1    0    0    0    0  0.00000000000E+00  0.00000000000E+00  0.99999998245E-14  0.12500000000E+03  0.12500000000E+03 0.  0.
        -11    1    3    3    0    0  0.14883839402E+02 -0.68968376633E+01  0.32493631686E+02  0.36399603645E+02  0.51100000000E-03 0.  1.
         23    2    1    0    0    0  0.11474975571E+02 -0.85967747491E+01 -0.26155512738E+02  0.95172320790E+02  0.90377431904E+02 0.  0.
         11    1    3    3    0    0 -0.34088638314E+01 -0.16999370858E+01 -0.58649144424E+02  0.58772717145E+02  0.51100000000E-03 0. -1.
         22    1    1    0    0    0 -0.11474975571E+02  0.85967747491E+01  0.26155512738E+02  0.29827679210E+02  0.00000000000E+00 0. -1.
</event>
<event>
 5    1  0.1099741E-009  0.9118800E+02  0.7818608E-02  0.1130116E+00
         25   -1    0    0    0    0  0.00000000000E+00  0.00000000000E+00  0.99999998245E-14  0.12500000000E+03  0.12500000000E+03 0.  0.
        -11    1    3    3    0    0 -0.38059804574E+02  0.16438678019E+02  0.15702829587E+02  0.44332355189E+02  0.51100000000E-03 0. -1.
         23    2    1    0    0    0 -0.32208109047E+01 -0.47242324708E+01 -0.23456091511E+02  0.10085708749E+03  0.97924827666E+02 0.  0.
         11    1    3    3    0    0  0.34838993670E+02 -0.21162910490E+02 -0.39158921098E+02  0.56524732305E+02  0.51100000000E-03 0.  1.
         22    1    1    0    0    0  0.32208109047E+01  0.47242324708E+01  0.23456091511E+02  0.24142912506E+02  0.00000000000E+00 0.  1.
</event>
<event>
 5    1  0.1099741E-009  0.9118800E+02  0.7818608E-02  0.1130116E+00
         25   -1    0    0    0    0  0.00000000000E+00  0.00000000000E+00  0.99999998245E-14  0.12500000000E+03  0.12500000000E+03 0.  0.
        -11    1    3    3    0    0  0.19162893751E+02  0.46067806384E+02 -0.89835215928E+01  0.50696774478E+02  0.51100000000E-03 0. -1.
         23    2    1    0    0    0  0.54620838930E+01  0.12934654965E+02  0.22544170094E+02  0.98441022897E+02  0.94790588796E+02 0.  0.
         11    1    3    3    0    0 -0.13700809858E+02 -0.33133151419E+02  0.31527691687E+02  0.47744248419E+02  0.51100000000E-03 0.  1.
         22    1    1    0    0    0 -0.54620838930E+01 -0.12934654965E+02 -0.22544170094E+02  0.26558977103E+02  0.00000000000E+00 0. -1.
</event>
<event>
 5    1  0.1099741E-009  0.9118800E+02  0.7818608E-02  0.1130116E+00
         25   -1    0    0    0    0  0.00000000000E+00  0.00000000000E+00  0.99999998245E-14  0.12500000000E+03  0.12500000000E+03 0.  0.
        -11    1    3    3    0    0 -0.16077365370E+02 -0.59437110016E+02  0.89279406298E+01  0.62217038248E+02  0.51100000000E-03 0.  1.
         23    2    1    0    0    0 -0.10497492329E+02 -0.36149640170E+02  0.13547833831E+01  0.87332649846E+02  0.78791893374E+02 0.  0.
         11    1    3    3    0    0  0.55798730409E+01  0.23287469846E+02 -0.75731572467E+01  0.25115611598E+02  0.51100000000E-03 0. -1.
         22    1    1    0    0    0  0.10497492329E+02  0.36149640170E+02 -0.13547833831E+01  0.37667350154E+02  0.00000000000E+00 0.  1.
</event>
<event>
 5    1  0.1099741E-009  0.9118800E+02  0.7818608E-02  0.1130116E+00
         25   -1    0    0    0    0  0.00000000000E+00  0.00000000000E+00  0.99999998245E-14  0.12500000000E+03  0.12500000000E+03 0.  0.
        -11    1    3    3    0    0  0.32958094642E+00  0.22739551325E+02 -0.54623894560E+02  0.59168958713E+02  0.51100000000E-03 0.  1.
         23    2    1    0    0    0  0.55215348136E+01 -0.21917131515E+01 -0.29375322800E+02  0.95030005959E+02  0.90180383065E+02 0.  0.
         11    1    3    3    0    0  0.51919538672E+01 -0.24931264477E+02  0.25248571760E+02  0.35861047246E+02  0.51100000000E-03 0. -1.
         22    1    1    0    0    0 -0.55215348136E+01  0.21917131515E+01  0.29375322800E+02  0.29969994041E+02  0.00000000000E+00 0.  1.
</event>
<event>
 5    1  0.1099741E-009  0.9118800E+02  0.7818608E-02  0.1130116E+00
         25   -1    0    0    0    0  0.00000000000E+00  0.00000000000E+00  0.99999998245E-14  0.12500000000E+03  0.12500000000E+03 0.  0.
        -11    1    3    3    0    0  0.28462715324E+02 -0.17285660083E+02  0.42064649099E+02  0.53650302070E+02  0.51100000000E-03 0. -1.
         23    2    1    0    0    0  0.28500392797E+02  0.49073490542E+01  0.68415882037E+01  0.95281961817E+02  0.90528948156E+02 0.  0.
         11    1    3    3    0    0  0.37677472586E-01  0.22193009137E+02 -0.35223060895E+02  0.41631659746E+02  0.51100000000E-03 0.  1.
         22    1    1    0    0    0 -0.28500392797E+02 -0.49073490542E+01 -0.68415882037E+01  0.29718038183E+02  0.00000000000E+00 0. -1.
</event>
<event>
 5    1  0.1099741E-009  0.9118800E+02  0.7818608E-02  0.1130116E+00
         25   -1    0    0    0    0  0.00000000000E+00  0.00000000000E+00  0.99999998245E-14  0.12500000000E+03  0.12500000000E+03 0.  0.
        -11    1    3    3    0    0 -0.45601876585E+02 -0.37966142454E+02  0.41359637009E+01  0.59481638485E+02  0.51100000000E-03 0.  1.
         23    2    1    0    0    0 -0.14255052049E+02 -0.24965774130E+02  0.11203088009E+02  0.94145412533E+02  0.88945787608E+02 0.  0.
         11    1    3    3    0    0  0.31346824535E+02  0.13000368324E+02  0.70671243086E+01  0.34663774048E+02  0.51100000000E-03 0. -1.
         22    1    1    0    0    0  0.14255052049E+02  0.24965774130E+02 -0.11203088009E+02  0.30854587467E+02  0.00000000000E+00 0.  1.
</event>
<event>
 5    1  0.1099741E-009  0.9118800E+02  0.7818608E-02  0.1130116E+00
         25   -1    0    0    0    0  0.00000000000E+00  0.00000000000E+00  0.99999998245E-14  0.12500000000E+03  0.12500000000E+03 0.  0.
        -11    1    3    3    0    0  0.28249948262E+02 -0.32275392889E+02 -0.45335016843E+00  0.42894825907E+02  0.51100000000E-03 0.  1.
         23    2    1    0    0    0  0.45581236409E+01  0.66197506438E+01  0.27511886350E+02  0.96338152882E+02  0.91975748002E+02 0.  0.
         11    1    3    3    0    0 -0.23691824621E+02  0.38895143533E+02  0.27965236518E+02  0.53443326975E+02  0.51100000000E-03 0. -1.
         22    1    1    0    0    0 -0.45581236409E+01 -0.66197506438E+01 -0.27511886350E+02  0.28661847118E+02  0.00000000000E+00 0. -1.
</event>
<event>
 5    1  0.1099741E-009  0.9118800E+02  0.7818608E-02  0.1130116E+00
         25   -1    0    0    0    0  0.00000000000E+00  0.00000000000E+00  0.99999998245E-14  0.12500000000E+03  0.12500000000E+03 0.  0.
        -11    1    3    3    0    0 -0.35852895721E+02 -0.72709188901E+01 -0.40327041972E+02  0.54447834737E+02  0.51100000000E-03 0.  1.
         23    2    1    0    0    0 -0.28368088551E+02  0.80657836857E+01 -0.31685432134E+01  0.95337819018E+02  0.90606041490E+02 0.  0.
         11    1    3    3    0    0  0.74848071701E+01  0.15336702576E+02  0.37158498758E+02  0.40889984281E+02  0.51100000000E-03 0. -1.
         22    1    1    0    0    0  0.28368088551E+02 -0.80657836857E+01  0.31685432134E+01  0.29662180982E+02  0.00000000000E+00 0.  1.
</event>
<event>
 5    1  0.1099741E-009  0.9118800E+02  0.7818608E-02  0.1130116E+00
         25   -1    0    0    0    0  0.00000000000E+00  0.00000000000E+00  0.99999998245E-14  0.12500000000E+03  0.12500000000E+03 0.  0.
        -11    1    3    3    0    0  0.16994764807E+02 -0.56340876621E+02 -0.53387183191E+01  0.59089917268E+02  0.51100000000E-03 0.  1.
         23    2    1    0    0    0 -0.59285304079E+01 -0.27570503599E+02 -0.71039812672E+01  0.95918275647E+02  0.91403330966E+02 0.  0.
         11    1    3    3    0    0 -0.22923295215E+02  0.28770373021E+02 -0.17652629481E+01  0.36828358378E+02  0.51100000000E-03 0. -1.
         22    1    1    0    0    0  0.59285304079E+01  0.27570503599E+02  0.71039812672E+01  0.29081724353E+02  0.00000000000E+00 0.  1.
</event>
<event>
 5    1  0.1099741E-009  0.9118800E+02  0.7818608E-02  0.1130116E+00
         25   -1    0    0    0    0  0.00000000000E+00  0.00000000000E+00  0.99999998245E-14  0.12500000000E+03  0.12500000000E+03 0.  0.
        -11    1    3    3    0    0 -0.10020244575E+02  0.19018720479E+02  0.32682583824E+02  0.39118644093E+02  0.51100000000E-03 0. -1.
         23    2    1    0    0    0 -0.66045182913E+01 -0.29033174281E+02  0.46220656860E+01  0.94868482250E+02  0.89956214696E+02 0.  0.
         11    1    3    3    0    0  0.34157262833E+01 -0.48051894760E+02 -0.28060518138E+02  0.55749838157E+02  0.51100000000E-03 0.  1.
         22    1    1    0    0    0  0.66045182913E+01  0.29033174281E+02 -0.46220656860E+01  0.30131517750E+02  0.00000000000E+00 0.  1.
</event>
<event>
 5    1  0.1099741E-009  0.9118800E+02  0.7818608E-02  0.1130116E+00
         25   -1    0    0    0    0  0.00000000000E+00  0.00000000000E+00  0.99999998245E-14  0.12500000000E+03  0.12500000000E+03 0.  0.
        -11    1    3    3    0    0 -0.14846356380E+02 -0.29258859139E+02 -0.16577824655E+02  0.36760296604E+02  0.51100000000E-03 0. -1.
         23    2    1    0    0    0  0.29817655029E+02  0.32439686301E+01  0.17373821493E+01  0.94956125738E+02  0.90077918685E+02 0.  0.
         11    1    3    3    0    0  0.44664011409E+02  0.32502827769E+02  0.18315206805E+02  0.58195829134E+02  0.51100000000E-03 0.  1.
         22    1    1    0    0    0 -0.29817655029E+02 -0.32439686301E+01 -0.17373821493E+01  0.30043874262E+02  0.00000000000E+00 0.  1.
</event>
<event>
 5    1  0.1099741E-009  0.9118800E+02  0.7818608E-02  0.1130116E+00
         25   -1    0    0    0    0  0.00000000000E+00  0.00000000000E+00  0.99999998245E-14  0.12500000000E+03  0.12500000000E+03 0.  0.
        -11    1    3    3    0    0  0.55083324050E+01 -0.20078107823E+02 -0.25034223923E+02  0.32560474617E+02  0.51100000000E-03 0.  1.
         23    2    1    0    0    0 -0.28088699115E+02  0.10284633757E+02  0.13651997134E+02  0.92119523494E+02  0.86051617496E+02 0.  0.
         11    1    3    3    0    0 -0.33597031520E+02  0.30362741580E+02  0.38686221057E+02  0.59559048877E+02  0.51100000000E-03 0. -1.
         22    1    1    0    0    0  0.28088699115E+02 -0.10284633757E+02 -0.13651997134E+02  0.32880476506E+02  0.00000000000E+00 0. -1.
</event>
<event>
 5    1  0.1099741E-009  0.9118800E+02  0.7818608E-02  0.1130116E+00
         25   -1    0    0    0    0  0.00000000000E+00  0.00000000000E+00  0.99999998245E-14  0.12500000000E+03  0.12500000000E+03 0.  0.
        -11    1    3    3    0    0  0.45222838416E+02 -0.41064942826E+02 -0.39684619087E+01  0.61214241267E+02  0.51100000000E-03 0. -1.
         23    2    1    0    0    0  0.18713029435E+02 -0.16547169475E+02 -0.10488617083E+02  0.97907614048E+02  0.94084555119E+02 0.  0.
         11    1    3    3    0    0 -0.26509808981E+02  0.24517773350E+02 -0.65201551741E+01  0.36693372781E+02  0.51100000000E-03 0.  1.
         22    1    1    0    0    0 -0.18713029435E+02  0.16547169475E+02  0.10488617083E+02  0.27092385952E+02  0.00000000000E+00 0. -1.
</event>
<event>
 5    1  0.1099741E-009  0.9118800E+02  0.7818608E-02  0.1130116E+00
         25   -1    0    0    0    0  0.00000000000E+00  0.00000000000E+00  0.99999998245E-14  0.12500000000E+03  0.12500000000E+03 0.  0.
        -11    1    3    3    0    0 -0.68083280275E+01  0.54046513906E+02  0.13398571741E+02  0.56097243434E+02  0.51100000000E-03 0.  1.
         23    2    1    0    0    0  0.10202418602E+02  0.28465458548E+02 -0.82223580134E+01  0.93663458280E+02  0.88265874323E+02 0.  0.
         11    1    3    3    0    0  0.17010746630E+02 -0.25581055358E+02 -0.21620929754E+02  0.37566214846E+02  0.51100000000E-03 0. -1.
         22    1    1    0    0    0 -0.10202418602E+02 -0.28465458548E+02  0.82223580134E+01  0.31336541720E+02  0.00000000000E+00 0. -1.
</event>
<event>
 5    1  0.1099741E-009  0.9118800E+02  0.7818608E-02  0.1130116E+00
         25   -1    0    0    0    0  0.00000000000E+00  0.00000000000E+00  0.99999998245E-14  0.12500000000E+03  0.12500000000E+03 0.  0.
        -11    1    3    3    0    0  0.55997461319E+02  0.23001946622E+02 -0.21794955161E+01  0.60576855510E+02  0.51100000000E-03 0. -1.
         23    2    1    0    0    0  0.21945102473E+02  0.16197487778E+02 -0.95964889479E+01  0.96085665613E+02  0.91631961691E+02 0.  0.
         11    1    3    3    0    0 -0.34052358846E+02 -0.68044588433E+01 -0.74169934317E+01  0.35508810103E+02  0.51100000000E-03 0.  1.
         22    1    1    0    0    0 -0.21945102473E+02 -0.16197487778E+02  0.95964889479E+01  0.28914334387E+02  0.00000000000E+00 0. -1.
</event>
<event>
 5    1  0.1099741E-009  0.9118800E+02  0.7818608E-02  0.1130116E+00
         25   -1    0    0    0    0  0.00000000000E+00  0.00000000000E+00  0.99999998245E-14  0.12500000000E+03  0.12500000000E+03 0.  0.
        -11    1    3    3    0    0  0.81953272259E+01  0.11533953160E+01  0.37853991195E+02  0.38748140069E+02  0.51100000000E-03 0.  1.
         23    2    1    0    0    0  0.15982264042E+02 -0.21274534110E+02 -0.13380612665E+02  0.95216122469E+02  0.90437993217E+02 0.  0.
         11    1    3    3    0    0  0.77869368162E+01 -0.22427929426E+02 -0.51234603860E+02  0.56467982400E+02  0.51100000000E-03 0. -1.
         22    1    1    0    0    0 -0.15982264042E+02  0.21274534110E+02  0.13380612665E+02  0.29783877531E+02  0.00000000000E+00 0. -1.
</event>
<event>
 5    1  0.1099741E-009  0.9118800E+02  0.7818608E-02  0.1130116E+00
         25   -1    0    0    0    0  0.00000000000E+00  0.00000000000E+00  0.99999998245E-14  0.12500000000E+03  0.12500000000E+03 0.  0.
        -11    1    3    3    0    0 -0.25922836573E+02  0.17865271984E+02  0.22745927864E+02  0.38839910320E+02  0.51100000000E-03 0.  1.
         23    2    1    0    0    0 -0.88200102363E+01 -0.25992293596E+02 -0.95615796524E+01  0.95934286308E+02  0.91425223965E+02 0.  0.
         11    1    3    3    0    0  0.17102826336E+02 -0.43857565580E+02 -0.32307507516E+02  0.57094375988E+02  0.51100000000E-03 0. -1.
         22    1    1    0    0    0  0.88200102363E+01  0.25992293596E+02  0.95615796524E+01  0.29065713692E+02  0.00000000000E+00 0. -1.
</event>
<event>
 5    1  0.1099741E-009  0.9118800E+02  0.7818608E-02  0.1130116E+00
         25   -1    0    0    0    0  0.00000000000E+00  0.00000000000E+00  0.99999998245E-14  0.12500000000E+03  0.12500000000E+03 0.  0.
        -11    1    3    3    0    0  0.30606609483E+02  0.27189207781E+02 -0.25078640636E+01  0.41015935272E+02  0.51100000000E-03 0. -1.
         23    2    1    0    0    0 -0.21187438888E+02  0.14351433720E+02 -0.14329034900E+02  0.95670962211E+02  0.91064485684E+02 0.  0.
         11    1    3    3    0    0 -0.51794048372E+02 -0.12837774061E+02 -0.11821170836E+02  0.54655026939E+02  0.51100000000E-03 0.  1.
         22    1    1    0    0    0  0.21187438888E+02 -0.14351433720E+02  0.14329034900E+02  0.29329037789E+02  0.00000000000E+00 0. -1.
</event>
<event>
 5    1  0.1099741E-009  0.9118800E+02  0.7818608E-02  0.1130116E+00
         25   -1    0    0    0    0  0.00000000000E+00  0.00000000000E+00  0.99999998245E-14  0.12500000000E+03  0.12500000000E+03 0.  0.
        -11    1    3    3    0    0 -0.49430775678E+01 -0.40244242619E+02  0.52803611624E+01  0.40889060812E+02  0.51100000000E-03 0. -1.
         23    2    1    0    0    0  0.25894677756E+02 -0.10253219016E+01 -0.15353427584E+02  0.94878357288E+02  0.89969935656E+02 0.  0.
         11    1    3    3    0    0  0.30837755324E+02  0.39218920718E+02 -0.20633788747E+02  0.53989296476E+02  0.51100000000E-03 0.  1.
         22    1    1    0    0    0 -0.25894677756E+02  0.10253219016E+01  0.15353427584E+02  0.30121642712E+02  0.00000000000E+00 0.  1.
</event>
<event>
 5    1  0.1099741E-009  0.9118800E+02  0.7818608E-02  0.1130116E+00
         25   -1    0    0    0    0  0.00000000000E+00  0.00000000000E+00  0.99999998245E-14  0.12500000000E+03  0.12500000000E+03 0.  0.
        -11    1    3    3    0    0 -0.21918165276E+02  0.21450363270E+02 -0.19973387156E+02  0.36598637245E+02  0.51100000000E-03 0. -1.
         23    2    1    0    0    0  0.20682293902E+02  0.56399324041E+01  0.18917658867E+02  0.96409023529E+02  0.92072014653E+02 0.  0.
         11    1    3    3    0    0  0.42600459177E+02 -0.15810430866E+02  0.38891046024E+02  0.59810386283E+02  0.51100000000E-03 0.  1.
         22    1    1    0    0    0 -0.20682293902E+02 -0.56399324041E+01 -0.18917658867E+02  0.28590976471E+02  0.00000000000E+00 0.  1.
</event>
<event>
 5    1  0.1099741E-009  0.9118800E+02  0.7818608E-02  0.1130116E+00
         25   -1    0    0    0    0  0.00000000000E+00  0.00000000000E+00  0.99999998245E-14  0.12500000000E+03  0.12500000000E+03 0.  0.
        -11    1    3    3    0    0  0.47531019143E+01 -0.23662032688E+02 -0.20371232977E+02  0.31582762735E+02  0.51100000000E-03 0. -1.
         23    2    1    0    0    0 -0.80401576430E+00  0.18245371938E+02  0.25287680880E+02  0.93806942394E+02  0.88468839704E+02 0.  0.
         11    1    3    3    0    0 -0.55571176786E+01  0.41907404626E+02  0.45658913857E+02  0.62224179659E+02  0.51100000000E-03 0.  1.
         22    1    1    0    0    0  0.80401576430E+00 -0.18245371938E+02 -0.25287680880E+02  0.31193057606E+02  0.00000000000E+00 0.  1.
</event>
<event>
 5    1  0.1099741E-009  0.9118800E+02  0.7818608E-02  0.1130116E+00
         25   -1    0    0    0    0  0.00000000000E+00  0.00000000000E+00  0.99999998245E-14  0.12500000000E+03  0.12500000000E+03 0.  0.
        -11    1    3    3    0    0 -0.26688989766E+02 -0.18071603679E+02 -0.19578487799E+02  0.37712096454E+02  0.51100000000E-03 0.  1.
         23    2    1    0    0    0 -0.24514193196E+01 -0.12301118010E+02  0.29605697291E+02  0.92846862158E+02  0.87101753941E+02 0.  0.
         11    1    3    3    0    0  0.24237570446E+02  0.57704856692E+01  0.49184185090E+02  0.55134765704E+02  0.51100000000E-03 0. -1.
         22    1    1    0    0    0  0.24514193196E+01  0.12301118010E+02 -0.29605697291E+02  0.32153137842E+02  0.00000000000E+00 0. -1.
</event>
<event>
 5    1  0.1099741E-009  0.9118800E+02  0.7818608E-02  0.1130116E+00
         25   -1    0    0    0    0  0.00000000000E+00  0.00000000000E+00  0.99999998245E-14  0.12500000000E+03  0.12500000000E+03 0.  0.
        -11    1    3    3    0    0  0.26767993899E+02  0.47466720270E+02  0.21737147291E+02  0.58669571357E+02  0.51100000000E-03 0. -1.
         23    2    1    0    0    0  0.17828257057E+01  0.20493877077E+02  0.21227952743E+02  0.95439833512E+02  0.90746671442E+02 0.  0.
         11    1    3    3    0    0 -0.24985168193E+02 -0.26972843193E+02 -0.50919454765E+00  0.36770262155E+02  0.51100000000E-03 0.  1.
         22    1    1    0    0    0 -0.17828257057E+01 -0.20493877077E+02 -0.21227952743E+02  0.29560166488E+02  0.00000000000E+00 0. -1.
</event>
<event>
 5    1  0.1099741E-009  0.9118800E+02  0.7818608E-02  0.1130116E+00
         25   -1    0    0    0    0  0.00000000000E+00  0.00000000000E+00  0.99999998245E-14  0.12500000000E+03  0.12500000000E+03 0.  0.
        -11    1    3    3    0    0 -0.42155000308E+02 -0.11556491971E+02  0.28723206039E+02  0.52303146397E+02  0.51100000000E-03 0.  1.
         23    2    1    0    0    0 -0.10923123374E+02  0.14846360613E+02  0.25784168275E+02  0.93305325663E+02  0.87757229991E+02 0.  0.
         11    1    3    3    0    0  0.31231876934E+02  0.26402852583E+02 -0.29390377639E+01  0.41002179266E+02  0.51100000000E-03 0. -1.
         22    1    1    0    0    0  0.10923123374E+02 -0.14846360613E+02 -0.25784168275E+02  0.31694674337E+02  0.00000000000E+00 0.  1.
</event>
<event>
 5    1  0.1099741E-009  0.9118800E+02  0.7818608E-02  0.1130116E+00
         25   -1    0    0    0    0  0.00000000000E+00  0.00000000000E+00  0.99999998245E-14  0.12500000000E+03  0.12500000000E+03 0.  0.
        -11    1    3    3    0    0 -0.13819053489E+01 -0.60526029764E+02 -0.99238172029E+01  0.61349752155E+02  0.51100000000E-03 0.  1.
         23    2    1    0    0    0 -0.56816547802E+01 -0.26421406716E+02  0.24035657388E+01  0.97867932955E+02  0.94031820352E+02 0.  0.
         11    1    3    3    0    0 -0.42997494313E+01  0.34104623048E+02  0.12327382942E+02  0.36518180799E+02  0.51100000000E-03 0. -1.
         22    1    1    0    0    0  0.56816547802E+01  0.26421406716E+02 -0.24035657388E+01  0.27132067045E+02  0.00000000000E+00 0.  1.
</event>
<event>
 5    1  0.1099741E-009  0.9118800E+02  0.7818608E-02  0.1130116E+00
         25   -1    0    0    0    0  0.00000000000E+00  0.00000000000E+00  0.99999998245E-14  0.12500000000E+03  0.12500000000E+03 0.  0.
        -11    1    3    3    0    0 -0.28311939988E+02 -0.86568934285E+01  0.99541643012E+01  0.31234486340E+02  0.51100000000E-03 0. -1.
         23    2    1    0    0    0  0.31998591696E+02 -0.45139945323E+01 -0.98816893053E+00  0.92669480440E+02  0.86846819804E+02 0.  0.
         11    1    3    3    0    0  0.60310531684E+02  0.41428988962E+01 -0.10942333232E+02  0.61434994100E+02  0.51100000000E-03 0.  1.
         22    1    1    0    0    0 -0.31998591696E+02  0.45139945323E+01  0.98816893053E+00  0.32330519560E+02  0.00000000000E+00 0.  1.
</event>
<event>
 5    1  0.1099741E-009  0.9118800E+02  0.7818608E-02  0.1130116E+00
         25   -1    0    0    0    0  0.00000000000E+00  0.00000000000E+00  0.99999998245E-14  0.12500000000E+03  0.12500000000E+03 0.  0.
        -11    1    3    3    0    0 -0.26326737819E+02 -0.24642295990E+02 -0.50510572896E+02  0.62061726131E+02  0.51100000000E-03 0.  1.
         23    2    1    0    0    0 -0.14435342396E+02 -0.11412025483E+02 -0.17265664851E+02  0.99766755689E+02  0.96522996857E+02 0.  0.
         11    1    3    3    0    0  0.11891395423E+02  0.13230270507E+02  0.33244908044E+02  0.37705029558E+02  0.51100000000E-03 0. -1.
         22    1    1    0    0    0  0.14435342396E+02  0.11412025483E+02  0.17265664851E+02  0.25233244311E+02  0.00000000000E+00 0.  1.
</event>
<event>
 5    1  0.1099741E-009  0.9118800E+02  0.7818608E-02  0.1130116E+00
         25   -1    0    0    0    0  0.00000000000E+00  0.00000000000E+00  0.99999998245E-14  0.12500000000E+03  0.12500000000E+03 0.  0.
        -11    1    3    3    0    0 -0.50500118204E+02 -0.12082576481E+02 -0.13471386532E+02  0.53644467081E+02  0.51100000000E-03 0.  1.
         23    2    1    0    0    0 -0.96558687382E+01 -0.25346880165E+02 -0.56075974442E+01  0.97302612320E+02  0.93277291342E+02 0.  0.
         11    1    3    3    0    0  0.40844249466E+02 -0.13264303684E+02  0.78637890881E+01  0.43658145239E+02  0.51100000000E-03 0. -1.
         22    1    1    0    0    0  0.96558687382E+01  0.25346880165E+02  0.56075974442E+01  0.27697387680E+02  0.00000000000E+00 0.  1.
</event>
<event>
 5    1  0.1099741E-009  0.9118800E+02  0.7818608E-02  0.1130116E+00
         25   -1    0    0    0    0  0.00000000000E+00  0.00000000000E+00  0.99999998245E-14  0.12500000000E+03  0.12500000000E+03 0.  0.
        -11    1    3    3    0    0  0.24020887305E+02  0.27335170000E+02  0.38149814332E+02  0.52722128937E+02  0.51100000000E-03 0.  1.
         23    2    1    0    0    0  0.26576432357E+02 -0.46592659366E+01  0.77562872790E+01  0.96925536367E+02  0.92770599286E+02 0.  0.
         11    1    3    3    0    0  0.25555450522E+01 -0.31994435936E+02 -0.30393527053E+02  0.44203407430E+02  0.51100000000E-03 0. -1.
         22    1    1    0    0    0 -0.26576432357E+02  0.46592659366E+01 -0.77562872790E+01  0.28074463633E+02  0.00000000000E+00 0.  1.
</event>
<event>
 5    1  0.1099741E-009  0.9118800E+02  0.7818608E-02  0.1130116E+00
         25   -1    0    0    0    0  0.00000000000E+00  0.00000000000E+00  0.99999998245E-14  0.12500000000E+03  0.12500000000E+03 0.  0.
        -11    1    3    3    0    0  0.10572011879E+02 -0.51446248052E+02  0.87993358648E+01  0.53253283333E+02  0.51100000000E-03 0. -1.
         23    2    1    0    0    0  0.87061647990E+01 -0.98478836679E+01  0.24045038472E+02  0.97596679155E+02  0.93670538531E+02 0.  0.
         11    1    3    3    0    0 -0.18658470799E+01  0.41598364384E+02  0.15245702607E+02  0.44343395822E+02  0.51100000000E-03 0.  1.
         22    1    1    0    0    0 -0.87061647990E+01  0.98478836679E+01 -0.24045038472E+02  0.27403320845E+02  0.00000000000E+00 0.  1.
</event>
<event>
 5    1  0.1099741E-009  0.9118800E+02  0.7818608E-02  0.1130116E+00
         25   -1    0    0    0    0  0.00000000000E+00  0.00000000000E+00  0.99999998245E-14  0.12500000000E+03  0.12500000000E+03 0.  0.
        -11    1    3    3    0    0 -0.49815404665E+02 -0.16463679473E+01 -0.32783007086E+02  0.59657443988E+02  0.51100000000E-03 0. -1.
         23    2    1    0    0    0 -0.12125730138E+02  0.29345542371E+01 -0.22951720824E+02  0.98876707161E+02  0.95363393345E+02 0.  0.
         11    1    3    3    0    0  0.37689674527E+02  0.45809221844E+01  0.98312862622E+01  0.39219263173E+02  0.51100000000E-03 0.  1.
         22    1    1    0    0    0  0.12125730138E+02 -0.29345542371E+01  0.22951720824E+02  0.26123292839E+02  0.00000000000E+00 0. -1.
</event>
<event>
 5    1  0.1099741E-009  0.9118800E+02  0.7818608E-02  0.1130116E+00
         25   -1    0    0    0    0  0.00000000000E+00  0.00000000000E+00  0.99999998245E-14  0.12500000000E+03  0.12500000000E+03 0.  0.
        -11    1    3    3    0    0  0.26171239616E+02 -0.27268238252E+02  0.26488166433E+01  0.37888082959E+02  0.51100000000E-03 0.  1.
         23    2    1    0    0    0  0.22313910722E+02  0.25098012670E+02 -0.53223936921E+01  0.90997812918E+02  0.84406476230E+02 0.  0.
         11    1    3    3    0    0 -0.38573288936E+01  0.52366250923E+02 -0.79712103354E+01  0.53109729959E+02  0.51100000000E-03 0. -1.
         22    1    1    0    0    0 -0.22313910722E+02 -0.25098012670E+02  0.53223936921E+01  0.34002187082E+02  0.00000000000E+00 0. -1.
</event>
<event>
 5    1  0.1099741E-009  0.9118800E+02  0.7818608E-02  0.1130116E+00
         25   -1    0    0    0    0  0.00000000000E+00  0.00000000000E+00  0.99999998245E-14  0.12500000000E+03  0.12500000000E+03 0.  0.
        -11    1    3    3    0    0 -0.28058613932E+01  0.38760378901E+02  0.46851156074E+02  0.60870934414E+02  0.51100000000E-03 0. -1.
         23    2    1    0    0    0  0.77377882546E+01  0.14317498019E+02  0.24270422011E+02  0.95778133167E+02  0.91211475658E+02 0.  0.
         11    1    3    3    0    0  0.10543649648E+02 -0.24442880882E+02 -0.22580734063E+02  0.34907198753E+02  0.51100000000E-03 0.  1.
         22    1    1    0    0    0 -0.77377882546E+01 -0.14317498019E+02 -0.24270422011E+02  0.29221866833E+02  0.00000000000E+00 0. -1.
</event>
<event>
 5    1  0.1099741E-009  0.9118800E+02  0.7818608E-02  0.1130116E+00
         25   -1    0    0    0    0  0.00000000000E+00  0.00000000000E+00  0.99999998245E-14  0.12500000000E+03  0.12500000000E+03 0.  0.
        -11    1    3    3    0    0  0.17525398629E+02 -0.41399514756E+02 -0.37232152992E+01  0.45110106978E+02  0.51100000000E-03 0.  1.
         23    2    1    0    0    0 -0.24865026125E+02 -0.14243060771E+02 -0.68058425497E+01  0.95547431400E+02  0.90894762501E+02 0.  0.
         11    1    3    3    0    0 -0.42390424754E+02  0.27156453985E+02 -0.30826272504E+01  0.50437324422E+02  0.51100000000E-03 0. -1.
         22    1    1    0    0    0  0.24865026125E+02  0.14243060771E+02  0.68058425497E+01  0.29452568600E+02  0.00000000000E+00 0. -1.
</event>
<event>
 5    1  0.1099741E-009  0.9118800E+02  0.7818608E-02  0.1130116E+00
         25   -1    0    0    0    0  0.00000000000E+00  0.00000000000E+00  0.99999998245E-14  0.12500000000E+03  0.12500000000E+03 0.  0.
        -11    1    3    3    0    0  0.57285210714E+02 -0.19914946040E+02  0.11565169588E+02  0.61741020321E+02  0.51100000000E-03 0. -1.
         23    2    1    0    0    0  0.27408868366E+02 -0.44273052243E+01  0.10202380942E+02  0.95420688420E+02  0.90720295993E+02 0.  0.
         11    1    3    3    0    0 -0.29876342348E+02  0.15487640816E+02 -0.13627886465E+01  0.33679668100E+02  0.51100000000E-03 0.  1.
         22    1    1    0    0    0 -0.27408868366E+02  0.44273052243E+01 -0.10202380942E+02  0.29579311580E+02  0.00000000000E+00 0. -1.
</event>
<event>
 5    1  0.1099741E-009  0.9118800E+02  0.7818608E-02  0.1130116E+00
         25   -1    0    0    0    0  0.00000000000E+00  0.00000000000E+00  0.99999998245E-14  0.12500000000E+03  0.12500000000E+03 0.  0.
        -11    1    3    3    0    0  0.34507282614E+02  0.35589203565E+01 -0.31739109864E+02  0.47019034047E+02  0.51100000000E-03 0. -1.
         23    2    1    0    0    0  0.59101641676E+01 -0.27918644334E+02 -0.15354524895E+02  0.92594102749E+02  0.86738259650E+02 0.  0.
         11    1    3    3    0    0 -0.28597118447E+02 -0.31477564690E+02  0.16384584969E+02  0.45575068701E+02  0.51100000000E-03 0.  1.
         22    1    1    0    0    0 -0.59101641676E+01  0.27918644334E+02  0.15354524895E+02  0.32405897251E+02  0.00000000000E+00 0.  1.
</event>
<event>
 5    1  0.1099741E-009  0.9118800E+02  0.7818608E-02  0.1130116E+00
         25   -1    0    0    0    0  0.00000000000E+00  0.00000000000E+00  0.99999998245E-14  0.12500000000E+03  0.12500000000E+03 0.  0.
        -11    1    3    3    0    0  0.10232830619E+01 -0.37330687251E+02  0.11896905766E+02  0.39193924095E+02  0.51100000000E-03 0. -1.
         23    2    1    0    0    0 -0.31666263749E+02  0.37017704532E+01 -0.55414563276E+00  0.93113287380E+02  0.87483266086E+02 0.  0.
         11    1    3    3    0    0 -0.32689546811E+02  0.41032457704E+02 -0.12451051399E+02  0.53919363286E+02  0.51100000000E-03 0.  1.
         22    1    1    0    0    0  0.31666263749E+02 -0.37017704532E+01  0.55414563276E+00  0.31886712620E+02  0.00000000000E+00 0.  1.
</event>
<event>
 5    1  0.1099741E-009  0.9118800E+02  0.7818608E-02  0.1130116E+00
         25   -1    0    0    0    0  0.00000000000E+00  0.00000000000E+00  0.99999998245E-14  0.12500000000E+03  0.12500000000E+03 0.  0.
        -11    1    3    3    0    0 -0.82980922356E+01  0.50519837451E+02  0.35639498404E+02  0.62380174395E+02  0.51100000000E-03 0. -1.
         23    2    1    0    0    0 -0.14403792389E+01  0.25553785613E+02  0.18077598024E+02  0.93665191850E+02  0.88268329329E+02 0.  0.
         11    1    3    3    0    0  0.68577129967E+01 -0.24966051838E+02 -0.17561900381E+02  0.31285017455E+02  0.51100000000E-03 0.  1.
         22    1    1    0    0    0  0.14403792389E+01 -0.25553785613E+02 -0.18077598024E+02  0.31334808150E+02  0.00000000000E+00 0. -1.
</event>
<event>
 5    1  0.1099741E-009  0.9118800E+02  0.7818608E-02  0.1130116E+00
         25   -1    0    0    0    0  0.00000000000E+00  0.00000000000E+00  0.99999998245E-14  0.12500000000E+03  0.12500000000E+03 0.  0.
        -11    1    3    3    0    0  0.40850806299E+02  0.28534640548E+01 -0.41903085119E+02  0.58590094514E+02  0.51100000000E-03 0.  1.
         23    2    1    0    0    0  0.77709619393E+01 -0.11881072572E+01 -0.30014654993E+02  0.93972931775E+02  0.88703060509E+02 0.  0.
         11    1    3    3    0    0 -0.33079844359E+02 -0.40415713120E+01  0.11888430126E+02  0.35382837261E+02  0.51100000000E-03 0. -1.
         22    1    1    0    0    0 -0.77709619393E+01  0.11881072572E+01  0.30014654993E+02  0.31027068225E+02  0.00000000000E+00 0.  1.
</event>
<event>
 5    1  0.1099741E-009  0.9118800E+02  0.7818608E-02  0.1130116E+00
         25   -1    0    0    0    0  0.00000000000E+00  0.00000000000E+00  0.99999998245E-14  0.12500000000E+03  0.12500000000E+03 0.  0.
        -11    1    3    3    0    0  0.96354036461E+01  0.11497014268E+02 -0.54690192603E+02  0.56710135846E+02  0.51100000000E-03 0.  1.
         23    2    1    0    0    0  0.21542275417E+02  0.64609801092E+01 -0.16285151026E+02  0.97232752422E+02  0.93183625737E+02 0.  0.
         11    1    3    3    0    0  0.11906871771E+02 -0.50360341584E+01  0.38405041576E+02  0.40522616576E+02  0.51100000000E-03 0. -1.
         22    1    1    0    0    0 -0.21542275417E+02 -0.64609801092E+01  0.16285151026E+02  0.27767247578E+02  0.00000000000E+00 0.  1.
</event>
<event>
 5    1  0.1099741E-009  0.9118800E+02  0.7818608E-02  0.1130116E+00
         25   -1    0    0    0    0  0.00000000000E+00  0.00000000000E+00  0.99999998245E-14  0.12500000000E+03  0.12500000000E+03 0.  0.
        -11    1    3    3    0    0  0.85834482242E+01 -0.40932921442E+02  0.44547856959E+02  0.61103937689E+02  0.51100000000E-03 0.  1.
         23    2    1    0    0    0  0.46616611514E+01 -0.12059438588E+02  0.26858406666E+02  0.95191693232E+02  0.90404221737E+02 0.  0.
         11    1    3    3    0    0 -0.39217870728E+01  0.28873482854E+02 -0.17689450293E+02  0.34087755542E+02  0.51100000000E-03 0. -1.
         22    1    1    0    0    0 -0.46616611514E+01  0.12059438588E+02 -0.26858406666E+02  0.29808306768E+02  0.00000000000E+00 0.  1.
</event>
<event>
 5    1  0.1099741E-009  0.9118800E+02  0.7818608E-02  0.1130116E+00
         25   -1    0    0    0    0  0.00000000000E+00  0.00000000000E+00  0.99999998245E-14  0.12500000000E+03  0.12500000000E+03 0.  0.
        -11    1    3    3    0    0 -0.13091214092E+02  0.36406963638E+02 -0.48835654241E+02  0.62303836264E+02  0.51100000000E-03 0. -1.
         23    2    1    0    0    0 -0.27196837254E+01  0.15809205986E+02 -0.23301362639E+02  0.96710758683E+02  0.92480752975E+02 0.  0.
         11    1    3    3    0    0  0.10371530367E+02 -0.20597757652E+02  0.25534291603E+02  0.34406922419E+02  0.51100000000E-03 0.  1.
         22    1    1    0    0    0  0.27196837254E+01 -0.15809205986E+02  0.23301362639E+02  0.28289241317E+02  0.00000000000E+00 0. -1.
</event>
<event>
 5    1  0.1099741E-009  0.9118800E+02  0.7818608E-02  0.1130116E+00
         25   -1    0    0    0    0  0.00000000000E+00  0.00000000000E+00  0.99999998245E-14  0.12500000000E+03  0.12500000000E+03 0.  0.
        -11    1    3    3    0    0  0.12634440791E+02  0.25710232811E+02 -0.23699417730E+02  0.37179397067E+02  0.51100000000E-03 0. -1.
         23    2    1    0    0    0 -0.19204340370E+02  0.49246877256E+01  0.21172215947E+02  0.95994449387E+02  0.91507444215E+02 0.  0.
         11    1    3    3    0    0 -0.31838781160E+02 -0.20785545086E+02  0.44871633677E+02  0.58815052320E+02  0.51100000000E-03 0.  1.
         22    1    1    0    0    0  0.19204340370E+02 -0.49246877256E+01 -0.21172215947E+02  0.29005550613E+02  0.00000000000E+00 0.  1.
</event>
<event>
 5    1  0.1099741E-009  0.9118800E+02  0.7818608E-02  0.1130116E+00
         25   -1    0    0    0    0  0.00000000000E+00  0.00000000000E+00  0.99999998245E-14  0.12500000000E+03  0.12500000000E+03 0.  0.
        -11    1    3    3    0    0 -0.77944828646E+01  0.38458582050E+02  0.39330442785E+02  0.55558079758E+02  0.51100000000E-03 0. -1.
         23    2    1    0    0    0  0.80058272472E+01  0.19067889553E+02 -0.23692672045E+01  0.10418435423E+03  0.10208373306E+03 0.  0.
         11    1    3    3    0    0  0.15800310112E+02 -0.19390692497E+02 -0.41699709989E+02  0.48626274468E+02  0.51100000000E-03 0.  1.
         22    1    1    0    0    0 -0.80058272472E+01 -0.19067889553E+02  0.23692672045E+01  0.20815645775E+02  0.00000000000E+00 0. -1.
</event>
<event>
 5    1  0.1099741E-009  0.9118800E+02  0.7818608E-02  0.1130116E+00
         25   -1    0    0    0    0  0.00000000000E+00  0.00000000000E+00  0.99999998245E-14  0.12500000000E+03  0.12500000000E+03 0.  0.
        -11    1    3    3    0    0 -0.25994361489E+02  0.14477083362E+02  0.17751606839E+02  0.34646966931E+02  0.51100000000E-03 0.  1.
         23    2    1    0    0    0  0.24525187894E+02 -0.15437100603E+02 -0.12689551229E+00  0.96020610450E+02  0.91543173489E+02 0.  0.
         11    1    3    3    0    0  0.50519549383E+02 -0.29914183965E+02 -0.17878502351E+02  0.61373643518E+02  0.51100000000E-03 0. -1.
         22    1    1    0    0    0 -0.24525187894E+02  0.15437100603E+02  0.12689551229E+00  0.28979389550E+02  0.00000000000E+00 0. -1.
</event>
<event>
 5    1  0.1099741E-009  0.9118800E+02  0.7818608E-02  0.1130116E+00
         25   -1    0    0    0    0  0.00000000000E+00  0.00000000000E+00  0.99999998245E-14  0.12500000000E+03  0.12500000000E+03 0.  0.
        -11    1    3    3    0    0  0.31782177830E+02 -0.87161805719E+01 -0.60869461019E+01  0.33513124959E+02  0.51100000000E-03 0. -1.
         23    2    1    0    0    0  0.21996233041E+00  0.29381248771E+02  0.20013883264E+02  0.89449167575E+02  0.82081008119E+02 0.  0.
         11    1    3    3    0    0 -0.31562215500E+02  0.38097429343E+02  0.26100829366E+02  0.55936042617E+02  0.51100000000E-03 0.  1.
         22    1    1    0    0    0 -0.21996233041E+00 -0.29381248771E+02 -0.20013883264E+02  0.35550832425E+02  0.00000000000E+00 0.  1.
</event>
<event>
 5    1  0.1099741E-009  0.9118800E+02  0.7818608E-02  0.1130116E+00
         25   -1    0    0    0    0  0.00000000000E+00  0.00000000000E+00  0.99999998245E-14  0.12500000000E+03  0.12500000000E+03 0.  0.
        -11    1    3    3    0    0 -0.26888614705E+02 -0.18015075507E+02  0.46141673684E+02  0.56361286331E+02  0.51100000000E-03 0.  1.
         23    2    1    0    0    0 -0.24377761378E+02  0.64304467275E+01  0.16480812298E+02  0.94879524092E+02  0.89971556744E+02 0.  0.
         11    1    3    3    0    0  0.25108533268E+01  0.24445522235E+02 -0.29660861386E+02  0.38518237760E+02  0.51100000000E-03 0. -1.
         22    1    1    0    0    0  0.24377761378E+02 -0.64304467275E+01 -0.16480812298E+02  0.30120475908E+02  0.00000000000E+00 0.  1.
</event>
<event>
 5    1  0.1099741E-009  0.9118800E+02  0.7818608E-02  0.1130116E+00
         25   -1    0    0    0    0  0.00000000000E+00  0.00000000000E+00  0.99999998245E-14  0.12500000000E+03  0.12500000000E+03 0.  0.
        -11    1    3    3    0    0  0.13832596449E+02 -0.37751566293E+01  0.34141354655E+02  0.37030050365E+02  0.51100000000E-03 0. -1.
         23    2    1    0    0    0 -0.27776482397E+02  0.10422619526E+02 -0.37837405487E+01  0.95092130388E+02  0.90266453332E+02 0.  0.
         11    1    3    3    0    0 -0.41609078846E+02  0.14197776155E+02 -0.37925095203E+02  0.58062080024E+02  0.51100000000E-03 0.  1.
         22    1    1    0    0    0  0.27776482397E+02 -0.10422619526E+02  0.37837405487E+01  0.29907869612E+02  0.00000000000E+00 0.  1.
</event>
<event>
 5    1  0.1099741E-009  0.9118800E+02  0.7818608E-02  0.1130116E+00
         25   -1    0    0    0    0  0.00000000000E+00  0.00000000000E+00  0.99999998245E-14  0.12500000000E+03  0.12500000000E+03 0.  0.
        -11    1    3    3    0    0 -0.35577198025E+02 -0.27698125180E+02 -0.37134501692E+02  0.58411423318E+02  0.51100000000E-03 0.  1.
         23    2    1    0    0    0 -0.10395925481E+02 -0.25088882189E+02 -0.86993425853E+01  0.96483235852E+02  0.92172712681E+02 0.  0.
         11    1    3    3    0    0  0.25181272544E+02  0.26092429919E+01  0.28435159107E+02  0.38071812534E+02  0.51100000000E-03 0. -1.
         22    1    1    0    0    0  0.10395925481E+02  0.25088882189E+02  0.86993425853E+01  0.28516764148E+02  0.00000000000E+00 0.  1.
</event>
<event>
 5    1  0.1099741E-009  0.9118800E+02  0.7818608E-02  0.1130116E+00
         25   -1    0    0    0    0  0.00000000000E+00  0.00000000000E+00  0.99999998245E-14  0.12500000000E+03  0.12500000000E+03 0.  0.
        -11    1    3    3    0    0  0.16559320584E+02  0.16729660937E+02 -0.50793207139E+02  0.55982519995E+02  0.51100000000E-03 0. -1.
         23    2    1    0    0    0 -0.97350599171E+01 -0.18210066771E+01 -0.27677326867E+02  0.95604049949E+02  0.90972591956E+02 0.  0.
         11    1    3    3    0    0 -0.26294380501E+02 -0.18550667614E+02  0.23115880272E+02  0.39621529953E+02  0.51100000000E-03 0.  1.
         22    1    1    0    0    0  0.97350599171E+01  0.18210066771E+01  0.27677326867E+02  0.29395950051E+02  0.00000000000E+00 0. -1.
</event>
<event>
 5    1  0.1099741E-009  0.9118800E+02  0.7818608E-02  0.1130116E+00
         25   -1    0    0    0    0  0.00000000000E+00  0.00000000000E+00  0.99999998245E-14  0.12500000000E+03  0.12500000000E+03 0.  0.
        -11    1    3    3    0    0 -0.28622025299E+02  0.29035785992E+02 -0.40865782932E+02  0.57726158848E+02  0.51100000000E-03 0.  1.
         23    2    1    0    0    0 -0.25897243482E+02  0.13385013709E+02 -0.71694111730E+01  0.94979569148E+02  0.90110444938E+02 0.  0.
         11    1    3    3    0    0  0.27247818172E+01 -0.15650772283E+02  0.33696371759E+02  0.37253410300E+02  0.51100000000E-03 0. -1.
         22    1    1    0    0    0  0.25897243482E+02 -0.13385013709E+02  0.71694111730E+01  0.30020430852E+02  0.00000000000E+00 0.  1.
</event>
<event>
 5    1  0.1099741E-009  0.9118800E+02  0.7818608E-02  0.1130116E+00
         25   -1    0    0    0    0  0.00000000000E+00  0.00000000000E+00  0.99999998245E-14  0.12500000000E+03  0.12500000000E+03 0.  0.
        -11    1    3    3    0    0  0.20024414719E+02  0.57042680018E+02  0.56935728863E+01  0.60722823559E+02  0.51100000000E-03 0.  1.
         23    2    1    0    0    0  0.13246234296E+02  0.22768591615E+02  0.11706599563E+02  0.96174387075E+02  0.91752911501E+02 0.  0.
         11    1    3    3    0    0 -0.67781804227E+01 -0.34274088403E+02  0.60130266766E+01  0.35451563517E+02  0.51100000000E-03 0. -1.
         22    1    1    0    0    0 -0.13246234296E+02 -0.22768591615E+02 -0.11706599563E+02  0.28825612925E+02  0.00000000000E+00 0.  1.
</event>
<event>
 5    1  0.1099741E-009  0.9118800E+02  0.7818608E-02  0.1130116E+00
         25   -1    0    0    0    0  0.00000000000E+00  0.00000000000E+00  0.99999998245E-14  0.12500000000E+03  0.12500000000E+03 0.  0.
        -11    1    3    3    0    0  0.24903438066E+02 -0.32417180774E+02 -0.19115802034E+02  0.45127250354E+02  0.51100000000E-03 0.  1.
         23    2    1    0    0    0  0.26716336014E+02  0.75769703705E+01  0.10902598690E+02  0.95166466045E+02  0.90369333910E+02 0.  0.
         11    1    3    3    0    0  0.18128979489E+01  0.39994151144E+02  0.30018400724E+02  0.50039215692E+02  0.51100000000E-03 0. -1.
         22    1    1    0    0    0 -0.26716336014E+02 -0.75769703705E+01 -0.10902598690E+02  0.29833533955E+02  0.00000000000E+00 0. -1.
</event>
<event>
 5    1  0.1099741E-009  0.9118800E+02  0.7818608E-02  0.1130116E+00
         25   -1    0    0    0    0  0.00000000000E+00  0.00000000000E+00  0.99999998245E-14  0.12500000000E+03  0.12500000000E+03 0.  0.
        -11    1    3    3    0    0 -0.42565136423E+01 -0.44647752116E+02 -0.11589239412E+02  0.46323321856E+02  0.51100000000E-03 0. -1.
         23    2    1    0    0    0  0.50742296552E+01 -0.11996993436E+02  0.25349828509E+02  0.96499307666E+02  0.92194505891E+02 0.  0.
         11    1    3    3    0    0  0.93307432975E+01  0.32650758680E+02  0.36939067921E+02  0.50175985810E+02  0.51100000000E-03 0.  1.
         22    1    1    0    0    0 -0.50742296552E+01  0.11996993436E+02 -0.25349828509E+02  0.28500692334E+02  0.00000000000E+00 0.  1.
</event>
<event>
 5    1  0.1099741E-009  0.9118800E+02  0.7818608E-02  0.1130116E+00
         25   -1    0    0    0    0  0.00000000000E+00  0.00000000000E+00  0.99999998245E-14  0.12500000000E+03  0.12500000000E+03 0.  0.
        -11    1    3    3    0    0  0.38826502794E+02  0.34302996955E+02  0.15989733021E+02  0.54220517165E+02  0.51100000000E-03 0.  1.
         23    2    1    0    0    0  0.20766524821E+02 -0.37596092176E+01  0.19195194316E+02  0.96472141696E+02  0.92157666116E+02 0.  0.
         11    1    3    3    0    0 -0.18059977973E+02 -0.38062606173E+02  0.32054612951E+01  0.42251624530E+02  0.51100000000E-03 0. -1.
         22    1    1    0    0    0 -0.20766524821E+02  0.37596092176E+01 -0.19195194316E+02  0.28527858304E+02  0.00000000000E+00 0.  1.
</event>
<event>
 5    1  0.1099741E-009  0.9118800E+02  0.7818608E-02  0.1130116E+00
         25   -1    0    0    0    0  0.00000000000E+00  0.00000000000E+00  0.99999998245E-14  0.12500000000E+03  0.12500000000E+03 0.  0.
        -11    1    3    3    0    0 -0.33208571184E+02  0.19877069512E+00 -0.67413912183E+01  0.33886502707E+02  0.51100000000E-03 0. -1.
         23    2    1    0    0    0  0.28512043901E+02  0.48067226757E+01 -0.64476734339E+00  0.96078434426E+02  0.91622096716E+02 0.  0.
         11    1    3    3    0    0  0.61720615086E+02  0.46079519806E+01  0.60966238750E+01  0.62191931719E+02  0.51100000000E-03 0.  1.
         22    1    1    0    0    0 -0.28512043901E+02 -0.48067226757E+01  0.64476734339E+00  0.28921565574E+02  0.00000000000E+00 0.  1.
</event>
<event>
 5    1  0.1099741E-009  0.9118800E+02  0.7818608E-02  0.1130116E+00
         25   -1    0    0    0    0  0.00000000000E+00  0.00000000000E+00  0.99999998245E-14  0.12500000000E+03  0.12500000000E+03 0.  0.
        -11    1    3    3    0    0 -0.38830088223E+01 -0.39268802881E+02  0.15467259593E+02  0.42383401902E+02  0.51100000000E-03 0.  1.
         23    2    1    0    0    0  0.33561404543E+02 -0.18234575026E+02  0.65489769509E+01  0.86247494270E+02  0.77051110099E+02 0.  0.
         11    1    3    3    0    0  0.37444413365E+02  0.21034227855E+02 -0.89182826418E+01  0.43864092368E+02  0.51100000000E-03 0. -1.
         22    1    1    0    0    0 -0.33561404543E+02  0.18234575026E+02 -0.65489769509E+01  0.38752505730E+02  0.00000000000E+00 0.  1.
</event>
<event>
 5    1  0.1099741E-009  0.9118800E+02  0.7818608E-02  0.1130116E+00
         25   -1    0    0    0    0  0.00000000000E+00  0.00000000000E+00  0.99999998245E-14  0.12500000000E+03  0.12500000000E+03 0.  0.
        -11    1    3    3    0    0  0.25928503427E+02 -0.20328089775E+02 -0.14757803935E+02  0.36101403035E+02  0.51100000000E-03 0.  1.
         23    2    1    0    0    0 -0.16390485260E+02 -0.14282391812E+01  0.23578110715E+02  0.96249083856E+02  0.91854618632E+02 0.  0.
         11    1    3    3    0    0 -0.42318988687E+02  0.18899850593E+02  0.38335914650E+02  0.60147680822E+02  0.51100000000E-03 0. -1.
         22    1    1    0    0    0  0.16390485260E+02  0.14282391812E+01 -0.23578110715E+02  0.28750916144E+02  0.00000000000E+00 0. -1.
</event>
<event>
 5    1  0.1099741E-009  0.9118800E+02  0.7818608E-02  0.1130116E+00
         25   -1    0    0    0    0  0.00000000000E+00  0.00000000000E+00  0.99999998245E-14  0.12500000000E+03  0.12500000000E+03 0.  0.
        -11    1    3    3    0    0  0.16205751699E+02  0.15880134463E+02  0.48389178419E+02  0.53444528691E+02  0.51100000000E-03 0.  1.
         23    2    1    0    0    0  0.23645729783E+02  0.15581198749E+02  0.65585621539E+01  0.95932681084E+02  0.91423029216E+02 0.  0.
         11    1    3    3    0    0  0.74399780836E+01 -0.29893571409E+00 -0.41830616265E+02  0.42488152393E+02  0.51100000000E-03 0. -1.
         22    1    1    0    0    0 -0.23645729783E+02 -0.15581198749E+02 -0.65585621539E+01  0.29067318916E+02  0.00000000000E+00 0.  1.
</event>
<event>
 5    1  0.1099741E-009  0.9118800E+02  0.7818608E-02  0.1130116E+00
         25   -1    0    0    0    0  0.00000000000E+00  0.00000000000E+00  0.99999998245E-14  0.12500000000E+03  0.12500000000E+03 0.  0.
        -11    1    3    3    0    0  0.12154498818E+02  0.45385501888E+02 -0.17533269966E+02  0.50149687727E+02  0.51100000000E-03 0. -1.
         23    2    1    0    0    0 -0.21514348791E+02  0.16044693645E+02 -0.13406363681E+02  0.94999500251E+02  0.90138088856E+02 0.  0.
         11    1    3    3    0    0 -0.33668847609E+02 -0.29340808243E+02  0.41269062849E+01  0.44849812524E+02  0.51100000000E-03 0.  1.
         22    1    1    0    0    0  0.21514348791E+02 -0.16044693645E+02  0.13406363681E+02  0.30000499749E+02  0.00000000000E+00 0. -1.
</event>
<event>
 5    1  0.1099741E-009  0.9118800E+02  0.7818608E-02  0.1130116E+00
         25   -1    0    0    0    0  0.00000000000E+00  0.00000000000E+00  0.99999998245E-14  0.12500000000E+03  0.12500000000E+03 0.  0.
        -11    1    3    3    0    0 -0.20335343680E+02  0.33247192146E+02  0.19245498424E+02  0.43465977477E+02  0.51100000000E-03 0. -1.
         23    2    1    0    0    0  0.23149024663E+02  0.60424174544E+01  0.18487339451E+02  0.94764757790E+02  0.89811967173E+02 0.  0.
         11    1    3    3    0    0  0.43484368343E+02 -0.27204774692E+02 -0.75815897343E+00  0.51298780313E+02  0.51100000000E-03 0.  1.
         22    1    1    0    0    0 -0.23149024663E+02 -0.60424174544E+01 -0.18487339451E+02  0.30235242210E+02  0.00000000000E+00 0.  1.
</event>
<event>
 5    1  0.1099741E-009  0.9118800E+02  0.7818608E-02  0.1130116E+00
         25   -1    0    0    0    0  0.00000000000E+00  0.00000000000E+00  0.99999998245E-14  0.12500000000E+03  0.12500000000E+03 0.  0.
        -11    1    3    3    0    0 -0.49676365703E+02 -0.12424322235E+02 -0.32031254446E+02  0.60399555910E+02  0.51100000000E-03 0.  1.
         23    2    1    0    0    0 -0.20839518416E+02 -0.16565994234E+02 -0.11727260052E+02  0.95909686817E+02  0.91391584428E+02 0.  0.
         11    1    3    3    0    0  0.28836847288E+02 -0.41416719990E+01  0.20303994394E+02  0.35510130907E+02  0.51100000000E-03 0. -1.
         22    1    1    0    0    0  0.20839518416E+02  0.16565994234E+02  0.11727260052E+02  0.29090313183E+02  0.00000000000E+00 0.  1.
</event>
<event>
 5    1  0.1099741E-009  0.9118800E+02  0.7818608E-02  0.1130116E+00
         25   -1    0    0    0    0  0.00000000000E+00  0.00000000000E+00  0.99999998245E-14  0.12500000000E+03  0.12500000000E+03 0.  0.
        -11    1    3    3    0    0  0.42245298228E+02  0.66605167230E+00 -0.24244468200E+02  0.48712453087E+02  0.51100000000E-03 0.  1.
         23    2    1    0    0    0  0.39065404618E+01 -0.25251195108E+02 -0.12979172655E+02  0.96340920538E+02  0.91979509319E+02 0.  0.
         11    1    3    3    0    0 -0.38338757766E+02 -0.25917246781E+02  0.11265295544E+02  0.47628467451E+02  0.51100000000E-03 0. -1.
         22    1    1    0    0    0 -0.39065404618E+01  0.25251195108E+02  0.12979172655E+02  0.28659079462E+02  0.00000000000E+00 0.  1.
</event>
<event>
 5    1  0.1099741E-009  0.9118800E+02  0.7818608E-02  0.1130116E+00
         25   -1    0    0    0    0  0.00000000000E+00  0.00000000000E+00  0.99999998245E-14  0.12500000000E+03  0.12500000000E+03 0.  0.
        -11    1    3    3    0    0 -0.40789442949E+02  0.42445969060E+01  0.81785130981E+01  0.41817261218E+02  0.51100000000E-03 0. -1.
         23    2    1    0    0    0  0.20764030254E+00 -0.90121523256E+01 -0.26425188831E+02  0.97079530649E+02  0.92977861141E+02 0.  0.
         11    1    3    3    0    0  0.40997083252E+02 -0.13256749232E+02 -0.34603701929E+02  0.55262269432E+02  0.51100000000E-03 0.  1.
         22    1    1    0    0    0 -0.20764030254E+00  0.90121523256E+01  0.26425188831E+02  0.27920469351E+02  0.00000000000E+00 0. -1.
</event>
<event>
 5    1  0.1099741E-009  0.9118800E+02  0.7818608E-02  0.1130116E+00
         25   -1    0    0    0    0  0.00000000000E+00  0.00000000000E+00  0.99999998245E-14  0.12500000000E+03  0.12500000000E+03 0.  0.
        -11    1    3    3    0    0 -0.40634645007E+02 -0.52451986511E+01  0.43262076224E+02  0.59584341259E+02  0.51100000000E-03 0.  1.
         23    2    1    0    0    0 -0.98884950505E+01 -0.11557131081E+02  0.24531735464E+02  0.96135564131E+02  0.91700005631E+02 0.  0.
         11    1    3    3    0    0  0.30746149956E+02 -0.63119324304E+01 -0.18730340761E+02  0.36551222872E+02  0.51100000000E-03 0. -1.
         22    1    1    0    0    0  0.98884950505E+01  0.11557131081E+02 -0.24531735464E+02  0.28864435869E+02  0.00000000000E+00 0.  1.
</event>
<event>
 5    1  0.1099741E-009  0.9118800E+02  0.7818608E-02  0.1130116E+00
         25   -1    0    0    0    0  0.00000000000E+00  0.00000000000E+00  0.99999998245E-14  0.12500000000E+03  0.12500000000E+03 0.  0.
        -11    1    3    3    0    0 -0.39489357495E+02  0.28716488762E+02 -0.10004860503E+01  0.48836943545E+02  0.51100000000E-03 0.  1.
         23    2    1    0    0    0 -0.15568951438E+02  0.14753105058E+02  0.28518643609E+02  0.89315838373E+02  0.81877711211E+02 0.  0.
         11    1    3    3    0    0  0.23920406057E+02 -0.13963383704E+02  0.29519129659E+02  0.40478894828E+02  0.51100000000E-03 0. -1.
         22    1    1    0    0    0  0.15568951438E+02 -0.14753105058E+02 -0.28518643609E+02  0.35684161627E+02  0.00000000000E+00 0. -1.
</event>
<event>
 5    1  0.1099741E-009  0.9118800E+02  0.7818608E-02  0.1130116E+00
         25   -1    0    0    0    0  0.00000000000E+00  0.00000000000E+00  0.99999998245E-14  0.12500000000E+03  0.12500000000E+03 0.  0.
        -11    1    3    3    0    0  0.10709877066E+01 -0.51844945472E+01  0.38577144070E+02  0.38938695963E+02  0.51100000000E-03 0. -1.
         23    2    1    0    0    0 -0.13416066755E+02  0.20286317920E+02 -0.12371623734E+02  0.97712958831E+02  0.93825581308E+02 0.  0.
         11    1    3    3    0    0 -0.14487054461E+02  0.25470812468E+02 -0.50948767804E+02  0.58774262869E+02  0.51100000000E-03 0.  1.
         22    1    1    0    0    0  0.13416066755E+02 -0.20286317920E+02  0.12371623734E+02  0.27287041169E+02  0.00000000000E+00 0.  1.
</event>
<event>
 5    1  0.1099741E-009  0.9118800E+02  0.7818608E-02  0.1130116E+00
         25   -1    0    0    0    0  0.00000000000E+00  0.00000000000E+00  0.99999998245E-14  0.12500000000E+03  0.12500000000E+03 0.  0.
        -11    1    3    3    0    0 -0.17680715386E+02  0.42416525431E+02 -0.36739465512E+02  0.58835003634E+02  0.51100000000E-03 0.  1.
         23    2    1    0    0    0 -0.13162245192E+02  0.61518125703E+01 -0.22832681992E+02  0.97936724823E+02  0.94123223519E+02 0.  0.
         11    1    3    3    0    0  0.45184701945E+01 -0.36264712861E+02  0.13906783520E+02  0.39101721189E+02  0.51100000000E-03 0. -1.
         22    1    1    0    0    0  0.13162245192E+02 -0.61518125703E+01  0.22832681992E+02  0.27063275177E+02  0.00000000000E+00 0.  1.
</event>
<event>
 5    1  0.1099741E-009  0.9118800E+02  0.7818608E-02  0.1130116E+00
         25   -1    0    0    0    0  0.00000000000E+00  0.00000000000E+00  0.99999998245E-14  0.12500000000E+03  0.12500000000E+03 0.  0.
        -11    1    3    3    0    0 -0.12372910630E+02 -0.25290897917E+02 -0.30872556071E+02  0.41783168304E+02  0.51100000000E-03 0. -1.
         23    2    1    0    0    0 -0.14554419962E+02 -0.16272176283E+02  0.21136266636E+02  0.94613216216E+02  0.89600803869E+02 0.  0.
         11    1    3    3    0    0 -0.21815093329E+01  0.90187216333E+01  0.52008822706E+02  0.52830047913E+02  0.51100000000E-03 0.  1.
         22    1    1    0    0    0  0.14554419962E+02  0.16272176283E+02 -0.21136266636E+02  0.30386783784E+02  0.00000000000E+00 0.  1.
</event>
<event>
 5    1  0.1099741E-009  0.9118800E+02  0.7818608E-02  0.1130116E+00
         25   -1    0    0    0    0  0.00000000000E+00  0.00000000000E+00  0.99999998245E-14  0.12500000000E+03  0.12500000000E+03 0.  0.
        -11    1    3    3    0    0  0.31807563254E+02 -0.25327642163E+02 -0.45219648220E+02  0.60811406192E+02  0.51100000000E-03 0. -1.
         23    2    1    0    0    0  0.22100285523E+02 -0.45290192850E+01 -0.21003251537E+02  0.94176774811E+02  0.88989851685E+02 0.  0.
         11    1    3    3    0    0 -0.97072777307E+01  0.20798622878E+02  0.24216396682E+02  0.33365368619E+02  0.51100000000E-03 0.  1.
         22    1    1    0    0    0 -0.22100285523E+02  0.45290192850E+01  0.21003251537E+02  0.30823225189E+02  0.00000000000E+00 0. -1.
</event>
<event>
 5    1  0.1099741E-009  0.9118800E+02  0.7818608E-02  0.1130116E+00
         25   -1    0    0    0    0  0.00000000000E+00  0.00000000000E+00  0.99999998245E-14  0.12500000000E+03  0.12500000000E+03 0.  0.
        -11    1    3    3    0    0  0.77457522035E+01 -0.13338398569E+02  0.57602199610E+02  0.59631560048E+02  0.51100000000E-03 0.  1.
         23    2    1    0    0    0  0.39611440175E+01 -0.17696163898E+02  0.18730625631E+02  0.98929303516E+02  0.95432310456E+02 0.  0.
         11    1    3    3    0    0 -0.37846081861E+01 -0.43577653291E+01 -0.38871573979E+02  0.39297743468E+02  0.51100000000E-03 0. -1.
         22    1    1    0    0    0 -0.39611440175E+01  0.17696163898E+02 -0.18730625631E+02  0.26070696484E+02  0.00000000000E+00 0.  1.
</event>
<event>
 5    1  0.1099741E-009  0.9118800E+02  0.7818608E-02  0.1130116E+00
         25   -1    0    0    0    0  0.00000000000E+00  0.00000000000E+00  0.99999998245E-14  0.12500000000E+03  0.12500000000E+03 0.  0.
        -11    1    3    3    0    0  0.28386940854E+02 -0.12188467579E+02  0.53596821872E+02  0.61862722766E+02  0.51100000000E-03 0.  1.
         23    2    1    0    0    0  0.83099461299E+01 -0.91418538940E+01  0.26843199448E+02  0.95450278277E+02  0.90761057559E+02 0.  0.
         11    1    3    3    0    0 -0.20076994724E+02  0.30466136847E+01 -0.26753622425E+02  0.33587555511E+02  0.51100000000E-03 0. -1.
         22    1    1    0    0    0 -0.83099461299E+01  0.91418538940E+01 -0.26843199448E+02  0.29549721723E+02  0.00000000000E+00 0.  1.
</event>
<event>
 5    1  0.1099741E-009  0.9118800E+02  0.7818608E-02  0.1130116E+00
         25   -1    0    0    0    0  0.00000000000E+00  0.00000000000E+00  0.99999998245E-14  0.12500000000E+03  0.12500000000E+03 0.  0.
        -11    1    3    3    0    0  0.16816874618E+02  0.70944688336E+01  0.17802873885E+02  0.25496687604E+02  0.51100000000E-03 0.  1.
         23    2    1    0    0    0 -0.40298086210E+02  0.18000322772E+01  0.42295614507E+01  0.84440598396E+02  0.74061795813E+02 0.  0.
         11    1    3    3    0    0 -0.57114960828E+02 -0.52944365564E+01 -0.13573312434E+02  0.58943910793E+02  0.51100000000E-03 0. -1.
         22    1    1    0    0    0  0.40298086210E+02 -0.18000322772E+01 -0.42295614507E+01  0.40559401604E+02  0.00000000000E+00 0. -1.
</event>
<event>
 5    1  0.1099741E-009  0.9118800E+02  0.7818608E-02  0.1130116E+00
         25   -1    0    0    0    0  0.00000000000E+00  0.00000000000E+00  0.99999998245E-14  0.12500000000E+03  0.12500000000E+03 0.  0.
        -11    1    3    3    0    0  0.53389299952E+02  0.12548291152E+01  0.15015333953E+02  0.55474788863E+02  0.51100000000E-03 0.  1.
         23    2    1    0    0    0  0.13860998871E+02  0.40924224182E+01  0.24801102351E+02  0.96295124303E+02  0.91917251241E+02 0.  0.
         11    1    3    3    0    0 -0.39528301080E+02  0.28375933030E+01  0.97857683981E+01  0.40820335440E+02  0.51100000000E-03 0. -1.
         22    1    1    0    0    0 -0.13860998871E+02 -0.40924224182E+01 -0.24801102351E+02  0.28704875697E+02  0.00000000000E+00 0.  1.
</event>
<event>
 5    1  0.1099741E-009  0.9118800E+02  0.7818608E-02  0.1130116E+00
         25   -1    0    0    0    0  0.00000000000E+00  0.00000000000E+00  0.99999998245E-14  0.12500000000E+03  0.12500000000E+03 0.  0.
        -11    1    3    3    0    0  0.70556478041E+01  0.28503560685E+02 -0.25242755746E+02  0.38722498054E+02  0.51100000000E-03 0. -1.
         23    2    1    0    0    0 -0.10585437979E+02 -0.34482905024E+01  0.23136021314E+02  0.99324765107E+02  0.95948899299E+02 0.  0.
         11    1    3    3    0    0 -0.17641085783E+02 -0.31951851187E+02  0.48378777059E+02  0.60602267053E+02  0.51100000000E-03 0.  1.
         22    1    1    0    0    0  0.10585437979E+02  0.34482905024E+01 -0.23136021314E+02  0.25675234893E+02  0.00000000000E+00 0.  1.
</event>
<event>
 4    1  0.1099741E-009  0.9118800E+02  0.7818608E-02  0.1130116E+00
         25   -1    0    0    0    0  0.00000000000E+00  0.00000000000E+00  0.99999998245E-14  0.12500000000E+03  0.12500000000E+03 0.  0.
        -11    1    1    0    0    0 -0.19628370962E+02  0.28438827913E+01  0.27744633842E+02  0.34104623195E+02  0.51100000000E-03 0.  1.
         11    1    1    0    0    0  0.32346370201E+02 -0.49379037373E+01  0.22051558936E+02  0.39458101960E+02  0.51100000000E-03 0. -1.
         22    1    1    0    0    0 -0.12717999238E+02  0.20940209460E+01 -0.49796192778E+02  0.51437274846E+02  0.00000000000E+00 0.  1.
</event>
<event>
 5    1  0.1099741E-009  0.9118800E+02  0.7818608E-02  0.1130116E+00
         25   -1    0    0    0    0  0.00000000000E+00  0.00000000000E+00  0.99999998245E-14  0.12500000000E+03  0.12500000000E+03 0.  0.
        -11    1    3    3    0    0  0.25672140072E+02 -0.46712122582E+02 -0.13811480912E+02  0.55062130155E+02  0.51100000000E-03 0.  1.
         23    2    1    0    0    0  0.28335093701E+02 -0.76434003938E+01 -0.45541190203E+01  0.95300856836E+02  0.90555034145E+02 0.  0.
         11    1    3    3    0    0  0.26629536291E+01  0.39068722188E+02  0.92573618919E+01  0.40238726681E+02  0.51100000000E-03 0. -1.
         22    1    1    0    0    0 -0.28335093701E+02  0.76434003938E+01  0.45541190203E+01  0.29699143164E+02  0.00000000000E+00 0.  1.
</event>
<event>
 5    1  0.1099741E-009  0.9118800E+02  0.7818608E-02  0.1130116E+00
         25   -1    0    0    0    0  0.00000000000E+00  0.00000000000E+00  0.99999998245E-14  0.12500000000E+03  0.12500000000E+03 0.  0.
        -11    1    3    3    0    0  0.58410410001E+00  0.15750089023E+02 -0.32255070173E+02  0.35899805486E+02  0.51100000000E-03 0.  1.
         23    2    1    0    0    0 -0.26496869482E+02 -0.19306731395E+02  0.23771803951E+01  0.92129269005E+02  0.86065772821E+02 0.  0.
         11    1    3    3    0    0 -0.27080973582E+02 -0.35056820418E+02  0.34632250568E+02  0.56229463519E+02  0.51100000000E-03 0. -1.
         22    1    1    0    0    0  0.26496869482E+02  0.19306731395E+02 -0.23771803951E+01  0.32870730995E+02  0.00000000000E+00 0. -1.
</event>
<event>
 5    1  0.1099741E-009  0.9118800E+02  0.7818608E-02  0.1130116E+00
         25   -1    0    0    0    0  0.00000000000E+00  0.00000000000E+00  0.99999998245E-14  0.12500000000E+03  0.12500000000E+03 0.  0.
        -11    1    3    3    0    0  0.39671793731E+02  0.34811755708E+02  0.12821222516E+02  0.54314761349E+02  0.51100000000E-03 0. -1.
         23    2    1    0    0    0  0.17856899920E+02  0.27783498980E+01  0.24283206692E+02  0.94730176245E+02  0.89763823790E+02 0.  0.
         11    1    3    3    0    0 -0.21814893811E+02 -0.32033405810E+02  0.11461984175E+02  0.40415414897E+02  0.51100000000E-03 0.  1.
         22    1    1    0    0    0 -0.17856899920E+02 -0.27783498980E+01 -0.24283206692E+02  0.30269823755E+02  0.00000000000E+00 0. -1.
</event>
<event>
 5    1  0.1099741E-009  0.9118800E+02  0.7818608E-02  0.1130116E+00
         25   -1    0    0    0    0  0.00000000000E+00  0.00000000000E+00  0.99999998245E-14  0.12500000000E+03  0.12500000000E+03 0.  0.
        -11    1    3    3    0    0 -0.79300222790E+01 -0.27883845891E+02 -0.25362732659E+02  0.38518337493E+02  0.51100000000E-03 0. -1.
         23    2    1    0    0    0 -0.25460585696E+02  0.16538181379E+02  0.36882166559E+01  0.94416412744E+02  0.89325825975E+02 0.  0.
         11    1    3    3    0    0 -0.17530563417E+02  0.44422027269E+02  0.29050949315E+02  0.55898075252E+02  0.51100000000E-03 0.  1.
         22    1    1    0    0    0  0.25460585696E+02 -0.16538181379E+02 -0.36882166559E+01  0.30583587256E+02  0.00000000000E+00 0.  1.
</event>
<event>
 5    1  0.1099741E-009  0.9118800E+02  0.7818608E-02  0.1130116E+00
         25   -1    0    0    0    0  0.00000000000E+00  0.00000000000E+00  0.99999998245E-14  0.12500000000E+03  0.12500000000E+03 0.  0.
        -11    1    3    3    0    0 -0.31462847996E+02  0.16134294833E+02 -0.11695927545E+02  0.37242730770E+02  0.51100000000E-03 0. -1.
         23    2    1    0    0    0  0.26413225968E+02  0.24119687855E+01 -0.97063690426E+01  0.96756599010E+02  0.92542691514E+02 0.  0.
         11    1    3    3    0    0  0.57876073964E+02 -0.13722326048E+02  0.19895585025E+01  0.59513868241E+02  0.51100000000E-03 0.  1.
         22    1    1    0    0    0 -0.26413225968E+02 -0.24119687855E+01  0.97063690426E+01  0.28243400990E+02  0.00000000000E+00 0.  1.
</event>
<event>
 5    1  0.1099741E-009  0.9118800E+02  0.7818608E-02  0.1130116E+00
         25   -1    0    0    0    0  0.00000000000E+00  0.00000000000E+00  0.99999998245E-14  0.12500000000E+03  0.12500000000E+03 0.  0.
        -11    1    3    3    0    0  0.39378162909E+02 -0.37022045728E+02  0.19608297076E+02  0.57495712001E+02  0.51100000000E-03 0.  1.
         23    2    1    0    0    0  0.49073583016E+01 -0.23915943315E+02  0.18460937772E+02  0.94391819172E+02  0.89291403802E+02 0.  0.
         11    1    3    3    0    0 -0.34470804608E+02  0.13106102413E+02 -0.11473593041E+01  0.36896107171E+02  0.51100000000E-03 0. -1.
         22    1    1    0    0    0 -0.49073583016E+01  0.23915943315E+02 -0.18460937772E+02  0.30608180828E+02  0.00000000000E+00 0.  1.
</event>
<event>
 5    1  0.1099741E-009  0.9118800E+02  0.7818608E-02  0.1130116E+00
         25   -1    0    0    0    0  0.00000000000E+00  0.00000000000E+00  0.99999998245E-14  0.12500000000E+03  0.12500000000E+03 0.  0.
        -11    1    3    3    0    0  0.55456975570E+02 -0.25083622433E+02 -0.12513397324E+02  0.62138952088E+02  0.51100000000E-03 0. -1.
         23    2    1    0    0    0  0.26598090367E+02 -0.68483060674E+01 -0.55757518361E+01  0.96974177698E+02  0.92836115950E+02 0.  0.
         11    1    3    3    0    0 -0.28858885203E+02  0.18235316366E+02  0.69376454884E+01  0.34835225610E+02  0.51100000000E-03 0.  1.
         22    1    1    0    0    0 -0.26598090367E+02  0.68483060674E+01  0.55757518361E+01  0.28025822302E+02  0.00000000000E+00 0. -1.
</event>
<event>
 5    1  0.1099741E-009  0.9118800E+02  0.7818608E-02  0.1130116E+00
         25   -1    0    0    0    0  0.00000000000E+00  0.00000000000E+00  0.99999998245E-14  0.12500000000E+03  0.12500000000E+03 0.  0.
        -11    1    3    3    0    0  0.26621441947E+01 -0.16357238295E+02 -0.45380624482E+02  0.48311979208E+02  0.51100000000E-03 0. -1.
         23    2    1    0    0    0 -0.25841697978E+02  0.38224230535E+01 -0.25481962699E+02  0.88507059650E+02  0.80633522263E+02 0.  0.
         11    1    3    3    0    0 -0.28503842173E+02  0.20179661348E+02  0.19898661783E+02  0.40195080442E+02  0.51100000000E-03 0.  1.
         22    1    1    0    0    0  0.25841697978E+02 -0.38224230535E+01  0.25481962699E+02  0.36492940350E+02  0.00000000000E+00 0.  1.
</event>
<event>
 5    1  0.1099741E-009  0.9118800E+02  0.7818608E-02  0.1130116E+00
         25   -1    0    0    0    0  0.00000000000E+00  0.00000000000E+00  0.99999998245E-14  0.12500000000E+03  0.12500000000E+03 0.  0.
        -11    1    3    3    0    0 -0.62382567921E+01 -0.23510293265E+02 -0.44080324474E+02  0.50346049927E+02  0.51100000000E-03 0. -1.
         23    2    1    0    0    0  0.21421192049E+02 -0.19605480465E+02 -0.10279617494E+02  0.94195570628E+02  0.89016249399E+02 0.  0.
         11    1    3    3    0    0  0.27659448841E+02  0.39048128004E+01  0.33800706979E+02  0.43849520702E+02  0.51100000000E-03 0.  1.
         22    1    1    0    0    0 -0.21421192049E+02  0.19605480465E+02  0.10279617494E+02  0.30804429372E+02  0.00000000000E+00 0. -1.
</event>
<event>
 5    1  0.1099741E-009  0.9118800E+02  0.7818608E-02  0.1130116E+00
         25   -1    0    0    0    0  0.00000000000E+00  0.00000000000E+00  0.99999998245E-14  0.12500000000E+03  0.12500000000E+03 0.  0.
        -11    1    3    3    0    0 -0.31376086204E+02  0.40207748934E+02 -0.16051927285E+01  0.51026449061E+02  0.51100000000E-03 0.  1.
         23    2    1    0    0    0 -0.15913450283E+02  0.27341287821E+01 -0.23026385499E+02  0.96876561568E+02  0.92704586682E+02 0.  0.
         11    1    3    3    0    0  0.15462635921E+02 -0.37473620152E+02 -0.21421192770E+02  0.45850112507E+02  0.51100000000E-03 0. -1.
         22    1    1    0    0    0  0.15913450283E+02 -0.27341287821E+01  0.23026385499E+02  0.28123438432E+02  0.00000000000E+00 0.  1.
</event>
<event>
 5    1  0.1099741E-009  0.9118800E+02  0.7818608E-02  0.1130116E+00
         25   -1    0    0    0    0  0.00000000000E+00  0.00000000000E+00  0.99999998245E-14  0.12500000000E+03  0.12500000000E+03 0.  0.
        -11    1    3    3    0    0 -0.26344318678E+02  0.26631567912E+02  0.28745129702E+02  0.47218068765E+02  0.51100000000E-03 0.  1.
         23    2    1    0    0    0  0.50838253071E+01 -0.94029646363E+01  0.27989911925E+02  0.95038421382E+02  0.90192047020E+02 0.  0.
         11    1    3    3    0    0  0.31428143985E+02 -0.36034532548E+02 -0.75521777767E+00  0.47820352617E+02  0.51100000000E-03 0. -1.
         22    1    1    0    0    0 -0.50838253071E+01  0.94029646363E+01 -0.27989911925E+02  0.29961578618E+02  0.00000000000E+00 0.  1.
</event>
<event>
 5    1  0.1099741E-009  0.9118800E+02  0.7818608E-02  0.1130116E+00
         25   -1    0    0    0    0  0.00000000000E+00  0.00000000000E+00  0.99999998245E-14  0.12500000000E+03  0.12500000000E+03 0.  0.
        -11    1    3    3    0    0 -0.29186102813E+02 -0.11849444742E+02 -0.26319229843E+02  0.41048018197E+02  0.51100000000E-03 0.  1.
         23    2    1    0    0    0  0.47179788744E+01  0.27413825104E+02 -0.10233642047E+02  0.95360422388E+02  0.90637219712E+02 0.  0.
         11    1    3    3    0    0  0.33904081687E+02  0.39263269846E+02  0.16085587797E+02  0.54312404191E+02  0.51100000000E-03 0. -1.
         22    1    1    0    0    0 -0.47179788744E+01 -0.27413825104E+02  0.10233642047E+02  0.29639577612E+02  0.00000000000E+00 0.  1.
</event>
<event>
 5    1  0.1099741E-009  0.9118800E+02  0.7818608E-02  0.1130116E+00
         25   -1    0    0    0    0  0.00000000000E+00  0.00000000000E+00  0.99999998245E-14  0.12500000000E+03  0.12500000000E+03 0.  0.
        -11    1    3    3    0    0 -0.16097297786E+01 -0.39534801736E+02 -0.15610667538E+01  0.39598342237E+02  0.51100000000E-03 0. -1.
         23    2    1    0    0    0  0.12605828917E+01  0.15480586908E+02 -0.21751927145E+02  0.98272037587E+02  0.94567485938E+02 0.  0.
         11    1    3    3    0    0  0.28703126704E+01  0.55015388644E+02 -0.20190860391E+02  0.58673695350E+02  0.51100000000E-03 0.  1.
         22    1    1    0    0    0 -0.12605828917E+01 -0.15480586908E+02  0.21751927145E+02  0.26727962413E+02  0.00000000000E+00 0.  1.
</event>
<event>
 5    1  0.1099741E-009  0.9118800E+02  0.7818608E-02  0.1130116E+00
         25   -1    0    0    0    0  0.00000000000E+00  0.00000000000E+00  0.99999998245E-14  0.12500000000E+03  0.12500000000E+03 0.  0.
        -11    1    3    3    0    0  0.13052356968E+02  0.16930636555E+02  0.25376370037E+02  0.33180877521E+02  0.51100000000E-03 0. -1.
         23    2    1    0    0    0 -0.66195186071E+01 -0.13588170618E+02 -0.25303837388E+02  0.95525594257E+02  0.90864726733E+02 0.  0.
         11    1    3    3    0    0 -0.19671875575E+02 -0.30518807173E+02 -0.50680207425E+02  0.62344716736E+02  0.51100000000E-03 0.  1.
         22    1    1    0    0    0  0.66195186071E+01  0.13588170618E+02  0.25303837388E+02  0.29474405743E+02  0.00000000000E+00 0.  1.
</event>
<event>
 5    1  0.1099741E-009  0.9118800E+02  0.7818608E-02  0.1130116E+00
         25   -1    0    0    0    0  0.00000000000E+00  0.00000000000E+00  0.99999998245E-14  0.12500000000E+03  0.12500000000E+03 0.  0.
        -11    1    3    3    0    0  0.46415920681E+02  0.14692060492E+02 -0.15504252118E+01  0.48710349545E+02  0.51100000000E-03 0.  1.
         23    2    1    0    0    0  0.17337317882E+02 -0.22213697390E+02  0.56975502716E+01  0.96251208335E+02  0.91857509675E+02 0.  0.
         11    1    3    3    0    0 -0.29078602799E+02 -0.36905757882E+02  0.72479754834E+01  0.47540858790E+02  0.51100000000E-03 0. -1.
         22    1    1    0    0    0 -0.17337317882E+02  0.22213697390E+02 -0.56975502716E+01  0.28748791665E+02  0.00000000000E+00 0. -1.
</event>
<event>
 5    1  0.1099741E-009  0.9118800E+02  0.7818608E-02  0.1130116E+00
         25   -1    0    0    0    0  0.00000000000E+00  0.00000000000E+00  0.99999998245E-14  0.12500000000E+03  0.12500000000E+03 0.  0.
        -11    1    3    3    0    0 -0.42929846632E+02  0.39115300370E+02  0.76236740029E+01  0.58575582459E+02  0.51100000000E-03 0. -1.
         23    2    1    0    0    0 -0.27246650887E+02  0.40501071975E+01  0.41182349746E+01  0.97147832900E+02  0.93069641801E+02 0.  0.
         11    1    3    3    0    0  0.15683195745E+02 -0.35065193173E+02 -0.35054390283E+01  0.38572250441E+02  0.51100000000E-03 0.  1.
         22    1    1    0    0    0  0.27246650887E+02 -0.40501071975E+01 -0.41182349746E+01  0.27852167100E+02  0.00000000000E+00 0. -1.
</event>
<event>
 5    1  0.1099741E-009  0.9118800E+02  0.7818608E-02  0.1130116E+00
         25   -1    0    0    0    0  0.00000000000E+00  0.00000000000E+00  0.99999998245E-14  0.12500000000E+03  0.12500000000E+03 0.  0.
        -11    1    3    3    0    0  0.25106178185E+02 -0.51241522834E+02  0.25458573838E+02  0.62483220368E+02  0.51100000000E-03 0.  1.
         23    2    1    0    0    0  0.11161851376E+02 -0.24772222812E+02  0.11538741916E+02  0.95480641704E+02  0.90802865737E+02 0.  0.
         11    1    3    3    0    0 -0.13944326809E+02  0.26469300023E+02 -0.13919831922E+02  0.32997421336E+02  0.51100000000E-03 0. -1.
         22    1    1    0    0    0 -0.11161851376E+02  0.24772222812E+02 -0.11538741916E+02  0.29519358296E+02  0.00000000000E+00 0.  1.
</event>
<event>
 5    1  0.1099741E-009  0.9118800E+02  0.7818608E-02  0.1130116E+00
         25   -1    0    0    0    0  0.00000000000E+00  0.00000000000E+00  0.99999998245E-14  0.12500000000E+03  0.12500000000E+03 0.  0.
        -11    1    3    3    0    0 -0.19832227004E+02 -0.31664710135E+02  0.26667139459E+02  0.45903239788E+02  0.51100000000E-03 0.  1.
         23    2    1    0    0    0  0.23659009991E+02 -0.14173085173E+02  0.10488699850E+02  0.95493425789E+02  0.90820462713E+02 0.  0.
         11    1    3    3    0    0  0.43491236996E+02  0.17491624962E+02 -0.16178439609E+02  0.49590186001E+02  0.51100000000E-03 0. -1.
         22    1    1    0    0    0 -0.23659009991E+02  0.14173085173E+02 -0.10488699850E+02  0.29506574211E+02  0.00000000000E+00 0. -1.
</event>
<event>
 5    1  0.1099741E-009  0.9118800E+02  0.7818608E-02  0.1130116E+00
         25   -1    0    0    0    0  0.00000000000E+00  0.00000000000E+00  0.99999998245E-14  0.12500000000E+03  0.12500000000E+03 0.  0.
        -11    1    3    3    0    0 -0.30805696249E+02  0.63510424514E+01 -0.68423780426E+01  0.32189203146E+02  0.51100000000E-03 0. -1.
         23    2    1    0    0    0  0.27784084501E+02 -0.91890552248E+01  0.81316911529E+01  0.94627010544E+02  0.89620045949E+02 0.  0.
         11    1    3    3    0    0  0.58589780750E+02 -0.15540097676E+02  0.14974069196E+02  0.62437807398E+02  0.51100000000E-03 0.  1.
         22    1    1    0    0    0 -0.27784084501E+02  0.91890552248E+01 -0.81316911529E+01  0.30372989456E+02  0.00000000000E+00 0.  1.
</event>
<event>
 5    1  0.1099741E-009  0.9118800E+02  0.7818608E-02  0.1130116E+00
         25   -1    0    0    0    0  0.00000000000E+00  0.00000000000E+00  0.99999998245E-14  0.12500000000E+03  0.12500000000E+03 0.  0.
        -11    1    3    3    0    0 -0.11580081722E+02 -0.30356504420E+02  0.17727715322E+02  0.37011991895E+02  0.51100000000E-03 0. -1.
         23    2    1    0    0    0 -0.80711456485E+01  0.26367774343E+02 -0.24396731405E+01  0.97316883830E+02  0.93296414494E+02 0.  0.
         11    1    3    3    0    0  0.35089360730E+01  0.56724278763E+02 -0.20167388462E+02  0.60304891934E+02  0.51100000000E-03 0.  1.
         22    1    1    0    0    0  0.80711456485E+01 -0.26367774343E+02  0.24396731405E+01  0.27683116170E+02  0.00000000000E+00 0.  1.
</event>
<event>
 5    1  0.1099741E-009  0.9118800E+02  0.7818608E-02  0.1130116E+00
         25   -1    0    0    0    0  0.00000000000E+00  0.00000000000E+00  0.99999998245E-14  0.12500000000E+03  0.12500000000E+03 0.  0.
        -11    1    3    3    0    0  0.22230195048E+02  0.37574612453E+02  0.39540360411E+02  0.58902234037E+02  0.51100000000E-03 0. -1.
         23    2    1    0    0    0  0.19900439354E+02  0.22123989586E+02  0.78666328909E+01  0.94220423740E+02  0.89051142245E+02 0.  0.
         11    1    3    3    0    0 -0.23297556934E+01 -0.15450622867E+02 -0.31673727521E+02  0.35318189703E+02  0.51100000000E-03 0.  1.
         22    1    1    0    0    0 -0.19900439354E+02 -0.22123989586E+02 -0.78666328909E+01  0.30779576260E+02  0.00000000000E+00 0. -1.
</event>
<event>
 5    1  0.1099741E-009  0.9118800E+02  0.7818608E-02  0.1130116E+00
         25   -1    0    0    0    0  0.00000000000E+00  0.00000000000E+00  0.99999998245E-14  0.12500000000E+03  0.12500000000E+03 0.  0.
        -11    1    3    3    0    0  0.48990150070E+02  0.14050149980E+01 -0.37136409807E+02  0.61490826996E+02  0.51100000000E-03 0. -1.
         23    2    1    0    0    0  0.12992923935E+02  0.13453528261E+01 -0.19378947153E+02  0.10162972744E+03  0.98906177061E+02 0.  0.
         11    1    3    3    0    0 -0.35997226135E+02 -0.59662171931E-01  0.17757462654E+02  0.40138900448E+02  0.51100000000E-03 0.  1.
         22    1    1    0    0    0 -0.12992923935E+02 -0.13453528261E+01  0.19378947153E+02  0.23370272557E+02  0.00000000000E+00 0. -1.
</event>
<event>
 5    1  0.1099741E-009  0.9118800E+02  0.7818608E-02  0.1130116E+00
         25   -1    0    0    0    0  0.00000000000E+00  0.00000000000E+00  0.99999998245E-14  0.12500000000E+03  0.12500000000E+03 0.  0.
        -11    1    3    3    0    0 -0.25250144286E+02  0.25433227331E+02  0.31085927673E+02  0.47442109338E+02  0.51100000000E-03 0. -1.
         23    2    1    0    0    0 -0.26984907557E+02  0.40128883615E+01 -0.11694899669E+02  0.95317358825E+02  0.90577810231E+02 0.  0.
         11    1    3    3    0    0 -0.17347632711E+01 -0.21420338969E+02 -0.42780827342E+02  0.47875249487E+02  0.51100000000E-03 0.  1.
         22    1    1    0    0    0  0.26984907557E+02 -0.40128883615E+01  0.11694899669E+02  0.29682641175E+02  0.00000000000E+00 0. -1.
</event>
<event>
 5    1  0.1099741E-009  0.9118800E+02  0.7818608E-02  0.1130116E+00
         25   -1    0    0    0    0  0.00000000000E+00  0.00000000000E+00  0.99999998245E-14  0.12500000000E+03  0.12500000000E+03 0.  0.
        -11    1    3    3    0    0 -0.14686597516E+02  0.15303225247E+02 -0.27544328008E+02  0.34764563210E+02  0.51100000000E-03 0. -1.
         23    2    1    0    0    0  0.52694067885E+01  0.87568978171E+01  0.28557535128E+02  0.94668783080E+02  0.89678290405E+02 0.  0.
         11    1    3    3    0    0  0.19956004305E+02 -0.65463274297E+01  0.56101863135E+02  0.59904219869E+02  0.51100000000E-03 0.  1.
         22    1    1    0    0    0 -0.52694067885E+01 -0.87568978171E+01 -0.28557535128E+02  0.30331216920E+02  0.00000000000E+00 0.  1.
</event>
<event>
 5    1  0.1099741E-009  0.9118800E+02  0.7818608E-02  0.1130116E+00
         25   -1    0    0    0    0  0.00000000000E+00  0.00000000000E+00  0.99999998245E-14  0.12500000000E+03  0.12500000000E+03 0.  0.
        -11    1    3    3    0    0 -0.15716402748E+02 -0.28249746712E+02  0.33660936458E+02  0.46670249069E+02  0.51100000000E-03 0.  1.
         23    2    1    0    0    0 -0.23061505625E+02 -0.15379306406E+02 -0.12088239821E+02  0.94759602364E+02  0.89804791582E+02 0.  0.
         11    1    3    3    0    0 -0.73451028770E+01  0.12870440306E+02 -0.45749176279E+02  0.48089353296E+02  0.51100000000E-03 0. -1.
         22    1    1    0    0    0  0.23061505625E+02  0.15379306406E+02  0.12088239821E+02  0.30240397636E+02  0.00000000000E+00 0.  1.
</event>
<event>
 5    1  0.1099741E-009  0.9118800E+02  0.7818608E-02  0.1130116E+00
         25   -1    0    0    0    0  0.00000000000E+00  0.00000000000E+00  0.99999998245E-14  0.12500000000E+03  0.12500000000E+03 0.  0.
        -11    1    3    3    0    0  0.10779419674E+02 -0.23549799426E+02 -0.31551741458E+02  0.40820354369E+02  0.51100000000E-03 0.  1.
         23    2    1    0    0    0  0.22625904471E+02 -0.65054935690E+01  0.18534301158E+02  0.95037134331E+02  0.90190263236E+02 0.  0.
         11    1    3    3    0    0  0.11846484797E+02  0.17044305857E+02  0.50086042616E+02  0.54216779961E+02  0.51100000000E-03 0. -1.
         22    1    1    0    0    0 -0.22625904471E+02  0.65054935690E+01 -0.18534301158E+02  0.29962865669E+02  0.00000000000E+00 0. -1.
</event>
<event>
 5    1  0.1099741E-009  0.9118800E+02  0.7818608E-02  0.1130116E+00
         25   -1    0    0    0    0  0.00000000000E+00  0.00000000000E+00  0.99999998245E-14  0.12500000000E+03  0.12500000000E+03 0.  0.
        -11    1    3    3    0    0  0.25569373348E+02 -0.25616268080E+01  0.37040670939E+02  0.45081771140E+02  0.51100000000E-03 0. -1.
         23    2    1    0    0    0 -0.67539821434E+01 -0.26742775978E+02  0.42437388320E+01  0.97092981867E+02  0.92995943282E+02 0.  0.
         11    1    3    3    0    0 -0.32323355491E+02 -0.24181149170E+02 -0.32796932107E+02  0.52011210727E+02  0.51100000000E-03 0.  1.
         22    1    1    0    0    0  0.67539821434E+01  0.26742775978E+02 -0.42437388320E+01  0.27907018133E+02  0.00000000000E+00 0.  1.
</event>
<event>
 5    1  0.1099741E-009  0.9118800E+02  0.7818608E-02  0.1130116E+00
         25   -1    0    0    0    0  0.00000000000E+00  0.00000000000E+00  0.99999998245E-14  0.12500000000E+03  0.12500000000E+03 0.  0.
        -11    1    3    3    0    0  0.67877333952E+01  0.18310269839E+02  0.26092705544E+02  0.32590928018E+02  0.51100000000E-03 0.  1.
         23    2    1    0    0    0 -0.89790204305E+01 -0.72053861661E+01 -0.28157065860E+02  0.94580257142E+02  0.89554811627E+02 0.  0.
         11    1    3    3    0    0 -0.15766753826E+02 -0.25515656005E+02 -0.54249771404E+02  0.61989329124E+02  0.51100000000E-03 0. -1.
         22    1    1    0    0    0  0.89790204305E+01  0.72053861661E+01  0.28157065860E+02  0.30419742858E+02  0.00000000000E+00 0. -1.
</event>
<event>
 5    1  0.1099741E-009  0.9118800E+02  0.7818608E-02  0.1130116E+00
         25   -1    0    0    0    0  0.00000000000E+00  0.00000000000E+00  0.99999998245E-14  0.12500000000E+03  0.12500000000E+03 0.  0.
        -11    1    3    3    0    0 -0.21952489693E+02  0.48256683788E+02  0.25952192977E+02  0.59026567362E+02  0.51100000000E-03 0. -1.
         23    2    1    0    0    0 -0.51800135582E+01  0.15676884444E+02  0.24189972789E+02  0.95712596054E+02  0.91121616610E+02 0.  0.
         11    1    3    3    0    0  0.16772476134E+02 -0.32579799344E+02 -0.17622201878E+01  0.36686028692E+02  0.51100000000E-03 0.  1.
         22    1    1    0    0    0  0.51800135582E+01 -0.15676884444E+02 -0.24189972789E+02  0.29287403946E+02  0.00000000000E+00 0. -1.
</event>
<event>
 5    1  0.1099741E-009  0.9118800E+02  0.7818608E-02  0.1130116E+00
         25   -1    0    0    0    0  0.00000000000E+00  0.00000000000E+00  0.99999998245E-14  0.12500000000E+03  0.12500000000E+03 0.  0.
        -11    1    3    3    0    0  0.66435513638E+00 -0.30928096084E+02  0.34155866375E+02  0.46082661633E+02  0.51100000000E-03 0.  1.
         23    2    1    0    0    0 -0.26675683030E+02 -0.13386604400E+02 -0.24864882792E+01  0.95050444637E+02  0.90208708888E+02 0.  0.
         11    1    3    3    0    0 -0.27340038166E+02  0.17541491684E+02 -0.36642354654E+02  0.48967783004E+02  0.51100000000E-03 0. -1.
         22    1    1    0    0    0  0.26675683030E+02  0.13386604400E+02  0.24864882792E+01  0.29949555363E+02  0.00000000000E+00 0. -1.
</event>
<event>
 5    1  0.1099741E-009  0.9118800E+02  0.7818608E-02  0.1130116E+00
         25   -1    0    0    0    0  0.00000000000E+00  0.00000000000E+00  0.99999998245E-14  0.12500000000E+03  0.12500000000E+03 0.  0.
        -11    1    3    3    0    0 -0.21524008272E+02 -0.15361339458E+02  0.25154247231E+02  0.36496435936E+02  0.51100000000E-03 0.  1.
         23    2    1    0    0    0  0.28355860233E+02  0.80117530292E+01  0.52303558905E+01  0.95073429550E+02  0.90240552899E+02 0.  0.
         11    1    3    3    0    0  0.49879868505E+02  0.23373092487E+02 -0.19923891340E+02  0.58576993614E+02  0.51100000000E-03 0. -1.
         22    1    1    0    0    0 -0.28355860233E+02 -0.80117530292E+01 -0.52303558905E+01  0.29926570450E+02  0.00000000000E+00 0. -1.
</event>
<event>
 5    1  0.1099741E-009  0.9118800E+02  0.7818608E-02  0.1130116E+00
         25   -1    0    0    0    0  0.00000000000E+00  0.00000000000E+00  0.99999998245E-14  0.12500000000E+03  0.12500000000E+03 0.  0.
        -11    1    3    3    0    0  0.12767216466E+02  0.61010169788E+01  0.41163793935E+02  0.43527946837E+02  0.51100000000E-03 0.  1.
         23    2    1    0    0    0 -0.27555448445E+02  0.56942379274E+01  0.79754419931E+01  0.95753893258E+02  0.91178250227E+02 0.  0.
         11    1    3    3    0    0 -0.40322664911E+02 -0.40677905146E+00 -0.33188351942E+02  0.52225946421E+02  0.51100000000E-03 0. -1.
         22    1    1    0    0    0  0.27555448445E+02 -0.56942379274E+01 -0.79754419931E+01  0.29246106742E+02  0.00000000000E+00 0. -1.
</event>
<event>
 5    1  0.1099741E-009  0.9118800E+02  0.7818608E-02  0.1130116E+00
         25   -1    0    0    0    0  0.00000000000E+00  0.00000000000E+00  0.99999998245E-14  0.12500000000E+03  0.12500000000E+03 0.  0.
        -11    1    3    3    0    0 -0.51475543291E+02  0.71831020883E+01 -0.29866559895E+02  0.59944473582E+02  0.51100000000E-03 0. -1.
         23    2    1    0    0    0 -0.19231638355E+02  0.13811015427E+02 -0.19102910023E+02  0.94577619549E+02  0.89551130016E+02 0.  0.
         11    1    3    3    0    0  0.32243904936E+02  0.66279133390E+01  0.10763649871E+02  0.34633145967E+02  0.51100000000E-03 0.  1.
         22    1    1    0    0    0  0.19231638355E+02 -0.13811015427E+02  0.19102910023E+02  0.30422380451E+02  0.00000000000E+00 0. -1.
</event>
<event>
 5    1  0.1099741E-009  0.9118800E+02  0.7818608E-02  0.1130116E+00
         25   -1    0    0    0    0  0.00000000000E+00  0.00000000000E+00  0.99999998245E-14  0.12500000000E+03  0.12500000000E+03 0.  0.
        -11    1    3    3    0    0 -0.40149281478E+02  0.35087770875E+02  0.23979811012E+02  0.58464927988E+02  0.51100000000E-03 0. -1.
         23    2    1    0    0    0 -0.83153122790E+01  0.19563277869E+02  0.22693006476E+02  0.93905968383E+02  0.88608645717E+02 0.  0.
         11    1    3    3    0    0  0.31833969199E+02 -0.15524493006E+02 -0.12868045358E+01  0.35441040395E+02  0.51100000000E-03 0.  1.
         22    1    1    0    0    0  0.83153122790E+01 -0.19563277869E+02 -0.22693006476E+02  0.31094031617E+02  0.00000000000E+00 0. -1.
</event>
<event>
 5    1  0.1099741E-009  0.9118800E+02  0.7818608E-02  0.1130116E+00
         25   -1    0    0    0    0  0.00000000000E+00  0.00000000000E+00  0.99999998245E-14  0.12500000000E+03  0.12500000000E+03 0.  0.
        -11    1    3    3    0    0 -0.14732214157E+02  0.50255841944E+02  0.24473468430E+02  0.57806906514E+02  0.51100000000E-03 0.  1.
         23    2    1    0    0    0 -0.17904921956E+02  0.12893831224E+02  0.19351863580E+02  0.95651546243E+02  0.91037830383E+02 0.  0.
         11    1    3    3    0    0 -0.31727077996E+01 -0.37362010719E+02 -0.51216048507E+01  0.37844639730E+02  0.51100000000E-03 0. -1.
         22    1    1    0    0    0  0.17904921956E+02 -0.12893831224E+02 -0.19351863580E+02  0.29348453757E+02  0.00000000000E+00 0.  1.
</event>
<event>
 5    1  0.1099741E-009  0.9118800E+02  0.7818608E-02  0.1130116E+00
         25   -1    0    0    0    0  0.00000000000E+00  0.00000000000E+00  0.99999998245E-14  0.12500000000E+03  0.12500000000E+03 0.  0.
        -11    1    3    3    0    0  0.23367989348E+02 -0.28256096404E+02  0.14826667009E+01  0.36696978227E+02  0.51100000000E-03 0.  1.
         23    2    1    0    0    0 -0.19671465691E+02  0.73766247801E+01  0.20427617946E+02  0.95696950150E+02  0.91100151139E+02 0.  0.
         11    1    3    3    0    0 -0.43039455038E+02  0.35632721184E+02  0.18944951245E+02  0.58999971923E+02  0.51100000000E-03 0. -1.
         22    1    1    0    0    0  0.19671465691E+02 -0.73766247801E+01 -0.20427617946E+02  0.29303049850E+02  0.00000000000E+00 0. -1.
</event>
<event>
 5    1  0.1099741E-009  0.9118800E+02  0.7818608E-02  0.1130116E+00
         25   -1    0    0    0    0  0.00000000000E+00  0.00000000000E+00  0.99999998245E-14  0.12500000000E+03  0.12500000000E+03 0.  0.
        -11    1    3    3    0    0 -0.19063852780E+02 -0.46948870204E+02  0.21264547868E+02  0.54952778752E+02  0.51100000000E-03 0.  1.
         23    2    1    0    0    0 -0.28922175479E+02 -0.13590954589E+02  0.99841166359E+01  0.91520321596E+02  0.85176759735E+02 0.  0.
         11    1    3    3    0    0 -0.98583226986E+01  0.33357915615E+02 -0.11280431232E+02  0.36567542844E+02  0.51100000000E-03 0. -1.
         22    1    1    0    0    0  0.28922175479E+02  0.13590954589E+02 -0.99841166359E+01  0.33479678404E+02  0.00000000000E+00 0.  1.
</event>
<event>
 5    1  0.1099741E-009  0.9118800E+02  0.7818608E-02  0.1130116E+00
         25   -1    0    0    0    0  0.00000000000E+00  0.00000000000E+00  0.99999998245E-14  0.12500000000E+03  0.12500000000E+03 0.  0.
        -11    1    3    3    0    0  0.47143471480E+02  0.13161331159E+01 -0.27490577044E+02  0.54589110050E+02  0.51100000000E-03 0. -1.
         23    2    1    0    0    0  0.16893009261E+02  0.21978108982E+02 -0.76823306796E+01  0.96234930193E+02  0.91835355655E+02 0.  0.
         11    1    3    3    0    0 -0.30250462219E+02  0.20661975866E+02  0.19808246364E+02  0.41645820143E+02  0.51100000000E-03 0.  1.
         22    1    1    0    0    0 -0.16893009261E+02 -0.21978108982E+02  0.76823306796E+01  0.28765069807E+02  0.00000000000E+00 0.  1.
</event>
<event>
 5    1  0.1099741E-009  0.9118800E+02  0.7818608E-02  0.1130116E+00
         25   -1    0    0    0    0  0.00000000000E+00  0.00000000000E+00  0.99999998245E-14  0.12500000000E+03  0.12500000000E+03 0.  0.
        -11    1    3    3    0    0  0.22680422300E+02 -0.25795718357E+02  0.17918608618E+02  0.38741414227E+02  0.51100000000E-03 0.  1.
         23    2    1    0    0    0  0.13801194727E+02  0.19730490555E+02 -0.15900520955E+02  0.96145333131E+02  0.91713321185E+02 0.  0.
         11    1    3    3    0    0 -0.88792275722E+01  0.45526208912E+02 -0.33819129573E+02  0.57403918904E+02  0.51100000000E-03 0. -1.
         22    1    1    0    0    0 -0.13801194727E+02 -0.19730490555E+02  0.15900520955E+02  0.28854666869E+02  0.00000000000E+00 0. -1.
</event>
<event>
 5    1  0.1099741E-009  0.9118800E+02  0.7818608E-02  0.1130116E+00
         25   -1    0    0    0    0  0.00000000000E+00  0.00000000000E+00  0.99999998245E-14  0.12500000000E+03  0.12500000000E+03 0.  0.
        -11    1    3    3    0    0 -0.26640694828E+02  0.10932785853E+02 -0.53441562608E+02  0.60706285027E+02  0.51100000000E-03 0. -1.
         23    2    1    0    0    0 -0.18541376513E+02 -0.20694101836E+01 -0.39038591148E+02  0.81732498335E+02  0.69340641646E+02 0.  0.
         11    1    3    3    0    0  0.80993183149E+01 -0.13002196037E+02  0.14402971461E+02  0.21026213309E+02  0.51100000000E-03 0.  1.
         22    1    1    0    0    0  0.18541376513E+02  0.20694101836E+01  0.39038591148E+02  0.43267501665E+02  0.00000000000E+00 0. -1.
</event>
<event>
 5    1  0.1099741E-009  0.9118800E+02  0.7818608E-02  0.1130116E+00
         25   -1    0    0    0    0  0.00000000000E+00  0.00000000000E+00  0.99999998245E-14  0.12500000000E+03  0.12500000000E+03 0.  0.
        -11    1    3    3    0    0  0.16588437765E+02  0.26987911618E+02  0.25645643353E+02  0.40758099369E+02  0.51100000000E-03 0. -1.
         23    2    1    0    0    0  0.25094335456E+02 -0.15686685586E+02 -0.63042918030E+01  0.94742077537E+02  0.89780395322E+02 0.  0.
         11    1    3    3    0    0  0.85058976913E+01 -0.42674597204E+02 -0.31949935156E+02  0.53983978167E+02  0.51100000000E-03 0.  1.
         22    1    1    0    0    0 -0.25094335456E+02  0.15686685586E+02  0.63042918030E+01  0.30257922463E+02  0.00000000000E+00 0.  1.
</event>
<event>
 5    1  0.1099741E-009  0.9118800E+02  0.7818608E-02  0.1130116E+00
         25   -1    0    0    0    0  0.00000000000E+00  0.00000000000E+00  0.99999998245E-14  0.12500000000E+03  0.12500000000E+03 0.  0.
        -11    1    3    3    0    0 -0.47792515246E+02  0.52789425764E+01  0.20767744878E+02  0.52376435311E+02  0.51100000000E-03 0.  1.
         23    2    1    0    0    0 -0.21653890754E+02 -0.21071478938E+02  0.25208858928E+00  0.94784742959E+02  0.89839778159E+02 0.  0.
         11    1    3    3    0    0  0.26138624493E+02 -0.26350421514E+02 -0.20515656289E+02  0.42408307648E+02  0.51100000000E-03 0. -1.
         22    1    1    0    0    0  0.21653890754E+02  0.21071478938E+02 -0.25208858928E+00  0.30215257041E+02  0.00000000000E+00 0.  1.
</event>
<event>
 5    1  0.1099741E-009  0.9118800E+02  0.7818608E-02  0.1130116E+00
         25   -1    0    0    0    0  0.00000000000E+00  0.00000000000E+00  0.99999998245E-14  0.12500000000E+03  0.12500000000E+03 0.  0.
        -11    1    3    3    0    0  0.18369159102E+02 -0.42054076149E+02  0.25473276258E+02  0.52486751952E+02  0.51100000000E-03 0.  1.
         23    2    1    0    0    0  0.27289090587E+02 -0.55729436130E+01  0.20599895039E+02  0.90357427330E+02  0.83452722139E+02 0.  0.
         11    1    3    3    0    0  0.89199314852E+01  0.36481132536E+02 -0.48733812183E+01  0.37870675378E+02  0.51100000000E-03 0. -1.
         22    1    1    0    0    0 -0.27289090587E+02  0.55729436130E+01 -0.20599895039E+02  0.34642572670E+02  0.00000000000E+00 0.  1.
</event>
<event>
 5    1  0.1099741E-009  0.9118800E+02  0.7818608E-02  0.1130116E+00
         25   -1    0    0    0    0  0.00000000000E+00  0.00000000000E+00  0.99999998245E-14  0.12500000000E+03  0.12500000000E+03 0.  0.
        -11    1    3    3    0    0 -0.27639314880E+02 -0.24417528447E+02  0.23225942727E+02  0.43584307249E+02  0.51100000000E-03 0. -1.
         23    2    1    0    0    0  0.19090021681E+02 -0.27600238835E+01  0.22859907703E+02  0.95089766972E+02  0.90263180439E+02 0.  0.
         11    1    3    3    0    0  0.46729336561E+02  0.21657504564E+02 -0.36603502383E+00  0.51505459723E+02  0.51100000000E-03 0.  1.
         22    1    1    0    0    0 -0.19090021681E+02  0.27600238835E+01 -0.22859907703E+02  0.29910233028E+02  0.00000000000E+00 0. -1.
</event>
<event>
 5    1  0.1099741E-009  0.9118800E+02  0.7818608E-02  0.1130116E+00
         25   -1    0    0    0    0  0.00000000000E+00  0.00000000000E+00  0.99999998245E-14  0.12500000000E+03  0.12500000000E+03 0.  0.
        -11    1    3    3    0    0 -0.24719047598E+02 -0.16668716057E+02  0.22738601110E+02  0.37495618276E+02  0.51100000000E-03 0.  1.
         23    2    1    0    0    0  0.26500911488E+02  0.79038394708E+01  0.62727178014E+01  0.96643061225E+02  0.92389205572E+02 0.  0.
         11    1    3    3    0    0  0.51219959086E+02  0.24572555528E+02 -0.16465883309E+02  0.59147442949E+02  0.51100000000E-03 0. -1.
         22    1    1    0    0    0 -0.26500911488E+02 -0.79038394708E+01 -0.62727178014E+01  0.28356938775E+02  0.00000000000E+00 0. -1.
</event>
<event>
 5    1  0.1099741E-009  0.9118800E+02  0.7818608E-02  0.1130116E+00
         25   -1    0    0    0    0  0.00000000000E+00  0.00000000000E+00  0.99999998245E-14  0.12500000000E+03  0.12500000000E+03 0.  0.
        -11    1    3    3    0    0 -0.30009496140E+02  0.38608142460E+02 -0.15757582020E+02  0.51375674343E+02  0.51100000000E-03 0. -1.
         23    2    1    0    0    0 -0.19103494489E+02  0.13476180091E+02  0.18461854470E+02  0.95210891218E+02  0.90430762490E+02 0.  0.
         11    1    3    3    0    0  0.10906001651E+02 -0.25131962369E+02  0.34219436490E+02  0.43835216875E+02  0.51100000000E-03 0.  1.
         22    1    1    0    0    0  0.19103494489E+02 -0.13476180091E+02 -0.18461854470E+02  0.29789108782E+02  0.00000000000E+00 0. -1.
</event>
<event>
 5    1  0.1099741E-009  0.9118800E+02  0.7818608E-02  0.1130116E+00
         25   -1    0    0    0    0  0.00000000000E+00  0.00000000000E+00  0.99999998245E-14  0.12500000000E+03  0.12500000000E+03 0.  0.
        -11    1    3    3    0    0  0.25825349833E+02  0.14496858292E+02  0.16794841287E+02  0.34046648711E+02  0.51100000000E-03 0. -1.
         23    2    1    0    0    0 -0.21825610918E+02 -0.20681568377E+02  0.76082324918E+01  0.93984362587E+02  0.88719167302E+02 0.  0.
         11    1    3    3    0    0 -0.47650960751E+02 -0.35178426668E+02 -0.91866087956E+01  0.59937713877E+02  0.51100000000E-03 0.  1.
         22    1    1    0    0    0  0.21825610918E+02  0.20681568377E+02 -0.76082324918E+01  0.31015637413E+02  0.00000000000E+00 0.  1.
</event>
<event>
 5    1  0.1099741E-009  0.9118800E+02  0.7818608E-02  0.1130116E+00
         25   -1    0    0    0    0  0.00000000000E+00  0.00000000000E+00  0.99999998245E-14  0.12500000000E+03  0.12500000000E+03 0.  0.
        -11    1    3    3    0    0 -0.15393481306E+02  0.40112163048E+02 -0.24219049770E+01  0.43032667998E+02  0.51100000000E-03 0. -1.
         23    2    1    0    0    0 -0.27578945441E+02 -0.71876848824E+00  0.19754358071E+02  0.91068458294E+02  0.84511032259E+02 0.  0.
         11    1    3    3    0    0 -0.12185464135E+02 -0.40830931536E+02  0.22176263048E+02  0.48035790295E+02  0.51100000000E-03 0.  1.
         22    1    1    0    0    0  0.27578945441E+02  0.71876848824E+00 -0.19754358071E+02  0.33931541706E+02  0.00000000000E+00 0.  1.
</event>
<event>
 5    1  0.1099741E-009  0.9118800E+02  0.7818608E-02  0.1130116E+00
         25   -1    0    0    0    0  0.00000000000E+00  0.00000000000E+00  0.99999998245E-14  0.12500000000E+03  0.12500000000E+03 0.  0.
        -11    1    3    3    0    0 -0.42504987365E+02  0.29426569489E+02 -0.30191269982E+02  0.59867434605E+02  0.51100000000E-03 0.  1.
         23    2    1    0    0    0 -0.97738431485E+01  0.18728256822E+02 -0.20316924085E+02  0.95690393763E+02  0.91091154569E+02 0.  0.
         11    1    3    3    0    0  0.32731144217E+02 -0.10698312667E+02  0.98743458976E+01  0.35822959158E+02  0.51100000000E-03 0. -1.
         22    1    1    0    0    0  0.97738431485E+01 -0.18728256822E+02  0.20316924085E+02  0.29309606237E+02  0.00000000000E+00 0.  1.
</event>
<event>
 5    1  0.1099741E-009  0.9118800E+02  0.7818608E-02  0.1130116E+00
         25   -1    0    0    0    0  0.00000000000E+00  0.00000000000E+00  0.99999998245E-14  0.12500000000E+03  0.12500000000E+03 0.  0.
        -11    1    3    3    0    0 -0.16417008518E+02  0.23603447767E+01 -0.31920829578E+02  0.35972611211E+02  0.51100000000E-03 0. -1.
         23    2    1    0    0    0  0.24108271888E+02  0.11656893172E+02  0.11290287919E+02  0.95938641925E+02  0.91431178934E+02 0.  0.
         11    1    3    3    0    0  0.40525280406E+02  0.92965483953E+01  0.43211117497E+02  0.59966030714E+02  0.51100000000E-03 0.  1.
         22    1    1    0    0    0 -0.24108271888E+02 -0.11656893172E+02 -0.11290287919E+02  0.29061358075E+02  0.00000000000E+00 0.  1.
</event>
<event>
 5    1  0.1099741E-009  0.9118800E+02  0.7818608E-02  0.1130116E+00
         25   -1    0    0    0    0  0.00000000000E+00  0.00000000000E+00  0.99999998245E-14  0.12500000000E+03  0.12500000000E+03 0.  0.
        -11    1    3    3    0    0  0.23498172680E+02 -0.11998075453E+02 -0.16351577715E+02  0.31040167974E+02  0.51100000000E-03 0.  1.
         23    2    1    0    0    0 -0.22607080876E+02  0.20391247836E+02  0.96043615353E+01  0.93076233704E+02  0.87430306107E+02 0.  0.
         11    1    3    3    0    0 -0.46105253556E+02  0.32389323289E+02  0.25955939250E+02  0.62036065729E+02  0.51100000000E-03 0. -1.
         22    1    1    0    0    0  0.22607080876E+02 -0.20391247836E+02 -0.96043615353E+01  0.31923766296E+02  0.00000000000E+00 0. -1.
</event>
<event>
 5    1  0.1099741E-009  0.9118800E+02  0.7818608E-02  0.1130116E+00
         25   -1    0    0    0    0  0.00000000000E+00  0.00000000000E+00  0.99999998245E-14  0.12500000000E+03  0.12500000000E+03 0.  0.
        -11    1    3    3    0    0  0.35640630347E+02  0.36467467682E+01  0.49543647397E+02  0.61140218279E+02  0.51100000000E-03 0.  1.
         23    2    1    0    0    0  0.16786223282E+02 -0.70737625853E+01  0.27059524626E+02  0.92380476978E+02  0.86429851583E+02 0.  0.
         11    1    3    3    0    0 -0.18854407065E+02 -0.10720509354E+02 -0.22484122771E+02  0.31240258700E+02  0.51100000000E-03 0. -1.
         22    1    1    0    0    0 -0.16786223282E+02  0.70737625853E+01 -0.27059524626E+02  0.32619523022E+02  0.00000000000E+00 0.  1.
</event>
<event>
 5    1  0.1099741E-009  0.9118800E+02  0.7818608E-02  0.1130116E+00
         25   -1    0    0    0    0  0.00000000000E+00  0.00000000000E+00  0.99999998245E-14  0.12500000000E+03  0.12500000000E+03 0.  0.
        -11    1    3    3    0    0 -0.24473441600E+02  0.20177130283E+02  0.77609330548E+01  0.32654218906E+02  0.51100000000E-03 0. -1.
         23    2    1    0    0    0  0.25689851465E+02 -0.82946910805E+01 -0.14350134808E+02  0.94427189573E+02  0.89340905487E+02 0.  0.
         11    1    3    3    0    0  0.50163293064E+02 -0.28471821364E+02 -0.22111067862E+02  0.61772970668E+02  0.51100000000E-03 0.  1.
         22    1    1    0    0    0 -0.25689851465E+02  0.82946910805E+01  0.14350134808E+02  0.30572810427E+02  0.00000000000E+00 0.  1.
</event>
<event>
 5    1  0.1099741E-009  0.9118800E+02  0.7818608E-02  0.1130116E+00
         25   -1    0    0    0    0  0.00000000000E+00  0.00000000000E+00  0.99999998245E-14  0.12500000000E+03  0.12500000000E+03 0.  0.
        -11    1    3    3    0    0 -0.45785155128E+02  0.30804245960E+02 -0.12746994005E+02  0.56636276853E+02  0.51100000000E-03 0. -1.
         23    2    1    0    0    0 -0.82926032764E+01  0.26900333242E+02 -0.12160602006E+02  0.94336088984E+02  0.89213352397E+02 0.  0.
         11    1    3    3    0    0  0.37492551852E+02 -0.39039127179E+01  0.58639199881E+00  0.37699812131E+02  0.51100000000E-03 0.  1.
         22    1    1    0    0    0  0.82926032764E+01 -0.26900333242E+02  0.12160602006E+02  0.30663911016E+02  0.00000000000E+00 0. -1.
</event>
<event>
 5    1  0.1099741E-009  0.9118800E+02  0.7818608E-02  0.1130116E+00
         25   -1    0    0    0    0  0.00000000000E+00  0.00000000000E+00  0.99999998245E-14  0.12500000000E+03  0.12500000000E+03 0.  0.
        -11    1    3    3    0    0 -0.17571476416E+02  0.59295404821E+02  0.28136324874E+01  0.61908144411E+02  0.51100000000E-03 0.  1.
         23    2    1    0    0    0 -0.48096735594E+01  0.24327420350E+02 -0.43717903837E+01  0.99819275392E+02  0.96590987405E+02 0.  0.
         11    1    3    3    0    0  0.12761802857E+02 -0.34967984471E+02 -0.71854228711E+01  0.37911130981E+02  0.51100000000E-03 0. -1.
         22    1    1    0    0    0  0.48096735594E+01 -0.24327420350E+02  0.43717903837E+01  0.25180724608E+02  0.00000000000E+00 0.  1.
</event>
<event>
 5    1  0.1099741E-009  0.9118800E+02  0.7818608E-02  0.1130116E+00
         25   -1    0    0    0    0  0.00000000000E+00  0.00000000000E+00  0.99999998245E-14  0.12500000000E+03  0.12500000000E+03 0.  0.
        -11    1    3    3    0    0  0.18888751279E+02 -0.48943810406E+01 -0.38252245545E+02  0.42941520468E+02  0.51100000000E-03 0. -1.
         23    2    1    0    0    0 -0.37795604245E+01  0.28965066154E+02 -0.53733876039E+01  0.95299268887E+02  0.90552842152E+02 0.  0.
         11    1    3    3    0    0 -0.22668311703E+02  0.33859447194E+02  0.32878857941E+02  0.52357748419E+02  0.51100000000E-03 0.  1.
         22    1    1    0    0    0  0.37795604245E+01 -0.28965066154E+02  0.53733876039E+01  0.29700731113E+02  0.00000000000E+00 0.  1.
</event>
<event>
 5    1  0.1099741E-009  0.9118800E+02  0.7818608E-02  0.1130116E+00
         25   -1    0    0    0    0  0.00000000000E+00  0.00000000000E+00  0.99999998245E-14  0.12500000000E+03  0.12500000000E+03 0.  0.
        -11    1    3    3    0    0  0.76636284107E+01  0.45380288354E+02 -0.23589917907E+02  0.51716399707E+02  0.51100000000E-03 0.  1.
         23    2    1    0    0    0  0.19122532218E+02  0.18590547386E+02  0.10300234564E+02  0.96410237451E+02  0.92073662699E+02 0.  0.
         11    1    3    3    0    0  0.11458903807E+02 -0.26789740968E+02  0.33890152471E+02  0.44693837744E+02  0.51100000000E-03 0. -1.
         22    1    1    0    0    0 -0.19122532218E+02 -0.18590547386E+02 -0.10300234564E+02  0.28589762549E+02  0.00000000000E+00 0. -1.
</event>
<event>
 5    1  0.1099741E-009  0.9118800E+02  0.7818608E-02  0.1130116E+00
         25   -1    0    0    0    0  0.00000000000E+00  0.00000000000E+00  0.99999998245E-14  0.12500000000E+03  0.12500000000E+03 0.  0.
        -11    1    3    3    0    0  0.28680436211E+02  0.20648579477E+02 -0.84039815527E+01  0.36325723144E+02  0.51100000000E-03 0.  1.
         23    2    1    0    0    0 -0.27833430035E+02  0.34034316007E+01  0.39282318882E+01  0.96685442261E+02  0.92446528141E+02 0.  0.
         11    1    3    3    0    0 -0.56513866246E+02 -0.17245147876E+02  0.12332213441E+02  0.60359719118E+02  0.51100000000E-03 0. -1.
         22    1    1    0    0    0  0.27833430035E+02 -0.34034316007E+01 -0.39282318882E+01  0.28314557739E+02  0.00000000000E+00 0. -1.
</event>
<event>
 5    1  0.1099741E-009  0.9118800E+02  0.7818608E-02  0.1130116E+00
         25   -1    0    0    0    0  0.00000000000E+00  0.00000000000E+00  0.99999998245E-14  0.12500000000E+03  0.12500000000E+03 0.  0.
        -11    1    3    3    0    0 -0.12314617782E+02 -0.21833120162E+02 -0.24178478151E+02  0.34827198468E+02  0.51100000000E-03 0.  1.
         23    2    1    0    0    0  0.16427251472E+02  0.23883151886E+02  0.40005090847E+01  0.95738017704E+02  0.91156483182E+02 0.  0.
         11    1    3    3    0    0  0.28741869254E+02  0.45716272048E+02  0.28178987236E+02  0.60910819237E+02  0.51100000000E-03 0. -1.
         22    1    1    0    0    0 -0.16427251472E+02 -0.23883151886E+02 -0.40005090847E+01  0.29261982296E+02  0.00000000000E+00 0. -1.
</event>
<event>
 5    1  0.1099741E-009  0.9118800E+02  0.7818608E-02  0.1130116E+00
         25   -1    0    0    0    0  0.00000000000E+00  0.00000000000E+00  0.99999998245E-14  0.12500000000E+03  0.12500000000E+03 0.  0.
        -11    1    3    3    0    0  0.26761479471E+00  0.41475840888E+02 -0.27560971019E+01  0.41568173722E+02  0.51100000000E-03 0.  1.
         23    2    1    0    0    0  0.78228214374E+01 -0.29954147627E+01  0.27743167456E+02  0.96019793215E+02  0.91542057568E+02 0.  0.
         11    1    3    3    0    0  0.75552066427E+01 -0.44471255651E+02  0.30499264557E+02  0.54451619493E+02  0.51100000000E-03 0. -1.
         22    1    1    0    0    0 -0.78228214374E+01  0.29954147627E+01 -0.27743167456E+02  0.28980206785E+02  0.00000000000E+00 0.  1.
</event>
<event>
 5    1  0.1099741E-009  0.9118800E+02  0.7818608E-02  0.1130116E+00
         25   -1    0    0    0    0  0.00000000000E+00  0.00000000000E+00  0.99999998245E-14  0.12500000000E+03  0.12500000000E+03 0.  0.
        -11    1    3    3    0    0  0.18074322452E+02  0.29446265710E+02  0.16029175733E+02  0.38088031864E+02  0.51100000000E-03 0.  1.
         23    2    1    0    0    0 -0.15750844125E+02 -0.18484593968E+02  0.14382349520E+02  0.96775519801E+02  0.92568244826E+02 0.  0.
         11    1    3    3    0    0 -0.33825166576E+02 -0.47930859678E+02 -0.16468262133E+01  0.58687487936E+02  0.51100000000E-03 0. -1.
         22    1    1    0    0    0  0.15750844125E+02  0.18484593968E+02 -0.14382349520E+02  0.28224480199E+02  0.00000000000E+00 0. -1.
</event>
<event>
 5    1  0.1099741E-009  0.9118800E+02  0.7818608E-02  0.1130116E+00
         25   -1    0    0    0    0  0.00000000000E+00  0.00000000000E+00  0.99999998245E-14  0.12500000000E+03  0.12500000000E+03 0.  0.
        -11    1    3    3    0    0  0.53953590388E+02  0.23078293546E+02  0.82424228560E+01  0.59258206888E+02  0.51100000000E-03 0.  1.
         23    2    1    0    0    0  0.25307010569E+02  0.11790095290E+02 -0.10347656546E+02  0.95225428183E+02  0.90450854312E+02 0.  0.
         11    1    3    3    0    0 -0.28646579820E+02 -0.11288198255E+02 -0.18590079402E+02  0.35967221295E+02  0.51100000000E-03 0. -1.
         22    1    1    0    0    0 -0.25307010569E+02 -0.11790095290E+02  0.10347656546E+02  0.29774571817E+02  0.00000000000E+00 0.  1.
</event>
<event>
 5    1  0.1099741E-009  0.9118800E+02  0.7818608E-02  0.1130116E+00
         25   -1    0    0    0    0  0.00000000000E+00  0.00000000000E+00  0.99999998245E-14  0.12500000000E+03  0.12500000000E+03 0.  0.
        -11    1    3    3    0    0 -0.31477485418E+02 -0.39893140847E+01  0.29233061835E+02  0.43143001977E+02  0.51100000000E-03 0. -1.
         23    2    1    0    0    0  0.24649491360E+01  0.24182782785E+02 -0.64174189187E+01  0.99859072749E+02  0.96642476102E+02 0.  0.
         11    1    3    3    0    0  0.33942434554E+02  0.28172096870E+02 -0.35650480754E+02  0.56716070771E+02  0.51100000000E-03 0.  1.
         22    1    1    0    0    0 -0.24649491360E+01 -0.24182782785E+02  0.64174189187E+01  0.25140927251E+02  0.00000000000E+00 0.  1.
</event>
<event>
 5    1  0.1099741E-009  0.9118800E+02  0.7818608E-02  0.1130116E+00
         25   -1    0    0    0    0  0.00000000000E+00  0.00000000000E+00  0.99999998245E-14  0.12500000000E+03  0.12500000000E+03 0.  0.
        -11    1    3    3    0    0  0.11112167705E+02  0.27028976363E+01  0.46284447732E+02  0.47676367613E+02  0.51100000000E-03 0.  1.
         23    2    1    0    0    0 -0.21029248536E+02  0.10770523499E+02  0.45978460620E+01  0.10092981806E+03  0.98017623486E+02 0.  0.
         11    1    3    3    0    0 -0.32141416240E+02  0.80676258632E+01 -0.41686601670E+02  0.53253450442E+02  0.51100000000E-03 0. -1.
         22    1    1    0    0    0  0.21029248536E+02 -0.10770523499E+02 -0.45978460620E+01  0.24070181944E+02  0.00000000000E+00 0.  1.
</event>
<event>
 5    1  0.1099741E-009  0.9118800E+02  0.7818608E-02  0.1130116E+00
         25   -1    0    0    0    0  0.00000000000E+00  0.00000000000E+00  0.99999998245E-14  0.12500000000E+03  0.12500000000E+03 0.  0.
        -11    1    3    3    0    0 -0.83083386431E+01 -0.38639787951E+02 -0.20260339937E+01  0.39574821768E+02  0.51100000000E-03 0.  1.
         23    2    1    0    0    0  0.21460465681E+02  0.10773161547E+02  0.10799301821E+02  0.98670595966E+02  0.95092844060E+02 0.  0.
         11    1    3    3    0    0  0.29768804324E+02  0.49412949499E+02  0.12825335814E+02  0.59095774198E+02  0.51100000000E-03 0. -1.
         22    1    1    0    0    0 -0.21460465681E+02 -0.10773161547E+02 -0.10799301821E+02  0.26329404034E+02  0.00000000000E+00 0. -1.
</event>
<event>
 5    1  0.1099741E-009  0.9118800E+02  0.7818608E-02  0.1130116E+00
         25   -1    0    0    0    0  0.00000000000E+00  0.00000000000E+00  0.99999998245E-14  0.12500000000E+03  0.12500000000E+03 0.  0.
        -11    1    3    3    0    0  0.21256776000E+02  0.35974884579E+02  0.42245813876E+02  0.59420128212E+02  0.51100000000E-03 0.  1.
         23    2    1    0    0    0  0.66459745002E+00  0.25572510457E+02  0.14178057158E+02  0.95752567880E+02  0.91176433194E+02 0.  0.
         11    1    3    3    0    0 -0.20592178550E+02 -0.10402374122E+02 -0.28067756718E+02  0.36332439668E+02  0.51100000000E-03 0. -1.
         22    1    1    0    0    0 -0.66459745002E+00 -0.25572510457E+02 -0.14178057158E+02  0.29247432120E+02  0.00000000000E+00 0.  1.
</event>
<event>
 5    1  0.1099741E-009  0.9118800E+02  0.7818608E-02  0.1130116E+00
         25   -1    0    0    0    0  0.00000000000E+00  0.00000000000E+00  0.99999998245E-14  0.12500000000E+03  0.12500000000E+03 0.  0.
        -11    1    3    3    0    0 -0.39008448429E+02  0.40003555356E+01 -0.21040403830E+02  0.44501241408E+02  0.51100000000E-03 0. -1.
         23    2    1    0    0    0 -0.12354599279E+02 -0.22155788664E+02  0.14268672130E+02  0.95894844116E+02  0.91371281205E+02 0.  0.
         11    1    3    3    0    0  0.26653849151E+02 -0.26156144200E+02  0.35309075960E+02  0.51393602708E+02  0.51100000000E-03 0.  1.
         22    1    1    0    0    0  0.12354599279E+02  0.22155788664E+02 -0.14268672130E+02  0.29105155884E+02  0.00000000000E+00 0.  1.
</event>
<event>
 5    1  0.1099741E-009  0.9118800E+02  0.7818608E-02  0.1130116E+00
         25   -1    0    0    0    0  0.00000000000E+00  0.00000000000E+00  0.99999998245E-14  0.12500000000E+03  0.12500000000E+03 0.  0.
        -11    1    3    3    0    0 -0.12407313858E+02 -0.48916686270E+02 -0.16334545411E+02  0.53043387966E+02  0.51100000000E-03 0.  1.
         23    2    1    0    0    0  0.29668579919E+01 -0.66487577218E+01 -0.25098854117E+02  0.98866483138E+02  0.95349991004E+02 0.  0.
         11    1    3    3    0    0  0.15374171849E+02  0.42267928548E+02 -0.87643087062E+01  0.45823095173E+02  0.51100000000E-03 0. -1.
         22    1    1    0    0    0 -0.29668579919E+01  0.66487577218E+01  0.25098854117E+02  0.26133516862E+02  0.00000000000E+00 0.  1.
</event>
<event>
 5    1  0.1099741E-009  0.9118800E+02  0.7818608E-02  0.1130116E+00
         25   -1    0    0    0    0  0.00000000000E+00  0.00000000000E+00  0.99999998245E-14  0.12500000000E+03  0.12500000000E+03 0.  0.
        -11    1    3    3    0    0  0.33247354040E+02  0.23589990591E+02 -0.20288299469E+01  0.40816545150E+02  0.51100000000E-03 0.  1.
         23    2    1    0    0    0  0.81915776800E+00 -0.25370873133E+02 -0.19289068380E+01  0.99542723937E+02  0.96232432081E+02 0.  0.
         11    1    3    3    0    0 -0.32428196272E+02 -0.48960863723E+02  0.99923108858E-01  0.58726178787E+02  0.51100000000E-03 0. -1.
         22    1    1    0    0    0 -0.81915776800E+00  0.25370873133E+02  0.19289068380E+01  0.25457276063E+02  0.00000000000E+00 0. -1.
</event>
<event>
 5    1  0.1099741E-009  0.9118800E+02  0.7818608E-02  0.1130116E+00
         25   -1    0    0    0    0  0.00000000000E+00  0.00000000000E+00  0.99999998245E-14  0.12500000000E+03  0.12500000000E+03 0.  0.
        -11    1    3    3    0    0 -0.21468515633E+02 -0.14108037586E+02 -0.41344767278E+02  0.48675698963E+02  0.51100000000E-03 0.  1.
         23    2    1    0    0    0 -0.28790196012E+02 -0.20730656850E+01  0.37251560253E+01  0.95895880444E+02  0.91372698937E+02 0.  0.
         11    1    3    3    0    0 -0.73216803790E+01  0.12034971901E+02  0.45069923303E+02  0.47220181481E+02  0.51100000000E-03 0. -1.
         22    1    1    0    0    0  0.28790196012E+02  0.20730656850E+01 -0.37251560253E+01  0.29104119556E+02  0.00000000000E+00 0.  1.
</event>
<event>
 5    1  0.1099741E-009  0.9118800E+02  0.7818608E-02  0.1130116E+00
         25   -1    0    0    0    0  0.00000000000E+00  0.00000000000E+00  0.99999998245E-14  0.12500000000E+03  0.12500000000E+03 0.  0.
        -11    1    3    3    0    0 -0.76328701251E+01  0.56158561773E+02 -0.19134755354E+02  0.59817920638E+02  0.51100000000E-03 0.  1.
         23    2    1    0    0    0 -0.11890028517E+02  0.20387425460E+02 -0.17016911515E+02  0.95903691428E+02  0.91383383922E+02 0.  0.
         11    1    3    3    0    0 -0.42571583920E+01 -0.35771136313E+02  0.21178438392E+01  0.36085770790E+02  0.51100000000E-03 0. -1.
         22    1    1    0    0    0  0.11890028517E+02 -0.20387425460E+02  0.17016911515E+02  0.29096308572E+02  0.00000000000E+00 0.  1.
</event>
<event>
 5    1  0.1099741E-009  0.9118800E+02  0.7818608E-02  0.1130116E+00
         25   -1    0    0    0    0  0.00000000000E+00  0.00000000000E+00  0.99999998245E-14  0.12500000000E+03  0.12500000000E+03 0.  0.
        -11    1    3    3    0    0  0.48195389241E+02 -0.81841693170E+00 -0.21010763912E+02  0.52582483307E+02  0.51100000000E-03 0. -1.
         23    2    1    0    0    0  0.77310954567E+01 -0.16745123460E+02 -0.22267080435E+02  0.96086476040E+02  0.91633067231E+02 0.  0.
         11    1    3    3    0    0 -0.40464293784E+02 -0.15926706528E+02 -0.12563165228E+01  0.43503992733E+02  0.51100000000E-03 0.  1.
         22    1    1    0    0    0 -0.77310954567E+01  0.16745123460E+02  0.22267080435E+02  0.28913523960E+02  0.00000000000E+00 0. -1.
</event>
<event>
 5    1  0.1099741E-009  0.9118800E+02  0.7818608E-02  0.1130116E+00
         25   -1    0    0    0    0  0.00000000000E+00  0.00000000000E+00  0.99999998245E-14  0.12500000000E+03  0.12500000000E+03 0.  0.
        -11    1    3    3    0    0 -0.22725638884E+02 -0.20281640365E+02  0.14143165241E+01  0.30492620256E+02  0.51100000000E-03 0. -1.
         23    2    1    0    0    0  0.18514704590E+02  0.60310390789E+01 -0.30436771994E+02  0.88867399652E+02  0.81190208234E+02 0.  0.
         11    1    3    3    0    0  0.41240343475E+02  0.26312679444E+02 -0.31851088518E+02  0.58374779396E+02  0.51100000000E-03 0.  1.
         22    1    1    0    0    0 -0.18514704590E+02 -0.60310390789E+01  0.30436771994E+02  0.36132600348E+02  0.00000000000E+00 0.  1.
</event>
<event>
 5    1  0.1099741E-009  0.9118800E+02  0.7818608E-02  0.1130116E+00
         25   -1    0    0    0    0  0.00000000000E+00  0.00000000000E+00  0.99999998245E-14  0.12500000000E+03  0.12500000000E+03 0.  0.
        -11    1    3    3    0    0 -0.11728293052E+02  0.50282932198E+02  0.73461995797E+01  0.52152591277E+02  0.51100000000E-03 0.  1.
         23    2    1    0    0    0  0.16271372666E+02  0.21704822830E+02 -0.10436208367E+02  0.95935049500E+02  0.91426267423E+02 0.  0.
         11    1    3    3    0    0  0.27999665718E+02 -0.28578109368E+02 -0.17782407947E+02  0.43782458223E+02  0.51100000000E-03 0. -1.
         22    1    1    0    0    0 -0.16271372666E+02 -0.21704822830E+02  0.10436208367E+02  0.29064950500E+02  0.00000000000E+00 0. -1.
</event>
<event>
 5    1  0.1099741E-009  0.9118800E+02  0.7818608E-02  0.1130116E+00
         25   -1    0    0    0    0  0.00000000000E+00  0.00000000000E+00  0.99999998245E-14  0.12500000000E+03  0.12500000000E+03 0.  0.
        -11    1    3    3    0    0  0.11957742160E+02  0.29291832295E+02  0.18940773198E+02  0.36874814255E+02  0.51100000000E-03 0. -1.
         23    2    1    0    0    0 -0.45777210955E+01 -0.26866704868E+02  0.92836832679E+01  0.96208297447E+02  0.91799097826E+02 0.  0.
         11    1    3    3    0    0 -0.16535463255E+02 -0.56158537164E+02 -0.96570899301E+01  0.59333483191E+02  0.51100000000E-03 0.  1.
         22    1    1    0    0    0  0.45777210955E+01  0.26866704868E+02 -0.92836832679E+01  0.28791702553E+02  0.00000000000E+00 0.  1.
</event>
<event>
 5    1  0.1099741E-009  0.9118800E+02  0.7818608E-02  0.1130116E+00
         25   -1    0    0    0    0  0.00000000000E+00  0.00000000000E+00  0.99999998245E-14  0.12500000000E+03  0.12500000000E+03 0.  0.
        -11    1    3    3    0    0  0.67434842452E+01  0.24121411447E+02 -0.41825697505E+02  0.48751472203E+02  0.51100000000E-03 0. -1.
         23    2    1    0    0    0 -0.14363521034E+02  0.11775508171E+02  0.84015486354E+01  0.10461472716E+03  0.10260936502E+03 0.  0.
         11    1    3    3    0    0 -0.21107005279E+02 -0.12345903276E+02  0.50227246141E+02  0.55863254959E+02  0.51100000000E-03 0.  1.
         22    1    1    0    0    0  0.14363521034E+02 -0.11775508171E+02 -0.84015486354E+01  0.20385272837E+02  0.00000000000E+00 0.  1.
</event>
<event>
 5    1  0.1099741E-009  0.9118800E+02  0.7818608E-02  0.1130116E+00
         25   -1    0    0    0    0  0.00000000000E+00  0.00000000000E+00  0.99999998245E-14  0.12500000000E+03  0.12500000000E+03 0.  0.
        -11    1    3    3    0    0 -0.23188588102E+02 -0.40851703071E+02 -0.34120410766E+02  0.58058373152E+02  0.51100000000E-03 0. -1.
         23    2    1    0    0    0 -0.42010117577E+01 -0.29219886946E+02 -0.44636324161E+01  0.95144107662E+02  0.90338402220E+02 0.  0.
         11    1    3    3    0    0  0.18987576344E+02  0.11631816125E+02  0.29656778350E+02  0.37085734510E+02  0.51100000000E-03 0.  1.
         22    1    1    0    0    0  0.42010117577E+01  0.29219886946E+02  0.44636324161E+01  0.29855892338E+02  0.00000000000E+00 0. -1.
</event>
<event>
 5    1  0.1099741E-009  0.9118800E+02  0.7818608E-02  0.1130116E+00
         25   -1    0    0    0    0  0.00000000000E+00  0.00000000000E+00  0.99999998245E-14  0.12500000000E+03  0.12500000000E+03 0.  0.
        -11    1    3    3    0    0 -0.33216568325E+02  0.11394003791E+02 -0.39959978703E+02  0.53197402492E+02  0.51100000000E-03 0. -1.
         23    2    1    0    0    0 -0.69282460813E+01  0.25448717809E+02 -0.68487238291E+01  0.97750360554E+02  0.93875396875E+02 0.  0.
         11    1    3    3    0    0  0.26288322243E+02  0.14054714018E+02  0.33111254874E+02  0.44552958062E+02  0.51100000000E-03 0.  1.
         22    1    1    0    0    0  0.69282460813E+01 -0.25448717809E+02  0.68487238291E+01  0.27249639446E+02  0.00000000000E+00 0. -1.
</event>
<event>
 5    1  0.1099741E-009  0.9118800E+02  0.7818608E-02  0.1130116E+00
         25   -1    0    0    0    0  0.00000000000E+00  0.00000000000E+00  0.99999998245E-14  0.12500000000E+03  0.12500000000E+03 0.  0.
        -11    1    3    3    0    0 -0.30183160043E+02  0.10689266256E+00 -0.14087553559E+02  0.33309063958E+02  0.51100000000E-03 0. -1.
         23    2    1    0    0    0 -0.99139161328E+01  0.42470369736E+02 -0.79080159358E+01  0.80676701898E+02  0.67410499734E+02 0.  0.
         11    1    3    3    0    0  0.20269243910E+02  0.42363477074E+02  0.61795376236E+01  0.47367637940E+02  0.51100000000E-03 0.  1.
         22    1    1    0    0    0  0.99139161328E+01 -0.42470369736E+02  0.79080159358E+01  0.44323298102E+02  0.00000000000E+00 0. -1.
</event>
<event>
 5    1  0.1099741E-009  0.9118800E+02  0.7818608E-02  0.1130116E+00
         25   -1    0    0    0    0  0.00000000000E+00  0.00000000000E+00  0.99999998245E-14  0.12500000000E+03  0.12500000000E+03 0.  0.
        -11    1    3    3    0    0 -0.11052831936E+02 -0.24278503634E+02 -0.45200990861E+02  0.52485620961E+02  0.51100000000E-03 0.  1.
         23    2    1    0    0    0  0.19022187586E+02 -0.35586116729E+01 -0.21744729128E+02  0.95890884891E+02  0.91365864647E+02 0.  0.
         11    1    3    3    0    0  0.30075019521E+02  0.20719891961E+02  0.23456261734E+02  0.43405263931E+02  0.51100000000E-03 0. -1.
         22    1    1    0    0    0 -0.19022187586E+02  0.35586116729E+01  0.21744729128E+02  0.29109115109E+02  0.00000000000E+00 0.  1.
</event>
<event>
 5    1  0.1099741E-009  0.9118800E+02  0.7818608E-02  0.1130116E+00
         25   -1    0    0    0    0  0.00000000000E+00  0.00000000000E+00  0.99999998245E-14  0.12500000000E+03  0.12500000000E+03 0.  0.
        -11    1    3    3    0    0  0.20678317994E+02 -0.26422182055E+02  0.67806299842E+00  0.33558669659E+02  0.51100000000E-03 0.  1.
         23    2    1    0    0    0 -0.24885316214E+02  0.15367264716E+02 -0.35969915844E+01  0.95531879320E+02  0.90873372503E+02 0.  0.
         11    1    3    3    0    0 -0.45563634209E+02  0.41789446771E+02 -0.42750545828E+01  0.61973209661E+02  0.51100000000E-03 0. -1.
         22    1    1    0    0    0  0.24885316214E+02 -0.15367264716E+02  0.35969915844E+01  0.29468120680E+02  0.00000000000E+00 0. -1.
</event>
<event>
 5    1  0.1099741E-009  0.9118800E+02  0.7818608E-02  0.1130116E+00
         25   -1    0    0    0    0  0.00000000000E+00  0.00000000000E+00  0.99999998245E-14  0.12500000000E+03  0.12500000000E+03 0.  0.
        -11    1    3    3    0    0  0.64206133866E+01  0.26926685523E+02 -0.40249713593E+02  0.48849873225E+02  0.51100000000E-03 0. -1.
         23    2    1    0    0    0  0.13237662886E+02  0.36545410058E+02 -0.52547478220E+01  0.85777365085E+02  0.76284607041E+02 0.  0.
         11    1    3    3    0    0  0.68170494992E+01  0.96187245344E+01  0.34994965771E+02  0.36927491860E+02  0.51100000000E-03 0.  1.
         22    1    1    0    0    0 -0.13237662886E+02 -0.36545410058E+02  0.52547478220E+01  0.39222634915E+02  0.00000000000E+00 0. -1.
</event>
<event>
 5    1  0.1099741E-009  0.9118800E+02  0.7818608E-02  0.1130116E+00
         25   -1    0    0    0    0  0.00000000000E+00  0.00000000000E+00  0.99999998245E-14  0.12500000000E+03  0.12500000000E+03 0.  0.
        -11    1    3    3    0    0  0.15580779927E+02  0.11621098395E+02  0.36215391153E+02  0.41101887885E+02  0.51100000000E-03 0. -1.
         23    2    1    0    0    0 -0.24678808543E+02  0.21051909840E+02  0.67729659253E+01  0.91862414595E+02  0.85677322838E+02 0.  0.
         11    1    3    3    0    0 -0.40259588470E+02  0.94308114454E+01 -0.29442425228E+02  0.50760526710E+02  0.51100000000E-03 0.  1.
         22    1    1    0    0    0  0.24678808543E+02 -0.21051909840E+02 -0.67729659253E+01  0.33137585405E+02  0.00000000000E+00 0.  1.
</event>
<event>
 5    1  0.1099741E-009  0.9118800E+02  0.7818608E-02  0.1130116E+00
         25   -1    0    0    0    0  0.00000000000E+00  0.00000000000E+00  0.99999998245E-14  0.12500000000E+03  0.12500000000E+03 0.  0.
        -11    1    3    3    0    0 -0.10196051734E+02 -0.91777580197E+00  0.48719066802E+02  0.49783021741E+02  0.51100000000E-03 0.  1.
         23    2    1    0    0    0  0.55904129618E+01 -0.25758599276E+02  0.14507201048E+02  0.94913175043E+02  0.90018296811E+02 0.  0.
         11    1    3    3    0    0  0.15786464695E+02 -0.24840823474E+02 -0.34211865753E+02  0.45130153302E+02  0.51100000000E-03 0. -1.
         22    1    1    0    0    0 -0.55904129618E+01  0.25758599276E+02 -0.14507201048E+02  0.30086824957E+02  0.00000000000E+00 0.  1.
</event>
<event>
 5    1  0.1099741E-009  0.9118800E+02  0.7818608E-02  0.1130116E+00
         25   -1    0    0    0    0  0.00000000000E+00  0.00000000000E+00  0.99999998245E-14  0.12500000000E+03  0.12500000000E+03 0.  0.
        -11    1    3    3    0    0  0.13064703313E+02  0.27887599754E+02  0.49506238378E+02  0.58303278907E+02  0.51100000000E-03 0.  1.
         23    2    1    0    0    0  0.73010549232E+01  0.24939702127E+02  0.11977820969E+02  0.96385976509E+02  0.92040719941E+02 0.  0.
         11    1    3    3    0    0 -0.57636483900E+01 -0.29478976267E+01 -0.37528417409E+02  0.38082697602E+02  0.51100000000E-03 0. -1.
         22    1    1    0    0    0 -0.73010549232E+01 -0.24939702127E+02 -0.11977820969E+02  0.28614023491E+02  0.00000000000E+00 0.  1.
</event>
<event>
 5    1  0.1099741E-009  0.9118800E+02  0.7818608E-02  0.1130116E+00
         25   -1    0    0    0    0  0.00000000000E+00  0.00000000000E+00  0.99999998245E-14  0.12500000000E+03  0.12500000000E+03 0.  0.
        -11    1    3    3    0    0  0.24690929198E+02  0.45030955009E+01 -0.19152943836E+02  0.31571428722E+02  0.51100000000E-03 0.  1.
         23    2    1    0    0    0 -0.21892363338E+02 -0.19455193984E+02  0.12915048030E+02  0.92990960478E+02  0.87308304986E+02 0.  0.
         11    1    3    3    0    0 -0.46583292536E+02 -0.23958289485E+02  0.32067991866E+02  0.61419531756E+02  0.51100000000E-03 0. -1.
         22    1    1    0    0    0  0.21892363338E+02  0.19455193984E+02 -0.12915048030E+02  0.32009039522E+02  0.00000000000E+00 0. -1.
</event>
<event>
 5    1  0.1099741E-009  0.9118800E+02  0.7818608E-02  0.1130116E+00
         25   -1    0    0    0    0  0.00000000000E+00  0.00000000000E+00  0.99999998245E-14  0.12500000000E+03  0.12500000000E+03 0.  0.
        -11    1    3    3    0    0  0.39213666984E+02  0.22159781304E+01  0.26497121846E+02  0.47378472999E+02  0.51100000000E-03 0.  1.
         23    2    1    0    0    0 -0.12018745046E+01 -0.23008028125E+02  0.17980623639E+02  0.95774725203E+02  0.91206805123E+02 0.  0.
         11    1    3    3    0    0 -0.40415541488E+02 -0.25224006255E+02 -0.85164982061E+01  0.48396252203E+02  0.51100000000E-03 0. -1.
         22    1    1    0    0    0  0.12018745046E+01  0.23008028125E+02 -0.17980623639E+02  0.29225274797E+02  0.00000000000E+00 0. -1.
</event>
<event>
 5    1  0.1099741E-009  0.9118800E+02  0.7818608E-02  0.1130116E+00
         25   -1    0    0    0    0  0.00000000000E+00  0.00000000000E+00  0.99999998245E-14  0.12500000000E+03  0.12500000000E+03 0.  0.
        -11    1    3    3    0    0 -0.18309106983E+01  0.24767419665E+02 -0.27185753349E+02  0.36821766610E+02  0.51100000000E-03 0.  1.
         23    2    1    0    0    0 -0.32336316744E+02 -0.68813084181E+01  0.53494339803E+01  0.91509609886E+02  0.85161038459E+02 0.  0.
         11    1    3    3    0    0 -0.30505406045E+02 -0.31648728083E+02  0.32535187330E+02  0.54687843276E+02  0.51100000000E-03 0. -1.
         22    1    1    0    0    0  0.32336316744E+02  0.68813084181E+01 -0.53494339803E+01  0.33490390114E+02  0.00000000000E+00 0. -1.
</event>
<event>
 5    1  0.1099741E-009  0.9118800E+02  0.7818608E-02  0.1130116E+00
         25   -1    0    0    0    0  0.00000000000E+00  0.00000000000E+00  0.99999998245E-14  0.12500000000E+03  0.12500000000E+03 0.  0.
        -11    1    3    3    0    0  0.55444700381E+00  0.12716216234E+02 -0.37267805133E+02  0.39381453331E+02  0.51100000000E-03 0.  1.
         23    2    1    0    0    0 -0.10887053935E+02  0.24528101016E+02  0.15056455222E+02  0.94229031106E+02  0.89063223479E+02 0.  0.
         11    1    3    3    0    0 -0.11441500939E+02  0.11811884782E+02  0.52324260355E+02  0.54847577775E+02  0.51100000000E-03 0. -1.
         22    1    1    0    0    0  0.10887053935E+02 -0.24528101016E+02 -0.15056455222E+02  0.30770968894E+02  0.00000000000E+00 0. -1.
</event>
<event>
 4    1  0.1099741E-009  0.9118800E+02  0.7818608E-02  0.1130116E+00
         25   -1    0    0    0    0  0.00000000000E+00  0.00000000000E+00  0.99999998245E-14  0.12500000000E+03  0.12500000000E+03 0.  0.
        -11    1    1    0    0    0  0.12537671956E+01  0.33552945992E+02 -0.27801631530E+02  0.43592463028E+02  0.51100000000E-03 0. -1.
         11    1    1    0    0    0  0.78954448439E+00  0.19887669353E+02  0.18404674915E+02  0.27108574875E+02  0.51100000000E-03 0.  1.
         22    1    1    0    0    0 -0.20433116800E+01 -0.53440615345E+02  0.93969566147E+01  0.54298962096E+02  0.00000000000E+00 0. -1.
</event>
<event>
 5    1  0.1099741E-009  0.9118800E+02  0.7818608E-02  0.1130116E+00
         25   -1    0    0    0    0  0.00000000000E+00  0.00000000000E+00  0.99999998245E-14  0.12500000000E+03  0.12500000000E+03 0.  0.
        -11    1    3    3    0    0  0.80328336105E+01 -0.29619381995E+02 -0.41139308799E+02  0.51325207592E+02  0.51100000000E-03 0.  1.
         23    2    1    0    0    0 -0.17968505778E+02  0.18860638579E+01 -0.22272386851E+02  0.96321024202E+02  0.91952466255E+02 0.  0.
         11    1    3    3    0    0 -0.26001339389E+02  0.31505445853E+02  0.18866921948E+02  0.44995816610E+02  0.51100000000E-03 0. -1.
         22    1    1    0    0    0  0.17968505778E+02 -0.18860638579E+01  0.22272386851E+02  0.28678975798E+02  0.00000000000E+00 0.  1.
</event>
<event>
 5    1  0.1099741E-009  0.9118800E+02  0.7818608E-02  0.1130116E+00
         25   -1    0    0    0    0  0.00000000000E+00  0.00000000000E+00  0.99999998245E-14  0.12500000000E+03  0.12500000000E+03 0.  0.
        -11    1    3    3    0    0  0.16218896882E+02 -0.50814714977E+01 -0.29090288876E+02  0.33691525282E+02  0.51100000000E-03 0. -1.
         23    2    1    0    0    0  0.17948834562E+01  0.14336359952E+02  0.26778732552E+02  0.94572161753E+02  0.89543511424E+02 0.  0.
         11    1    3    3    0    0 -0.14424013426E+02  0.19417831450E+02  0.55869021428E+02  0.60880636471E+02  0.51100000000E-03 0.  1.
         22    1    1    0    0    0 -0.17948834562E+01 -0.14336359952E+02 -0.26778732552E+02  0.30427838247E+02  0.00000000000E+00 0.  1.
</event>
<event>
 5    1  0.1099741E-009  0.9118800E+02  0.7818608E-02  0.1130116E+00
         25   -1    0    0    0    0  0.00000000000E+00  0.00000000000E+00  0.99999998245E-14  0.12500000000E+03  0.12500000000E+03 0.  0.
        -11    1    3    3    0    0  0.28209581542E+02 -0.21607451304E+02  0.47879617744E+02  0.59624829042E+02  0.51100000000E-03 0.  1.
         23    2    1    0    0    0  0.20340116764E+02  0.10078272006E+01  0.25132181477E+02  0.92652471324E+02  0.86822334863E+02 0.  0.
         11    1    3    3    0    0 -0.78694647780E+01  0.22615278505E+02 -0.22747436268E+02  0.33027642283E+02  0.51100000000E-03 0. -1.
         22    1    1    0    0    0 -0.20340116764E+02 -0.10078272006E+01 -0.25132181477E+02  0.32347528676E+02  0.00000000000E+00 0.  1.
</event>
<event>
 5    1  0.1099741E-009  0.9118800E+02  0.7818608E-02  0.1130116E+00
         25   -1    0    0    0    0  0.00000000000E+00  0.00000000000E+00  0.99999998245E-14  0.12500000000E+03  0.12500000000E+03 0.  0.
        -11    1    3    3    0    0  0.14961252765E+02 -0.23783469563E+01  0.32004455786E+02  0.35408767402E+02  0.51100000000E-03 0. -1.
         23    2    1    0    0    0 -0.82805401916E+01  0.23427870325E+02 -0.16578841680E+02  0.95128768936E+02  0.90317175741E+02 0.  0.
         11    1    3    3    0    0 -0.23241792956E+02  0.25806217282E+02 -0.48583297466E+02  0.59720001533E+02  0.51100000000E-03 0.  1.
         22    1    1    0    0    0  0.82805401916E+01 -0.23427870325E+02  0.16578841680E+02  0.29871231064E+02  0.00000000000E+00 0.  1.
</event>
<event>
 5    1  0.1099741E-009  0.9118800E+02  0.7818608E-02  0.1130116E+00
         25   -1    0    0    0    0  0.00000000000E+00  0.00000000000E+00  0.99999998245E-14  0.12500000000E+03  0.12500000000E+03 0.  0.
        -11    1    3    3    0    0 -0.16770049265E+01  0.17984847512E+02 -0.48278425382E+02  0.51546808273E+02  0.51100000000E-03 0. -1.
         23    2    1    0    0    0  0.24805334749E+02  0.80713398924E+01 -0.16270810048E+02  0.94256050688E+02  0.89101137322E+02 0.  0.
         11    1    3    3    0    0  0.26482339675E+02 -0.99135076193E+01  0.32007615334E+02  0.42709242415E+02  0.51100000000E-03 0.  1.
         22    1    1    0    0    0 -0.24805334749E+02 -0.80713398924E+01  0.16270810048E+02  0.30743949312E+02  0.00000000000E+00 0. -1.
</event>
<event>
 5    1  0.1099741E-009  0.9118800E+02  0.7818608E-02  0.1130116E+00
         25   -1    0    0    0    0  0.00000000000E+00  0.00000000000E+00  0.99999998245E-14  0.12500000000E+03  0.12500000000E+03 0.  0.
        -11    1    3    3    0    0  0.25402786277E+02  0.79650822392E+01 -0.12104129409E+02  0.29244726613E+02  0.51100000000E-03 0.  1.
         23    2    1    0    0    0 -0.17543270547E+02  0.10642321823E+02  0.29478564807E+02  0.89083274950E+02  0.81521891154E+02 0.  0.
         11    1    3    3    0    0 -0.42946056824E+02  0.26772395837E+01  0.41582694216E+02  0.59838548336E+02  0.51100000000E-03 0. -1.
         22    1    1    0    0    0  0.17543270547E+02 -0.10642321823E+02 -0.29478564807E+02  0.35916725050E+02  0.00000000000E+00 0. -1.
</event>
<event>
 5    1  0.1099741E-009  0.9118800E+02  0.7818608E-02  0.1130116E+00
         25   -1    0    0    0    0  0.00000000000E+00  0.00000000000E+00  0.99999998245E-14  0.12500000000E+03  0.12500000000E+03 0.  0.
        -11    1    3    3    0    0  0.74274398878E+01  0.60103812347E+02 -0.20804262826E+01  0.60596726774E+02  0.51100000000E-03 0. -1.
         23    2    1    0    0    0  0.48213157769E+01  0.20998785285E+02 -0.11027363136E+02  0.10079676040E+03  0.97847790474E+02 0.  0.
         11    1    3    3    0    0 -0.26061241109E+01 -0.39105027062E+02 -0.89469368536E+01  0.40200033629E+02  0.51100000000E-03 0.  1.
         22    1    1    0    0    0 -0.48213157769E+01 -0.20998785285E+02  0.11027363136E+02  0.24203239597E+02  0.00000000000E+00 0. -1.
</event>
<event>
 5    1  0.1099741E-009  0.9118800E+02  0.7818608E-02  0.1130116E+00
         25   -1    0    0    0    0  0.00000000000E+00  0.00000000000E+00  0.99999998245E-14  0.12500000000E+03  0.12500000000E+03 0.  0.
        -11    1    3    3    0    0  0.37325599339E+01 -0.25838951142E+02  0.40376517644E+02  0.48081665707E+02  0.51100000000E-03 0. -1.
         23    2    1    0    0    0 -0.20175503952E+02  0.96282223709E+01  0.17648618502E+02  0.96517946689E+02  0.92219773760E+02 0.  0.
         11    1    3    3    0    0 -0.23908063886E+02  0.35467173513E+02 -0.22727899142E+02  0.48436280983E+02  0.51100000000E-03 0.  1.
         22    1    1    0    0    0  0.20175503952E+02 -0.96282223709E+01 -0.17648618502E+02  0.28482053311E+02  0.00000000000E+00 0.  1.
</event>
<event>
 5    1  0.1099741E-009  0.9118800E+02  0.7818608E-02  0.1130116E+00
         25   -1    0    0    0    0  0.00000000000E+00  0.00000000000E+00  0.99999998245E-14  0.12500000000E+03  0.12500000000E+03 0.  0.
        -11    1    3    3    0    0  0.56155033827E+02  0.97666556168E-01 -0.18073873664E+02  0.58992052620E+02  0.51100000000E-03 0.  1.
         23    2    1    0    0    0  0.29512555478E+02  0.13132645399E+02 -0.22257989400E+01  0.92620817074E+02  0.86776749585E+02 0.  0.
         11    1    3    3    0    0 -0.26642478349E+02  0.13034978843E+02  0.15848074724E+02  0.33628764454E+02  0.51100000000E-03 0. -1.
         22    1    1    0    0    0 -0.29512555478E+02 -0.13132645399E+02  0.22257989400E+01  0.32379182926E+02  0.00000000000E+00 0.  1.
</event>
<event>
 5    1  0.1099741E-009  0.9118800E+02  0.7818608E-02  0.1130116E+00
         25   -1    0    0    0    0  0.00000000000E+00  0.00000000000E+00  0.99999998245E-14  0.12500000000E+03  0.12500000000E+03 0.  0.
        -11    1    3    3    0    0 -0.10536202131E+02 -0.34452874016E+02 -0.20389208626E+02  0.41397245222E+02  0.51100000000E-03 0. -1.
         23    2    1    0    0    0 -0.11864067098E+02 -0.94386109168E+00  0.24695260182E+02  0.97586447926E+02  0.93656884325E+02 0.  0.
         11    1    3    3    0    0 -0.13278649670E+01  0.33509012924E+02  0.45084468808E+02  0.56189202704E+02  0.51100000000E-03 0.  1.
         22    1    1    0    0    0  0.11864067098E+02  0.94386109168E+00 -0.24695260182E+02  0.27413552074E+02  0.00000000000E+00 0.  1.
</event>
<event>
 5    1  0.1099741E-009  0.9118800E+02  0.7818608E-02  0.1130116E+00
         25   -1    0    0    0    0  0.00000000000E+00  0.00000000000E+00  0.99999998245E-14  0.12500000000E+03  0.12500000000E+03 0.  0.
        -11    1    3    3    0    0  0.90058561657E+01 -0.30508874699E+02  0.34657508510E+01  0.31998567310E+02  0.51100000000E-03 0.  1.
         23    2    1    0    0    0 -0.56957745858E+01  0.27409835612E+02  0.15567862637E+02  0.92967215489E+02  0.87274302474E+02 0.  0.
         11    1    3    3    0    0 -0.14701630752E+02  0.57918710311E+02  0.12102111786E+02  0.60968648179E+02  0.51100000000E-03 0. -1.
         22    1    1    0    0    0  0.56957745858E+01 -0.27409835612E+02 -0.15567862637E+02  0.32032784511E+02  0.00000000000E+00 0. -1.
</event>
<event>
 5    1  0.1099741E-009  0.9118800E+02  0.7818608E-02  0.1130116E+00
         25   -1    0    0    0    0  0.00000000000E+00  0.00000000000E+00  0.99999998245E-14  0.12500000000E+03  0.12500000000E+03 0.  0.
        -11    1    3    3    0    0 -0.13463542642E+02 -0.14533816568E+02 -0.24281974857E+02  0.31338683886E+02  0.51100000000E-03 0.  1.
         23    2    1    0    0    0  0.69252158087E+01 -0.39300402180E+01  0.31943251146E+02  0.92079259973E+02  0.85993110150E+02 0.  0.
         11    1    3    3    0    0  0.20388758451E+02  0.10603776350E+02  0.56225226003E+02  0.60740576087E+02  0.51100000000E-03 0. -1.
         22    1    1    0    0    0 -0.69252158087E+01  0.39300402180E+01 -0.31943251146E+02  0.32920740027E+02  0.00000000000E+00 0. -1.
</event>
<event>
 5    1  0.1099741E-009  0.9118800E+02  0.7818608E-02  0.1130116E+00
         25   -1    0    0    0    0  0.00000000000E+00  0.00000000000E+00  0.99999998245E-14  0.12500000000E+03  0.12500000000E+03 0.  0.
        -11    1    3    3    0    0  0.51900905036E+02 -0.12400594062E+02  0.29511838610E+02  0.60978908609E+02  0.51100000000E-03 0. -1.
         23    2    1    0    0    0  0.24757515031E+02  0.35042632745E+01  0.16609578239E+02  0.94981797174E+02  0.90113535574E+02 0.  0.
         11    1    3    3    0    0 -0.27143390005E+02  0.15904857336E+02 -0.12902260371E+02  0.34002888566E+02  0.51100000000E-03 0.  1.
         22    1    1    0    0    0 -0.24757515031E+02 -0.35042632745E+01 -0.16609578239E+02  0.30018202826E+02  0.00000000000E+00 0. -1.
</event>
<event>
 5    1  0.1099741E-009  0.9118800E+02  0.7818608E-02  0.1130116E+00
         25   -1    0    0    0    0  0.00000000000E+00  0.00000000000E+00  0.99999998245E-14  0.12500000000E+03  0.12500000000E+03 0.  0.
        -11    1    3    3    0    0  0.25570853483E+01  0.10567179431E+02  0.46298543627E+02  0.47557955264E+02  0.51100000000E-03 0.  1.
         23    2    1    0    0    0  0.24620185995E+02 -0.12106188461E+02  0.97821857603E+01  0.95872615708E+02  0.91340866686E+02 0.  0.
         11    1    3    3    0    0  0.22063100646E+02 -0.22673367892E+02 -0.36516357867E+02  0.48314660444E+02  0.51100000000E-03 0. -1.
         22    1    1    0    0    0 -0.24620185995E+02  0.12106188461E+02 -0.97821857603E+01  0.29127384292E+02  0.00000000000E+00 0.  1.
</event>
<event>
 5    1  0.1099741E-009  0.9118800E+02  0.7818608E-02  0.1130116E+00
         25   -1    0    0    0    0  0.00000000000E+00  0.00000000000E+00  0.99999998245E-14  0.12500000000E+03  0.12500000000E+03 0.  0.
        -11    1    3    3    0    0  0.40318521776E+02 -0.34868948582E+02  0.25361806568E+02  0.59030907211E+02  0.51100000000E-03 0. -1.
         23    2    1    0    0    0  0.64542308408E+01 -0.13007209790E+02  0.20852067975E+02  0.99590290417E+02  0.96294198186E+02 0.  0.
         11    1    3    3    0    0 -0.33864290936E+02  0.21861738792E+02 -0.45097385933E+01  0.40559383206E+02  0.51100000000E-03 0.  1.
         22    1    1    0    0    0 -0.64542308408E+01  0.13007209790E+02 -0.20852067975E+02  0.25409709583E+02  0.00000000000E+00 0. -1.
</event>
<event>
 5    1  0.1099741E-009  0.9118800E+02  0.7818608E-02  0.1130116E+00
         25   -1    0    0    0    0  0.00000000000E+00  0.00000000000E+00  0.99999998245E-14  0.12500000000E+03  0.12500000000E+03 0.  0.
        -11    1    3    3    0    0 -0.19398412131E+02  0.25389631437E+02 -0.29091168663E+02  0.43211432193E+02  0.51100000000E-03 0. -1.
         23    2    1    0    0    0  0.23312482879E+02 -0.22833340194E+01 -0.18397273207E+02  0.95215018320E+02  0.90436467091E+02 0.  0.
         11    1    3    3    0    0  0.42710895010E+02 -0.27672965457E+02  0.10693895456E+02  0.52003586126E+02  0.51100000000E-03 0.  1.
         22    1    1    0    0    0 -0.23312482879E+02  0.22833340194E+01  0.18397273207E+02  0.29784981680E+02  0.00000000000E+00 0.  1.
</event>
<event>
 5    1  0.1099741E-009  0.9118800E+02  0.7818608E-02  0.1130116E+00
         25   -1    0    0    0    0  0.00000000000E+00  0.00000000000E+00  0.99999998245E-14  0.12500000000E+03  0.12500000000E+03 0.  0.
        -11    1    3    3    0    0  0.29589081691E+02 -0.49776223145E+02 -0.22085194118E+02  0.61975333362E+02  0.51100000000E-03 0. -1.
         23    2    1    0    0    0  0.98754464434E+01 -0.26504836631E+02 -0.77660049044E+01  0.95668419077E+02  0.91060994774E+02 0.  0.
         11    1    3    3    0    0 -0.19713635247E+02  0.23271386514E+02  0.14319189213E+02  0.33693085714E+02  0.51100000000E-03 0.  1.
         22    1    1    0    0    0 -0.98754464434E+01  0.26504836631E+02  0.77660049044E+01  0.29331580923E+02  0.00000000000E+00 0. -1.
</event>
<event>
 5    1  0.1099741E-009  0.9118800E+02  0.7818608E-02  0.1130116E+00
         25   -1    0    0    0    0  0.00000000000E+00  0.00000000000E+00  0.99999998245E-14  0.12500000000E+03  0.12500000000E+03 0.  0.
        -11    1    3    3    0    0 -0.10759180568E+02  0.37609320146E+02  0.18554978831E+02  0.43295590631E+02  0.51100000000E-03 0.  1.
         23    2    1    0    0    0  0.21308180597E+02 -0.12612907109E+01  0.22679960354E+02  0.93855016194E+02  0.88536738412E+02 0.  0.
         11    1    3    3    0    0  0.32067361165E+02 -0.38870610857E+02  0.41249815225E+01  0.50559425564E+02  0.51100000000E-03 0. -1.
         22    1    1    0    0    0 -0.21308180597E+02  0.12612907109E+01 -0.22679960354E+02  0.31144983806E+02  0.00000000000E+00 0. -1.
</event>
<event>
 5    1  0.1099741E-009  0.9118800E+02  0.7818608E-02  0.1130116E+00
         25   -1    0    0    0    0  0.00000000000E+00  0.00000000000E+00  0.99999998245E-14  0.12500000000E+03  0.12500000000E+03 0.  0.
        -11    1    3    3    0    0  0.35249108553E+02  0.24894848825E+02  0.30587933405E+02  0.52894941366E+02  0.51100000000E-03 0. -1.
         23    2    1    0    0    0  0.69526777422E+01 -0.61999574820E+01  0.28529835722E+02  0.94987823689E+02  0.90121894800E+02 0.  0.
         11    1    3    3    0    0 -0.28296430811E+02 -0.31094806307E+02 -0.20580976828E+01  0.42092882323E+02  0.51100000000E-03 0.  1.
         22    1    1    0    0    0 -0.69526777422E+01  0.61999574820E+01 -0.28529835722E+02  0.30012176311E+02  0.00000000000E+00 0. -1.
</event>
<event>
 5    1  0.1099741E-009  0.9118800E+02  0.7818608E-02  0.1130116E+00
         25   -1    0    0    0    0  0.00000000000E+00  0.00000000000E+00  0.99999998245E-14  0.12500000000E+03  0.12500000000E+03 0.  0.
        -11    1    3    3    0    0  0.32568368980E+02 -0.44225333282E+02  0.13334715682E+02  0.56518964999E+02  0.51100000000E-03 0.  1.
         23    2    1    0    0    0  0.26871763402E+02 -0.52061095917E+01  0.89877820056E+01  0.96190705132E+02  0.91775139787E+02 0.  0.
         11    1    3    3    0    0 -0.56966055782E+01  0.39019223691E+02 -0.43469336764E+01  0.39671740133E+02  0.51100000000E-03 0. -1.
         22    1    1    0    0    0 -0.26871763402E+02  0.52061095917E+01 -0.89877820056E+01  0.28809294868E+02  0.00000000000E+00 0.  1.
</event>
<event>
 5    1  0.1099741E-009  0.9118800E+02  0.7818608E-02  0.1130116E+00
         25   -1    0    0    0    0  0.00000000000E+00  0.00000000000E+00  0.99999998245E-14  0.12500000000E+03  0.12500000000E+03 0.  0.
        -11    1    3    3    0    0  0.60503902812E+01  0.70338571515E+01  0.43812899120E+02  0.44784511816E+02  0.51100000000E-03 0.  1.
         23    2    1    0    0    0  0.25931055207E+02 -0.12262355769E+02  0.36585601551E+00  0.96313437923E+02  0.91942152905E+02 0.  0.
         11    1    3    3    0    0  0.19880664926E+02 -0.19296212921E+02 -0.43447043105E+02  0.51528926107E+02  0.51100000000E-03 0. -1.
         22    1    1    0    0    0 -0.25931055207E+02  0.12262355769E+02 -0.36585601551E+00  0.28686562077E+02  0.00000000000E+00 0. -1.
</event>
<event>
 5    1  0.1099741E-009  0.9118800E+02  0.7818608E-02  0.1130116E+00
         25   -1    0    0    0    0  0.00000000000E+00  0.00000000000E+00  0.99999998245E-14  0.12500000000E+03  0.12500000000E+03 0.  0.
        -11    1    3    3    0    0 -0.53010546438E+01 -0.36103128092E+02  0.16810256665E+01  0.36528932176E+02  0.51100000000E-03 0. -1.
         23    2    1    0    0    0  0.35368902669E+02 -0.25099347070E+01  0.39189028699E+01  0.89326244269E+02  0.81893596009E+02 0.  0.
         11    1    3    3    0    0  0.40669957313E+02  0.33593193385E+02  0.22378772033E+01  0.52797312093E+02  0.51100000000E-03 0.  1.
         22    1    1    0    0    0 -0.35368902669E+02  0.25099347070E+01 -0.39189028699E+01  0.35673755731E+02  0.00000000000E+00 0.  1.
</event>
<event>
 5    1  0.1099741E-009  0.9118800E+02  0.7818608E-02  0.1130116E+00
         25   -1    0    0    0    0  0.00000000000E+00  0.00000000000E+00  0.99999998245E-14  0.12500000000E+03  0.12500000000E+03 0.  0.
        -11    1    3    3    0    0  0.78508233294E+01 -0.25941575707E+01 -0.36577441385E+02  0.37500323986E+02  0.51100000000E-03 0. -1.
         23    2    1    0    0    0  0.15613519675E+02 -0.28786275782E+02  0.93544764403E+01  0.90942138947E+02  0.84323986722E+02 0.  0.
         11    1    3    3    0    0  0.77626963461E+01 -0.26192118211E+02  0.45931917826E+02  0.53441814961E+02  0.51100000000E-03 0.  1.
         22    1    1    0    0    0 -0.15613519675E+02  0.28786275782E+02 -0.93544764403E+01  0.34057861053E+02  0.00000000000E+00 0.  1.
</event>
<event>
 5    1  0.1099741E-009  0.9118800E+02  0.7818608E-02  0.1130116E+00
         25   -1    0    0    0    0  0.00000000000E+00  0.00000000000E+00  0.99999998245E-14  0.12500000000E+03  0.12500000000E+03 0.  0.
        -11    1    3    3    0    0  0.86102657014E+01  0.23973135556E+02 -0.20038205565E+02  0.32409529252E+02  0.51100000000E-03 0. -1.
         23    2    1    0    0    0  0.13320149169E+02 -0.30821395833E+02  0.12943119403E+01  0.91398511069E+02  0.84997810367E+02 0.  0.
         11    1    3    3    0    0  0.47098834671E+01 -0.54794531389E+02  0.21332517505E+02  0.58988981817E+02  0.51100000000E-03 0.  1.
         22    1    1    0    0    0 -0.13320149169E+02  0.30821395833E+02 -0.12943119403E+01  0.33601488931E+02  0.00000000000E+00 0. -1.
</event>
<event>
 5    1  0.1099741E-009  0.9118800E+02  0.7818608E-02  0.1130116E+00
         25   -1    0    0    0    0  0.00000000000E+00  0.00000000000E+00  0.99999998245E-14  0.12500000000E+03  0.12500000000E+03 0.  0.
        -11    1    3    3    0    0  0.44951501326E+02 -0.25845296247E+02 -0.27197170717E+02  0.58551711374E+02  0.51100000000E-03 0.  1.
         23    2    1    0    0    0  0.29301553745E+02  0.10939767818E+01 -0.10851403367E+02  0.93734511165E+02  0.88366440413E+02 0.  0.
         11    1    3    3    0    0 -0.15649947582E+02  0.26939273029E+02  0.16345767350E+02  0.35182799791E+02  0.51100000000E-03 0. -1.
         22    1    1    0    0    0 -0.29301553745E+02 -0.10939767818E+01  0.10851403367E+02  0.31265488835E+02  0.00000000000E+00 0.  1.
</event>
<event>
 5    1  0.1099741E-009  0.9118800E+02  0.7818608E-02  0.1130116E+00
         25   -1    0    0    0    0  0.00000000000E+00  0.00000000000E+00  0.99999998245E-14  0.12500000000E+03  0.12500000000E+03 0.  0.
        -11    1    3    3    0    0  0.48586038241E+02  0.28388937242E+02  0.67054769335E+01  0.56670082856E+02  0.51100000000E-03 0. -1.
         23    2    1    0    0    0  0.16013680968E+02  0.14263173640E+02  0.21039326731E+02  0.94957873415E+02  0.90080343881E+02 0.  0.
         11    1    3    3    0    0 -0.32572357273E+02 -0.14125763602E+02  0.14333849798E+02  0.38287790560E+02  0.51100000000E-03 0.  1.
         22    1    1    0    0    0 -0.16013680968E+02 -0.14263173640E+02 -0.21039326731E+02  0.30042126585E+02  0.00000000000E+00 0. -1.
</event>
<event>
 5    1  0.1099741E-009  0.9118800E+02  0.7818608E-02  0.1130116E+00
         25   -1    0    0    0    0  0.00000000000E+00  0.00000000000E+00  0.99999998245E-14  0.12500000000E+03  0.12500000000E+03 0.  0.
        -11    1    3    3    0    0 -0.33369248063E+02 -0.22269805679E+01 -0.79552363384E+01  0.34376619151E+02  0.51100000000E-03 0.  1.
         23    2    1    0    0    0  0.14198059470E+02  0.16623041562E+02  0.22261704221E+02  0.93799136577E+02  0.88457809968E+02 0.  0.
         11    1    3    3    0    0  0.47567307534E+02  0.18850022130E+02  0.30216940560E+02  0.59422517427E+02  0.51100000000E-03 0. -1.
         22    1    1    0    0    0 -0.14198059470E+02 -0.16623041562E+02 -0.22261704221E+02  0.31200863423E+02  0.00000000000E+00 0. -1.
</event>
<event>
 5    1  0.1099741E-009  0.9118800E+02  0.7818608E-02  0.1130116E+00
         25   -1    0    0    0    0  0.00000000000E+00  0.00000000000E+00  0.99999998245E-14  0.12500000000E+03  0.12500000000E+03 0.  0.
        -11    1    3    3    0    0 -0.37613337295E+02  0.29068232978E+02  0.38995965800E+02  0.61485044196E+02  0.51100000000E-03 0. -1.
         23    2    1    0    0    0 -0.23419982599E+02  0.97648614826E+01  0.14389079539E+02  0.95829917472E+02  0.91282415437E+02 0.  0.
         11    1    3    3    0    0  0.14193354696E+02 -0.19303371495E+02 -0.24606886261E+02  0.34344873276E+02  0.51100000000E-03 0.  1.
         22    1    1    0    0    0  0.23419982599E+02 -0.97648614826E+01 -0.14389079539E+02  0.29170082528E+02  0.00000000000E+00 0. -1.
</event>
<event>
 5    1  0.1099741E-009  0.9118800E+02  0.7818608E-02  0.1130116E+00
         25   -1    0    0    0    0  0.00000000000E+00  0.00000000000E+00  0.99999998245E-14  0.12500000000E+03  0.12500000000E+03 0.  0.
        -11    1    3    3    0    0  0.31336567800E+02  0.57665625221E+01 -0.18383416248E+02  0.36785645543E+02  0.51100000000E-03 0.  1.
         23    2    1    0    0    0 -0.82606514261E+01  0.25053367905E+02  0.17284917676E+02  0.93461484112E+02  0.87979378425E+02 0.  0.
         11    1    3    3    0    0 -0.39597219227E+02  0.19286805383E+02  0.35668333923E+02  0.56675838569E+02  0.51100000000E-03 0. -1.
         22    1    1    0    0    0  0.82606514261E+01 -0.25053367905E+02 -0.17284917676E+02  0.31538515888E+02  0.00000000000E+00 0. -1.
</event>
<event>
 5    1  0.1099741E-009  0.9118800E+02  0.7818608E-02  0.1130116E+00
         25   -1    0    0    0    0  0.00000000000E+00  0.00000000000E+00  0.99999998245E-14  0.12500000000E+03  0.12500000000E+03 0.  0.
        -11    1    3    3    0    0 -0.23432672422E+02  0.26112496503E+02  0.13513999940E+02  0.37597617013E+02  0.51100000000E-03 0. -1.
         23    2    1    0    0    0 -0.12411127839E+01  0.27059581868E+01 -0.31712925503E+02  0.93147649779E+02  0.87532350847E+02 0.  0.
         11    1    3    3    0    0  0.22191559638E+02 -0.23406538316E+02 -0.45226925442E+02  0.55550032766E+02  0.51100000000E-03 0.  1.
         22    1    1    0    0    0  0.12411127839E+01 -0.27059581868E+01  0.31712925503E+02  0.31852350221E+02  0.00000000000E+00 0. -1.
</event>
<event>
 5    1  0.1099741E-009  0.9118800E+02  0.7818608E-02  0.1130116E+00
         25   -1    0    0    0    0  0.00000000000E+00  0.00000000000E+00  0.99999998245E-14  0.12500000000E+03  0.12500000000E+03 0.  0.
        -11    1    3    3    0    0 -0.95479954441E+00  0.36810859019E+02  0.50338436855E+02  0.62369136671E+02  0.51100000000E-03 0. -1.
         23    2    1    0    0    0 -0.15764764879E+01  0.15929005909E+02  0.26248448247E+02  0.94255902310E+02  0.89100929162E+02 0.  0.
         11    1    3    3    0    0 -0.62167694352E+00 -0.20881853110E+02 -0.24089988608E+02  0.31886765639E+02  0.51100000000E-03 0.  1.
         22    1    1    0    0    0  0.15764764879E+01 -0.15929005909E+02 -0.26248448247E+02  0.30744097690E+02  0.00000000000E+00 0. -1.
</event>
<event>
 5    1  0.1099741E-009  0.9118800E+02  0.7818608E-02  0.1130116E+00
         25   -1    0    0    0    0  0.00000000000E+00  0.00000000000E+00  0.99999998245E-14  0.12500000000E+03  0.12500000000E+03 0.  0.
        -11    1    3    3    0    0  0.36914956799E+02 -0.39529805330E+02 -0.21191755810E+02  0.58089672572E+02  0.51100000000E-03 0.  1.
         23    2    1    0    0    0  0.13809799587E+02 -0.17522634063E+02 -0.26415956122E+02  0.90423186859E+02  0.83551162259E+02 0.  0.
         11    1    3    3    0    0 -0.23105157212E+02  0.22007171267E+02 -0.52242003118E+01  0.32333514287E+02  0.51100000000E-03 0. -1.
         22    1    1    0    0    0 -0.13809799587E+02  0.17522634063E+02  0.26415956122E+02  0.34576813141E+02  0.00000000000E+00 0.  1.
</event>
<event>
 5    1  0.1099741E-009  0.9118800E+02  0.7818608E-02  0.1130116E+00
         25   -1    0    0    0    0  0.00000000000E+00  0.00000000000E+00  0.99999998245E-14  0.12500000000E+03  0.12500000000E+03 0.  0.
        -11    1    3    3    0    0 -0.23680663633E+02 -0.12794646427E+02 -0.19190425485E+02  0.33056757824E+02  0.51100000000E-03 0.  1.
         23    2    1    0    0    0  0.11836320074E+02  0.18463072012E+02  0.20625422148E+02  0.94893662796E+02  0.89991197898E+02 0.  0.
         11    1    3    3    0    0  0.35516983707E+02  0.31257718439E+02  0.39815847633E+02  0.61836904973E+02  0.51100000000E-03 0. -1.
         22    1    1    0    0    0 -0.11836320074E+02 -0.18463072012E+02 -0.20625422148E+02  0.30106337204E+02  0.00000000000E+00 0. -1.
</event>
<event>
 5    1  0.1099741E-009  0.9118800E+02  0.7818608E-02  0.1130116E+00
         25   -1    0    0    0    0  0.00000000000E+00  0.00000000000E+00  0.99999998245E-14  0.12500000000E+03  0.12500000000E+03 0.  0.
        -11    1    3    3    0    0 -0.22250911989E+02 -0.36166107674E+02 -0.45589290581E+02  0.62301475461E+02  0.51100000000E-03 0.  1.
         23    2    1    0    0    0 -0.79798117781E+01 -0.15221540193E+02 -0.23261314690E+02  0.96078356842E+02  0.91621990867E+02 0.  0.
         11    1    3    3    0    0  0.14271100211E+02  0.20944567481E+02  0.22327975891E+02  0.33776881381E+02  0.51100000000E-03 0. -1.
         22    1    1    0    0    0  0.79798117781E+01  0.15221540193E+02  0.23261314690E+02  0.28921643158E+02  0.00000000000E+00 0.  1.
</event>
<event>
 5    1  0.1099741E-009  0.9118800E+02  0.7818608E-02  0.1130116E+00
         25   -1    0    0    0    0  0.00000000000E+00  0.00000000000E+00  0.99999998245E-14  0.12500000000E+03  0.12500000000E+03 0.  0.
        -11    1    3    3    0    0  0.93076213680E+00 -0.23781251856E+02 -0.15485920223E+02  0.28394154036E+02  0.51100000000E-03 0.  1.
         23    2    1    0    0    0  0.52012547438E+01  0.26357590582E+02  0.21290299202E+02  0.90720961620E+02  0.83995478479E+02 0.  0.
         11    1    3    3    0    0  0.42704926070E+01  0.50138842438E+02  0.36776219425E+02  0.62326807584E+02  0.51100000000E-03 0. -1.
         22    1    1    0    0    0 -0.52012547438E+01 -0.26357590582E+02 -0.21290299202E+02  0.34279038380E+02  0.00000000000E+00 0. -1.
</event>
<event>
 5    1  0.1099741E-009  0.9118800E+02  0.7818608E-02  0.1130116E+00
         25   -1    0    0    0    0  0.00000000000E+00  0.00000000000E+00  0.99999998245E-14  0.12500000000E+03  0.12500000000E+03 0.  0.
        -11    1    3    3    0    0  0.19785505689E+02  0.26569598657E+02  0.61052485550E+01  0.33685068923E+02  0.51100000000E-03 0.  1.
         23    2    1    0    0    0 -0.27114218254E+02 -0.98011917566E+01 -0.87579609260E+01  0.94867856516E+02  0.89955345194E+02 0.  0.
         11    1    3    3    0    0 -0.46899723943E+02 -0.36370790414E+02 -0.14863209481E+02  0.61182787593E+02  0.51100000000E-03 0. -1.
         22    1    1    0    0    0  0.27114218254E+02  0.98011917566E+01  0.87579609260E+01  0.30132143484E+02  0.00000000000E+00 0. -1.
</event>
<event>
 5    1  0.1099741E-009  0.9118800E+02  0.7818608E-02  0.1130116E+00
         25   -1    0    0    0    0  0.00000000000E+00  0.00000000000E+00  0.99999998245E-14  0.12500000000E+03  0.12500000000E+03 0.  0.
        -11    1    3    3    0    0 -0.24463933474E+02 -0.99716142510E+01  0.22568256399E+02  0.34745407307E+02  0.51100000000E-03 0. -1.
         23    2    1    0    0    0  0.25182468621E+02  0.15092814488E+02 -0.20590949516E+01  0.95568900003E+02  0.90924281690E+02 0.  0.
         11    1    3    3    0    0  0.49646402095E+02  0.25064428739E+02 -0.24627351351E+02  0.60823492696E+02  0.51100000000E-03 0.  1.
         22    1    1    0    0    0 -0.25182468621E+02 -0.15092814488E+02  0.20590949516E+01  0.29431099997E+02  0.00000000000E+00 0.  1.
</event>
<event>
 5    1  0.1099741E-009  0.9118800E+02  0.7818608E-02  0.1130116E+00
         25   -1    0    0    0    0  0.00000000000E+00  0.00000000000E+00  0.99999998245E-14  0.12500000000E+03  0.12500000000E+03 0.  0.
        -11    1    3    3    0    0 -0.18065211331E+02 -0.44385330173E+02  0.56470532623E+01  0.48252446630E+02  0.51100000000E-03 0.  1.
         23    2    1    0    0    0 -0.24419720476E+02 -0.68132051458E+01 -0.18722017833E+02  0.93484028426E+02  0.88011403276E+02 0.  0.
         11    1    3    3    0    0 -0.63545091453E+01  0.37572125027E+02 -0.24369071095E+02  0.45231581796E+02  0.51100000000E-03 0. -1.
         22    1    1    0    0    0  0.24419720476E+02  0.68132051458E+01  0.18722017833E+02  0.31515971574E+02  0.00000000000E+00 0.  1.
</event>
<event>
 5    1  0.1099741E-009  0.9118800E+02  0.7818608E-02  0.1130116E+00
         25   -1    0    0    0    0  0.00000000000E+00  0.00000000000E+00  0.99999998245E-14  0.12500000000E+03  0.12500000000E+03 0.  0.
        -11    1    3    3    0    0 -0.49642091620E+01 -0.82090315930E+01  0.46134134624E+02  0.47121013890E+02  0.51100000000E-03 0. -1.
         23    2    1    0    0    0 -0.25889504586E+02  0.12337400527E+02  0.80024817409E+01  0.95225554355E+02  0.90451028677E+02 0.  0.
         11    1    3    3    0    0 -0.20925295424E+02  0.20546432120E+02 -0.38131652883E+02  0.48104540464E+02  0.51100000000E-03 0.  1.
         22    1    1    0    0    0  0.25889504586E+02 -0.12337400527E+02 -0.80024817409E+01  0.29774445645E+02  0.00000000000E+00 0.  1.
</event>
<event>
 5    1  0.1099741E-009  0.9118800E+02  0.7818608E-02  0.1130116E+00
         25   -1    0    0    0    0  0.00000000000E+00  0.00000000000E+00  0.99999998245E-14  0.12500000000E+03  0.12500000000E+03 0.  0.
        -11    1    3    3    0    0  0.50848591622E+01  0.22877727683E+02  0.48088800046E+02  0.53495597078E+02  0.51100000000E-03 0. -1.
         23    2    1    0    0    0 -0.20210949040E+02  0.14930026502E+02  0.15628355546E+02  0.95408892392E+02  0.90704041243E+02 0.  0.
         11    1    3    3    0    0 -0.25295808202E+02 -0.79477011814E+01 -0.32460444500E+02  0.41913295314E+02  0.51100000000E-03 0.  1.
         22    1    1    0    0    0  0.20210949040E+02 -0.14930026502E+02 -0.15628355546E+02  0.29591107608E+02  0.00000000000E+00 0. -1.
</event>
<event>
 5    1  0.1099741E-009  0.9118800E+02  0.7818608E-02  0.1130116E+00
         25   -1    0    0    0    0  0.00000000000E+00  0.00000000000E+00  0.99999998245E-14  0.12500000000E+03  0.12500000000E+03 0.  0.
        -11    1    3    3    0    0  0.36989240079E+02  0.21312321973E+02  0.10361363595E+02  0.43929224957E+02  0.51100000000E-03 0. -1.
         23    2    1    0    0    0 -0.11803966811E+02  0.25355137208E+02  0.15269556967E+02  0.93135035144E+02  0.87514334746E+02 0.  0.
         11    1    3    3    0    0 -0.48793206891E+02  0.40428152355E+01  0.49081933718E+01  0.49205810187E+02  0.51100000000E-03 0.  1.
         22    1    1    0    0    0  0.11803966811E+02 -0.25355137208E+02 -0.15269556967E+02  0.31864964856E+02  0.00000000000E+00 0.  1.
</event>
<event>
 5    1  0.1099741E-009  0.9118800E+02  0.7818608E-02  0.1130116E+00
         25   -1    0    0    0    0  0.00000000000E+00  0.00000000000E+00  0.99999998245E-14  0.12500000000E+03  0.12500000000E+03 0.  0.
        -11    1    3    3    0    0 -0.29552402353E+02 -0.77190155012E+00  0.21902087999E+02  0.36791871056E+02  0.51100000000E-03 0. -1.
         23    2    1    0    0    0  0.20121229449E+02  0.22735091407E+02  0.54706222919E+01  0.94150754238E+02  0.88953294259E+02 0.  0.
         11    1    3    3    0    0  0.49673631802E+02  0.23506992957E+02 -0.16431465707E+02  0.57358883182E+02  0.51100000000E-03 0.  1.
         22    1    1    0    0    0 -0.20121229449E+02 -0.22735091407E+02 -0.54706222919E+01  0.30849245762E+02  0.00000000000E+00 0.  1.
</event>
<event>
 5    1  0.1099741E-009  0.9118800E+02  0.7818608E-02  0.1130116E+00
         25   -1    0    0    0    0  0.00000000000E+00  0.00000000000E+00  0.99999998245E-14  0.12500000000E+03  0.12500000000E+03 0.  0.
        -11    1    3    3    0    0 -0.38358018590E+02 -0.43000032322E+01 -0.59280957658E+01  0.39050863469E+02  0.51100000000E-03 0.  1.
         23    2    1    0    0    0  0.66778208772E+01 -0.13238166882E+02  0.26065452527E+02  0.95012499779E+02  0.90156114295E+02 0.  0.
         11    1    3    3    0    0  0.45035839468E+02 -0.89381636501E+01  0.31993548292E+02  0.55961636311E+02  0.51100000000E-03 0. -1.
         22    1    1    0    0    0 -0.66778208772E+01  0.13238166882E+02 -0.26065452527E+02  0.29987500221E+02  0.00000000000E+00 0. -1.
</event>
<event>
 5    1  0.1099741E-009  0.9118800E+02  0.7818608E-02  0.1130116E+00
         25   -1    0    0    0    0  0.00000000000E+00  0.00000000000E+00  0.99999998245E-14  0.12500000000E+03  0.12500000000E+03 0.  0.
        -11    1    3    3    0    0  0.49285115308E+01  0.15338170635E+02 -0.56938956782E+02  0.59174272315E+02  0.51100000000E-03 0. -1.
         23    2    1    0    0    0  0.51321833028E+00  0.20316858283E+02 -0.20804968758E+02  0.95915900417E+02  0.91400082627E+02 0.  0.
         11    1    3    3    0    0 -0.44152932005E+01  0.49786876479E+01  0.36133988024E+02  0.36741628101E+02  0.51100000000E-03 0.  1.
         22    1    1    0    0    0 -0.51321833028E+00 -0.20316858283E+02  0.20804968758E+02  0.29084099583E+02  0.00000000000E+00 0. -1.
</event>
<event>
 5    1  0.1099741E-009  0.9118800E+02  0.7818608E-02  0.1130116E+00
         25   -1    0    0    0    0  0.00000000000E+00  0.00000000000E+00  0.99999998245E-14  0.12500000000E+03  0.12500000000E+03 0.  0.
        -11    1    3    3    0    0 -0.41662109808E+02 -0.98903965838E+01 -0.37036130899E+02  0.56614718320E+02  0.51100000000E-03 0.  1.
         23    2    1    0    0    0 -0.17512999330E+02  0.14425545085E+02 -0.19353271793E+02  0.95178017745E+02  0.90385310954E+02 0.  0.
         11    1    3    3    0    0  0.24149110478E+02  0.24315941669E+02  0.17682859106E+02  0.38563299425E+02  0.51100000000E-03 0. -1.
         22    1    1    0    0    0  0.17512999330E+02 -0.14425545085E+02  0.19353271793E+02  0.29821982255E+02  0.00000000000E+00 0.  1.
</event>
<event>
 5    1  0.1099741E-009  0.9118800E+02  0.7818608E-02  0.1130116E+00
         25   -1    0    0    0    0  0.00000000000E+00  0.00000000000E+00  0.99999998245E-14  0.12500000000E+03  0.12500000000E+03 0.  0.
        -11    1    3    3    0    0 -0.33765866186E+01 -0.35350301859E+02  0.28429502635E+01  0.35624816423E+02  0.51100000000E-03 0.  1.
         23    2    1    0    0    0  0.17068674667E+01  0.26855193518E+02  0.31767643321E+00  0.98088743363E+02  0.94324895128E+02 0.  0.
         11    1    3    3    0    0  0.50834540853E+01  0.62205495377E+02 -0.25252738303E+01  0.62463926940E+02  0.51100000000E-03 0. -1.
         22    1    1    0    0    0 -0.17068674667E+01 -0.26855193518E+02 -0.31767643321E+00  0.26911256637E+02  0.00000000000E+00 0. -1.
</event>
<event>
 5    1  0.1099741E-009  0.9118800E+02  0.7818608E-02  0.1130116E+00
         25   -1    0    0    0    0  0.00000000000E+00  0.00000000000E+00  0.99999998245E-14  0.12500000000E+03  0.12500000000E+03 0.  0.
        -11    1    3    3    0    0 -0.50573306204E+02  0.22434102329E+02 -0.23541688628E+02  0.60126195218E+02  0.51100000000E-03 0.  1.
         23    2    1    0    0    0 -0.27113784791E+02 -0.59928543039E+00 -0.67068420268E+01  0.97062602149E+02  0.92955099577E+02 0.  0.
         11    1    3    3    0    0  0.23459521413E+02 -0.23033387760E+02  0.16834846602E+02  0.36936406931E+02  0.51100000000E-03 0. -1.
         22    1    1    0    0    0  0.27113784791E+02  0.59928543039E+00  0.67068420268E+01  0.27937397851E+02  0.00000000000E+00 0.  1.
</event>
<event>
 5    1  0.1099741E-009  0.9118800E+02  0.7818608E-02  0.1130116E+00
         25   -1    0    0    0    0  0.00000000000E+00  0.00000000000E+00  0.99999998245E-14  0.12500000000E+03  0.12500000000E+03 0.  0.
        -11    1    3    3    0    0  0.16981793780E+02 -0.49775780747E+00  0.45691732567E+02  0.48747959014E+02  0.51100000000E-03 0.  1.
         23    2    1    0    0    0  0.27178477205E+02 -0.12993769684E+02  0.25951860785E+01  0.94763554036E+02  0.89810291776E+02 0.  0.
         11    1    3    3    0    0  0.10196683425E+02 -0.12496011876E+02 -0.43096546489E+02  0.46015595021E+02  0.51100000000E-03 0. -1.
         22    1    1    0    0    0 -0.27178477205E+02  0.12993769684E+02 -0.25951860785E+01  0.30236445964E+02  0.00000000000E+00 0.  1.
</event>
<event>
 5    1  0.1099741E-009  0.9118800E+02  0.7818608E-02  0.1130116E+00
         25   -1    0    0    0    0  0.00000000000E+00  0.00000000000E+00  0.99999998245E-14  0.12500000000E+03  0.12500000000E+03 0.  0.
        -11    1    3    3    0    0 -0.14105500083E+02 -0.39697036637E+02 -0.12941054848E+02  0.44071427833E+02  0.51100000000E-03 0. -1.
         23    2    1    0    0    0  0.75680598293E+01  0.49335882030E+01 -0.27723510148E+02  0.95841659220E+02  0.91298492895E+02 0.  0.
         11    1    3    3    0    0  0.21673559912E+02  0.44630624840E+02 -0.14782455300E+02  0.51770231387E+02  0.51100000000E-03 0.  1.
         22    1    1    0    0    0 -0.75680598293E+01 -0.49335882030E+01  0.27723510148E+02  0.29158340780E+02  0.00000000000E+00 0.  1.
</event>
<event>
 5    1  0.1099741E-009  0.9118800E+02  0.7818608E-02  0.1130116E+00
         25   -1    0    0    0    0  0.00000000000E+00  0.00000000000E+00  0.99999998245E-14  0.12500000000E+03  0.12500000000E+03 0.  0.
        -11    1    3    3    0    0 -0.14586421513E+02 -0.38821393353E+02 -0.14381019774E+02  0.43893940406E+02  0.51100000000E-03 0. -1.
         23    2    1    0    0    0 -0.25089040249E+02  0.11850103289E+02 -0.15471981336E+01  0.97210096967E+02  0.93153229904E+02 0.  0.
         11    1    3    3    0    0 -0.10502618736E+02  0.50671496641E+02  0.12833821640E+02  0.53316156560E+02  0.51100000000E-03 0.  1.
         22    1    1    0    0    0  0.25089040249E+02 -0.11850103289E+02  0.15471981336E+01  0.27789903033E+02  0.00000000000E+00 0.  1.
</event>
<event>
 5    1  0.1099741E-009  0.9118800E+02  0.7818608E-02  0.1130116E+00
         25   -1    0    0    0    0  0.00000000000E+00  0.00000000000E+00  0.99999998245E-14  0.12500000000E+03  0.12500000000E+03 0.  0.
        -11    1    3    3    0    0  0.51253939574E+01 -0.35838062768E+02 -0.43641936515E+02  0.56703218862E+02  0.51100000000E-03 0.  1.
         23    2    1    0    0    0  0.10191147937E+01  0.40327690944E+00 -0.28957891358E+02  0.96021375134E+02  0.91544217641E+02 0.  0.
         11    1    3    3    0    0 -0.41062791637E+01  0.36241339678E+02  0.14684045157E+02  0.39318156272E+02  0.51100000000E-03 0. -1.
         22    1    1    0    0    0 -0.10191147937E+01 -0.40327690944E+00  0.28957891358E+02  0.28978624866E+02  0.00000000000E+00 0.  1.
</event>
<event>
 5    1  0.1099741E-009  0.9118800E+02  0.7818608E-02  0.1130116E+00
         25   -1    0    0    0    0  0.00000000000E+00  0.00000000000E+00  0.99999998245E-14  0.12500000000E+03  0.12500000000E+03 0.  0.
        -11    1    3    3    0    0 -0.12967165943E+02 -0.34718459551E+02 -0.32631737964E+02  0.49379643062E+02  0.51100000000E-03 0. -1.
         23    2    1    0    0    0 -0.11246634957E+02 -0.13345813229E+02  0.15237403786E+02  0.10183157315E+03  0.99160946381E+02 0.  0.
         11    1    3    3    0    0  0.17205309857E+01  0.21372646321E+02  0.47869141750E+02  0.52451930086E+02  0.51100000000E-03 0.  1.
         22    1    1    0    0    0  0.11246634957E+02  0.13345813229E+02 -0.15237403786E+02  0.23168426851E+02  0.00000000000E+00 0. -1.
</event>
<event>
 5    1  0.1099741E-009  0.9118800E+02  0.7818608E-02  0.1130116E+00
         25   -1    0    0    0    0  0.00000000000E+00  0.00000000000E+00  0.99999998245E-14  0.12500000000E+03  0.12500000000E+03 0.  0.
        -11    1    3    3    0    0  0.22176944932E+02  0.36188732370E+02  0.51118886404E+01  0.42750118629E+02  0.51100000000E-03 0. -1.
         23    2    1    0    0    0  0.20588715966E+02 -0.96105158310E+01  0.23667782319E+02  0.92191142056E+02  0.86155588989E+02 0.  0.
         11    1    3    3    0    0 -0.15882289656E+01 -0.45799248201E+02  0.18555893678E+02  0.49441023427E+02  0.51100000000E-03 0.  1.
         22    1    1    0    0    0 -0.20588715966E+02  0.96105158310E+01 -0.23667782319E+02  0.32808857944E+02  0.00000000000E+00 0. -1.
</event>
<event>
 5    1  0.1099741E-009  0.9118800E+02  0.7818608E-02  0.1130116E+00
         25   -1    0    0    0    0  0.00000000000E+00  0.00000000000E+00  0.99999998245E-14  0.12500000000E+03  0.12500000000E+03 0.  0.
        -11    1    3    3    0    0 -0.28513664145E+02  0.20174386535E+02 -0.30130983831E+02  0.46129286814E+02  0.51100000000E-03 0. -1.
         23    2    1    0    0    0  0.15151887838E+00 -0.19773766851E+02 -0.21030491914E+02  0.96132952981E+02  0.91696446197E+02 0.  0.
         11    1    3    3    0    0  0.28665183023E+02 -0.39948153386E+02  0.91004919173E+01  0.50003666167E+02  0.51100000000E-03 0.  1.
         22    1    1    0    0    0 -0.15151887838E+00  0.19773766851E+02  0.21030491914E+02  0.28867047019E+02  0.00000000000E+00 0.  1.
</event>
<event>
 5    1  0.1099741E-009  0.9118800E+02  0.7818608E-02  0.1130116E+00
         25   -1    0    0    0    0  0.00000000000E+00  0.00000000000E+00  0.99999998245E-14  0.12500000000E+03  0.12500000000E+03 0.  0.
        -11    1    3    3    0    0 -0.45101965467E+02 -0.11894447327E+01  0.95367334559E+01  0.46114546003E+02  0.51100000000E-03 0. -1.
         23    2    1    0    0    0 -0.56520660046E+01  0.28293925461E+02  0.62759912431E+01  0.95472383533E+02  0.90791496757E+02 0.  0.
         11    1    3    3    0    0  0.39449899463E+02  0.29483370194E+02 -0.32607422129E+01  0.49357837530E+02  0.51100000000E-03 0.  1.
         22    1    1    0    0    0  0.56520660046E+01 -0.28293925461E+02 -0.62759912431E+01  0.29527616467E+02  0.00000000000E+00 0. -1.
</event>
<event>
 5    1  0.1099741E-009  0.9118800E+02  0.7818608E-02  0.1130116E+00
         25   -1    0    0    0    0  0.00000000000E+00  0.00000000000E+00  0.99999998245E-14  0.12500000000E+03  0.12500000000E+03 0.  0.
        -11    1    3    3    0    0  0.27349003364E+02  0.99763513012E+01  0.38615506411E+02  0.48359620614E+02  0.51100000000E-03 0.  1.
         23    2    1    0    0    0 -0.13657181241E+02  0.19551673575E+02  0.17151999925E+02  0.95623518923E+02  0.90999339178E+02 0.  0.
         11    1    3    3    0    0 -0.41006184605E+02  0.95753222741E+01 -0.21463506486E+02  0.47263898310E+02  0.51100000000E-03 0. -1.
         22    1    1    0    0    0  0.13657181241E+02 -0.19551673575E+02 -0.17151999925E+02  0.29376481077E+02  0.00000000000E+00 0.  1.
</event>
<event>
 5    1  0.1099741E-009  0.9118800E+02  0.7818608E-02  0.1130116E+00
         25   -1    0    0    0    0  0.00000000000E+00  0.00000000000E+00  0.99999998245E-14  0.12500000000E+03  0.12500000000E+03 0.  0.
        -11    1    3    3    0    0 -0.12962611771E+02 -0.33828472036E+02 -0.16742227150E+02  0.39908608024E+02  0.51100000000E-03 0. -1.
         23    2    1    0    0    0  0.12016622454E+02  0.16249014071E+02 -0.20776589124E+02  0.96015584720E+02  0.91536310719E+02 0.  0.
         11    1    3    3    0    0  0.24979234224E+02  0.50077486107E+02 -0.40343619742E+01  0.56106976697E+02  0.51100000000E-03 0.  1.
         22    1    1    0    0    0 -0.12016622454E+02 -0.16249014071E+02  0.20776589124E+02  0.28984415280E+02  0.00000000000E+00 0.  1.
</event>
<event>
 5    1  0.1099741E-009  0.9118800E+02  0.7818608E-02  0.1130116E+00
         25   -1    0    0    0    0  0.00000000000E+00  0.00000000000E+00  0.99999998245E-14  0.12500000000E+03  0.12500000000E+03 0.  0.
        -11    1    3    3    0    0  0.21643887023E+02 -0.42281853514E+01  0.21673275478E+02  0.30920321264E+02  0.51100000000E-03 0. -1.
         23    2    1    0    0    0 -0.43945662812E+01  0.26068860504E+02 -0.22360348704E+02  0.90375111626E+02  0.83479206431E+02 0.  0.
         11    1    3    3    0    0 -0.26038453305E+02  0.30297045855E+02 -0.44033624183E+02  0.59454790362E+02  0.51100000000E-03 0.  1.
         22    1    1    0    0    0  0.43945662812E+01 -0.26068860504E+02  0.22360348704E+02  0.34624888374E+02  0.00000000000E+00 0.  1.
</event>
<event>
 5    1  0.1099741E-009  0.9118800E+02  0.7818608E-02  0.1130116E+00
         25   -1    0    0    0    0  0.00000000000E+00  0.00000000000E+00  0.99999998245E-14  0.12500000000E+03  0.12500000000E+03 0.  0.
        -11    1    3    3    0    0 -0.32834430278E+02  0.73254776544E+01  0.37308496665E+02  0.50236305181E+02  0.51100000000E-03 0.  1.
         23    2    1    0    0    0 -0.12751235343E+01  0.27029031730E+02  0.11064498032E+02  0.95766156376E+02  0.91195060689E+02 0.  0.
         11    1    3    3    0    0  0.31559306743E+02  0.19703554076E+02 -0.26243998634E+02  0.45529851196E+02  0.51100000000E-03 0. -1.
         22    1    1    0    0    0  0.12751235343E+01 -0.27029031730E+02 -0.11064498032E+02  0.29233843624E+02  0.00000000000E+00 0.  1.
</event>
<event>
 5    1  0.1099741E-009  0.9118800E+02  0.7818608E-02  0.1130116E+00
         25   -1    0    0    0    0  0.00000000000E+00  0.00000000000E+00  0.99999998245E-14  0.12500000000E+03  0.12500000000E+03 0.  0.
        -11    1    3    3    0    0  0.33770197015E+02 -0.13008476668E+02  0.95443554944E-01  0.36189166630E+02  0.51100000000E-03 0. -1.
         23    2    1    0    0    0 -0.18401887977E+02  0.12270834442E+01  0.23509594089E+02  0.95119634723E+02  0.90304533002E+02 0.  0.
         11    1    3    3    0    0 -0.52172084992E+02  0.14235560112E+02  0.23414150534E+02  0.58930468092E+02  0.51100000000E-03 0.  1.
         22    1    1    0    0    0  0.18401887977E+02 -0.12270834442E+01 -0.23509594089E+02  0.29880365277E+02  0.00000000000E+00 0.  1.
</event>
<event>
 5    1  0.1099741E-009  0.9118800E+02  0.7818608E-02  0.1130116E+00
         25   -1    0    0    0    0  0.00000000000E+00  0.00000000000E+00  0.99999998245E-14  0.12500000000E+03  0.12500000000E+03 0.  0.
        -11    1    3    3    0    0  0.83417188789E+01 -0.20826259580E+02  0.10105955760E+02  0.24605846948E+02  0.51100000000E-03 0. -1.
         23    2    1    0    0    0  0.21478905907E+02  0.34431985149E+02  0.15273630338E+02  0.81638856288E+02  0.69171627652E+02 0.  0.
         11    1    3    3    0    0  0.13137187028E+02  0.55258244729E+02  0.51676745784E+01  0.57033009340E+02  0.51100000000E-03 0.  1.
         22    1    1    0    0    0 -0.21478905907E+02 -0.34431985149E+02 -0.15273630338E+02  0.43361143712E+02  0.00000000000E+00 0.  1.
</event>
<event>
 5    1  0.1099741E-009  0.9118800E+02  0.7818608E-02  0.1130116E+00
         25   -1    0    0    0    0  0.00000000000E+00  0.00000000000E+00  0.99999998245E-14  0.12500000000E+03  0.12500000000E+03 0.  0.
        -11    1    3    3    0    0 -0.28878244245E+02  0.21377790270E+02  0.14533663868E+02  0.38758099711E+02  0.51100000000E-03 0. -1.
         23    2    1    0    0    0 -0.47739861335E+01 -0.28813492665E+02  0.28045570619E+01  0.95659348278E+02  0.91048542380E+02 0.  0.
         11    1    3    3    0    0  0.24104258112E+02 -0.50191282935E+02 -0.11729106806E+02  0.56901248567E+02  0.51100000000E-03 0.  1.
         22    1    1    0    0    0  0.47739861335E+01  0.28813492665E+02 -0.28045570619E+01  0.29340651722E+02  0.00000000000E+00 0.  1.
</event>
<event>
 5    1  0.1099741E-009  0.9118800E+02  0.7818608E-02  0.1130116E+00
         25   -1    0    0    0    0  0.00000000000E+00  0.00000000000E+00  0.99999998245E-14  0.12500000000E+03  0.12500000000E+03 0.  0.
        -11    1    3    3    0    0  0.15105609359E+02  0.34356184226E+02 -0.22335535441E+02  0.43673824797E+02  0.51100000000E-03 0.  1.
         23    2    1    0    0    0 -0.10133957988E+01 -0.14837747371E+02 -0.25437271160E+02  0.95534079309E+02  0.90876398626E+02 0.  0.
         11    1    3    3    0    0 -0.16119005158E+02 -0.49193931597E+02 -0.31017357189E+01  0.51860254512E+02  0.51100000000E-03 0. -1.
         22    1    1    0    0    0  0.10133957988E+01  0.14837747371E+02  0.25437271160E+02  0.29465920691E+02  0.00000000000E+00 0. -1.
</event>
<event>
 5    1  0.1099741E-009  0.9118800E+02  0.7818608E-02  0.1130116E+00
         25   -1    0    0    0    0  0.00000000000E+00  0.00000000000E+00  0.99999998245E-14  0.12500000000E+03  0.12500000000E+03 0.  0.
        -11    1    3    3    0    0 -0.74344781803E+01 -0.21450701716E+02  0.57637266639E+02  0.61947224117E+02  0.51100000000E-03 0.  1.
         23    2    1    0    0    0 -0.93470564192E+01 -0.91860074406E+01  0.27681771221E+02  0.94372713892E+02  0.89264654108E+02 0.  0.
         11    1    3    3    0    0 -0.19125782389E+01  0.12264694275E+02 -0.29955495418E+02  0.32425489775E+02  0.51100000000E-03 0. -1.
         22    1    1    0    0    0  0.93470564192E+01  0.91860074406E+01 -0.27681771221E+02  0.30627286108E+02  0.00000000000E+00 0.  1.
</event>
<event>
 5    1  0.1099741E-009  0.9118800E+02  0.7818608E-02  0.1130116E+00
         25   -1    0    0    0    0  0.00000000000E+00  0.00000000000E+00  0.99999998245E-14  0.12500000000E+03  0.12500000000E+03 0.  0.
        -11    1    3    3    0    0  0.23794374343E+02 -0.93272722956E+01  0.27015847205E+02  0.37189061017E+02  0.51100000000E-03 0.  1.
         23    2    1    0    0    0 -0.17785827199E+02 -0.20739262056E+02 -0.11832538394E+02  0.95226494922E+02  0.90452328497E+02 0.  0.
         11    1    3    3    0    0 -0.41580201541E+02 -0.11411989761E+02 -0.38848385598E+02  0.58037433906E+02  0.51100000000E-03 0. -1.
         22    1    1    0    0    0  0.17785827199E+02  0.20739262056E+02  0.11832538394E+02  0.29773505078E+02  0.00000000000E+00 0. -1.
</event>
<event>
 5    1  0.1099741E-009  0.9118800E+02  0.7818608E-02  0.1130116E+00
         25   -1    0    0    0    0  0.00000000000E+00  0.00000000000E+00  0.99999998245E-14  0.12500000000E+03  0.12500000000E+03 0.  0.
        -11    1    3    3    0    0  0.79628291086E+01 -0.25927237345E+02  0.27852998983E+02  0.38876957653E+02  0.51100000000E-03 0. -1.
         23    2    1    0    0    0 -0.20602200863E+02  0.41551774821E+00 -0.17046994107E+02  0.98256340126E+02  0.94546734642E+02 0.  0.
         11    1    3    3    0    0 -0.28565029971E+02  0.26342755093E+02 -0.44899993090E+02  0.59379382473E+02  0.51100000000E-03 0.  1.
         22    1    1    0    0    0  0.20602200863E+02 -0.41551774821E+00  0.17046994107E+02  0.26743659874E+02  0.00000000000E+00 0.  1.
</event>
<event>
 5    1  0.1099741E-009  0.9118800E+02  0.7818608E-02  0.1130116E+00
         25   -1    0    0    0    0  0.00000000000E+00  0.00000000000E+00  0.99999998245E-14  0.12500000000E+03  0.12500000000E+03 0.  0.
        -11    1    3    3    0    0  0.24215172838E+02  0.36327555610E+02  0.17307693021E+01  0.43692807815E+02  0.51100000000E-03 0.  1.
         23    2    1    0    0    0  0.13974834778E+02 -0.16932785371E+02  0.13548457945E+02  0.99201241499E+02  0.95787840433E+02 0.  0.
         11    1    3    3    0    0 -0.10240338059E+02 -0.53260340980E+02  0.11817688643E+02  0.55508433684E+02  0.51100000000E-03 0. -1.
         22    1    1    0    0    0 -0.13974834778E+02  0.16932785371E+02 -0.13548457945E+02  0.25798758501E+02  0.00000000000E+00 0. -1.
</event>
<event>
 5    1  0.1099741E-009  0.9118800E+02  0.7818608E-02  0.1130116E+00
         25   -1    0    0    0    0  0.00000000000E+00  0.00000000000E+00  0.99999998245E-14  0.12500000000E+03  0.12500000000E+03 0.  0.
        -11    1    3    3    0    0  0.86211074510E+01 -0.12049921908E+02 -0.38283118672E+02  0.41050228832E+02  0.51100000000E-03 0.  1.
         23    2    1    0    0    0  0.27629820586E+02  0.32583563715E+01  0.10230627113E+02  0.95357301017E+02  0.90632914851E+02 0.  0.
         11    1    3    3    0    0  0.19008713135E+02  0.15308278279E+02  0.48513745785E+02  0.54307072185E+02  0.51100000000E-03 0. -1.
         22    1    1    0    0    0 -0.27629820586E+02 -0.32583563715E+01 -0.10230627113E+02  0.29642698983E+02  0.00000000000E+00 0. -1.
</event>
<event>
 5    1  0.1099741E-009  0.9118800E+02  0.7818608E-02  0.1130116E+00
         25   -1    0    0    0    0  0.00000000000E+00  0.00000000000E+00  0.99999998245E-14  0.12500000000E+03  0.12500000000E+03 0.  0.
        -11    1    3    3    0    0  0.37364854350E+02  0.12130431148E+02  0.98292158108E-01  0.39284721738E+02  0.51100000000E-03 0. -1.
         23    2    1    0    0    0 -0.48146856508E+01 -0.23994065956E+02 -0.14300595733E+02  0.96655627766E+02  0.92406206185E+02 0.  0.
         11    1    3    3    0    0 -0.42179540001E+02 -0.36124497104E+02 -0.14398887891E+02  0.57370906028E+02  0.51100000000E-03 0.  1.
         22    1    1    0    0    0  0.48146856508E+01  0.23994065956E+02  0.14300595733E+02  0.28344372234E+02  0.00000000000E+00 0.  1.
</event>
<event>
 5    1  0.1099741E-009  0.9118800E+02  0.7818608E-02  0.1130116E+00
         25   -1    0    0    0    0  0.00000000000E+00  0.00000000000E+00  0.99999998245E-14  0.12500000000E+03  0.12500000000E+03 0.  0.
        -11    1    3    3    0    0  0.34776335378E+02  0.10731885525E+02 -0.39359507733E+02  0.53607254346E+02  0.51100000000E-03 0. -1.
         23    2    1    0    0    0  0.11663485874E+02  0.25889523600E+02 -0.78132411935E+01  0.95549175344E+02  0.90897160769E+02 0.  0.
         11    1    3    3    0    0 -0.23112849503E+02  0.15157638075E+02  0.31546266540E+02  0.41941920998E+02  0.51100000000E-03 0.  1.
         22    1    1    0    0    0 -0.11663485874E+02 -0.25889523600E+02  0.78132411935E+01  0.29450824656E+02  0.00000000000E+00 0. -1.
</event>
<event>
 5    1  0.1099741E-009  0.9118800E+02  0.7818608E-02  0.1130116E+00
         25   -1    0    0    0    0  0.00000000000E+00  0.00000000000E+00  0.99999998245E-14  0.12500000000E+03  0.12500000000E+03 0.  0.
        -11    1    3    3    0    0 -0.41428337427E+02 -0.34967971261E+02 -0.22431541237E+02  0.58670607621E+02  0.51100000000E-03 0. -1.
         23    2    1    0    0    0 -0.22105232161E+02 -0.10367145183E+02  0.47669083655E+01  0.10012345676E+03  0.96983834686E+02 0.  0.
         11    1    3    3    0    0  0.19323105267E+02  0.24600826078E+02  0.27198449602E+02  0.41452849141E+02  0.51100000000E-03 0.  1.
         22    1    1    0    0    0  0.22105232161E+02  0.10367145183E+02 -0.47669083655E+01  0.24876543238E+02  0.00000000000E+00 0. -1.
</event>
<event>
 5    1  0.1099741E-009  0.9118800E+02  0.7818608E-02  0.1130116E+00
         25   -1    0    0    0    0  0.00000000000E+00  0.00000000000E+00  0.99999998245E-14  0.12500000000E+03  0.12500000000E+03 0.  0.
        -11    1    3    3    0    0  0.99118299414E+01 -0.52707765176E+02 -0.16380519169E+02  0.56077395545E+02  0.51100000000E-03 0. -1.
         23    2    1    0    0    0 -0.73889542819E+01 -0.27567166862E+02  0.82457725259E+01  0.95292457208E+02  0.90543438757E+02 0.  0.
         11    1    3    3    0    0 -0.17300784223E+02  0.25140598314E+02  0.24626291695E+02  0.39215061663E+02  0.51100000000E-03 0.  1.
         22    1    1    0    0    0  0.73889542819E+01  0.27567166862E+02 -0.82457725259E+01  0.29707542792E+02  0.00000000000E+00 0. -1.
</event>
<event>
 5    1  0.1099741E-009  0.9118800E+02  0.7818608E-02  0.1130116E+00
         25   -1    0    0    0    0  0.00000000000E+00  0.00000000000E+00  0.99999998245E-14  0.12500000000E+03  0.12500000000E+03 0.  0.
        -11    1    3    3    0    0 -0.34823315340E+02  0.29272969957E+02  0.34650017013E+02  0.57185607811E+02  0.51100000000E-03 0. -1.
         23    2    1    0    0    0 -0.13184555772E+02  0.29284881902E+02  0.72923783588E+01  0.92066497285E+02  0.85974556244E+02 0.  0.
         11    1    3    3    0    0  0.21638759568E+02  0.11911945169E-01 -0.27357638654E+02  0.34880889475E+02  0.51100000000E-03 0.  1.
         22    1    1    0    0    0  0.13184555772E+02 -0.29284881902E+02 -0.72923783588E+01  0.32933502715E+02  0.00000000000E+00 0. -1.
</event>
<event>
 5    1  0.1099741E-009  0.9118800E+02  0.7818608E-02  0.1130116E+00
         25   -1    0    0    0    0  0.00000000000E+00  0.00000000000E+00  0.99999998245E-14  0.12500000000E+03  0.12500000000E+03 0.  0.
        -11    1    3    3    0    0  0.29219946828E+02  0.14510396006E+02  0.28438091384E+02  0.43279116519E+02  0.51100000000E-03 0. -1.
         23    2    1    0    0    0  0.94189309414E+01  0.33416255292E+02 -0.84996520820E+01  0.89256378704E+02  0.81786885722E+02 0.  0.
         11    1    3    3    0    0 -0.19801015886E+02  0.18905859286E+02 -0.36937743466E+02  0.45977262185E+02  0.51100000000E-03 0.  1.
         22    1    1    0    0    0 -0.94189309414E+01 -0.33416255292E+02  0.84996520820E+01  0.35743621296E+02  0.00000000000E+00 0.  1.
</event>
<event>
 5    1  0.1099741E-009  0.9118800E+02  0.7818608E-02  0.1130116E+00
         25   -1    0    0    0    0  0.00000000000E+00  0.00000000000E+00  0.99999998245E-14  0.12500000000E+03  0.12500000000E+03 0.  0.
        -11    1    3    3    0    0  0.67349819855E+01  0.15544036812E+02  0.51437986135E+02  0.54155733589E+02  0.51100000000E-03 0. -1.
         23    2    1    0    0    0 -0.19207067917E+02  0.11165514353E+02  0.26667027824E+02  0.90291059628E+02  0.83353253728E+02 0.  0.
         11    1    3    3    0    0 -0.25942049903E+02 -0.43785224588E+01 -0.24770958310E+02  0.36135326039E+02  0.51100000000E-03 0.  1.
         22    1    1    0    0    0  0.19207067917E+02 -0.11165514353E+02 -0.26667027824E+02  0.34708940372E+02  0.00000000000E+00 0.  1.
</event>
<event>
 5    1  0.1099741E-009  0.9118800E+02  0.7818608E-02  0.1130116E+00
         25   -1    0    0    0    0  0.00000000000E+00  0.00000000000E+00  0.99999998245E-14  0.12500000000E+03  0.12500000000E+03 0.  0.
        -11    1    3    3    0    0  0.15821977063E+02 -0.37603455024E+02 -0.30142284647E+01  0.40907705404E+02  0.51100000000E-03 0.  1.
         23    2    1    0    0    0 -0.52186186734E+01  0.23168940467E+01  0.28490454931E+02  0.95943021474E+02  0.91437166232E+02 0.  0.
         11    1    3    3    0    0 -0.21040595737E+02  0.39920349071E+02  0.31504683395E+02  0.55035316070E+02  0.51100000000E-03 0. -1.
         22    1    1    0    0    0  0.52186186734E+01 -0.23168940467E+01 -0.28490454931E+02  0.29056978526E+02  0.00000000000E+00 0. -1.
</event>
<event>
 5    1  0.1099741E-009  0.9118800E+02  0.7818608E-02  0.1130116E+00
         25   -1    0    0    0    0  0.00000000000E+00  0.00000000000E+00  0.99999998245E-14  0.12500000000E+03  0.12500000000E+03 0.  0.
        -11    1    3    3    0    0  0.65782587780E+01 -0.28549732889E+02 -0.17733820079E+02  0.34246884697E+02  0.51100000000E-03 0. -1.
         23    2    1    0    0    0  0.10434725238E+02  0.23272759073E+02  0.14756639267E+02  0.95533693681E+02  0.90875868195E+02 0.  0.
         11    1    3    3    0    0  0.38564664603E+01  0.51822491961E+02  0.32490459346E+02  0.61286808984E+02  0.51100000000E-03 0.  1.
         22    1    1    0    0    0 -0.10434725238E+02 -0.23272759073E+02 -0.14756639267E+02  0.29466306319E+02  0.00000000000E+00 0.  1.
</event>
<event>
 5    1  0.1099741E-009  0.9118800E+02  0.7818608E-02  0.1130116E+00
         25   -1    0    0    0    0  0.00000000000E+00  0.00000000000E+00  0.99999998245E-14  0.12500000000E+03  0.12500000000E+03 0.  0.
        -11    1    3    3    0    0  0.71617590932E+01  0.31874252140E+02  0.16157360141E+02  0.36446111312E+02  0.51100000000E-03 0.  1.
         23    2    1    0    0    0  0.88406666506E+01 -0.26664144623E+02  0.93018316981E+01  0.95408479791E+02  0.90703472634E+02 0.  0.
         11    1    3    3    0    0  0.16789075574E+01 -0.58538396763E+02 -0.68555284426E+01  0.58962368479E+02  0.51100000000E-03 0. -1.
         22    1    1    0    0    0 -0.88406666506E+01  0.26664144623E+02 -0.93018316981E+01  0.29591520209E+02  0.00000000000E+00 0. -1.
</event>
<event>
 5    1  0.1099741E-009  0.9118800E+02  0.7818608E-02  0.1130116E+00
         25   -1    0    0    0    0  0.00000000000E+00  0.00000000000E+00  0.99999998245E-14  0.12500000000E+03  0.12500000000E+03 0.  0.
        -11    1    3    3    0    0 -0.95311445309E+01 -0.15301599340E+02 -0.55055450841E+02  0.57931721242E+02  0.51100000000E-03 0.  1.
         23    2    1    0    0    0 -0.13576084286E+02  0.70759075399E+01 -0.25993862564E+02  0.94832808831E+02  0.89906630499E+02 0.  0.
         11    1    3    3    0    0 -0.40449397555E+01  0.22377506880E+02  0.29061588278E+02  0.36901087589E+02  0.51100000000E-03 0. -1.
         22    1    1    0    0    0  0.13576084286E+02 -0.70759075399E+01  0.25993862564E+02  0.30167191169E+02  0.00000000000E+00 0.  1.
</event>
<event>
 5    1  0.1099741E-009  0.9118800E+02  0.7818608E-02  0.1130116E+00
         25   -1    0    0    0    0  0.00000000000E+00  0.00000000000E+00  0.99999998245E-14  0.12500000000E+03  0.12500000000E+03 0.  0.
        -11    1    3    3    0    0  0.63088908573E+01 -0.33371918152E+02 -0.30490051867E+02  0.45641322156E+02  0.51100000000E-03 0. -1.
         23    2    1    0    0    0 -0.24719056293E+02  0.28541334510E+01 -0.15693355516E+02  0.95581311567E+02  0.90941343137E+02 0.  0.
         11    1    3    3    0    0 -0.31027947151E+02  0.36226051603E+02  0.14796696351E+02  0.49939989411E+02  0.51100000000E-03 0.  1.
         22    1    1    0    0    0  0.24719056293E+02 -0.28541334510E+01  0.15693355516E+02  0.29418688433E+02  0.00000000000E+00 0. -1.
</event>
<event>
 5    1  0.1099741E-009  0.9118800E+02  0.7818608E-02  0.1130116E+00
         25   -1    0    0    0    0  0.00000000000E+00  0.00000000000E+00  0.99999998245E-14  0.12500000000E+03  0.12500000000E+03 0.  0.
        -11    1    3    3    0    0  0.96957217573E+01  0.33904255604E+02 -0.41543632576E+02  0.54492008371E+02  0.51100000000E-03 0.  1.
         23    2    1    0    0    0 -0.15525470511E+02  0.22507346861E+02 -0.11509626670E+02  0.95333648633E+02  0.90600287849E+02 0.  0.
         11    1    3    3    0    0 -0.25221192269E+02 -0.11396908743E+02  0.30034005905E+02  0.40841640262E+02  0.51100000000E-03 0. -1.
         22    1    1    0    0    0  0.15525470511E+02 -0.22507346861E+02  0.11509626670E+02  0.29666351367E+02  0.00000000000E+00 0.  1.
</event>
<event>
 5    1  0.1099741E-009  0.9118800E+02  0.7818608E-02  0.1130116E+00
         25   -1    0    0    0    0  0.00000000000E+00  0.00000000000E+00  0.99999998245E-14  0.12500000000E+03  0.12500000000E+03 0.  0.
        -11    1    3    3    0    0 -0.31598672256E+02 -0.26590094774E+02  0.49202961870E+01  0.41589885107E+02  0.51100000000E-03 0. -1.
         23    2    1    0    0    0  0.18391109961E+02 -0.22441094466E+02  0.14351156125E+02  0.92630394989E+02  0.86790545264E+02 0.  0.
         11    1    3    3    0    0  0.49989782217E+02  0.41490003074E+01  0.94308599375E+01  0.51040509882E+02  0.51100000000E-03 0.  1.
         22    1    1    0    0    0 -0.18391109961E+02  0.22441094466E+02 -0.14351156125E+02  0.32369605011E+02  0.00000000000E+00 0.  1.
</event>
<event>
 5    1  0.1099741E-009  0.9118800E+02  0.7818608E-02  0.1130116E+00
         25   -1    0    0    0    0  0.00000000000E+00  0.00000000000E+00  0.99999998245E-14  0.12500000000E+03  0.12500000000E+03 0.  0.
        -11    1    3    3    0    0  0.73565442185E+01  0.45835034568E+02 -0.40546025963E+02  0.61635617612E+02  0.51100000000E-03 0. -1.
         23    2    1    0    0    0  0.41862567714E+01  0.26359271482E+02 -0.13568264230E+02  0.95059496780E+02  0.90221251349E+02 0.  0.
         11    1    3    3    0    0 -0.31702874470E+01 -0.19475763086E+02  0.26977761733E+02  0.33423879168E+02  0.51100000000E-03 0.  1.
         22    1    1    0    0    0 -0.41862567714E+01 -0.26359271482E+02  0.13568264230E+02  0.29940503220E+02  0.00000000000E+00 0. -1.
</event>
<event>
 5    1  0.1099741E-009  0.9118800E+02  0.7818608E-02  0.1130116E+00
         25   -1    0    0    0    0  0.00000000000E+00  0.00000000000E+00  0.99999998245E-14  0.12500000000E+03  0.12500000000E+03 0.  0.
        -11    1    3    3    0    0  0.36034210090E+02  0.39053346754E+02  0.74297371410E+00  0.53143016472E+02  0.51100000000E-03 0.  1.
         23    2    1    0    0    0  0.72706657538E+01  0.38354150766E+02 -0.11339721820E+02  0.84349135895E+02  0.73907266042E+02 0.  0.
         11    1    3    3    0    0 -0.28763544337E+02 -0.69919598776E+00 -0.12082695535E+02  0.31206119423E+02  0.51100000000E-03 0. -1.
         22    1    1    0    0    0 -0.72706657538E+01 -0.38354150766E+02  0.11339721820E+02  0.40650864105E+02  0.00000000000E+00 0.  1.
</event>
<event>
 5    1  0.1099741E-009  0.9118800E+02  0.7818608E-02  0.1130116E+00
         25   -1    0    0    0    0  0.00000000000E+00  0.00000000000E+00  0.99999998245E-14  0.12500000000E+03  0.12500000000E+03 0.  0.
        -11    1    3    3    0    0  0.62323771897E+01  0.35143772933E+02 -0.17522569381E+02  0.39761385028E+02  0.51100000000E-03 0.  1.
         23    2    1    0    0    0 -0.22095988365E+02 -0.14114171426E+02 -0.93221004117E+01  0.97172961117E+02  0.93103384897E+02 0.  0.
         11    1    3    3    0    0 -0.28328365555E+02 -0.49257944359E+02  0.82004689697E+01  0.57411576089E+02  0.51100000000E-03 0. -1.
         22    1    1    0    0    0  0.22095988365E+02  0.14114171426E+02  0.93221004117E+01  0.27827038883E+02  0.00000000000E+00 0.  1.
</event>
<event>
 5    1  0.1099741E-009  0.9118800E+02  0.7818608E-02  0.1130116E+00
         25   -1    0    0    0    0  0.00000000000E+00  0.00000000000E+00  0.99999998245E-14  0.12500000000E+03  0.12500000000E+03 0.  0.
        -11    1    3    3    0    0 -0.26427801373E+02 -0.43612346279E+01 -0.51928381912E+02  0.58429495130E+02  0.51100000000E-03 0.  1.
         23    2    1    0    0    0 -0.21213091421E+01 -0.14816476031E+02 -0.22174913975E+02  0.98246407264E+02  0.94533601518E+02 0.  0.
         11    1    3    3    0    0  0.24306492231E+02 -0.10455241403E+02  0.29753467937E+02  0.39816912134E+02  0.51100000000E-03 0. -1.
         22    1    1    0    0    0  0.21213091421E+01  0.14816476031E+02  0.22174913975E+02  0.26753592736E+02  0.00000000000E+00 0.  1.
</event>
<event>
 5    1  0.1099741E-009  0.9118800E+02  0.7818608E-02  0.1130116E+00
         25   -1    0    0    0    0  0.00000000000E+00  0.00000000000E+00  0.99999998245E-14  0.12500000000E+03  0.12500000000E+03 0.  0.
        -11    1    3    3    0    0  0.30562123865E+02 -0.34464306791E+01  0.13426236989E+02  0.33558682029E+02  0.51100000000E-03 0.  1.
         23    2    1    0    0    0 -0.28725930723E+02  0.43188522152E+01 -0.35976155982E+01  0.95729290779E+02  0.91144515439E+02 0.  0.
         11    1    3    3    0    0 -0.59288054587E+02  0.77652828943E+01 -0.17023852588E+02  0.62170608750E+02  0.51100000000E-03 0. -1.
         22    1    1    0    0    0  0.28725930723E+02 -0.43188522152E+01  0.35976155982E+01  0.29270709221E+02  0.00000000000E+00 0. -1.
</event>
<event>
 5    1  0.1099741E-009  0.9118800E+02  0.7818608E-02  0.1130116E+00
         25   -1    0    0    0    0  0.00000000000E+00  0.00000000000E+00  0.99999998245E-14  0.12500000000E+03  0.12500000000E+03 0.  0.
        -11    1    3    3    0    0  0.42670131384E+02  0.44351488170E+02 -0.53920736045E+01  0.61780814767E+02  0.51100000000E-03 0.  1.
         23    2    1    0    0    0  0.15117846695E+02  0.24837954145E+02 -0.46649659871E+01  0.95551143274E+02  0.90899866989E+02 0.  0.
         11    1    3    3    0    0 -0.27552284689E+02 -0.19513534025E+02  0.72710761740E+00  0.33770328507E+02  0.51100000000E-03 0. -1.
         22    1    1    0    0    0 -0.15117846695E+02 -0.24837954145E+02  0.46649659871E+01  0.29448856726E+02  0.00000000000E+00 0.  1.
</event>
<event>
 5    1  0.1099741E-009  0.9118800E+02  0.7818608E-02  0.1130116E+00
         25   -1    0    0    0    0  0.00000000000E+00  0.00000000000E+00  0.99999998245E-14  0.12500000000E+03  0.12500000000E+03 0.  0.
        -11    1    3    3    0    0  0.88879643056E+01  0.27674921759E+01 -0.59055347975E+02  0.59784521802E+02  0.51100000000E-03 0. -1.
         23    2    1    0    0    0  0.54108582160E+01 -0.11570338747E+02 -0.30711979693E+02  0.91737771842E+02  0.85495280340E+02 0.  0.
         11    1    3    3    0    0 -0.34771060896E+01 -0.14337830923E+02  0.28343368281E+02  0.31953250040E+02  0.51100000000E-03 0.  1.
         22    1    1    0    0    0 -0.54108582160E+01  0.11570338747E+02  0.30711979693E+02  0.33262228158E+02  0.00000000000E+00 0. -1.
</event>
<event>
 5    1  0.1099741E-009  0.9118800E+02  0.7818608E-02  0.1130116E+00
         25   -1    0    0    0    0  0.00000000000E+00  0.00000000000E+00  0.99999998245E-14  0.12500000000E+03  0.12500000000E+03 0.  0.
        -11    1    3    3    0    0  0.45871453119E+02  0.85335945578E+01  0.35358678751E+02  0.58542707579E+02  0.51100000000E-03 0.  1.
         23    2    1    0    0    0  0.20190520379E+02  0.18479751309E+02  0.10366945627E+02  0.95731725653E+02  0.91147854683E+02 0.  0.
         11    1    3    3    0    0 -0.25680932740E+02  0.99461567510E+01 -0.24991733125E+02  0.37189018074E+02  0.51100000000E-03 0. -1.
         22    1    1    0    0    0 -0.20190520379E+02 -0.18479751309E+02 -0.10366945627E+02  0.29268274347E+02  0.00000000000E+00 0.  1.
</event>
<event>
 5    1  0.1099741E-009  0.9118800E+02  0.7818608E-02  0.1130116E+00
         25   -1    0    0    0    0  0.00000000000E+00  0.00000000000E+00  0.99999998245E-14  0.12500000000E+03  0.12500000000E+03 0.  0.
        -11    1    3    3    0    0  0.11661058371E+02 -0.12366939906E+02  0.23589052916E+02  0.29075159547E+02  0.51100000000E-03 0.  1.
         23    2    1    0    0    0 -0.49604609110E+01  0.37796504177E+02  0.16599280203E+00  0.86879015568E+02  0.78068904770E+02 0.  0.
         11    1    3    3    0    0 -0.16621519282E+02  0.50163444083E+02 -0.23423060114E+02  0.57803856021E+02  0.51100000000E-03 0. -1.
         22    1    1    0    0    0  0.49604609110E+01 -0.37796504177E+02 -0.16599280203E+00  0.38120984432E+02  0.00000000000E+00 0. -1.
</event>
<event>
 5    1  0.1099741E-009  0.9118800E+02  0.7818608E-02  0.1130116E+00
         25   -1    0    0    0    0  0.00000000000E+00  0.00000000000E+00  0.99999998245E-14  0.12500000000E+03  0.12500000000E+03 0.  0.
        -11    1    3    3    0    0 -0.20015642251E+02 -0.30203849250E+02  0.23133213360E+02  0.42988882340E+02  0.51100000000E-03 0. -1.
         23    2    1    0    0    0  0.23094860838E+02 -0.15641247207E+02 -0.52474423832E+01  0.96617666360E+02  0.92354840641E+02 0.  0.
         11    1    3    3    0    0  0.43110503088E+02  0.14562602043E+02 -0.28380655743E+02  0.53628784020E+02  0.51100000000E-03 0.  1.
         22    1    1    0    0    0 -0.23094860838E+02  0.15641247207E+02  0.52474423832E+01  0.28382333640E+02  0.00000000000E+00 0.  1.
</event>
<event>
 5    1  0.1099741E-009  0.9118800E+02  0.7818608E-02  0.1130116E+00
         25   -1    0    0    0    0  0.00000000000E+00  0.00000000000E+00  0.99999998245E-14  0.12500000000E+03  0.12500000000E+03 0.  0.
        -11    1    3    3    0    0 -0.57588219551E+01  0.38931778797E+02 -0.98851647965E+01  0.40577874685E+02  0.51100000000E-03 0. -1.
         23    2    1    0    0    0 -0.15998639581E+02 -0.11712806510E+01  0.25394501636E+02  0.94963204563E+02  0.90087741345E+02 0.  0.
         11    1    3    3    0    0 -0.10239817626E+02 -0.40103059448E+02  0.35279666432E+02  0.54385329878E+02  0.51100000000E-03 0.  1.
         22    1    1    0    0    0  0.15998639581E+02  0.11712806510E+01 -0.25394501636E+02  0.30036795437E+02  0.00000000000E+00 0.  1.
</event>
<event>
 5    1  0.1099741E-009  0.9118800E+02  0.7818608E-02  0.1130116E+00
         25   -1    0    0    0    0  0.00000000000E+00  0.00000000000E+00  0.99999998245E-14  0.12500000000E+03  0.12500000000E+03 0.  0.
        -11    1    3    3    0    0 -0.42323187569E+02  0.40236423117E+02  0.64703861040E+01  0.58754470876E+02  0.51100000000E-03 0.  1.
         23    2    1    0    0    0 -0.98106096837E+01  0.21449508816E+02  0.14715708755E+02  0.97199252259E+02  0.93138676524E+02 0.  0.
         11    1    3    3    0    0  0.32512577885E+02 -0.18786914301E+02  0.82453226510E+01  0.38444781383E+02  0.51100000000E-03 0. -1.
         22    1    1    0    0    0  0.98106096837E+01 -0.21449508816E+02 -0.14715708755E+02  0.27800747741E+02  0.00000000000E+00 0.  1.
</event>
<event>
 5    1  0.1099741E-009  0.9118800E+02  0.7818608E-02  0.1130116E+00
         25   -1    0    0    0    0  0.00000000000E+00  0.00000000000E+00  0.99999998245E-14  0.12500000000E+03  0.12500000000E+03 0.  0.
        -11    1    3    3    0    0  0.38881216812E+02  0.10474506177E+02 -0.42330775593E+02  0.58423957954E+02  0.51100000000E-03 0. -1.
         23    2    1    0    0    0  0.27063289330E+02 -0.24903984819E+01 -0.85144475442E+01  0.96519839696E+02  0.92222339615E+02 0.  0.
         11    1    3    3    0    0 -0.11817927482E+02 -0.12964904659E+02  0.33816328049E+02  0.38095881743E+02  0.51100000000E-03 0.  1.
         22    1    1    0    0    0 -0.27063289330E+02  0.24903984819E+01  0.85144475442E+01  0.28480160304E+02  0.00000000000E+00 0. -1.
</event>
<event>
 5    1  0.1099741E-009  0.9118800E+02  0.7818608E-02  0.1130116E+00
         25   -1    0    0    0    0  0.00000000000E+00  0.00000000000E+00  0.99999998245E-14  0.12500000000E+03  0.12500000000E+03 0.  0.
        -11    1    3    3    0    0 -0.14975745058E+02  0.24160220740E+02  0.30837044912E+02  0.41939391333E+02  0.51100000000E-03 0. -1.
         23    2    1    0    0    0  0.18987198076E+02 -0.15562380463E+02  0.13381834444E+02  0.97039762706E+02  0.92924381496E+02 0.  0.
         11    1    3    3    0    0  0.33962943135E+02 -0.39722601203E+02 -0.17455210467E+02  0.55100371373E+02  0.51100000000E-03 0.  1.
         22    1    1    0    0    0 -0.18987198076E+02  0.15562380463E+02 -0.13381834444E+02  0.27960237294E+02  0.00000000000E+00 0.  1.
</event>
<event>
 5    1  0.1099741E-009  0.9118800E+02  0.7818608E-02  0.1130116E+00
         25   -1    0    0    0    0  0.00000000000E+00  0.00000000000E+00  0.99999998245E-14  0.12500000000E+03  0.12500000000E+03 0.  0.
        -11    1    3    3    0    0 -0.26665749823E+02 -0.43050140863E+02 -0.16198409198E+02  0.53167333042E+02  0.51100000000E-03 0. -1.
         23    2    1    0    0    0 -0.27291269834E+02 -0.57497790749E+00 -0.90312522778E+01  0.96247477911E+02  0.91852433162E+02 0.  0.
         11    1    3    3    0    0 -0.62552001074E+00  0.42475162956E+02  0.71671569198E+01  0.43080144870E+02  0.51100000000E-03 0.  1.
         22    1    1    0    0    0  0.27291269834E+02  0.57497790749E+00  0.90312522778E+01  0.28752522089E+02  0.00000000000E+00 0.  1.
</event>
<event>
 5    1  0.1099741E-009  0.9118800E+02  0.7818608E-02  0.1130116E+00
         25   -1    0    0    0    0  0.00000000000E+00  0.00000000000E+00  0.99999998245E-14  0.12500000000E+03  0.12500000000E+03 0.  0.
        -11    1    3    3    0    0 -0.66783861025E+01  0.12765211250E+02  0.28647467101E+02  0.32066007403E+02  0.51100000000E-03 0.  1.
         23    2    1    0    0    0  0.26187890519E+02 -0.44340186559E+01 -0.18921675669E+02  0.92388714508E+02  0.86441764368E+02 0.  0.
         11    1    3    3    0    0  0.32866276622E+02 -0.17199229906E+02 -0.47569142770E+02  0.60322707105E+02  0.51100000000E-03 0. -1.
         22    1    1    0    0    0 -0.26187890519E+02  0.44340186559E+01  0.18921675669E+02  0.32611285492E+02  0.00000000000E+00 0. -1.
</event>
<event>
 5    1  0.1099741E-009  0.9118800E+02  0.7818608E-02  0.1130116E+00
         25   -1    0    0    0    0  0.00000000000E+00  0.00000000000E+00  0.99999998245E-14  0.12500000000E+03  0.12500000000E+03 0.  0.
        -11    1    3    3    0    0 -0.38159343355E+01  0.32280678291E+02  0.32828105076E+02  0.46198355262E+02  0.51100000000E-03 0.  1.
         23    2    1    0    0    0 -0.19043673099E+02  0.89994559024E+01 -0.13316919894E+02  0.10008028798E+03  0.96928179573E+02 0.  0.
         11    1    3    3    0    0 -0.15227738763E+02 -0.23281222388E+02 -0.46145024970E+02  0.53881932719E+02  0.51100000000E-03 0. -1.
         22    1    1    0    0    0  0.19043673099E+02 -0.89994559024E+01  0.13316919894E+02  0.24919712019E+02  0.00000000000E+00 0. -1.
</event>
<event>
 5    1  0.1099741E-009  0.9118800E+02  0.7818608E-02  0.1130116E+00
         25   -1    0    0    0    0  0.00000000000E+00  0.00000000000E+00  0.99999998245E-14  0.12500000000E+03  0.12500000000E+03 0.  0.
        -11    1    3    3    0    0  0.20158371526E+02  0.33681777709E+02 -0.33439375498E+02  0.51565627371E+02  0.51100000000E-03 0.  1.
         23    2    1    0    0    0 -0.93807135334E+01  0.11262847461E+01 -0.27497430776E+02  0.95924666760E+02  0.91412070811E+02 0.  0.
         11    1    3    3    0    0 -0.29539085059E+02 -0.32555492963E+02  0.59419447219E+01  0.44359039389E+02  0.51100000000E-03 0. -1.
         22    1    1    0    0    0  0.93807135334E+01 -0.11262847461E+01  0.27497430776E+02  0.29075333240E+02  0.00000000000E+00 0. -1.
</event>
<event>
 5    1  0.1099741E-009  0.9118800E+02  0.7818608E-02  0.1130116E+00
         25   -1    0    0    0    0  0.00000000000E+00  0.00000000000E+00  0.99999998245E-14  0.12500000000E+03  0.12500000000E+03 0.  0.
        -11    1    3    3    0    0  0.17530249378E+02 -0.28495512846E+02  0.19332820033E+02  0.38640158207E+02  0.51100000000E-03 0.  1.
         23    2    1    0    0    0 -0.29235738961E+02 -0.13158363792E+01  0.11250716244E+01  0.95713046521E+02  0.91122234554E+02 0.  0.
         11    1    3    3    0    0 -0.46765988338E+02  0.27179676467E+02 -0.18207748408E+02  0.57072888314E+02  0.51100000000E-03 0. -1.
         22    1    1    0    0    0  0.29235738961E+02  0.13158363792E+01 -0.11250716244E+01  0.29286953479E+02  0.00000000000E+00 0. -1.
</event>
<event>
 5    1  0.1099741E-009  0.9118800E+02  0.7818608E-02  0.1130116E+00
         25   -1    0    0    0    0  0.00000000000E+00  0.00000000000E+00  0.99999998245E-14  0.12500000000E+03  0.12500000000E+03 0.  0.
        -11    1    3    3    0    0 -0.12154552449E+02 -0.25505715135E+02 -0.27295270788E+02  0.39284939321E+02  0.51100000000E-03 0.  1.
         23    2    1    0    0    0 -0.40017606726E+02 -0.90279661538E+01  0.33232173618E+01  0.83842293619E+02  0.73045009444E+02 0.  0.
         11    1    3    3    0    0 -0.27863054277E+02  0.16477748982E+02  0.30618488150E+02  0.44557354297E+02  0.51100000000E-03 0. -1.
         22    1    1    0    0    0  0.40017606726E+02  0.90279661538E+01 -0.33232173618E+01  0.41157706381E+02  0.00000000000E+00 0. -1.
</event>
<event>
 5    1  0.1099741E-009  0.9118800E+02  0.7818608E-02  0.1130116E+00
         25   -1    0    0    0    0  0.00000000000E+00  0.00000000000E+00  0.99999998245E-14  0.12500000000E+03  0.12500000000E+03 0.  0.
        -11    1    3    3    0    0 -0.22073490984E+02 -0.35696003771E+02 -0.92831814937E+01  0.42983963851E+02  0.51100000000E-03 0.  1.
         23    2    1    0    0    0 -0.15613969942E+02  0.18587519033E+02 -0.12403469885E+02  0.97739442663E+02  0.93860858007E+02 0.  0.
         11    1    3    3    0    0  0.64595210420E+01  0.54283522804E+02 -0.31202883911E+01  0.54755478812E+02  0.51100000000E-03 0. -1.
         22    1    1    0    0    0  0.15613969942E+02 -0.18587519033E+02  0.12403469885E+02  0.27260557337E+02  0.00000000000E+00 0. -1.
</event>
<event>
 5    1  0.1099741E-009  0.9118800E+02  0.7818608E-02  0.1130116E+00
         25   -1    0    0    0    0  0.00000000000E+00  0.00000000000E+00  0.99999998245E-14  0.12500000000E+03  0.12500000000E+03 0.  0.
        -11    1    3    3    0    0  0.20570478741E+00 -0.40909519387E+01  0.37849848272E+02  0.38070844707E+02  0.51100000000E-03 0.  1.
         23    2    1    0    0    0  0.25809819755E+02 -0.81662575426E+01 -0.12864341945E+02  0.95027915459E+02  0.90177485355E+02 0.  0.
         11    1    3    3    0    0  0.25604114967E+02 -0.40753056039E+01 -0.50714190217E+02  0.56957070752E+02  0.51100000000E-03 0. -1.
         22    1    1    0    0    0 -0.25809819755E+02  0.81662575426E+01  0.12864341945E+02  0.29972084541E+02  0.00000000000E+00 0. -1.
</event>
<event>
 5    1  0.1099741E-009  0.9118800E+02  0.7818608E-02  0.1130116E+00
         25   -1    0    0    0    0  0.00000000000E+00  0.00000000000E+00  0.99999998245E-14  0.12500000000E+03  0.12500000000E+03 0.  0.
        -11    1    3    3    0    0  0.85387937921E+01 -0.14294026199E+02  0.31141977593E+02  0.35313636928E+02  0.51100000000E-03 0. -1.
         23    2    1    0    0    0  0.12187498427E+02  0.13405296479E+01 -0.26847904867E+02  0.95484882968E+02  0.90808704110E+02 0.  0.
         11    1    3    3    0    0  0.36487046349E+01  0.15634555847E+02 -0.57989882460E+02  0.60171246040E+02  0.51100000000E-03 0.  1.
         22    1    1    0    0    0 -0.12187498427E+02 -0.13405296479E+01  0.26847904867E+02  0.29515117032E+02  0.00000000000E+00 0.  1.
</event>
<event>
 5    1  0.1099741E-009  0.9118800E+02  0.7818608E-02  0.1130116E+00
         25   -1    0    0    0    0  0.00000000000E+00  0.00000000000E+00  0.99999998245E-14  0.12500000000E+03  0.12500000000E+03 0.  0.
        -11    1    3    3    0    0  0.26234407505E+02 -0.22375828225E+02  0.25651393894E+01  0.34576028781E+02  0.51100000000E-03 0.  1.
         23    2    1    0    0    0 -0.15935794289E+02  0.19284966929E+02 -0.14270338231E+02  0.96198922897E+02  0.91786331903E+02 0.  0.
         11    1    3    3    0    0 -0.42170201794E+02  0.41660795154E+02 -0.16835477621E+02  0.61622894116E+02  0.51100000000E-03 0. -1.
         22    1    1    0    0    0  0.15935794289E+02 -0.19284966929E+02  0.14270338231E+02  0.28801077103E+02  0.00000000000E+00 0. -1.
</event>
<event>
 5    1  0.1099741E-009  0.9118800E+02  0.7818608E-02  0.1130116E+00
         25   -1    0    0    0    0  0.00000000000E+00  0.00000000000E+00  0.99999998245E-14  0.12500000000E+03  0.12500000000E+03 0.  0.
        -11    1    3    3    0    0  0.10965247425E+02  0.25447788766E+02  0.14668193738E+02  0.31352551921E+02  0.51100000000E-03 0.  1.
         23    2    1    0    0    0 -0.12975575165E+01 -0.19899041975E+02 -0.25129174451E+02  0.92919929308E+02  0.87206549794E+02 0.  0.
         11    1    3    3    0    0 -0.12262804941E+02 -0.45346830741E+02 -0.39797368189E+02  0.61567377387E+02  0.51100000000E-03 0. -1.
         22    1    1    0    0    0  0.12975575165E+01  0.19899041975E+02  0.25129174451E+02  0.32080070692E+02  0.00000000000E+00 0. -1.
</event>
<event>
 5    1  0.1099741E-009  0.9118800E+02  0.7818608E-02  0.1130116E+00
         25   -1    0    0    0    0  0.00000000000E+00  0.00000000000E+00  0.99999998245E-14  0.12500000000E+03  0.12500000000E+03 0.  0.
        -11    1    3    3    0    0  0.57799474649E+01  0.46521125867E+02  0.30506205864E+02  0.55930774545E+02  0.51100000000E-03 0.  1.
         23    2    1    0    0    0 -0.78315046886E+01  0.28835695031E+02 -0.16520645634E+01  0.95074106682E+02  0.90241490847E+02 0.  0.
         11    1    3    3    0    0 -0.13611452154E+02 -0.17685430837E+02 -0.32158270428E+02  0.39143332137E+02  0.51100000000E-03 0. -1.
         22    1    1    0    0    0  0.78315046886E+01 -0.28835695031E+02  0.16520645634E+01  0.29925893318E+02  0.00000000000E+00 0.  1.
</event>
<event>
 5    1  0.1099741E-009  0.9118800E+02  0.7818608E-02  0.1130116E+00
         25   -1    0    0    0    0  0.00000000000E+00  0.00000000000E+00  0.99999998245E-14  0.12500000000E+03  0.12500000000E+03 0.  0.
        -11    1    3    3    0    0  0.40705152680E+02  0.74893552854E+01 -0.30508016217E+02  0.51417302060E+02  0.51100000000E-03 0. -1.
         23    2    1    0    0    0 -0.15889723622E+01  0.17633702798E+02 -0.23663254470E+02  0.95446287549E+02  0.90755561192E+02 0.  0.
         11    1    3    3    0    0 -0.42294125043E+02  0.10144347512E+02  0.68447617474E+01  0.44028985489E+02  0.51100000000E-03 0.  1.
         22    1    1    0    0    0  0.15889723622E+01 -0.17633702798E+02  0.23663254470E+02  0.29553712451E+02  0.00000000000E+00 0. -1.
</event>
<event>
 5    1  0.1099741E-009  0.9118800E+02  0.7818608E-02  0.1130116E+00
         25   -1    0    0    0    0  0.00000000000E+00  0.00000000000E+00  0.99999998245E-14  0.12500000000E+03  0.12500000000E+03 0.  0.
        -11    1    3    3    0    0 -0.21130386768E+02 -0.27008556682E+02  0.48458753356E+02  0.59365024687E+02  0.51100000000E-03 0. -1.
         23    2    1    0    0    0 -0.21845415068E+02 -0.91825768916E+01  0.15987927315E+02  0.96414064687E+02  0.92078858441E+02 0.  0.
         11    1    3    3    0    0 -0.71502830058E+00  0.17825979790E+02 -0.32470826040E+02  0.37049040001E+02  0.51100000000E-03 0.  1.
         22    1    1    0    0    0  0.21845415068E+02  0.91825768916E+01 -0.15987927315E+02  0.28585935313E+02  0.00000000000E+00 0. -1.
</event>
<event>
 5    1  0.1099741E-009  0.9118800E+02  0.7818608E-02  0.1130116E+00
         25   -1    0    0    0    0  0.00000000000E+00  0.00000000000E+00  0.99999998245E-14  0.12500000000E+03  0.12500000000E+03 0.  0.
        -11    1    3    3    0    0 -0.67419687714E+00  0.56429992696E+02 -0.17207126922E+02  0.58999015537E+02  0.51100000000E-03 0.  1.
         23    2    1    0    0    0 -0.71875524678E+01  0.15447778352E+02 -0.17608974712E+02  0.10049753570E+03  0.97464782995E+02 0.  0.
         11    1    3    3    0    0 -0.65133555907E+01 -0.40982214344E+02 -0.40184778990E+00  0.41498520160E+02  0.51100000000E-03 0. -1.
         22    1    1    0    0    0  0.71875524678E+01 -0.15447778352E+02  0.17608974712E+02  0.24502464303E+02  0.00000000000E+00 0.  1.
</event>
<event>
 5    1  0.1099741E-009  0.9118800E+02  0.7818608E-02  0.1130116E+00
         25   -1    0    0    0    0  0.00000000000E+00  0.00000000000E+00  0.99999998245E-14  0.12500000000E+03  0.12500000000E+03 0.  0.
        -11    1    3    3    0    0  0.98982830422E+01  0.47622137952E+02  0.19197086389E+02  0.52291224468E+02  0.51100000000E-03 0.  1.
         23    2    1    0    0    0 -0.19489425352E+02  0.14189881816E+02  0.14041005904E+02  0.97101249253E+02  0.93007055180E+02 0.  0.
         11    1    3    3    0    0 -0.29387708394E+02 -0.33432256136E+02 -0.51560804853E+01  0.44810024785E+02  0.51100000000E-03 0. -1.
         22    1    1    0    0    0  0.19489425352E+02 -0.14189881816E+02 -0.14041005904E+02  0.27898750747E+02  0.00000000000E+00 0.  1.
</event>
<event>
 5    1  0.1099741E-009  0.9118800E+02  0.7818608E-02  0.1130116E+00
         25   -1    0    0    0    0  0.00000000000E+00  0.00000000000E+00  0.99999998245E-14  0.12500000000E+03  0.12500000000E+03 0.  0.
        -11    1    3    3    0    0  0.12346681560E+02  0.56662001538E+02 -0.10863262157E+02  0.59000283294E+02  0.51100000000E-03 0. -1.
         23    2    1    0    0    0 -0.72480819287E+01  0.24831464489E+02 -0.12194004888E+02  0.96402271497E+02  0.92062847415E+02 0.  0.
         11    1    3    3    0    0 -0.19594763489E+02 -0.31830537049E+02 -0.13307427316E+01  0.37401988203E+02  0.51100000000E-03 0.  1.
         22    1    1    0    0    0  0.72480819287E+01 -0.24831464489E+02  0.12194004888E+02  0.28597728503E+02  0.00000000000E+00 0. -1.
</event>
<event>
 5    1  0.1099741E-009  0.9118800E+02  0.7818608E-02  0.1130116E+00
         25   -1    0    0    0    0  0.00000000000E+00  0.00000000000E+00  0.99999998245E-14  0.12500000000E+03  0.12500000000E+03 0.  0.
        -11    1    3    3    0    0  0.28147229531E+02 -0.26107094550E+02  0.55752212993E+01  0.38793427394E+02  0.51100000000E-03 0. -1.
         23    2    1    0    0    0 -0.22431614049E+02 -0.70751500700E+01 -0.15535590137E+02  0.96811533950E+02  0.92616863948E+02 0.  0.
         11    1    3    3    0    0 -0.50578843580E+02  0.19031944480E+02 -0.21110811437E+02  0.58018106556E+02  0.51100000000E-03 0.  1.
         22    1    1    0    0    0  0.22431614049E+02  0.70751500700E+01  0.15535590137E+02  0.28188466050E+02  0.00000000000E+00 0.  1.
</event>
<event>
 5    1  0.1099741E-009  0.9118800E+02  0.7818608E-02  0.1130116E+00
         25   -1    0    0    0    0  0.00000000000E+00  0.00000000000E+00  0.99999998245E-14  0.12500000000E+03  0.12500000000E+03 0.  0.
        -11    1    3    3    0    0  0.47341500454E+02 -0.15203868823E+02  0.23294733695E+02  0.54909196958E+02  0.51100000000E-03 0. -1.
         23    2    1    0    0    0  0.31694713115E+02  0.37559006713E+01 -0.53308441841E+01  0.92641391733E+02  0.86806381869E+02 0.  0.
         11    1    3    3    0    0 -0.15646787339E+02  0.18959769494E+02 -0.28625577879E+02  0.37732194774E+02  0.51100000000E-03 0.  1.
         22    1    1    0    0    0 -0.31694713115E+02 -0.37559006713E+01  0.53308441841E+01  0.32358608267E+02  0.00000000000E+00 0. -1.
</event>
<event>
 5    1  0.1099741E-009  0.9118800E+02  0.7818608E-02  0.1130116E+00
         25   -1    0    0    0    0  0.00000000000E+00  0.00000000000E+00  0.99999998245E-14  0.12500000000E+03  0.12500000000E+03 0.  0.
        -11    1    3    3    0    0 -0.17921862996E+01  0.52952479816E+02  0.67762034359E+01  0.53414361212E+02  0.51100000000E-03 0.  1.
         23    2    1    0    0    0  0.21057345784E+02  0.19861519233E+02 -0.56573040823E+01  0.95505986248E+02  0.90837748552E+02 0.  0.
         11    1    3    3    0    0  0.22849532084E+02 -0.33090960583E+02 -0.12433507518E+02  0.42091625036E+02  0.51100000000E-03 0. -1.
         22    1    1    0    0    0 -0.21057345784E+02 -0.19861519233E+02  0.56573040823E+01  0.29494013752E+02  0.00000000000E+00 0.  1.
</event>
<event>
 5    1  0.1099741E-009  0.9118800E+02  0.7818608E-02  0.1130116E+00
         25   -1    0    0    0    0  0.00000000000E+00  0.00000000000E+00  0.99999998245E-14  0.12500000000E+03  0.12500000000E+03 0.  0.
        -11    1    3    3    0    0 -0.42974652212E+02  0.19816825073E+01 -0.11219692953E+02  0.44459299460E+02  0.51100000000E-03 0.  1.
         23    2    1    0    0    0 -0.23376190673E+01  0.27487374166E+02  0.82027448718E+01  0.96219707700E+02  0.91814633501E+02 0.  0.
         11    1    3    3    0    0  0.40637033144E+02  0.25505691659E+02  0.19422437825E+02  0.51760408239E+02  0.51100000000E-03 0. -1.
         22    1    1    0    0    0  0.23376190673E+01 -0.27487374166E+02 -0.82027448718E+01  0.28780292300E+02  0.00000000000E+00 0. -1.
</event>
<event>
 5    1  0.1099741E-009  0.9118800E+02  0.7818608E-02  0.1130116E+00
         25   -1    0    0    0    0  0.00000000000E+00  0.00000000000E+00  0.99999998245E-14  0.12500000000E+03  0.12500000000E+03 0.  0.
        -11    1    3    3    0    0  0.39142352958E+02  0.22225964143E+01 -0.37943131684E+02  0.54559554362E+02  0.51100000000E-03 0.  1.
         23    2    1    0    0    0  0.38078883693E+01 -0.14845567951E+02 -0.24617886880E+02  0.96001185265E+02  0.91516645023E+02 0.  0.
         11    1    3    3    0    0 -0.35334464589E+02 -0.17068164365E+02  0.13325244804E+02  0.41441630903E+02  0.51100000000E-03 0. -1.
         22    1    1    0    0    0 -0.38078883693E+01  0.14845567951E+02  0.24617886880E+02  0.28998814735E+02  0.00000000000E+00 0.  1.
</event>
<event>
 5    1  0.1099741E-009  0.9118800E+02  0.7818608E-02  0.1130116E+00
         25   -1    0    0    0    0  0.00000000000E+00  0.00000000000E+00  0.99999998245E-14  0.12500000000E+03  0.12500000000E+03 0.  0.
        -11    1    3    3    0    0  0.60808211201E+01 -0.12883311288E+02 -0.29126619757E+02  0.32424004595E+02  0.51100000000E-03 0. -1.
         23    2    1    0    0    0 -0.42327095826E+01  0.12327974786E+02  0.27115019697E+02  0.94914802877E+02  0.90020557204E+02 0.  0.
         11    1    3    3    0    0 -0.10313530703E+02  0.25211286074E+02  0.56241639455E+02  0.62490798282E+02  0.51100000000E-03 0.  1.
         22    1    1    0    0    0  0.42327095826E+01 -0.12327974786E+02 -0.27115019697E+02  0.30085197123E+02  0.00000000000E+00 0.  1.
</event>
<event>
 5    1  0.1099741E-009  0.9118800E+02  0.7818608E-02  0.1130116E+00
         25   -1    0    0    0    0  0.00000000000E+00  0.00000000000E+00  0.99999998245E-14  0.12500000000E+03  0.12500000000E+03 0.  0.
        -11    1    3    3    0    0  0.33470126151E+01  0.32487239496E+02  0.22391278145E+02  0.39597885812E+02  0.51100000000E-03 0.  1.
         23    2    1    0    0    0  0.11207180993E+02  0.26652257750E+01 -0.25761440206E+02  0.96780217298E+02  0.92574587899E+02 0.  0.
         11    1    3    3    0    0  0.78601683777E+01 -0.29822013721E+02 -0.48152718352E+02  0.57182331486E+02  0.51100000000E-03 0. -1.
         22    1    1    0    0    0 -0.11207180993E+02 -0.26652257750E+01  0.25761440206E+02  0.28219782702E+02  0.00000000000E+00 0. -1.
</event>
<event>
 5    1  0.1099741E-009  0.9118800E+02  0.7818608E-02  0.1130116E+00
         25   -1    0    0    0    0  0.00000000000E+00  0.00000000000E+00  0.99999998245E-14  0.12500000000E+03  0.12500000000E+03 0.  0.
        -11    1    3    3    0    0 -0.31083494517E+02 -0.23497156962E+02  0.12956390636E+02  0.41062976941E+02  0.51100000000E-03 0.  1.
         23    2    1    0    0    0  0.55261467309E+01  0.26444857487E+01 -0.24590179405E+02  0.99658166488E+02  0.96382268193E+02 0.  0.
         11    1    3    3    0    0  0.36609641248E+02  0.26141642711E+02 -0.37546570041E+02  0.58595189547E+02  0.51100000000E-03 0. -1.
         22    1    1    0    0    0 -0.55261467309E+01 -0.26444857487E+01  0.24590179405E+02  0.25341833512E+02  0.00000000000E+00 0. -1.
</event>
<event>
 5    1  0.1099741E-009  0.9118800E+02  0.7818608E-02  0.1130116E+00
         25   -1    0    0    0    0  0.00000000000E+00  0.00000000000E+00  0.99999998245E-14  0.12500000000E+03  0.12500000000E+03 0.  0.
        -11    1    3    3    0    0  0.20305400821E+02 -0.47120295913E+02  0.31054711716E+02  0.59975217460E+02  0.51100000000E-03 0.  1.
         23    2    1    0    0    0  0.12741387612E+02 -0.12052973573E+02  0.21794023272E+02  0.97025072286E+02  0.92904618138E+02 0.  0.
         11    1    3    3    0    0 -0.75640132089E+01  0.35067322340E+02 -0.92606884436E+01  0.37049854826E+02  0.51100000000E-03 0. -1.
         22    1    1    0    0    0 -0.12741387612E+02  0.12052973573E+02 -0.21794023272E+02  0.27974927714E+02  0.00000000000E+00 0.  1.
</event>
<event>
 5    1  0.1099741E-009  0.9118800E+02  0.7818608E-02  0.1130116E+00
         25   -1    0    0    0    0  0.00000000000E+00  0.00000000000E+00  0.99999998245E-14  0.12500000000E+03  0.12500000000E+03 0.  0.
        -11    1    3    3    0    0  0.35120548139E+02 -0.37190289930E+02 -0.17151489146E+02  0.53951312745E+02  0.51100000000E-03 0.  1.
         23    2    1    0    0    0  0.29054032810E+02  0.78107170021E-01  0.11737959385E+01  0.95922161013E+02  0.91408644302E+02 0.  0.
         11    1    3    3    0    0 -0.60665153288E+01  0.37268397100E+02  0.18325285084E+02  0.41970848268E+02  0.51100000000E-03 0. -1.
         22    1    1    0    0    0 -0.29054032810E+02 -0.78107170021E-01 -0.11737959385E+01  0.29077838987E+02  0.00000000000E+00 0.  1.
</event>
<event>
 5    1  0.1099741E-009  0.9118800E+02  0.7818608E-02  0.1130116E+00
         25   -1    0    0    0    0  0.00000000000E+00  0.00000000000E+00  0.99999998245E-14  0.12500000000E+03  0.12500000000E+03 0.  0.
        -11    1    3    3    0    0 -0.49736936805E+02  0.23066943989E+02 -0.20671156740E+02  0.58593032940E+02  0.51100000000E-03 0.  1.
         23    2    1    0    0    0 -0.30886411413E+02  0.12557681223E+01  0.36968396728E-01  0.94088048748E+02  0.88865134822E+02 0.  0.
         11    1    3    3    0    0  0.18850525392E+02 -0.21811175867E+02  0.20708125137E+02  0.35495015808E+02  0.51100000000E-03 0. -1.
         22    1    1    0    0    0  0.30886411413E+02 -0.12557681223E+01 -0.36968396728E-01  0.30911951252E+02  0.00000000000E+00 0.  1.
</event>
<event>
 5    1  0.1099741E-009  0.9118800E+02  0.7818608E-02  0.1130116E+00
         25   -1    0    0    0    0  0.00000000000E+00  0.00000000000E+00  0.99999998245E-14  0.12500000000E+03  0.12500000000E+03 0.  0.
        -11    1    3    3    0    0  0.22961495987E+02  0.24999114356E+02  0.12862474321E+02  0.36299163385E+02  0.51100000000E-03 0.  1.
         23    2    1    0    0    0 -0.15423031930E+02  0.25365533660E+01 -0.25538703275E+02  0.95057899508E+02  0.90219038329E+02 0.  0.
         11    1    3    3    0    0 -0.38384527917E+02 -0.22462560990E+02 -0.38401177597E+02  0.58758736123E+02  0.51100000000E-03 0. -1.
         22    1    1    0    0    0  0.15423031930E+02 -0.25365533660E+01  0.25538703275E+02  0.29942100492E+02  0.00000000000E+00 0. -1.
</event>
<event>
 5    1  0.1099741E-009  0.9118800E+02  0.7818608E-02  0.1130116E+00
         25   -1    0    0    0    0  0.00000000000E+00  0.00000000000E+00  0.99999998245E-14  0.12500000000E+03  0.12500000000E+03 0.  0.
        -11    1    3    3    0    0  0.22218696210E+02  0.53424682741E+02 -0.96481838252E+01  0.58659650857E+02  0.51100000000E-03 0. -1.
         23    2    1    0    0    0  0.29618779040E+01  0.23613430046E+02 -0.18050297836E+02  0.95130616825E+02  0.90319733206E+02 0.  0.
         11    1    3    3    0    0 -0.19256818306E+02 -0.29811252696E+02 -0.84021140113E+01  0.36470965968E+02  0.51100000000E-03 0.  1.
         22    1    1    0    0    0 -0.29618779040E+01 -0.23613430046E+02  0.18050297836E+02  0.29869383175E+02  0.00000000000E+00 0. -1.
</event>
<event>
 5    1  0.1099741E-009  0.9118800E+02  0.7818608E-02  0.1130116E+00
         25   -1    0    0    0    0  0.00000000000E+00  0.00000000000E+00  0.99999998245E-14  0.12500000000E+03  0.12500000000E+03 0.  0.
        -11    1    3    3    0    0 -0.39354522521E+02  0.10538484824E+02 -0.23931816179E+02  0.47250078636E+02  0.51100000000E-03 0.  1.
         23    2    1    0    0    0  0.29313254445E+01 -0.14461168060E+02 -0.24526973234E+02  0.96376749546E+02  0.92028188000E+02 0.  0.
         11    1    3    3    0    0  0.42285847966E+02 -0.24999652885E+02 -0.59515705478E+00  0.49126670910E+02  0.51100000000E-03 0. -1.
         22    1    1    0    0    0 -0.29313254445E+01  0.14461168060E+02  0.24526973234E+02  0.28623250454E+02  0.00000000000E+00 0. -1.
</event>
<event>
 5    1  0.1099741E-009  0.9118800E+02  0.7818608E-02  0.1130116E+00
         25   -1    0    0    0    0  0.00000000000E+00  0.00000000000E+00  0.99999998245E-14  0.12500000000E+03  0.12500000000E+03 0.  0.
        -11    1    3    3    0    0  0.20216348866E+02 -0.26844034209E+02 -0.32939462951E+02  0.47056467715E+02  0.51100000000E-03 0.  1.
         23    2    1    0    0    0 -0.15169702574E+02  0.98684016732E+00 -0.29011812371E+02  0.92246695026E+02  0.86236151100E+02 0.  0.
         11    1    3    3    0    0 -0.35386051439E+02  0.27830874376E+02  0.39276505803E+01  0.45190227310E+02  0.51100000000E-03 0. -1.
         22    1    1    0    0    0  0.15169702574E+02 -0.98684016732E+00  0.29011812371E+02  0.32753304974E+02  0.00000000000E+00 0. -1.
</event>
<event>
 5    1  0.1099741E-009  0.9118800E+02  0.7818608E-02  0.1130116E+00
         25   -1    0    0    0    0  0.00000000000E+00  0.00000000000E+00  0.99999998245E-14  0.12500000000E+03  0.12500000000E+03 0.  0.
        -11    1    3    3    0    0 -0.40935806887E+02  0.28556788979E+02 -0.24235147491E+02  0.55484888541E+02  0.51100000000E-03 0. -1.
         23    2    1    0    0    0 -0.30217169261E+02 -0.19960621628E+01 -0.22264151767E+01  0.94635242355E+02  0.89631526757E+02 0.  0.
         11    1    3    3    0    0  0.10718637626E+02 -0.30552851141E+02  0.22008732314E+02  0.39150353814E+02  0.51100000000E-03 0.  1.
         22    1    1    0    0    0  0.30217169261E+02  0.19960621628E+01  0.22264151767E+01  0.30364757645E+02  0.00000000000E+00 0. -1.
</event>
<event>
 5    1  0.1099741E-009  0.9118800E+02  0.7818608E-02  0.1130116E+00
         25   -1    0    0    0    0  0.00000000000E+00  0.00000000000E+00  0.99999998245E-14  0.12500000000E+03  0.12500000000E+03 0.  0.
        -11    1    3    3    0    0  0.22535604675E+02  0.20500717397E+02 -0.45733120330E+02  0.54951352915E+02  0.51100000000E-03 0.  1.
         23    2    1    0    0    0  0.62855087674E+01  0.26313726354E+02 -0.74591311348E+01  0.96936528148E+02  0.92785408535E+02 0.  0.
         11    1    3    3    0    0 -0.16250095908E+02  0.58130089572E+01  0.38273989195E+02  0.41985175233E+02  0.51100000000E-03 0. -1.
         22    1    1    0    0    0 -0.62855087674E+01 -0.26313726354E+02  0.74591311348E+01  0.28063471852E+02  0.00000000000E+00 0.  1.
</event>
<event>
 5    1  0.1099741E-009  0.9118800E+02  0.7818608E-02  0.1130116E+00
         25   -1    0    0    0    0  0.00000000000E+00  0.00000000000E+00  0.99999998245E-14  0.12500000000E+03  0.12500000000E+03 0.  0.
        -11    1    3    3    0    0  0.34767401573E+02 -0.21555593562E+02  0.49063359036E+01  0.41200582013E+02  0.51100000000E-03 0.  1.
         23    2    1    0    0    0 -0.18797231446E+02 -0.18949456318E+02  0.12786044789E+02  0.95404379612E+02  0.90697821931E+02 0.  0.
         11    1    3    3    0    0 -0.53564633019E+02  0.26061372446E+01  0.78797088859E+01  0.54203797599E+02  0.51100000000E-03 0. -1.
         22    1    1    0    0    0  0.18797231446E+02  0.18949456318E+02 -0.12786044789E+02  0.29595620388E+02  0.00000000000E+00 0. -1.
</event>
<event>
 5    1  0.1099741E-009  0.9118800E+02  0.7818608E-02  0.1130116E+00
         25   -1    0    0    0    0  0.00000000000E+00  0.00000000000E+00  0.99999998245E-14  0.12500000000E+03  0.12500000000E+03 0.  0.
        -11    1    3    3    0    0  0.74112108818E+01 -0.42620285845E+02 -0.25221837224E+00  0.43260587451E+02  0.51100000000E-03 0.  1.
         23    2    1    0    0    0  0.29302993270E+02 -0.35052265202E+00  0.13392233526E+02  0.92779816892E+02  0.87005483867E+02 0.  0.
         11    1    3    3    0    0  0.21891782389E+02  0.42269763193E+02  0.13644451898E+02  0.49519229441E+02  0.51100000000E-03 0. -1.
         22    1    1    0    0    0 -0.29302993270E+02  0.35052265202E+00 -0.13392233526E+02  0.32220183108E+02  0.00000000000E+00 0. -1.
</event>
<event>
 5    1  0.1099741E-009  0.9118800E+02  0.7818608E-02  0.1130116E+00
         25   -1    0    0    0    0  0.00000000000E+00  0.00000000000E+00  0.99999998245E-14  0.12500000000E+03  0.12500000000E+03 0.  0.
        -11    1    3    3    0    0 -0.10390241636E+02  0.37511010652E+01  0.41285196009E+02  0.42737516191E+02  0.51100000000E-03 0.  1.
         23    2    1    0    0    0  0.20597575075E+02  0.16448075805E+02 -0.32312527001E+01  0.98443639356E+02  0.94794039047E+02 0.  0.
         11    1    3    3    0    0  0.30987816711E+02  0.12696974739E+02 -0.44516448709E+02  0.55706123164E+02  0.51100000000E-03 0. -1.
         22    1    1    0    0    0 -0.20597575075E+02 -0.16448075805E+02  0.32312527001E+01  0.26556360644E+02  0.00000000000E+00 0.  1.
</event>
<event>
 5    1  0.1099741E-009  0.9118800E+02  0.7818608E-02  0.1130116E+00
         25   -1    0    0    0    0  0.00000000000E+00  0.00000000000E+00  0.99999998245E-14  0.12500000000E+03  0.12500000000E+03 0.  0.
        -11    1    3    3    0    0  0.11306778400E+02 -0.10989054104E+02 -0.55142847091E+02  0.57352734316E+02  0.51100000000E-03 0. -1.
         23    2    1    0    0    0  0.11349869563E+02  0.11811431461E+02 -0.23476466219E+02  0.96373545131E+02  0.92023835406E+02 0.  0.
         11    1    3    3    0    0  0.43091162747E-01  0.22800485565E+02  0.31666380873E+02  0.39020810815E+02  0.51100000000E-03 0.  1.
         22    1    1    0    0    0 -0.11349869563E+02 -0.11811431461E+02  0.23476466219E+02  0.28626454869E+02  0.00000000000E+00 0. -1.
</event>
<event>
 5    1  0.1099741E-009  0.9118800E+02  0.7818608E-02  0.1130116E+00
         25   -1    0    0    0    0  0.00000000000E+00  0.00000000000E+00  0.99999998245E-14  0.12500000000E+03  0.12500000000E+03 0.  0.
        -11    1    3    3    0    0 -0.16386751713E+02 -0.28653582173E+02  0.39901098245E+02  0.51784660320E+02  0.51100000000E-03 0.  1.
         23    2    1    0    0    0  0.14822578348E+02 -0.23973925240E+02  0.10484236476E+02  0.94927136239E+02  0.90037681332E+02 0.  0.
         11    1    3    3    0    0  0.31209330061E+02  0.46796569328E+01 -0.29416861769E+02  0.43142475919E+02  0.51100000000E-03 0. -1.
         22    1    1    0    0    0 -0.14822578348E+02  0.23973925240E+02 -0.10484236476E+02  0.30072863761E+02  0.00000000000E+00 0.  1.
</event>
<event>
 5    1  0.1099741E-009  0.9118800E+02  0.7818608E-02  0.1130116E+00
         25   -1    0    0    0    0  0.00000000000E+00  0.00000000000E+00  0.99999998245E-14  0.12500000000E+03  0.12500000000E+03 0.  0.
        -11    1    3    3    0    0  0.32364177979E+02  0.36290165489E+01  0.49569939348E+02  0.59310948943E+02  0.51100000000E-03 0.  1.
         23    2    1    0    0    0  0.22638710344E+02  0.10179400595E+02  0.14581466399E+02  0.96211971849E+02  0.91804101009E+02 0.  0.
         11    1    3    3    0    0 -0.97254676353E+01  0.65503840465E+01 -0.34988472949E+02  0.36901022905E+02  0.51100000000E-03 0. -1.
         22    1    1    0    0    0 -0.22638710344E+02 -0.10179400595E+02 -0.14581466399E+02  0.28788028151E+02  0.00000000000E+00 0.  1.
</event>
<event>
 5    1  0.1099741E-009  0.9118800E+02  0.7818608E-02  0.1130116E+00
         25   -1    0    0    0    0  0.00000000000E+00  0.00000000000E+00  0.99999998245E-14  0.12500000000E+03  0.12500000000E+03 0.  0.
        -11    1    3    3    0    0 -0.35087750335E+01  0.27364237942E+02  0.25503828837E+02  0.37570710746E+02  0.51100000000E-03 0.  1.
         23    2    1    0    0    0 -0.38333769247E+01  0.42684309535E+01 -0.28300686829E+02  0.96123657496E+02  0.91683773777E+02 0.  0.
         11    1    3    3    0    0 -0.32460189120E+00 -0.23095806988E+02 -0.53804515665E+02  0.58552946750E+02  0.51100000000E-03 0. -1.
         22    1    1    0    0    0  0.38333769247E+01 -0.42684309535E+01  0.28300686829E+02  0.28876342504E+02  0.00000000000E+00 0. -1.
</event>
<event>
 5    1  0.1099741E-009  0.9118800E+02  0.7818608E-02  0.1130116E+00
         25   -1    0    0    0    0  0.00000000000E+00  0.00000000000E+00  0.99999998245E-14  0.12500000000E+03  0.12500000000E+03 0.  0.
        -11    1    3    3    0    0 -0.27778254796E+02  0.13899915854E+02 -0.84048441088E+01  0.32178882905E+02  0.51100000000E-03 0.  1.
         23    2    1    0    0    0  0.19853875453E+02 -0.15158187053E+01  0.25502305317E+02  0.92645067558E+02  0.86811674845E+02 0.  0.
         11    1    3    3    0    0  0.47632130249E+02 -0.15415734559E+02  0.33907149426E+02  0.60466184653E+02  0.51100000000E-03 0. -1.
         22    1    1    0    0    0 -0.19853875453E+02  0.15158187053E+01 -0.25502305317E+02  0.32354932442E+02  0.00000000000E+00 0. -1.
</event>
<event>
 5    1  0.1099741E-009  0.9118800E+02  0.7818608E-02  0.1130116E+00
         25   -1    0    0    0    0  0.00000000000E+00  0.00000000000E+00  0.99999998245E-14  0.12500000000E+03  0.12500000000E+03 0.  0.
        -11    1    3    3    0    0  0.46640108176E+02  0.85185049051E+01 -0.25613324714E+02  0.53887911628E+02  0.51100000000E-03 0.  1.
         23    2    1    0    0    0  0.24305038197E+02 -0.21221751953E+00  0.11528388258E+02  0.98098631004E+02  0.94337997387E+02 0.  0.
         11    1    3    3    0    0 -0.22335069979E+02 -0.87307224246E+01  0.37141712972E+02  0.44210719376E+02  0.51100000000E-03 0. -1.
         22    1    1    0    0    0 -0.24305038197E+02  0.21221751953E+00 -0.11528388258E+02  0.26901368996E+02  0.00000000000E+00 0.  1.
</event>
<event>
 5    1  0.1099741E-009  0.9118800E+02  0.7818608E-02  0.1130116E+00
         25   -1    0    0    0    0  0.00000000000E+00  0.00000000000E+00  0.99999998245E-14  0.12500000000E+03  0.12500000000E+03 0.  0.
        -11    1    3    3    0    0 -0.82713731692E+01 -0.44930265603E+02 -0.32266555127E+02  0.55930983911E+02  0.51100000000E-03 0.  1.
         23    2    1    0    0    0  0.13318564577E+02 -0.25306018076E+02 -0.47969188603E+01  0.96003635679E+02  0.91519991914E+02 0.  0.
         11    1    3    3    0    0  0.21589937746E+02  0.19624247527E+02  0.27469636267E+02  0.40072651768E+02  0.51100000000E-03 0. -1.
         22    1    1    0    0    0 -0.13318564577E+02  0.25306018076E+02  0.47969188603E+01  0.28996364321E+02  0.00000000000E+00 0.  1.
</event>
<event>
 5    1  0.1099741E-009  0.9118800E+02  0.7818608E-02  0.1130116E+00
         25   -1    0    0    0    0  0.00000000000E+00  0.00000000000E+00  0.99999998245E-14  0.12500000000E+03  0.12500000000E+03 0.  0.
        -11    1    3    3    0    0  0.24418412697E+01  0.16076651415E+02 -0.28598821911E+02  0.32898539853E+02  0.51100000000E-03 0.  1.
         23    2    1    0    0    0 -0.17302068114E+02 -0.28261340928E+02  0.43752274305E+01  0.91575344921E+02  0.85257470232E+02 0.  0.
         11    1    3    3    0    0 -0.19743909384E+02 -0.44337992343E+02  0.32974049341E+02  0.58676805068E+02  0.51100000000E-03 0. -1.
         22    1    1    0    0    0  0.17302068114E+02  0.28261340928E+02 -0.43752274305E+01  0.33424655079E+02  0.00000000000E+00 0. -1.
</event>
<event>
 5    1  0.1099741E-009  0.9118800E+02  0.7818608E-02  0.1130116E+00
         25   -1    0    0    0    0  0.00000000000E+00  0.00000000000E+00  0.99999998245E-14  0.12500000000E+03  0.12500000000E+03 0.  0.
        -11    1    3    3    0    0 -0.48083258973E+02 -0.24175691715E+02 -0.26864313267E+02  0.60151102990E+02  0.51100000000E-03 0. -1.
         23    2    1    0    0    0 -0.15552612131E+02 -0.10132861036E+02 -0.22469552376E+02  0.95854856307E+02  0.91316559708E+02 0.  0.
         11    1    3    3    0    0  0.32530646841E+02  0.14042830679E+02  0.43947608911E+01  0.35703753317E+02  0.51100000000E-03 0.  1.
         22    1    1    0    0    0  0.15552612131E+02  0.10132861036E+02  0.22469552376E+02  0.29145143693E+02  0.00000000000E+00 0. -1.
</event>
<event>
 5    1  0.1099741E-009  0.9118800E+02  0.7818608E-02  0.1130116E+00
         25   -1    0    0    0    0  0.00000000000E+00  0.00000000000E+00  0.99999998245E-14  0.12500000000E+03  0.12500000000E+03 0.  0.
        -11    1    3    3    0    0  0.10503676814E+02 -0.40244089686E+02 -0.46565872014E+02  0.62436322906E+02  0.51100000000E-03 0.  1.
         23    2    1    0    0    0  0.63148133863E+01 -0.21580944980E+02 -0.22338134693E+02  0.93304474829E+02  0.87756018069E+02 0.  0.
         11    1    3    3    0    0 -0.41888634281E+01  0.18663144706E+02  0.24227737322E+02  0.30868151923E+02  0.51100000000E-03 0. -1.
         22    1    1    0    0    0 -0.63148133863E+01  0.21580944980E+02  0.22338134693E+02  0.31695525171E+02  0.00000000000E+00 0.  1.
</event>
<event>
 5    1  0.1099741E-009  0.9118800E+02  0.7818608E-02  0.1130116E+00
         25   -1    0    0    0    0  0.00000000000E+00  0.00000000000E+00  0.99999998245E-14  0.12500000000E+03  0.12500000000E+03 0.  0.
        -11    1    3    3    0    0  0.34537283835E+02 -0.38444844513E+02  0.12308207829E+02  0.53125530817E+02  0.51100000000E-03 0.  1.
         23    2    1    0    0    0  0.16261074935E+02 -0.17319968471E+01  0.24170629116E+02  0.95817099476E+02  0.91264861086E+02 0.  0.
         11    1    3    3    0    0 -0.18276208901E+02  0.36712847666E+02  0.11862421287E+02  0.42691568659E+02  0.51100000000E-03 0. -1.
         22    1    1    0    0    0 -0.16261074935E+02  0.17319968471E+01 -0.24170629116E+02  0.29182900524E+02  0.00000000000E+00 0.  1.
</event>
<event>
 5    1  0.1099741E-009  0.9118800E+02  0.7818608E-02  0.1130116E+00
         25   -1    0    0    0    0  0.00000000000E+00  0.00000000000E+00  0.99999998245E-14  0.12500000000E+03  0.12500000000E+03 0.  0.
        -11    1    3    3    0    0  0.41832652486E+02  0.28462197487E+02 -0.13808180825E+02  0.52447434234E+02  0.51100000000E-03 0. -1.
         23    2    1    0    0    0  0.21801926742E+02 -0.12022441885E+02 -0.11222974364E+02  0.97690326400E+02  0.93795424196E+02 0.  0.
         11    1    3    3    0    0 -0.20030725743E+02 -0.40484639372E+02  0.25852064605E+01  0.45242892166E+02  0.51100000000E-03 0.  1.
         22    1    1    0    0    0 -0.21801926742E+02  0.12022441885E+02  0.11222974364E+02  0.27309673600E+02  0.00000000000E+00 0. -1.
</event>
<event>
 5    1  0.1099741E-009  0.9118800E+02  0.7818608E-02  0.1130116E+00
         25   -1    0    0    0    0  0.00000000000E+00  0.00000000000E+00  0.99999998245E-14  0.12500000000E+03  0.12500000000E+03 0.  0.
        -11    1    3    3    0    0 -0.37329486021E+02  0.27226107903E+02  0.29577824647E+02  0.54859813974E+02  0.51100000000E-03 0.  1.
         23    2    1    0    0    0 -0.27734548129E+02 -0.56375875821E+01  0.70798942499E+01  0.95826168296E+02  0.91277281259E+02 0.  0.
         11    1    3    3    0    0  0.95949378918E+01 -0.32863695485E+02 -0.22497930397E+02  0.40966354323E+02  0.51100000000E-03 0. -1.
         22    1    1    0    0    0  0.27734548129E+02  0.56375875821E+01 -0.70798942499E+01  0.29173831704E+02  0.00000000000E+00 0.  1.
</event>
<event>
 5    1  0.1099741E-009  0.9118800E+02  0.7818608E-02  0.1130116E+00
         25   -1    0    0    0    0  0.00000000000E+00  0.00000000000E+00  0.99999998245E-14  0.12500000000E+03  0.12500000000E+03 0.  0.
        -11    1    3    3    0    0 -0.26363958185E+02  0.26271482947E+02 -0.51707652802E+01  0.37576401121E+02  0.51100000000E-03 0.  1.
         23    2    1    0    0    0 -0.52225023148E+01 -0.26883805451E+02  0.83713200444E+01  0.96362742359E+02  0.92009160357E+02 0.  0.
         11    1    3    3    0    0  0.21141455870E+02 -0.53155288397E+02  0.13542085325E+02  0.58786341237E+02  0.51100000000E-03 0. -1.
         22    1    1    0    0    0  0.52225023148E+01  0.26883805451E+02 -0.83713200444E+01  0.28637257641E+02  0.00000000000E+00 0. -1.
</event>
<event>
 5    1  0.1099741E-009  0.9118800E+02  0.7818608E-02  0.1130116E+00
         25   -1    0    0    0    0  0.00000000000E+00  0.00000000000E+00  0.99999998245E-14  0.12500000000E+03  0.12500000000E+03 0.  0.
        -11    1    3    3    0    0 -0.26019354375E+02  0.44981777165E+01 -0.49033541162E+02  0.55691368847E+02  0.51100000000E-03 0. -1.
         23    2    1    0    0    0  0.63317791708E+01  0.13880100240E+02 -0.13948945089E+02  0.10432823957E+03  0.10225976673E+03 0.  0.
         11    1    3    3    0    0  0.32351133546E+02  0.93819225236E+01  0.35084596073E+02  0.48636870724E+02  0.51100000000E-03 0.  1.
         22    1    1    0    0    0 -0.63317791708E+01 -0.13880100240E+02  0.13948945089E+02  0.20671760429E+02  0.00000000000E+00 0. -1.
</event>
<event>
 5    1  0.1099741E-009  0.9118800E+02  0.7818608E-02  0.1130116E+00
         25   -1    0    0    0    0  0.00000000000E+00  0.00000000000E+00  0.99999998245E-14  0.12500000000E+03  0.12500000000E+03 0.  0.
        -11    1    3    3    0    0  0.14902388926E+02 -0.37133540443E+02  0.13508849773E+02  0.42231150161E+02  0.51100000000E-03 0.  1.
         23    2    1    0    0    0  0.24028056189E+02  0.14766032893E+02  0.10123506259E+02  0.95035544547E+02  0.90188059835E+02 0.  0.
         11    1    3    3    0    0  0.91256672636E+01  0.51899573336E+02 -0.33853435140E+01  0.52804394385E+02  0.51100000000E-03 0. -1.
         22    1    1    0    0    0 -0.24028056189E+02 -0.14766032893E+02 -0.10123506259E+02  0.29964455453E+02  0.00000000000E+00 0. -1.
</event>
<event>
 5    1  0.1099741E-009  0.9118800E+02  0.7818608E-02  0.1130116E+00
         25   -1    0    0    0    0  0.00000000000E+00  0.00000000000E+00  0.99999998245E-14  0.12500000000E+03  0.12500000000E+03 0.  0.
        -11    1    3    3    0    0 -0.14497532454E+02  0.55241162519E+02  0.83003194745E+01  0.57711868687E+02  0.51100000000E-03 0.  1.
         23    2    1    0    0    0  0.94814412779E+01  0.31850134806E+02  0.29047741108E+01  0.91641844648E+02  0.85354912934E+02 0.  0.
         11    1    3    3    0    0  0.23978973732E+02 -0.23391027713E+02 -0.53955453637E+01  0.33929975961E+02  0.51100000000E-03 0. -1.
         22    1    1    0    0    0 -0.94814412779E+01 -0.31850134806E+02 -0.29047741108E+01  0.33358155352E+02  0.00000000000E+00 0.  1.
</event>
<event>
 5    1  0.1099741E-009  0.9118800E+02  0.7818608E-02  0.1130116E+00
         25   -1    0    0    0    0  0.00000000000E+00  0.00000000000E+00  0.99999998245E-14  0.12500000000E+03  0.12500000000E+03 0.  0.
        -11    1    3    3    0    0 -0.56584992809E+02 -0.17596952858E+01 -0.25467004461E+02  0.62076777101E+02  0.51100000000E-03 0.  1.
         23    2    1    0    0    0 -0.26824545401E+02 -0.51996581810E+01 -0.91870931712E+01  0.96173009833E+02  0.91751035189E+02 0.  0.
         11    1    3    3    0    0  0.29760447409E+02 -0.34399628951E+01  0.16279911290E+02  0.34096232733E+02  0.51100000000E-03 0. -1.
         22    1    1    0    0    0  0.26824545401E+02  0.51996581810E+01  0.91870931712E+01  0.28826990167E+02  0.00000000000E+00 0.  1.
</event>
<event>
 5    1  0.1099741E-009  0.9118800E+02  0.7818608E-02  0.1130116E+00
         25   -1    0    0    0    0  0.00000000000E+00  0.00000000000E+00  0.99999998245E-14  0.12500000000E+03  0.12500000000E+03 0.  0.
        -11    1    3    3    0    0 -0.48543457035E+02  0.13263762756E+02  0.32704786580E+02  0.60016645098E+02  0.51100000000E-03 0.  1.
         23    2    1    0    0    0 -0.29000009313E+02  0.27681544938E+01  0.51085604037E+01  0.95423647811E+02  0.90724373531E+02 0.  0.
         11    1    3    3    0    0  0.19543447722E+02 -0.10495608262E+02 -0.27596226176E+02  0.35407002713E+02  0.51100000000E-03 0. -1.
         22    1    1    0    0    0  0.29000009313E+02 -0.27681544938E+01 -0.51085604037E+01  0.29576352189E+02  0.00000000000E+00 0.  1.
</event>
<event>
 5    1  0.1099741E-009  0.9118800E+02  0.7818608E-02  0.1130116E+00
         25   -1    0    0    0    0  0.00000000000E+00  0.00000000000E+00  0.99999998245E-14  0.12500000000E+03  0.12500000000E+03 0.  0.
        -11    1    3    3    0    0 -0.24848162182E+01  0.55467992689E+02 -0.11943625152E+02  0.56793685446E+02  0.51100000000E-03 0. -1.
         23    2    1    0    0    0  0.17552379872E+02  0.22009597106E+02 -0.52334372641E+01  0.96366151681E+02  0.92013792012E+02 0.  0.
         11    1    3    3    0    0  0.20037196091E+02 -0.33458395583E+02  0.67101878882E+01  0.39572466235E+02  0.51100000000E-03 0.  1.
         22    1    1    0    0    0 -0.17552379872E+02 -0.22009597106E+02  0.52334372641E+01  0.28633848319E+02  0.00000000000E+00 0. -1.
</event>
<event>
 5    1  0.1099741E-009  0.9118800E+02  0.7818608E-02  0.1130116E+00
         25   -1    0    0    0    0  0.00000000000E+00  0.00000000000E+00  0.99999998245E-14  0.12500000000E+03  0.12500000000E+03 0.  0.
        -11    1    3    3    0    0 -0.20541878688E+02  0.68012927535E+01 -0.34445433733E+02  0.40678179267E+02  0.51100000000E-03 0. -1.
         23    2    1    0    0    0 -0.13719673460E+01 -0.27585056370E+02  0.55827148900E+01  0.96822272361E+02  0.92631355870E+02 0.  0.
         11    1    3    3    0    0  0.19169911342E+02 -0.34386349124E+02  0.40028148623E+02  0.56144093094E+02  0.51100000000E-03 0.  1.
         22    1    1    0    0    0  0.13719673460E+01  0.27585056370E+02 -0.55827148900E+01  0.28177727639E+02  0.00000000000E+00 0.  1.
</event>
<event>
 5    1  0.1099741E-009  0.9118800E+02  0.7818608E-02  0.1130116E+00
         25   -1    0    0    0    0  0.00000000000E+00  0.00000000000E+00  0.99999998245E-14  0.12500000000E+03  0.12500000000E+03 0.  0.
        -11    1    3    3    0    0  0.16852342093E+01 -0.47107228981E+02 -0.36176427806E+02  0.59419398900E+02  0.51100000000E-03 0.  1.
         23    2    1    0    0    0 -0.11830263137E+02 -0.17872543937E+02 -0.20889508066E+02  0.95070841978E+02  0.90236968558E+02 0.  0.
         11    1    3    3    0    0 -0.13515497346E+02  0.29234685044E+02  0.15286919739E+02  0.35651443078E+02  0.51100000000E-03 0. -1.
         22    1    1    0    0    0  0.11830263137E+02  0.17872543937E+02  0.20889508066E+02  0.29929158022E+02  0.00000000000E+00 0.  1.
</event>
<event>
 5    1  0.1099741E-009  0.9118800E+02  0.7818608E-02  0.1130116E+00
         25   -1    0    0    0    0  0.00000000000E+00  0.00000000000E+00  0.99999998245E-14  0.12500000000E+03  0.12500000000E+03 0.  0.
        -11    1    3    3    0    0 -0.31867013955E+02  0.21907304313E+02  0.49050321623E+02  0.62460952700E+02  0.51100000000E-03 0. -1.
         23    2    1    0    0    0 -0.14581481821E+02  0.11408703449E+02  0.21729428686E+02  0.96452737478E+02  0.92131343035E+02 0.  0.
         11    1    3    3    0    0  0.17285532134E+02 -0.10498600864E+02 -0.27320892937E+02  0.33991784778E+02  0.51100000000E-03 0.  1.
         22    1    1    0    0    0  0.14581481821E+02 -0.11408703449E+02 -0.21729428686E+02  0.28547262522E+02  0.00000000000E+00 0. -1.
</event>
<event>
 5    1  0.1099741E-009  0.9118800E+02  0.7818608E-02  0.1130116E+00
         25   -1    0    0    0    0  0.00000000000E+00  0.00000000000E+00  0.99999998245E-14  0.12500000000E+03  0.12500000000E+03 0.  0.
        -11    1    3    3    0    0 -0.15452153604E+02  0.17130928154E+02 -0.23582386210E+02  0.32990403000E+02  0.51100000000E-03 0. -1.
         23    2    1    0    0    0  0.86728124111E+01 -0.13466939405E+02  0.25025094900E+02  0.95287519342E+02  0.90536621516E+02 0.  0.
         11    1    3    3    0    0  0.24124966015E+02 -0.30597867560E+02  0.48607481111E+02  0.62297116343E+02  0.51100000000E-03 0.  1.
         22    1    1    0    0    0 -0.86728124111E+01  0.13466939405E+02 -0.25025094900E+02  0.29712480658E+02  0.00000000000E+00 0.  1.
</event>
<event>
 5    1  0.1099741E-009  0.9118800E+02  0.7818608E-02  0.1130116E+00
         25   -1    0    0    0    0  0.00000000000E+00  0.00000000000E+00  0.99999998245E-14  0.12500000000E+03  0.12500000000E+03 0.  0.
        -11    1    3    3    0    0  0.27591816551E+02  0.31788890207E+02 -0.17466432100E+02  0.45573217264E+02  0.51100000000E-03 0. -1.
         23    2    1    0    0    0 -0.19692502097E+02  0.21233215312E+02 -0.82287599915E+01  0.94894243701E+02  0.89992004786E+02 0.  0.
         11    1    3    3    0    0 -0.47284318649E+02 -0.10555674896E+02  0.92376721085E+01  0.49321026437E+02  0.51100000000E-03 0.  1.
         22    1    1    0    0    0  0.19692502097E+02 -0.21233215312E+02  0.82287599915E+01  0.30105756299E+02  0.00000000000E+00 0.  1.
</event>
<event>
 5    1  0.1099741E-009  0.9118800E+02  0.7818608E-02  0.1130116E+00
         25   -1    0    0    0    0  0.00000000000E+00  0.00000000000E+00  0.99999998245E-14  0.12500000000E+03  0.12500000000E+03 0.  0.
        -11    1    3    3    0    0  0.29064100879E+02 -0.16370488002E+02  0.20666281056E+02  0.39240412973E+02  0.51100000000E-03 0.  1.
         23    2    1    0    0    0 -0.18886830695E+02  0.16185557863E+02  0.10100221477E+02  0.98154159895E+02  0.94411545766E+02 0.  0.
         11    1    3    3    0    0 -0.47950931574E+02  0.32556045864E+02 -0.10566059579E+02  0.58913746923E+02  0.51100000000E-03 0. -1.
         22    1    1    0    0    0  0.18886830695E+02 -0.16185557863E+02 -0.10100221477E+02  0.26845840105E+02  0.00000000000E+00 0. -1.
</event>
<event>
 5    1  0.1099741E-009  0.9118800E+02  0.7818608E-02  0.1130116E+00
         25   -1    0    0    0    0  0.00000000000E+00  0.00000000000E+00  0.99999998245E-14  0.12500000000E+03  0.12500000000E+03 0.  0.
        -11    1    3    3    0    0 -0.60105683497E+01  0.27336655987E+02  0.23741413649E+02  0.36702512376E+02  0.51100000000E-03 0.  1.
         23    2    1    0    0    0  0.11750431458E+02  0.76231410033E+01 -0.27349229842E+02  0.94272727242E+02  0.89124529791E+02 0.  0.
         11    1    3    3    0    0  0.17760999807E+02 -0.19713514983E+02 -0.51090643491E+02  0.57570214866E+02  0.51100000000E-03 0. -1.
         22    1    1    0    0    0 -0.11750431458E+02 -0.76231410033E+01  0.27349229842E+02  0.30727272758E+02  0.00000000000E+00 0. -1.
</event>
<event>
 5    1  0.1099741E-009  0.9118800E+02  0.7818608E-02  0.1130116E+00
         25   -1    0    0    0    0  0.00000000000E+00  0.00000000000E+00  0.99999998245E-14  0.12500000000E+03  0.12500000000E+03 0.  0.
        -11    1    3    3    0    0  0.20239097588E+02 -0.61914386935E+00  0.35940820954E+02  0.41252236563E+02  0.51100000000E-03 0.  1.
         23    2    1    0    0    0 -0.26722488291E+02 -0.68773506766E+01  0.79310076872E+01  0.96289545184E+02  0.91909663779E+02 0.  0.
         11    1    3    3    0    0 -0.46961585879E+02 -0.62582068072E+01 -0.28009813267E+02  0.55037308621E+02  0.51100000000E-03 0. -1.
         22    1    1    0    0    0  0.26722488291E+02  0.68773506766E+01 -0.79310076872E+01  0.28710454816E+02  0.00000000000E+00 0. -1.
</event>
<event>
 5    1  0.1099741E-009  0.9118800E+02  0.7818608E-02  0.1130116E+00
         25   -1    0    0    0    0  0.00000000000E+00  0.00000000000E+00  0.99999998245E-14  0.12500000000E+03  0.12500000000E+03 0.  0.
        -11    1    3    3    0    0  0.47472576480E+02  0.20030099692E+01  0.40207243858E+02  0.62243714747E+02  0.51100000000E-03 0.  1.
         23    2    1    0    0    0  0.25449491398E+02 -0.21729198165E+01  0.24436003129E+02  0.89651500147E+02  0.82388561323E+02 0.  0.
         11    1    3    3    0    0 -0.22023085082E+02 -0.41759297857E+01 -0.15771240730E+02  0.27407785400E+02  0.51100000000E-03 0. -1.
         22    1    1    0    0    0 -0.25449491398E+02  0.21729198165E+01 -0.24436003129E+02  0.35348499853E+02  0.00000000000E+00 0.  1.
</event>
<event>
 5    1  0.1099741E-009  0.9118800E+02  0.7818608E-02  0.1130116E+00
         25   -1    0    0    0    0  0.00000000000E+00  0.00000000000E+00  0.99999998245E-14  0.12500000000E+03  0.12500000000E+03 0.  0.
        -11    1    3    3    0    0 -0.22933157061E+02 -0.23130619836E+02 -0.23072424802E+02  0.39916062598E+02  0.51100000000E-03 0.  1.
         23    2    1    0    0    0  0.89133486933E+01  0.18680893738E+02 -0.25041546589E+02  0.92511500014E+02  0.86619137629E+02 0.  0.
         11    1    3    3    0    0  0.31846505755E+02  0.41811513574E+02 -0.19691217866E+01  0.52595437416E+02  0.51100000000E-03 0. -1.
         22    1    1    0    0    0 -0.89133486933E+01 -0.18680893738E+02  0.25041546589E+02  0.32488499986E+02  0.00000000000E+00 0. -1.
</event>
<event>
 5    1  0.1099741E-009  0.9118800E+02  0.7818608E-02  0.1130116E+00
         25   -1    0    0    0    0  0.00000000000E+00  0.00000000000E+00  0.99999998245E-14  0.12500000000E+03  0.12500000000E+03 0.  0.
        -11    1    3    3    0    0  0.60498828032E+01  0.30470919163E+02 -0.17937542157E+02  0.35872460404E+02  0.51100000000E-03 0. -1.
         23    2    1    0    0    0 -0.24881329707E+02 -0.17330324051E+02 -0.48587703121E+01  0.94291233358E+02  0.89150481432E+02 0.  0.
         11    1    3    3    0    0 -0.30931212511E+02 -0.47801243214E+02  0.13078771845E+02  0.58418772954E+02  0.51100000000E-03 0.  1.
         22    1    1    0    0    0  0.24881329707E+02  0.17330324051E+02  0.48587703121E+01  0.30708766642E+02  0.00000000000E+00 0.  1.
</event>
<event>
 5    1  0.1099741E-009  0.9118800E+02  0.7818608E-02  0.1130116E+00
         25   -1    0    0    0    0  0.00000000000E+00  0.00000000000E+00  0.99999998245E-14  0.12500000000E+03  0.12500000000E+03 0.  0.
        -11    1    3    3    0    0  0.46390041144E+02 -0.10138565048E+02  0.19596499872E+02  0.51369730640E+02  0.51100000000E-03 0.  1.
         23    2    1    0    0    0  0.23216674151E+01 -0.76563134936E+01  0.27631668842E+02  0.96233380475E+02  0.91833246261E+02 0.  0.
         11    1    3    3    0    0 -0.44068373729E+02  0.24822515548E+01  0.80351689699E+01  0.44863649835E+02  0.51100000000E-03 0. -1.
         22    1    1    0    0    0 -0.23216674151E+01  0.76563134936E+01 -0.27631668842E+02  0.28766619525E+02  0.00000000000E+00 0. -1.
</event>
<event>
 5    1  0.1099741E-009  0.9118800E+02  0.7818608E-02  0.1130116E+00
         25   -1    0    0    0    0  0.00000000000E+00  0.00000000000E+00  0.99999998245E-14  0.12500000000E+03  0.12500000000E+03 0.  0.
        -11    1    3    3    0    0  0.50873437796E+01  0.37029542007E+02  0.45839350344E+02  0.59146547559E+02  0.51100000000E-03 0.  1.
         23    2    1    0    0    0  0.15403049688E+02  0.19753645446E+02  0.15528634206E+02  0.95527997550E+02  0.90868032814E+02 0.  0.
         11    1    3    3    0    0  0.10315705909E+02 -0.17275896561E+02 -0.30310716138E+02  0.36381449991E+02  0.51100000000E-03 0. -1.
         22    1    1    0    0    0 -0.15403049688E+02 -0.19753645446E+02 -0.15528634206E+02  0.29472002450E+02  0.00000000000E+00 0.  1.
</event>
<event>
 5    1  0.1099741E-009  0.9118800E+02  0.7818608E-02  0.1130116E+00
         25   -1    0    0    0    0  0.00000000000E+00  0.00000000000E+00  0.99999998245E-14  0.12500000000E+03  0.12500000000E+03 0.  0.
        -11    1    3    3    0    0 -0.14125959313E+02 -0.31908742513E+02 -0.16894309806E+02  0.38770198341E+02  0.51100000000E-03 0. -1.
         23    2    1    0    0    0  0.30707261313E+02 -0.56395943055E+01 -0.13917030256E+02  0.90817772857E+02  0.84139427228E+02 0.  0.
         11    1    3    3    0    0  0.44833220626E+02  0.26269148208E+02  0.29772795503E+01  0.52047574517E+02  0.51100000000E-03 0.  1.
         22    1    1    0    0    0 -0.30707261313E+02  0.56395943055E+01  0.13917030256E+02  0.34182227143E+02  0.00000000000E+00 0.  1.
</event>
<event>
 5    1  0.1099741E-009  0.9118800E+02  0.7818608E-02  0.1130116E+00
         25   -1    0    0    0    0  0.00000000000E+00  0.00000000000E+00  0.99999998245E-14  0.12500000000E+03  0.12500000000E+03 0.  0.
        -11    1    3    3    0    0 -0.45522995220E+01 -0.21523408866E+02 -0.56862513830E+02  0.60969878133E+02  0.51100000000E-03 0. -1.
         23    2    1    0    0    0  0.39516271869E+01 -0.17151396431E+02 -0.23726443748E+02  0.95457997870E+02  0.90771688689E+02 0.  0.
         11    1    3    3    0    0  0.85039267089E+01  0.43720124350E+01  0.33136070083E+02  0.34488119737E+02  0.51100000000E-03 0.  1.
         22    1    1    0    0    0 -0.39516271869E+01  0.17151396431E+02  0.23726443748E+02  0.29542002130E+02  0.00000000000E+00 0. -1.
</event>
<event>
 5    1  0.1099741E-009  0.9118800E+02  0.7818608E-02  0.1130116E+00
         25   -1    0    0    0    0  0.00000000000E+00  0.00000000000E+00  0.99999998245E-14  0.12500000000E+03  0.12500000000E+03 0.  0.
        -11    1    3    3    0    0 -0.11900359826E+00  0.35347674430E+02 -0.50193313866E+02  0.61390887000E+02  0.51100000000E-03 0.  1.
         23    2    1    0    0    0  0.80820519275E+01  0.14980332616E+02 -0.24142018892E+02  0.95460754837E+02  0.90775485177E+02 0.  0.
         11    1    3    3    0    0  0.82010555257E+01 -0.20367341814E+02  0.26051294974E+02  0.34069867837E+02  0.51100000000E-03 0. -1.
         22    1    1    0    0    0 -0.80820519275E+01 -0.14980332616E+02  0.24142018892E+02  0.29539245163E+02  0.00000000000E+00 0.  1.
</event>
<event>
 5    1  0.1099741E-009  0.9118800E+02  0.7818608E-02  0.1130116E+00
         25   -1    0    0    0    0  0.00000000000E+00  0.00000000000E+00  0.99999998245E-14  0.12500000000E+03  0.12500000000E+03 0.  0.
        -11    1    3    3    0    0  0.20104930539E+02 -0.36821197960E+02  0.38471896944E+02  0.56921838568E+02  0.51100000000E-03 0. -1.
         23    2    1    0    0    0  0.28751583534E+00 -0.27576691904E+02  0.48965148481E+01  0.96990493411E+02  0.92858081785E+02 0.  0.
         11    1    3    3    0    0 -0.19817414704E+02  0.92445060567E+01 -0.33575382096E+02  0.40068654843E+02  0.51100000000E-03 0.  1.
         22    1    1    0    0    0 -0.28751583534E+00  0.27576691904E+02 -0.48965148481E+01  0.28009506589E+02  0.00000000000E+00 0. -1.
</event>
<event>
 5    1  0.1099741E-009  0.9118800E+02  0.7818608E-02  0.1130116E+00
         25   -1    0    0    0    0  0.00000000000E+00  0.00000000000E+00  0.99999998245E-14  0.12500000000E+03  0.12500000000E+03 0.  0.
        -11    1    3    3    0    0 -0.71453701047E+01  0.21730485054E+02  0.33432183013E+02  0.40509025611E+02  0.51100000000E-03 0. -1.
         23    2    1    0    0    0 -0.30754228598E+02 -0.14609273900E+02  0.11622605650E+02  0.89023084864E+02  0.81429547562E+02 0.  0.
         11    1    3    3    0    0 -0.23608858494E+02 -0.36339758955E+02 -0.21809577363E+02  0.48514059254E+02  0.51100000000E-03 0.  1.
         22    1    1    0    0    0  0.30754228598E+02  0.14609273900E+02 -0.11622605650E+02  0.35976915136E+02  0.00000000000E+00 0. -1.
</event>
<event>
 5    1  0.1099741E-009  0.9118800E+02  0.7818608E-02  0.1130116E+00
         25   -1    0    0    0    0  0.00000000000E+00  0.00000000000E+00  0.99999998245E-14  0.12500000000E+03  0.12500000000E+03 0.  0.
        -11    1    3    3    0    0  0.51848505829E+02 -0.18608367354E+02  0.95055516192E+00  0.55094849557E+02  0.51100000000E-03 0.  1.
         23    2    1    0    0    0  0.14809788568E+02 -0.25566617212E+02  0.99176934492E+01  0.93833633570E+02  0.88506544348E+02 0.  0.
         11    1    3    3    0    0 -0.37038717262E+02 -0.69582498587E+01  0.89671382873E+01  0.38738784013E+02  0.51100000000E-03 0. -1.
         22    1    1    0    0    0 -0.14809788568E+02  0.25566617212E+02 -0.99176934492E+01  0.31166366430E+02  0.00000000000E+00 0.  1.
</event>
<event>
 5    1  0.1099741E-009  0.9118800E+02  0.7818608E-02  0.1130116E+00
         25   -1    0    0    0    0  0.00000000000E+00  0.00000000000E+00  0.99999998245E-14  0.12500000000E+03  0.12500000000E+03 0.  0.
        -11    1    3    3    0    0 -0.17571496224E+02  0.33523794351E+02 -0.22473208979E+00  0.37850399892E+02  0.51100000000E-03 0. -1.
         23    2    1    0    0    0 -0.12587002333E+02 -0.24211076396E+02 -0.85711546050E+01  0.96398015117E+02  0.92057068057E+02 0.  0.
         11    1    3    3    0    0  0.49844938911E+01 -0.57734870746E+02 -0.83464225152E+01  0.58547615225E+02  0.51100000000E-03 0.  1.
         22    1    1    0    0    0  0.12587002333E+02  0.24211076396E+02  0.85711546050E+01  0.28601984883E+02  0.00000000000E+00 0.  1.
</event>
<event>
 5    1  0.1099741E-009  0.9118800E+02  0.7818608E-02  0.1130116E+00
         25   -1    0    0    0    0  0.00000000000E+00  0.00000000000E+00  0.99999998245E-14  0.12500000000E+03  0.12500000000E+03 0.  0.
        -11    1    3    3    0    0 -0.46925790994E+02 -0.84902331153E+01  0.11967663263E+02  0.49166440618E+02  0.51100000000E-03 0. -1.
         23    2    1    0    0    0 -0.13216495891E+02 -0.17898297602E+02 -0.18881123268E+02  0.95819156343E+02  0.91267678209E+02 0.  0.
         11    1    3    3    0    0  0.33709295104E+02 -0.94080644868E+01 -0.30848786531E+02  0.46652715725E+02  0.51100000000E-03 0.  1.
         22    1    1    0    0    0  0.13216495891E+02  0.17898297602E+02  0.18881123268E+02  0.29180843657E+02  0.00000000000E+00 0. -1.
</event>
<event>
 5    1  0.1099741E-009  0.9118800E+02  0.7818608E-02  0.1130116E+00
         25   -1    0    0    0    0  0.00000000000E+00  0.00000000000E+00  0.99999998245E-14  0.12500000000E+03  0.12500000000E+03 0.  0.
        -11    1    3    3    0    0  0.45506531110E+02 -0.22179335254E+01  0.11024344671E+02  0.46875364303E+02  0.51100000000E-03 0.  1.
         23    2    1    0    0    0  0.87558616906E+00  0.93737557586E+00  0.29637394246E+02  0.95334861170E+02  0.90601960754E+02 0.  0.
         11    1    3    3    0    0 -0.44630944941E+02  0.31553091012E+01  0.18613049575E+02  0.48459496867E+02  0.51100000000E-03 0. -1.
         22    1    1    0    0    0 -0.87558616906E+00 -0.93737557586E+00 -0.29637394246E+02  0.29665138830E+02  0.00000000000E+00 0.  1.
</event>
<event>
 5    1  0.1099741E-009  0.9118800E+02  0.7818608E-02  0.1130116E+00
         25   -1    0    0    0    0  0.00000000000E+00  0.00000000000E+00  0.99999998245E-14  0.12500000000E+03  0.12500000000E+03 0.  0.
        -11    1    3    3    0    0 -0.21026838678E+02 -0.50586634853E+02  0.20864156061E+02  0.58621229763E+02  0.51100000000E-03 0. -1.
         23    2    1    0    0    0 -0.22737369875E+02 -0.14674997022E+02  0.90630719231E+01  0.96460854969E+02  0.92142355854E+02 0.  0.
         11    1    3    3    0    0 -0.17105311969E+01  0.35911637831E+02 -0.11801084138E+02  0.37839625207E+02  0.51100000000E-03 0.  1.
         22    1    1    0    0    0  0.22737369875E+02  0.14674997022E+02 -0.90630719231E+01  0.28539145031E+02  0.00000000000E+00 0. -1.
</event>
<event>
 5    1  0.1099741E-009  0.9118800E+02  0.7818608E-02  0.1130116E+00
         25   -1    0    0    0    0  0.00000000000E+00  0.00000000000E+00  0.99999998245E-14  0.12500000000E+03  0.12500000000E+03 0.  0.
        -11    1    3    3    0    0  0.10150671593E+02  0.15018877076E+01  0.55797852537E+02  0.56733518739E+02  0.51100000000E-03 0. -1.
         23    2    1    0    0    0 -0.13214966959E+02 -0.62435077876E+01  0.23166755995E+02  0.97608115717E+02  0.93685798974E+02 0.  0.
         11    1    3    3    0    0 -0.23365638552E+02 -0.77453954951E+01 -0.32631096542E+02  0.40874596978E+02  0.51100000000E-03 0.  1.
         22    1    1    0    0    0  0.13214966959E+02  0.62435077876E+01 -0.23166755995E+02  0.27391884283E+02  0.00000000000E+00 0.  1.
</event>
<event>
 5    1  0.1099741E-009  0.9118800E+02  0.7818608E-02  0.1130116E+00
         25   -1    0    0    0    0  0.00000000000E+00  0.00000000000E+00  0.99999998245E-14  0.12500000000E+03  0.12500000000E+03 0.  0.
        -11    1    3    3    0    0  0.21927645318E+02  0.27004839135E+01 -0.57716392394E+02  0.61800454640E+02  0.51100000000E-03 0. -1.
         23    2    1    0    0    0  0.52789081957E+01  0.51827470988E+01 -0.28854116875E+02  0.95212623481E+02  0.90433156919E+02 0.  0.
         11    1    3    3    0    0 -0.16648737122E+02  0.24822631853E+01  0.28862275519E+02  0.33412168841E+02  0.51100000000E-03 0.  1.
         22    1    1    0    0    0 -0.52789081957E+01 -0.51827470988E+01  0.28854116875E+02  0.29787376519E+02  0.00000000000E+00 0. -1.
</event>
<event>
 5    1  0.1099741E-009  0.9118800E+02  0.7818608E-02  0.1130116E+00
         25   -1    0    0    0    0  0.00000000000E+00  0.00000000000E+00  0.99999998245E-14  0.12500000000E+03  0.12500000000E+03 0.  0.
        -11    1    3    3    0    0  0.45256679936E+02  0.19559528484E+01 -0.43468518129E+01  0.45507009914E+02  0.51100000000E-03 0. -1.
         23    2    1    0    0    0  0.10085654750E+02 -0.11653810898E+02  0.26577374126E+02  0.94277230665E+02  0.89130845762E+02 0.  0.
         11    1    3    3    0    0 -0.35171025186E+02 -0.13609763746E+02  0.30924225939E+02  0.48770220750E+02  0.51100000000E-03 0.  1.
         22    1    1    0    0    0 -0.10085654750E+02  0.11653810898E+02 -0.26577374126E+02  0.30722769335E+02  0.00000000000E+00 0. -1.
</event>
<event>
 5    1  0.1099741E-009  0.9118800E+02  0.7818608E-02  0.1130116E+00
         25   -1    0    0    0    0  0.00000000000E+00  0.00000000000E+00  0.99999998245E-14  0.12500000000E+03  0.12500000000E+03 0.  0.
        -11    1    3    3    0    0 -0.26858970398E+02 -0.25414976315E+02 -0.29345448585E+02  0.47206786216E+02  0.51100000000E-03 0.  1.
         23    2    1    0    0    0  0.15237650264E+02 -0.22738773726E+02 -0.18355477032E+01  0.97566315386E+02  0.93630010395E+02 0.  0.
         11    1    3    3    0    0  0.42096620662E+02  0.26762025894E+01  0.27509900882E+02  0.50359529170E+02  0.51100000000E-03 0. -1.
         22    1    1    0    0    0 -0.15237650264E+02  0.22738773726E+02  0.18355477032E+01  0.27433684614E+02  0.00000000000E+00 0.  1.
</event>
<event>
 5    1  0.1099741E-009  0.9118800E+02  0.7818608E-02  0.1130116E+00
         25   -1    0    0    0    0  0.00000000000E+00  0.00000000000E+00  0.99999998245E-14  0.12500000000E+03  0.12500000000E+03 0.  0.
        -11    1    3    3    0    0  0.18127845879E+02 -0.24894549837E+02  0.39376541448E+02  0.49988692966E+02  0.51100000000E-03 0.  1.
         23    2    1    0    0    0 -0.19487476893E+02 -0.56821870828E+01  0.20155240273E+02  0.96394358665E+02  0.92052102997E+02 0.  0.
         11    1    3    3    0    0 -0.37615322772E+02  0.19212362754E+02 -0.19221301174E+02  0.46405665699E+02  0.51100000000E-03 0. -1.
         22    1    1    0    0    0  0.19487476893E+02  0.56821870828E+01 -0.20155240273E+02  0.28605641335E+02  0.00000000000E+00 0.  1.
</event>
<event>
 5    1  0.1099741E-009  0.9118800E+02  0.7818608E-02  0.1130116E+00
         25   -1    0    0    0    0  0.00000000000E+00  0.00000000000E+00  0.99999998245E-14  0.12500000000E+03  0.12500000000E+03 0.  0.
        -11    1    3    3    0    0 -0.57700775744E+01  0.57377585607E+01 -0.39890852465E+02  0.40712354134E+02  0.51100000000E-03 0. -1.
         23    2    1    0    0    0  0.11996775809E+02 -0.29987423633E+02 -0.81698500266E+01  0.91684618336E+02  0.85417530894E+02 0.  0.
         11    1    3    3    0    0  0.17766853383E+02 -0.35725182194E+02  0.31721002438E+02  0.50972264202E+02  0.51100000000E-03 0.  1.
         22    1    1    0    0    0 -0.11996775809E+02  0.29987423633E+02  0.81698500266E+01  0.33315381664E+02  0.00000000000E+00 0.  1.
</event>
<event>
 5    1  0.1099741E-009  0.9118800E+02  0.7818608E-02  0.1130116E+00
         25   -1    0    0    0    0  0.00000000000E+00  0.00000000000E+00  0.99999998245E-14  0.12500000000E+03  0.12500000000E+03 0.  0.
        -11    1    3    3    0    0 -0.18045735447E+02 -0.19976219366E+02 -0.24460587876E+02  0.36373318071E+02  0.51100000000E-03 0. -1.
         23    2    1    0    0    0  0.26051809996E+02  0.96124787353E+01  0.45121780804E+01  0.96867166823E+02  0.92691918233E+02 0.  0.
         11    1    3    3    0    0  0.44097545444E+02  0.29588698101E+02  0.28972765956E+02  0.60493848752E+02  0.51100000000E-03 0.  1.
         22    1    1    0    0    0 -0.26051809996E+02 -0.96124787353E+01 -0.45121780804E+01  0.28132833177E+02  0.00000000000E+00 0.  1.
</event>
<event>
 5    1  0.1099741E-009  0.9118800E+02  0.7818608E-02  0.1130116E+00
         25   -1    0    0    0    0  0.00000000000E+00  0.00000000000E+00  0.99999998245E-14  0.12500000000E+03  0.12500000000E+03 0.  0.
        -11    1    3    3    0    0  0.55244455250E+02 -0.23591652966E+02  0.21875725726E+01  0.60110742797E+02  0.51100000000E-03 0. -1.
         23    2    1    0    0    0  0.29708897190E+02  0.40452433739E+00 -0.78719993268E+00  0.95277922416E+02  0.90523370485E+02 0.  0.
         11    1    3    3    0    0 -0.25535558060E+02  0.23996177304E+02 -0.29747725053E+01  0.35167179619E+02  0.51100000000E-03 0.  1.
         22    1    1    0    0    0 -0.29708897190E+02 -0.40452433739E+00  0.78719993268E+00  0.29722077584E+02  0.00000000000E+00 0. -1.
</event>
<event>
 5    1  0.1099741E-009  0.9118800E+02  0.7818608E-02  0.1130116E+00
         25   -1    0    0    0    0  0.00000000000E+00  0.00000000000E+00  0.99999998245E-14  0.12500000000E+03  0.12500000000E+03 0.  0.
        -11    1    3    3    0    0  0.63761089438E+01 -0.32202022326E+02  0.35079853276E+02  0.48043949809E+02  0.51100000000E-03 0.  1.
         23    2    1    0    0    0 -0.21596731401E+02  0.23059230480E+01  0.21362767162E+02  0.94535202132E+02  0.89491902053E+02 0.  0.
         11    1    3    3    0    0 -0.27972840345E+02  0.34507945373E+02 -0.13717086114E+02  0.46491252323E+02  0.51100000000E-03 0. -1.
         22    1    1    0    0    0  0.21596731401E+02 -0.23059230480E+01 -0.21362767162E+02  0.30464797868E+02  0.00000000000E+00 0.  1.
</event>
<event>
 5    1  0.1099741E-009  0.9118800E+02  0.7818608E-02  0.1130116E+00
         25   -1    0    0    0    0  0.00000000000E+00  0.00000000000E+00  0.99999998245E-14  0.12500000000E+03  0.12500000000E+03 0.  0.
        -11    1    3    3    0    0 -0.14075272274E+02  0.49164116954E+01  0.32787166876E+02  0.36017810949E+02  0.51100000000E-03 0. -1.
         23    2    1    0    0    0  0.20220361685E+02 -0.37544135480E+00 -0.18266233752E+02  0.97748224308E+02  0.93872552308E+02 0.  0.
         11    1    3    3    0    0  0.34295633959E+02 -0.52918530502E+01 -0.51053400629E+02  0.61730413358E+02  0.51100000000E-03 0.  1.
         22    1    1    0    0    0 -0.20220361685E+02  0.37544135480E+00  0.18266233752E+02  0.27251775692E+02  0.00000000000E+00 0.  1.
</event>
<event>
 5    1  0.1099741E-009  0.9118800E+02  0.7818608E-02  0.1130116E+00
         25   -1    0    0    0    0  0.00000000000E+00  0.00000000000E+00  0.99999998245E-14  0.12500000000E+03  0.12500000000E+03 0.  0.
        -11    1    3    3    0    0 -0.31454764923E+02 -0.18326037906E+02  0.43566188950E+02  0.56773750286E+02  0.51100000000E-03 0. -1.
         23    2    1    0    0    0 -0.19213847698E+02 -0.25342548414E+02  0.12619667631E+02  0.90784905164E+02  0.84090583843E+02 0.  0.
         11    1    3    3    0    0  0.12240917225E+02 -0.70165105086E+01 -0.30946521318E+02  0.34011154879E+02  0.51100000000E-03 0.  1.
         22    1    1    0    0    0  0.19213847698E+02  0.25342548414E+02 -0.12619667631E+02  0.34215094836E+02  0.00000000000E+00 0. -1.
</event>
<event>
 5    1  0.1099741E-009  0.9118800E+02  0.7818608E-02  0.1130116E+00
         25   -1    0    0    0    0  0.00000000000E+00  0.00000000000E+00  0.99999998245E-14  0.12500000000E+03  0.12500000000E+03 0.  0.
        -11    1    3    3    0    0  0.27809144917E+02  0.21861198663E+02 -0.27460864879E+01  0.35479593279E+02  0.51100000000E-03 0. -1.
         23    2    1    0    0    0 -0.28012798154E+02 -0.45325142771E+00  0.63292580119E+01  0.96277503516E+02  0.91893285277E+02 0.  0.
         11    1    3    3    0    0 -0.55821943071E+02 -0.22314450091E+02  0.90753444998E+01  0.60797910237E+02  0.51100000000E-03 0.  1.
         22    1    1    0    0    0  0.28012798154E+02  0.45325142771E+00 -0.63292580119E+01  0.28722496484E+02  0.00000000000E+00 0.  1.
</event>
<event>
 5    1  0.1099741E-009  0.9118800E+02  0.7818608E-02  0.1130116E+00
         25   -1    0    0    0    0  0.00000000000E+00  0.00000000000E+00  0.99999998245E-14  0.12500000000E+03  0.12500000000E+03 0.  0.
        -11    1    3    3    0    0  0.38067937439E+02  0.28399573622E+02 -0.27965622725E+02  0.55116056621E+02  0.51100000000E-03 0.  1.
         23    2    1    0    0    0 -0.98259570130E+00  0.22211440964E+02 -0.19222971752E+02  0.95608908714E+02  0.90979267850E+02 0.  0.
         11    1    3    3    0    0 -0.39050533140E+02 -0.61881326577E+01  0.87426509729E+01  0.40492852093E+02  0.51100000000E-03 0. -1.
         22    1    1    0    0    0  0.98259570130E+00 -0.22211440964E+02  0.19222971752E+02  0.29391091286E+02  0.00000000000E+00 0.  1.
</event>
<event>
 5    1  0.1099741E-009  0.9118800E+02  0.7818608E-02  0.1130116E+00
         25   -1    0    0    0    0  0.00000000000E+00  0.00000000000E+00  0.99999998245E-14  0.12500000000E+03  0.12500000000E+03 0.  0.
        -11    1    3    3    0    0  0.11432779763E+02 -0.92864133282E+01 -0.32434599830E+02  0.35622313120E+02  0.51100000000E-03 0. -1.
         23    2    1    0    0    0 -0.27088629234E+02  0.44958738866E+01  0.11116125231E+02  0.95376108360E+02  0.90658850037E+02 0.  0.
         11    1    3    3    0    0 -0.38521408997E+02  0.13782287215E+02  0.43550725061E+02  0.59753795240E+02  0.51100000000E-03 0.  1.
         22    1    1    0    0    0  0.27088629234E+02 -0.44958738866E+01 -0.11116125231E+02  0.29623891640E+02  0.00000000000E+00 0.  1.
</event>
<event>
 5    1  0.1099741E-009  0.9118800E+02  0.7818608E-02  0.1130116E+00
         25   -1    0    0    0    0  0.00000000000E+00  0.00000000000E+00  0.99999998245E-14  0.12500000000E+03  0.12500000000E+03 0.  0.
        -11    1    3    3    0    0 -0.21785170266E+02  0.45640288957E+02  0.34466859212E+02  0.61201258188E+02  0.51100000000E-03 0. -1.
         23    2    1    0    0    0 -0.17855688841E+02  0.16593960609E+02  0.15532437762E+02  0.96095990321E+02  0.91646045088E+02 0.  0.
         11    1    3    3    0    0  0.39294814246E+01 -0.29046328348E+02 -0.18934421449E+02  0.34894732133E+02  0.51100000000E-03 0.  1.
         22    1    1    0    0    0  0.17855688841E+02 -0.16593960609E+02 -0.15532437762E+02  0.28904009679E+02  0.00000000000E+00 0. -1.
</event>
<event>
 5    1  0.1099741E-009  0.9118800E+02  0.7818608E-02  0.1130116E+00
         25   -1    0    0    0    0  0.00000000000E+00  0.00000000000E+00  0.99999998245E-14  0.12500000000E+03  0.12500000000E+03 0.  0.
        -11    1    3    3    0    0  0.20405509853E+02 -0.47012086531E+02 -0.12964147059E+01  0.51265990712E+02  0.51100000000E-03 0. -1.
         23    2    1    0    0    0 -0.12639238200E+02 -0.21406769414E+02 -0.15834272742E+02  0.95525870457E+02  0.90865106693E+02 0.  0.
         11    1    3    3    0    0 -0.33044748053E+02  0.25605317117E+02 -0.14537858036E+02  0.44259879745E+02  0.51100000000E-03 0.  1.
         22    1    1    0    0    0  0.12639238200E+02  0.21406769414E+02  0.15834272742E+02  0.29474129543E+02  0.00000000000E+00 0. -1.
</event>
<event>
 5    1  0.1099741E-009  0.9118800E+02  0.7818608E-02  0.1130116E+00
         25   -1    0    0    0    0  0.00000000000E+00  0.00000000000E+00  0.99999998245E-14  0.12500000000E+03  0.12500000000E+03 0.  0.
        -11    1    3    3    0    0 -0.21777743836E+02  0.20610673238E+02  0.23553760662E+01  0.30076864441E+02  0.51100000000E-03 0.  1.
         23    2    1    0    0    0  0.19498103174E+02 -0.25768473271E+02  0.54004976795E+01  0.92237893577E+02  0.86223392384E+02 0.  0.
         11    1    3    3    0    0  0.41275847010E+02 -0.46379146509E+02  0.30451216133E+01  0.62161029136E+02  0.51100000000E-03 0. -1.
         22    1    1    0    0    0 -0.19498103174E+02  0.25768473271E+02 -0.54004976795E+01  0.32762106423E+02  0.00000000000E+00 0. -1.
</event>
<event>
 5    1  0.1099741E-009  0.9118800E+02  0.7818608E-02  0.1130116E+00
         25   -1    0    0    0    0  0.00000000000E+00  0.00000000000E+00  0.99999998245E-14  0.12500000000E+03  0.12500000000E+03 0.  0.
        -11    1    3    3    0    0 -0.27386375517E+01 -0.12544811138E+02 -0.33063970230E+02  0.35469684941E+02  0.51100000000E-03 0.  1.
         23    2    1    0    0    0  0.11488066584E+02 -0.41763852872E+01  0.25717934858E+02  0.96524922454E+02  0.92229228629E+02 0.  0.
         11    1    3    3    0    0  0.14226704135E+02  0.83684258507E+01  0.58781905088E+02  0.61055237514E+02  0.51100000000E-03 0. -1.
         22    1    1    0    0    0 -0.11488066584E+02  0.41763852872E+01 -0.25717934858E+02  0.28475077546E+02  0.00000000000E+00 0. -1.
</event>
<event>
 5    1  0.1099741E-009  0.9118800E+02  0.7818608E-02  0.1130116E+00
         25   -1    0    0    0    0  0.00000000000E+00  0.00000000000E+00  0.99999998245E-14  0.12500000000E+03  0.12500000000E+03 0.  0.
        -11    1    3    3    0    0  0.10603911956E+02 -0.30059210255E+01  0.36414789228E+02  0.38046226945E+02  0.51100000000E-03 0. -1.
         23    2    1    0    0    0 -0.23361145694E+02 -0.98567452525E+01 -0.11485314168E+02  0.97164572993E+02  0.93092122374E+02 0.  0.
         11    1    3    3    0    0 -0.33965057651E+02 -0.68508242271E+01 -0.47900103396E+02  0.59118346048E+02  0.51100000000E-03 0.  1.
         22    1    1    0    0    0  0.23361145694E+02  0.98567452525E+01  0.11485314168E+02  0.27835427007E+02  0.00000000000E+00 0.  1.
</event>
<event>
 5    1  0.1099741E-009  0.9118800E+02  0.7818608E-02  0.1130116E+00
         25   -1    0    0    0    0  0.00000000000E+00  0.00000000000E+00  0.99999998245E-14  0.12500000000E+03  0.12500000000E+03 0.  0.
        -11    1    3    3    0    0 -0.49101420076E+02  0.24366701851E+02 -0.84272681599E+01  0.55459034083E+02  0.51100000000E-03 0. -1.
         23    2    1    0    0    0 -0.20212737999E+02  0.12513081996E+02  0.17038067448E+02  0.95752303667E+02  0.91176070965E+02 0.  0.
         11    1    3    3    0    0  0.28888682077E+02 -0.11853619856E+02  0.25465335608E+02  0.40293269583E+02  0.51100000000E-03 0.  1.
         22    1    1    0    0    0  0.20212737999E+02 -0.12513081996E+02 -0.17038067448E+02  0.29247696333E+02  0.00000000000E+00 0. -1.
</event>
<event>
 5    1  0.1099741E-009  0.9118800E+02  0.7818608E-02  0.1130116E+00
         25   -1    0    0    0    0  0.00000000000E+00  0.00000000000E+00  0.99999998245E-14  0.12500000000E+03  0.12500000000E+03 0.  0.
        -11    1    3    3    0    0  0.20785107730E+02  0.43677835049E+02  0.33313843097E+02  0.58733177336E+02  0.51100000000E-03 0. -1.
         23    2    1    0    0    0  0.23669583932E+02  0.14141050301E+02  0.14890424846E+02  0.93664026117E+02  0.88266678476E+02 0.  0.
         11    1    3    3    0    0  0.28844762021E+01 -0.29536784748E+02 -0.18423418251E+02  0.34930848780E+02  0.51100000000E-03 0.  1.
         22    1    1    0    0    0 -0.23669583932E+02 -0.14141050301E+02 -0.14890424846E+02  0.31335973883E+02  0.00000000000E+00 0. -1.
</event>
<event>
 5    1  0.1099741E-009  0.9118800E+02  0.7818608E-02  0.1130116E+00
         25   -1    0    0    0    0  0.00000000000E+00  0.00000000000E+00  0.99999998245E-14  0.12500000000E+03  0.12500000000E+03 0.  0.
        -11    1    3    3    0    0 -0.24448102954E+02 -0.14711374645E+02  0.41852385638E+02  0.50653296693E+02  0.51100000000E-03 0.  1.
         23    2    1    0    0    0  0.73734290592E+00 -0.29725631730E+02  0.10791734064E+02  0.93367447457E+02  0.87845670720E+02 0.  0.
         11    1    3    3    0    0  0.25185445860E+02 -0.15014257085E+02 -0.31060651575E+02  0.42714150764E+02  0.51100000000E-03 0. -1.
         22    1    1    0    0    0 -0.73734290592E+00  0.29725631730E+02 -0.10791734064E+02  0.31632552543E+02  0.00000000000E+00 0.  1.
</event>
<event>
 5    1  0.1099741E-009  0.9118800E+02  0.7818608E-02  0.1130116E+00
         25   -1    0    0    0    0  0.00000000000E+00  0.00000000000E+00  0.99999998245E-14  0.12500000000E+03  0.12500000000E+03 0.  0.
        -11    1    3    3    0    0  0.13149284592E+02 -0.31476988013E+02  0.57875481936E+01  0.34600580545E+02  0.51100000000E-03 0. -1.
         23    2    1    0    0    0  0.33855990757E+01  0.28867085770E+02  0.97222329814E+00  0.95918800917E+02  0.91404049305E+02 0.  0.
         11    1    3    3    0    0 -0.97636855168E+01  0.60344073783E+02 -0.48153248955E+01  0.61318220373E+02  0.51100000000E-03 0.  1.
         22    1    1    0    0    0 -0.33855990757E+01 -0.28867085770E+02 -0.97222329814E+00  0.29081199083E+02  0.00000000000E+00 0.  1.
</event>
<event>
 5    1  0.1099741E-009  0.9118800E+02  0.7818608E-02  0.1130116E+00
         25   -1    0    0    0    0  0.00000000000E+00  0.00000000000E+00  0.99999998245E-14  0.12500000000E+03  0.12500000000E+03 0.  0.
        -11    1    3    3    0    0  0.21203473919E+01  0.62220015900E+02 -0.52663902501E+01  0.62478485243E+02  0.51100000000E-03 0.  1.
         23    2    1    0    0    0  0.20991415103E+01  0.28574931321E+02 -0.26896792976E+01  0.96222101018E+02  0.91817891800E+02 0.  0.
         11    1    3    3    0    0 -0.21205881576E-01 -0.33645084579E+02  0.25767109524E+01  0.33743615776E+02  0.51100000000E-03 0. -1.
         22    1    1    0    0    0 -0.20991415103E+01 -0.28574931321E+02  0.26896792976E+01  0.28777898982E+02  0.00000000000E+00 0.  1.
</event>
<event>
 5    1  0.1099741E-009  0.9118800E+02  0.7818608E-02  0.1130116E+00
         25   -1    0    0    0    0  0.00000000000E+00  0.00000000000E+00  0.99999998245E-14  0.12500000000E+03  0.12500000000E+03 0.  0.
        -11    1    3    3    0    0  0.15408165854E+01  0.38159272678E+02 -0.14608743856E+01  0.38218298775E+02  0.51100000000E-03 0. -1.
         23    2    1    0    0    0  0.18833441939E+02 -0.14961736490E+02  0.15239043100E+02  0.96525791869E+02  0.92230406956E+02 0.  0.
         11    1    3    3    0    0  0.17292625353E+02 -0.53121009168E+02  0.16699917486E+02  0.58307493094E+02  0.51100000000E-03 0.  1.
         22    1    1    0    0    0 -0.18833441939E+02  0.14961736490E+02 -0.15239043100E+02  0.28474208131E+02  0.00000000000E+00 0.  1.
</event>
<event>
 5    1  0.1099741E-009  0.9118800E+02  0.7818608E-02  0.1130116E+00
         25   -1    0    0    0    0  0.00000000000E+00  0.00000000000E+00  0.99999998245E-14  0.12500000000E+03  0.12500000000E+03 0.  0.
        -11    1    3    3    0    0 -0.33530350879E+02  0.13048932509E+02  0.11172407714E+02  0.37674683330E+02  0.51100000000E-03 0. -1.
         23    2    1    0    0    0  0.24778182058E+02  0.13604323632E+02  0.25844921639E+01  0.96614871371E+02  0.92351057615E+02 0.  0.
         11    1    3    3    0    0  0.58308532936E+02  0.55539112300E+00 -0.85879155503E+01  0.58940188040E+02  0.51100000000E-03 0.  1.
         22    1    1    0    0    0 -0.24778182058E+02 -0.13604323632E+02 -0.25844921639E+01  0.28385128629E+02  0.00000000000E+00 0.  1.
</event>
<event>
 5    1  0.1099741E-009  0.9118800E+02  0.7818608E-02  0.1130116E+00
         25   -1    0    0    0    0  0.00000000000E+00  0.00000000000E+00  0.99999998245E-14  0.12500000000E+03  0.12500000000E+03 0.  0.
        -11    1    3    3    0    0  0.30197165003E+02 -0.47770545257E+02 -0.22872350024E+02  0.60967517288E+02  0.51100000000E-03 0.  1.
         23    2    1    0    0    0  0.89523648134E+01 -0.27562632359E+02 -0.42299815686E+01  0.95712864900E+02  0.91121985410E+02 0.  0.
         11    1    3    3    0    0 -0.21244800190E+02  0.20207912898E+02  0.18642368455E+02  0.34745347612E+02  0.51100000000E-03 0. -1.
         22    1    1    0    0    0 -0.89523648134E+01  0.27562632359E+02  0.42299815686E+01  0.29287135100E+02  0.00000000000E+00 0.  1.
</event>
<event>
 5    1  0.1099741E-009  0.9118800E+02  0.7818608E-02  0.1130116E+00
         25   -1    0    0    0    0  0.00000000000E+00  0.00000000000E+00  0.99999998245E-14  0.12500000000E+03  0.12500000000E+03 0.  0.
        -11    1    3    3    0    0 -0.96051995602E+01  0.30724007004E+02 -0.20709577545E+02  0.38276769290E+02  0.51100000000E-03 0.  1.
         23    2    1    0    0    0 -0.10755130081E+02 -0.64678213953E+01  0.24886098100E+02  0.97128447921E+02  0.93043602576E+02 0.  0.
         11    1    3    3    0    0 -0.11499305207E+01 -0.37191828399E+02  0.45595675645E+02  0.58851678631E+02  0.51100000000E-03 0. -1.
         22    1    1    0    0    0  0.10755130081E+02  0.64678213953E+01 -0.24886098100E+02  0.27871552079E+02  0.00000000000E+00 0. -1.
</event>
<event>
 5    1  0.1099741E-009  0.9118800E+02  0.7818608E-02  0.1130116E+00
         25   -1    0    0    0    0  0.00000000000E+00  0.00000000000E+00  0.99999998245E-14  0.12500000000E+03  0.12500000000E+03 0.  0.
        -11    1    3    3    0    0  0.44283470557E+02 -0.35207451521E+02  0.62400981146E+01  0.56916862457E+02  0.51100000000E-03 0.  1.
         23    2    1    0    0    0  0.63726543827E+01 -0.27470457278E+02 -0.28312640322E+01  0.96658285109E+02  0.92409800764E+02 0.  0.
         11    1    3    3    0    0 -0.37910816174E+02  0.77369942428E+01 -0.90713621468E+01  0.39741422652E+02  0.51100000000E-03 0. -1.
         22    1    1    0    0    0 -0.63726543827E+01  0.27470457278E+02  0.28312640322E+01  0.28341714891E+02  0.00000000000E+00 0.  1.
</event>
<event>
 5    1  0.1099741E-009  0.9118800E+02  0.7818608E-02  0.1130116E+00
         25   -1    0    0    0    0  0.00000000000E+00  0.00000000000E+00  0.99999998245E-14  0.12500000000E+03  0.12500000000E+03 0.  0.
        -11    1    3    3    0    0  0.27692010833E+02 -0.23824401356E+02 -0.18895834328E+02  0.41127875208E+02  0.51100000000E-03 0. -1.
         23    2    1    0    0    0 -0.24782667686E+02 -0.13213473706E+02 -0.45983754818E+01  0.96540879106E+02  0.92250852443E+02 0.  0.
         11    1    3    3    0    0 -0.52474678519E+02  0.10610927650E+02  0.14297458846E+02  0.55413003898E+02  0.51100000000E-03 0.  1.
         22    1    1    0    0    0  0.24782667686E+02  0.13213473706E+02  0.45983754818E+01  0.28459120894E+02  0.00000000000E+00 0.  1.
</event>
<event>
 5    1  0.1099741E-009  0.9118800E+02  0.7818608E-02  0.1130116E+00
         25   -1    0    0    0    0  0.00000000000E+00  0.00000000000E+00  0.99999998245E-14  0.12500000000E+03  0.12500000000E+03 0.  0.
        -11    1    3    3    0    0  0.13937955499E+02  0.28467759559E+02  0.22020604192E+02  0.38595167405E+02  0.51100000000E-03 0. -1.
         23    2    1    0    0    0 -0.88314272623E+01 -0.24253660204E+02  0.10312409724E+02  0.97204677820E+02  0.93145957803E+02 0.  0.
         11    1    3    3    0    0 -0.22769382762E+02 -0.52721419762E+02 -0.11708194468E+02  0.58609510415E+02  0.51100000000E-03 0.  1.
         22    1    1    0    0    0  0.88314272623E+01  0.24253660204E+02 -0.10312409724E+02  0.27795322180E+02  0.00000000000E+00 0.  1.
</event>
<event>
 5    1  0.1099741E-009  0.9118800E+02  0.7818608E-02  0.1130116E+00
         25   -1    0    0    0    0  0.00000000000E+00  0.00000000000E+00  0.99999998245E-14  0.12500000000E+03  0.12500000000E+03 0.  0.
        -11    1    3    3    0    0  0.10617245591E+02 -0.37279216052E+02 -0.12040824273E+02  0.40588758331E+02  0.51100000000E-03 0. -1.
         23    2    1    0    0    0  0.25534329471E+02  0.14701819925E+02 -0.38211127186E+01  0.95288951667E+02  0.90538599043E+02 0.  0.
         11    1    3    3    0    0  0.14917083880E+02  0.51981035977E+02  0.82197115548E+01  0.54700193336E+02  0.51100000000E-03 0.  1.
         22    1    1    0    0    0 -0.25534329471E+02 -0.14701819925E+02  0.38211127186E+01  0.29711048333E+02  0.00000000000E+00 0.  1.
</event>
<event>
 5    1  0.1099741E-009  0.9118800E+02  0.7818608E-02  0.1130116E+00
         25   -1    0    0    0    0  0.00000000000E+00  0.00000000000E+00  0.99999998245E-14  0.12500000000E+03  0.12500000000E+03 0.  0.
        -11    1    3    3    0    0 -0.98494219084E+01  0.95674672632E+01  0.31609020496E+02  0.34462700398E+02  0.51100000000E-03 0. -1.
         23    2    1    0    0    0  0.80243537320E+01  0.77246945257E+01 -0.27015154448E+02  0.95778779489E+02  0.91212361400E+02 0.  0.
         11    1    3    3    0    0  0.17873775640E+02 -0.18427727375E+01 -0.58624174943E+02  0.61316079091E+02  0.51100000000E-03 0.  1.
         22    1    1    0    0    0 -0.80243537320E+01 -0.77246945257E+01  0.27015154448E+02  0.29221220511E+02  0.00000000000E+00 0.  1.
</event>
<event>
 5    1  0.1099741E-009  0.9118800E+02  0.7818608E-02  0.1130116E+00
         25   -1    0    0    0    0  0.00000000000E+00  0.00000000000E+00  0.99999998245E-14  0.12500000000E+03  0.12500000000E+03 0.  0.
        -11    1    3    3    0    0 -0.42520760274E+02  0.14017892344E+02  0.75375373195E+01  0.45401881339E+02  0.51100000000E-03 0.  1.
         23    2    1    0    0    0  0.32525366127E+01  0.30090285512E+02 -0.12692966330E+01  0.94707832852E+02  0.89732704255E+02 0.  0.
         11    1    3    3    0    0  0.45773296887E+02  0.16072393168E+02 -0.88068339526E+01  0.49305951513E+02  0.51100000000E-03 0. -1.
         22    1    1    0    0    0 -0.32525366127E+01 -0.30090285512E+02  0.12692966330E+01  0.30292167148E+02  0.00000000000E+00 0. -1.
</event>
<event>
 5    1  0.1099741E-009  0.9118800E+02  0.7818608E-02  0.1130116E+00
         25   -1    0    0    0    0  0.00000000000E+00  0.00000000000E+00  0.99999998245E-14  0.12500000000E+03  0.12500000000E+03 0.  0.
        -11    1    3    3    0    0  0.11757017548E+02 -0.41900734875E+02 -0.26395565216E+02  0.50898181776E+02  0.51100000000E-03 0. -1.
         23    2    1    0    0    0 -0.21542890184E+02 -0.15012568112E+02 -0.12668808324E+02  0.95845720328E+02  0.91304052933E+02 0.  0.
         11    1    3    3    0    0 -0.33299907733E+02  0.26888166763E+02  0.13726756892E+02  0.44947538552E+02  0.51100000000E-03 0.  1.
         22    1    1    0    0    0  0.21542890184E+02  0.15012568112E+02  0.12668808324E+02  0.29154279672E+02  0.00000000000E+00 0.  1.
</event>
<event>
 5    1  0.1099741E-009  0.9118800E+02  0.7818608E-02  0.1130116E+00
         25   -1    0    0    0    0  0.00000000000E+00  0.00000000000E+00  0.99999998245E-14  0.12500000000E+03  0.12500000000E+03 0.  0.
        -11    1    3    3    0    0 -0.20804503123E+02 -0.28985540757E+01 -0.47268454212E+02  0.51725581000E+02  0.51100000000E-03 0.  1.
         23    2    1    0    0    0  0.13974598713E+02  0.98092935908E+01 -0.24309236077E+02  0.95293929769E+02  0.90545471683E+02 0.  0.
         11    1    3    3    0    0  0.34779101836E+02  0.12707847667E+02  0.22959218135E+02  0.43568348769E+02  0.51100000000E-03 0. -1.
         22    1    1    0    0    0 -0.13974598713E+02 -0.98092935908E+01  0.24309236077E+02  0.29706070231E+02  0.00000000000E+00 0.  1.
</event>
<event>
 5    1  0.1099741E-009  0.9118800E+02  0.7818608E-02  0.1130116E+00
         25   -1    0    0    0    0  0.00000000000E+00  0.00000000000E+00  0.99999998245E-14  0.12500000000E+03  0.12500000000E+03 0.  0.
        -11    1    3    3    0    0  0.17270730620E+02 -0.40185852368E+02 -0.38521059365E+02  0.58284242138E+02  0.51100000000E-03 0. -1.
         23    2    1    0    0    0  0.22835551323E+02 -0.17306118261E+02 -0.11498808250E+02  0.94126277765E+02  0.88918892488E+02 0.  0.
         11    1    3    3    0    0  0.55648207026E+01  0.22879734108E+02  0.27022251115E+02  0.35842035627E+02  0.51100000000E-03 0.  1.
         22    1    1    0    0    0 -0.22835551323E+02  0.17306118261E+02  0.11498808250E+02  0.30873722235E+02  0.00000000000E+00 0. -1.
</event>
<event>
 5    1  0.1099741E-009  0.9118800E+02  0.7818608E-02  0.1130116E+00
         25   -1    0    0    0    0  0.00000000000E+00  0.00000000000E+00  0.99999998245E-14  0.12500000000E+03  0.12500000000E+03 0.  0.
        -11    1    3    3    0    0 -0.44769847912E+02  0.39090286299E+02 -0.44768091711E+01  0.59602278359E+02  0.51100000000E-03 0. -1.
         23    2    1    0    0    0 -0.21738849956E+02  0.12351676964E+02 -0.14251246041E+02  0.96220848954E+02  0.91816187236E+02 0.  0.
         11    1    3    3    0    0  0.23030997956E+02 -0.26738609335E+02 -0.97744368695E+01  0.36618570595E+02  0.51100000000E-03 0.  1.
         22    1    1    0    0    0  0.21738849956E+02 -0.12351676964E+02  0.14251246041E+02  0.28779151046E+02  0.00000000000E+00 0. -1.
</event>
<event>
 5    1  0.1099741E-009  0.9118800E+02  0.7818608E-02  0.1130116E+00
         25   -1    0    0    0    0  0.00000000000E+00  0.00000000000E+00  0.99999998245E-14  0.12500000000E+03  0.12500000000E+03 0.  0.
        -11    1    3    3    0    0 -0.34535778611E+02 -0.14331036156E+02 -0.10488610656E+02  0.38834386249E+02  0.51100000000E-03 0.  1.
         23    2    1    0    0    0 -0.35273645640E+00  0.26664500973E+02  0.10704509022E+02  0.96264889968E+02  0.91876125800E+02 0.  0.
         11    1    3    3    0    0  0.34183042154E+02  0.40995537129E+02  0.21193119678E+02  0.57430503719E+02  0.51100000000E-03 0. -1.
         22    1    1    0    0    0  0.35273645640E+00 -0.26664500973E+02 -0.10704509022E+02  0.28735110032E+02  0.00000000000E+00 0. -1.
</event>
<event>
 5    1  0.1099741E-009  0.9118800E+02  0.7818608E-02  0.1130116E+00
         25   -1    0    0    0    0  0.00000000000E+00  0.00000000000E+00  0.99999998245E-14  0.12500000000E+03  0.12500000000E+03 0.  0.
        -11    1    3    3    0    0 -0.41510478385E+02  0.22758324763E+02 -0.79018553947E+01  0.47994796392E+02  0.51100000000E-03 0. -1.
         23    2    1    0    0    0 -0.27199857311E+01  0.22026320291E+02  0.19470460267E+02  0.95476180278E+02  0.90796723893E+02 0.  0.
         11    1    3    3    0    0  0.38790492654E+02 -0.73200447144E+00  0.27372315662E+02  0.47481383887E+02  0.51100000000E-03 0.  1.
         22    1    1    0    0    0  0.27199857311E+01 -0.22026320291E+02 -0.19470460267E+02  0.29523819722E+02  0.00000000000E+00 0. -1.
</event>
<event>
 5    1  0.1099741E-009  0.9118800E+02  0.7818608E-02  0.1130116E+00
         25   -1    0    0    0    0  0.00000000000E+00  0.00000000000E+00  0.99999998245E-14  0.12500000000E+03  0.12500000000E+03 0.  0.
        -11    1    3    3    0    0  0.19844324118E+02 -0.16719857327E+02 -0.24028891449E+02  0.35365780823E+02  0.51100000000E-03 0. -1.
         23    2    1    0    0    0 -0.37547265385E+01  0.46036978305E+01  0.28016651159E+02  0.96360433885E+02  0.92006024103E+02 0.  0.
         11    1    3    3    0    0 -0.23599050656E+02  0.21323555157E+02  0.52045542608E+02  0.60994653061E+02  0.51100000000E-03 0.  1.
         22    1    1    0    0    0  0.37547265385E+01 -0.46036978305E+01 -0.28016651159E+02  0.28639566115E+02  0.00000000000E+00 0.  1.
</event>
<event>
 5    1  0.1099741E-009  0.9118800E+02  0.7818608E-02  0.1130116E+00
         25   -1    0    0    0    0  0.00000000000E+00  0.00000000000E+00  0.99999998245E-14  0.12500000000E+03  0.12500000000E+03 0.  0.
        -11    1    3    3    0    0 -0.17462752493E+02  0.15560401706E+02  0.55497750341E+02  0.60225195052E+02  0.51100000000E-03 0.  1.
         23    2    1    0    0    0 -0.97734982644E+01 -0.44764352660E+01  0.27289073156E+02  0.95669925763E+02  0.91063062988E+02 0.  0.
         11    1    3    3    0    0  0.76892542288E+01 -0.20036836972E+02 -0.28208677185E+02  0.35444730711E+02  0.51100000000E-03 0. -1.
         22    1    1    0    0    0  0.97734982644E+01  0.44764352660E+01 -0.27289073156E+02  0.29330074237E+02  0.00000000000E+00 0.  1.
</event>
<event>
 5    1  0.1099741E-009  0.9118800E+02  0.7818608E-02  0.1130116E+00
         25   -1    0    0    0    0  0.00000000000E+00  0.00000000000E+00  0.99999998245E-14  0.12500000000E+03  0.12500000000E+03 0.  0.
        -11    1    3    3    0    0 -0.39561425119E+02 -0.33394713449E+02 -0.55806771932E+01  0.52071654496E+02  0.51100000000E-03 0.  1.
         23    2    1    0    0    0 -0.21125295866E+02 -0.21095726082E+01  0.19475082075E+02  0.96190153700E+02  0.91774388720E+02 0.  0.
         11    1    3    3    0    0  0.18436129253E+02  0.31285140841E+02  0.25055759268E+02  0.44118499204E+02  0.51100000000E-03 0. -1.
         22    1    1    0    0    0  0.21125295866E+02  0.21095726082E+01 -0.19475082075E+02  0.28809846300E+02  0.00000000000E+00 0.  1.
</event>
<event>
 5    1  0.1099741E-009  0.9118800E+02  0.7818608E-02  0.1130116E+00
         25   -1    0    0    0    0  0.00000000000E+00  0.00000000000E+00  0.99999998245E-14  0.12500000000E+03  0.12500000000E+03 0.  0.
        -11    1    3    3    0    0 -0.22859889624E+02  0.44814499929E+02  0.22081842075E+02  0.54941074864E+02  0.51100000000E-03 0. -1.
         23    2    1    0    0    0 -0.29398640977E+00  0.29337220877E+02 -0.69638148268E+01  0.94846166517E+02  0.89925200190E+02 0.  0.
         11    1    3    3    0    0  0.22565903214E+02 -0.15477279052E+02 -0.29045656902E+02  0.39905091653E+02  0.51100000000E-03 0.  1.
         22    1    1    0    0    0  0.29398640977E+00 -0.29337220877E+02  0.69638148268E+01  0.30153833483E+02  0.00000000000E+00 0. -1.
</event>
<event>
 5    1  0.1099741E-009  0.9118800E+02  0.7818608E-02  0.1130116E+00
         25   -1    0    0    0    0  0.00000000000E+00  0.00000000000E+00  0.99999998245E-14  0.12500000000E+03  0.12500000000E+03 0.  0.
        -11    1    3    3    0    0 -0.72263761402E+00 -0.26508541021E+02  0.25946116681E+02  0.37100214599E+02  0.51100000000E-03 0.  1.
         23    2    1    0    0    0 -0.19211351911E+02  0.23244065306E+02  0.38235704366E+01  0.94602922755E+02  0.89586442549E+02 0.  0.
         11    1    3    3    0    0 -0.18488714297E+02  0.49752606327E+02 -0.22122546245E+02  0.57502708156E+02  0.51100000000E-03 0. -1.
         22    1    1    0    0    0  0.19211351911E+02 -0.23244065306E+02 -0.38235704366E+01  0.30397077245E+02  0.00000000000E+00 0. -1.
</event>
<event>
 5    1  0.1099741E-009  0.9118800E+02  0.7818608E-02  0.1130116E+00
         25   -1    0    0    0    0  0.00000000000E+00  0.00000000000E+00  0.99999998245E-14  0.12500000000E+03  0.12500000000E+03 0.  0.
        -11    1    3    3    0    0 -0.34606276120E+01 -0.22041905836E+02  0.54268352235E+02  0.58676022453E+02  0.51100000000E-03 0.  1.
         23    2    1    0    0    0  0.85121522905E+01 -0.20224948854E+02  0.18970659791E+02  0.95993255515E+02  0.91505813360E+02 0.  0.
         11    1    3    3    0    0  0.11972779902E+02  0.18169569820E+01 -0.35297692444E+02  0.37317233062E+02  0.51100000000E-03 0. -1.
         22    1    1    0    0    0 -0.85121522905E+01  0.20224948854E+02 -0.18970659791E+02  0.29006744485E+02  0.00000000000E+00 0.  1.
</event>
<event>
 5    1  0.1099741E-009  0.9118800E+02  0.7818608E-02  0.1130116E+00
         25   -1    0    0    0    0  0.00000000000E+00  0.00000000000E+00  0.99999998245E-14  0.12500000000E+03  0.12500000000E+03 0.  0.
        -11    1    3    3    0    0  0.37164533620E+01  0.31389597078E+02 -0.10738522303E+02  0.33383149818E+02  0.51100000000E-03 0. -1.
         23    2    1    0    0    0  0.53238120858E+01 -0.26848811822E+02  0.10907830577E+02  0.95535064242E+02  0.90877753385E+02 0.  0.
         11    1    3    3    0    0  0.16073587238E+01 -0.58238408899E+02  0.21646352880E+02  0.62151914423E+02  0.51100000000E-03 0.  1.
         22    1    1    0    0    0 -0.53238120858E+01  0.26848811822E+02 -0.10907830577E+02  0.29464935758E+02  0.00000000000E+00 0.  1.
</event>
<event>
 5    1  0.1099741E-009  0.9118800E+02  0.7818608E-02  0.1130116E+00
         25   -1    0    0    0    0  0.00000000000E+00  0.00000000000E+00  0.99999998245E-14  0.12500000000E+03  0.12500000000E+03 0.  0.
        -11    1    3    3    0    0 -0.13519147882E+02  0.28560968949E+02 -0.25247853071E+02  0.40446883584E+02  0.51100000000E-03 0.  1.
         23    2    1    0    0    0 -0.29508913993E+02 -0.14054790244E+02 -0.38246287894E+00  0.92312702594E+02  0.86331776586E+02 0.  0.
         11    1    3    3    0    0 -0.15989766111E+02 -0.42615759193E+02  0.24865390192E+02  0.51865819010E+02  0.51100000000E-03 0. -1.
         22    1    1    0    0    0  0.29508913993E+02  0.14054790244E+02  0.38246287894E+00  0.32687297406E+02  0.00000000000E+00 0.  1.
</event>
<event>
 5    1  0.1099741E-009  0.9118800E+02  0.7818608E-02  0.1130116E+00
         25   -1    0    0    0    0  0.00000000000E+00  0.00000000000E+00  0.99999998245E-14  0.12500000000E+03  0.12500000000E+03 0.  0.
        -11    1    3    3    0    0  0.26815844520E+02  0.58816615443E+01  0.29191578839E+02  0.40072830387E+02  0.51100000000E-03 0.  1.
         23    2    1    0    0    0 -0.15565324450E+02 -0.23412025403E+02  0.81041418669E+01  0.95741165879E+02  0.91160800072E+02 0.  0.
         11    1    3    3    0    0 -0.42381168970E+02 -0.29293686947E+02 -0.21087436972E+02  0.55668335493E+02  0.51100000000E-03 0. -1.
         22    1    1    0    0    0  0.15565324450E+02  0.23412025403E+02 -0.81041418669E+01  0.29258834121E+02  0.00000000000E+00 0. -1.
</event>
<event>
 5    1  0.1099741E-009  0.9118800E+02  0.7818608E-02  0.1130116E+00
         25   -1    0    0    0    0  0.00000000000E+00  0.00000000000E+00  0.99999998245E-14  0.12500000000E+03  0.12500000000E+03 0.  0.
        -11    1    3    3    0    0 -0.52647831008E+01  0.24149215507E+02  0.29521982475E+02  0.38502597318E+02  0.51100000000E-03 0.  1.
         23    2    1    0    0    0 -0.12577502643E+02 -0.26481743008E+02  0.48978875506E+01  0.95276850976E+02  0.90521890965E+02 0.  0.
         11    1    3    3    0    0 -0.73127195424E+01 -0.50630958515E+02 -0.24624094925E+02  0.56774253658E+02  0.51100000000E-03 0. -1.
         22    1    1    0    0    0  0.12577502643E+02  0.26481743008E+02 -0.48978875506E+01  0.29723149024E+02  0.00000000000E+00 0.  1.
</event>
<event>
 5    1  0.1099741E-009  0.9118800E+02  0.7818608E-02  0.1130116E+00
         25   -1    0    0    0    0  0.00000000000E+00  0.00000000000E+00  0.99999998245E-14  0.12500000000E+03  0.12500000000E+03 0.  0.
        -11    1    3    3    0    0 -0.19104592571E+02 -0.28608257648E+02  0.41524836269E+02  0.53923370540E+02  0.51100000000E-03 0.  1.
         23    2    1    0    0    0 -0.27239466339E+02 -0.31452223055E+00  0.13388387549E+02  0.94646476780E+02  0.89647192901E+02 0.  0.
         11    1    3    3    0    0 -0.81348737679E+01  0.28293735417E+02 -0.28136448720E+02  0.40723106241E+02  0.51100000000E-03 0. -1.
         22    1    1    0    0    0  0.27239466339E+02  0.31452223055E+00 -0.13388387549E+02  0.30353523220E+02  0.00000000000E+00 0. -1.
</event>
<event>
 5    1  0.1099741E-009  0.9118800E+02  0.7818608E-02  0.1130116E+00
         25   -1    0    0    0    0  0.00000000000E+00  0.00000000000E+00  0.99999998245E-14  0.12500000000E+03  0.12500000000E+03 0.  0.
        -11    1    3    3    0    0  0.52582227669E+02  0.53262241757E+01 -0.23996046725E+02  0.58043686903E+02  0.51100000000E-03 0. -1.
         23    2    1    0    0    0  0.19537521799E+02 -0.12976411210E+02 -0.15865549490E+02  0.96683614875E+02  0.92444057238E+02 0.  0.
         11    1    3    3    0    0 -0.33044705870E+02 -0.18302635386E+02  0.81304972354E+01  0.38639927972E+02  0.51100000000E-03 0.  1.
         22    1    1    0    0    0 -0.19537521799E+02  0.12976411210E+02  0.15865549490E+02  0.28316385125E+02  0.00000000000E+00 0. -1.
</event>
<event>
 5    1  0.1099741E-009  0.9118800E+02  0.7818608E-02  0.1130116E+00
         25   -1    0    0    0    0  0.00000000000E+00  0.00000000000E+00  0.99999998245E-14  0.12500000000E+03  0.12500000000E+03 0.  0.
        -11    1    3    3    0    0  0.18313788313E+02 -0.24346075336E+02  0.43900689285E+02  0.53435912517E+02  0.51100000000E-03 0.  1.
         23    2    1    0    0    0  0.11439335692E+02  0.95940704340E+01  0.31362347624E+02  0.90265270448E+02  0.83314570226E+02 0.  0.
         11    1    3    3    0    0 -0.68744526211E+01  0.33940145770E+02 -0.12538341661E+02  0.36829357931E+02  0.51100000000E-03 0. -1.
         22    1    1    0    0    0 -0.11439335692E+02 -0.95940704340E+01 -0.31362347624E+02  0.34734729552E+02  0.00000000000E+00 0.  1.
</event>
<event>
 5    1  0.1099741E-009  0.9118800E+02  0.7818608E-02  0.1130116E+00
         25   -1    0    0    0    0  0.00000000000E+00  0.00000000000E+00  0.99999998245E-14  0.12500000000E+03  0.12500000000E+03 0.  0.
        -11    1    3    3    0    0  0.52455374919E+01  0.35126663459E+02 -0.81413881583E+01  0.36437348295E+02  0.51100000000E-03 0. -1.
         23    2    1    0    0    0 -0.17549283261E+02 -0.18825059666E+02 -0.14680831941E+02  0.95370841374E+02  0.90651587650E+02 0.  0.
         11    1    3    3    0    0 -0.22794820753E+02 -0.53951723125E+02 -0.65394437827E+01  0.58933493079E+02  0.51100000000E-03 0.  1.
         22    1    1    0    0    0  0.17549283261E+02  0.18825059666E+02  0.14680831941E+02  0.29629158626E+02  0.00000000000E+00 0.  1.
</event>
<event>
 5    1  0.1099741E-009  0.9118800E+02  0.7818608E-02  0.1130116E+00
         25   -1    0    0    0    0  0.00000000000E+00  0.00000000000E+00  0.99999998245E-14  0.12500000000E+03  0.12500000000E+03 0.  0.
        -11    1    3    3    0    0  0.56415504566E+02  0.11613417410E+02 -0.57861583918E+01  0.57888342942E+02  0.51100000000E-03 0.  1.
         23    2    1    0    0    0  0.27890368566E+02 -0.36608285075E+01  0.11543499324E+02  0.94593969336E+02  0.89573948969E+02 0.  0.
         11    1    3    3    0    0 -0.28525136000E+02 -0.15274245918E+02  0.17329657715E+02  0.36705626394E+02  0.51100000000E-03 0. -1.
         22    1    1    0    0    0 -0.27890368566E+02  0.36608285075E+01 -0.11543499324E+02  0.30406030664E+02  0.00000000000E+00 0.  1.
</event>
<event>
 5    1  0.1099741E-009  0.9118800E+02  0.7818608E-02  0.1130116E+00
         25   -1    0    0    0    0  0.00000000000E+00  0.00000000000E+00  0.99999998245E-14  0.12500000000E+03  0.12500000000E+03 0.  0.
        -11    1    3    3    0    0  0.31215466252E+02 -0.15221839590E+02 -0.60906156948E+01  0.35259117028E+02  0.51100000000E-03 0.  1.
         23    2    1    0    0    0 -0.26414624396E+02 -0.15581341890E+02  0.49413477218E+01  0.93936717585E+02  0.88652012928E+02 0.  0.
         11    1    3    3    0    0 -0.57630090648E+02 -0.35950229998E+00  0.11031963417E+02  0.58677600557E+02  0.51100000000E-03 0. -1.
         22    1    1    0    0    0  0.26414624396E+02  0.15581341890E+02 -0.49413477218E+01  0.31063282415E+02  0.00000000000E+00 0. -1.
</event>
<event>
 5    1  0.1099741E-009  0.9118800E+02  0.7818608E-02  0.1130116E+00
         25   -1    0    0    0    0  0.00000000000E+00  0.00000000000E+00  0.99999998245E-14  0.12500000000E+03  0.12500000000E+03 0.  0.
        -11    1    3    3    0    0  0.84322573877E+00  0.25803330243E+02 -0.47791286523E+02  0.54318780813E+02  0.51100000000E-03 0.  1.
         23    2    1    0    0    0  0.20054137702E+02  0.27625681592E+00 -0.20241213773E+02  0.96505237467E+02  0.92202545338E+02 0.  0.
         11    1    3    3    0    0  0.19210911964E+02 -0.25527073427E+02  0.27550072750E+02  0.42186456654E+02  0.51100000000E-03 0. -1.
         22    1    1    0    0    0 -0.20054137702E+02 -0.27625681592E+00  0.20241213773E+02  0.28494762533E+02  0.00000000000E+00 0.  1.
</event>
<event>
 5    1  0.1099741E-009  0.9118800E+02  0.7818608E-02  0.1130116E+00
         25   -1    0    0    0    0  0.00000000000E+00  0.00000000000E+00  0.99999998245E-14  0.12500000000E+03  0.12500000000E+03 0.  0.
        -11    1    3    3    0    0  0.23662296589E+02  0.42800922971E+02  0.34127425887E+02  0.59636435884E+02  0.51100000000E-03 0.  1.
         23    2    1    0    0    0  0.21885240771E+02  0.13277607193E+02  0.11200094420E+02  0.97058977624E+02  0.92950225422E+02 0.  0.
         11    1    3    3    0    0 -0.17770558174E+01 -0.29523315777E+02 -0.22927331467E+02  0.37422541740E+02  0.51100000000E-03 0. -1.
         22    1    1    0    0    0 -0.21885240771E+02 -0.13277607193E+02 -0.11200094420E+02  0.27941022376E+02  0.00000000000E+00 0.  1.
</event>
<event>
 5    1  0.1099741E-009  0.9118800E+02  0.7818608E-02  0.1130116E+00
         25   -1    0    0    0    0  0.00000000000E+00  0.00000000000E+00  0.99999998245E-14  0.12500000000E+03  0.12500000000E+03 0.  0.
        -11    1    3    3    0    0 -0.16883884136E+02  0.25723652525E+02 -0.24759230808E+02  0.39494193917E+02  0.51100000000E-03 0. -1.
         23    2    1    0    0    0 -0.15335759166E+02 -0.23988956328E+02  0.28595213441E+01  0.96384752365E+02  0.92039057423E+02 0.  0.
         11    1    3    3    0    0  0.15481249702E+01 -0.49712608852E+02  0.27618752152E+02  0.56890558448E+02  0.51100000000E-03 0.  1.
         22    1    1    0    0    0  0.15335759166E+02  0.23988956328E+02 -0.28595213441E+01  0.28615247635E+02  0.00000000000E+00 0.  1.
</event>
<event>
 5    1  0.1099741E-009  0.9118800E+02  0.7818608E-02  0.1130116E+00
         25   -1    0    0    0    0  0.00000000000E+00  0.00000000000E+00  0.99999998245E-14  0.12500000000E+03  0.12500000000E+03 0.  0.
        -11    1    3    3    0    0  0.33140915635E+02 -0.61693834300E+01  0.29515932194E+02  0.44805935261E+02  0.51100000000E-03 0.  1.
         23    2    1    0    0    0  0.17580240097E+02 -0.15758457407E+02 -0.17736789819E+02  0.95470564943E+02  0.90788992922E+02 0.  0.
         11    1    3    3    0    0 -0.15560675539E+02 -0.95890739773E+01 -0.47252722013E+02  0.50664629682E+02  0.51100000000E-03 0. -1.
         22    1    1    0    0    0 -0.17580240097E+02  0.15758457407E+02  0.17736789819E+02  0.29529435057E+02  0.00000000000E+00 0.  1.
</event>
<event>
 5    1  0.1099741E-009  0.9118800E+02  0.7818608E-02  0.1130116E+00
         25   -1    0    0    0    0  0.00000000000E+00  0.00000000000E+00  0.99999998245E-14  0.12500000000E+03  0.12500000000E+03 0.  0.
        -11    1    3    3    0    0  0.29748365694E+02 -0.30810220727E+01  0.19026883388E+02  0.35446865168E+02  0.51100000000E-03 0. -1.
         23    2    1    0    0    0 -0.27884490813E+02  0.40812487498E+01 -0.77968275523E+00  0.96807637125E+02  0.92611604463E+02 0.  0.
         11    1    3    3    0    0 -0.57632856507E+02  0.71622708225E+01 -0.19806566144E+02  0.61360771957E+02  0.51100000000E-03 0.  1.
         22    1    1    0    0    0  0.27884490813E+02 -0.40812487498E+01  0.77968275523E+00  0.28192362875E+02  0.00000000000E+00 0.  1.
</event>
<event>
 5    1  0.1099741E-009  0.9118800E+02  0.7818608E-02  0.1130116E+00
         25   -1    0    0    0    0  0.00000000000E+00  0.00000000000E+00  0.99999998245E-14  0.12500000000E+03  0.12500000000E+03 0.  0.
        -11    1    3    3    0    0 -0.24944305070E+02  0.62182215160E+01 -0.53826827958E+02  0.59650750561E+02  0.51100000000E-03 0.  1.
         23    2    1    0    0    0 -0.22805851160E+02  0.28945952861E+01 -0.17716881026E+02  0.95976330309E+02  0.91482690042E+02 0.  0.
         11    1    3    3    0    0  0.21384539099E+01 -0.33236262299E+01  0.36109946931E+02  0.36325579749E+02  0.51100000000E-03 0. -1.
         22    1    1    0    0    0  0.22805851160E+02 -0.28945952861E+01  0.17716881026E+02  0.29023669691E+02  0.00000000000E+00 0. -1.
</event>
<event>
 5    1  0.1099741E-009  0.9118800E+02  0.7818608E-02  0.1130116E+00
         25   -1    0    0    0    0  0.00000000000E+00  0.00000000000E+00  0.99999998245E-14  0.12500000000E+03  0.12500000000E+03 0.  0.
        -11    1    3    3    0    0  0.83700483029E+01 -0.33915806228E+02 -0.36494208726E+02  0.50518975559E+02  0.51100000000E-03 0.  1.
         23    2    1    0    0    0 -0.89777122391E+01  0.68718312980E+01 -0.26831917085E+02  0.95883455615E+02  0.91355699898E+02 0.  0.
         11    1    3    3    0    0 -0.17347760542E+02  0.40787637526E+02  0.96622916403E+01  0.45364480057E+02  0.51100000000E-03 0. -1.
         22    1    1    0    0    0  0.89777122391E+01 -0.68718312980E+01  0.26831917085E+02  0.29116544385E+02  0.00000000000E+00 0.  1.
</event>
<event>
 5    1  0.1099741E-009  0.9118800E+02  0.7818608E-02  0.1130116E+00
         25   -1    0    0    0    0  0.00000000000E+00  0.00000000000E+00  0.99999998245E-14  0.12500000000E+03  0.12500000000E+03 0.  0.
        -11    1    3    3    0    0  0.18163039511E+02  0.41222448936E+02 -0.37621363250E+02  0.58690316693E+02  0.51100000000E-03 0.  1.
         23    2    1    0    0    0 -0.41489509802E+01  0.14174492472E+02 -0.25014365134E+02  0.95950929548E+02  0.91447976396E+02 0.  0.
         11    1    3    3    0    0 -0.22311990491E+02 -0.27047956464E+02  0.12606998116E+02  0.37260612855E+02  0.51100000000E-03 0. -1.
         22    1    1    0    0    0  0.41489509802E+01 -0.14174492472E+02  0.25014365134E+02  0.29049070452E+02  0.00000000000E+00 0.  1.
</event>
<event>
 5    1  0.1099741E-009  0.9118800E+02  0.7818608E-02  0.1130116E+00
         25   -1    0    0    0    0  0.00000000000E+00  0.00000000000E+00  0.99999998245E-14  0.12500000000E+03  0.12500000000E+03 0.  0.
        -11    1    3    3    0    0  0.33592143969E+02  0.32600740574E+02  0.63831185793E+01  0.47243884530E+02  0.51100000000E-03 0.  1.
         23    2    1    0    0    0 -0.12466923468E+02  0.26290252983E+02 -0.58622118148E+01  0.95318909892E+02  0.90579950723E+02 0.  0.
         11    1    3    3    0    0 -0.46059067437E+02 -0.63104875909E+01 -0.12245330394E+02  0.48075025362E+02  0.51100000000E-03 0. -1.
         22    1    1    0    0    0  0.12466923468E+02 -0.26290252983E+02  0.58622118148E+01  0.29681090108E+02  0.00000000000E+00 0.  1.
</event>
<event>
 5    1  0.1099741E-009  0.9118800E+02  0.7818608E-02  0.1130116E+00
         25   -1    0    0    0    0  0.00000000000E+00  0.00000000000E+00  0.99999998245E-14  0.12500000000E+03  0.12500000000E+03 0.  0.
        -11    1    3    3    0    0  0.35415633113E+02 -0.65605323102E+01 -0.93011860118E+01  0.37199727344E+02  0.51100000000E-03 0. -1.
         23    2    1    0    0    0 -0.21613931194E+02  0.89613692871E+00 -0.19810609356E+02  0.95666992549E+02  0.91059036549E+02 0.  0.
         11    1    3    3    0    0 -0.57029564307E+02  0.74566692390E+01 -0.10509423344E+02  0.58467265205E+02  0.51100000000E-03 0.  1.
         22    1    1    0    0    0  0.21613931194E+02 -0.89613692871E+00  0.19810609356E+02  0.29333007451E+02  0.00000000000E+00 0.  1.
</event>
<event>
 5    1  0.1099741E-009  0.9118800E+02  0.7818608E-02  0.1130116E+00
         25   -1    0    0    0    0  0.00000000000E+00  0.00000000000E+00  0.99999998245E-14  0.12500000000E+03  0.12500000000E+03 0.  0.
        -11    1    3    3    0    0 -0.21833822084E+02  0.26233077731E+02 -0.21516470576E+02  0.40346606553E+02  0.51100000000E-03 0.  1.
         23    2    1    0    0    0  0.54924345074E+01 -0.21970679616E+02 -0.18357970974E+02  0.95847080800E+02  0.91305915471E+02 0.  0.
         11    1    3    3    0    0  0.27326256591E+02 -0.48203757347E+02  0.31584996027E+01  0.55500474247E+02  0.51100000000E-03 0. -1.
         22    1    1    0    0    0 -0.54924345074E+01  0.21970679616E+02  0.18357970974E+02  0.29152919200E+02  0.00000000000E+00 0.  1.
</event>
<event>
 5    1  0.1099741E-009  0.9118800E+02  0.7818608E-02  0.1130116E+00
         25   -1    0    0    0    0  0.00000000000E+00  0.00000000000E+00  0.99999998245E-14  0.12500000000E+03  0.12500000000E+03 0.  0.
        -11    1    3    3    0    0  0.13653758228E+02 -0.92045924132E+01 -0.32236580105E+02  0.36198711750E+02  0.51100000000E-03 0. -1.
         23    2    1    0    0    0 -0.19177961114E+02  0.18740402077E+02  0.98353498710E+01  0.96438995648E+02  0.92112696802E+02 0.  0.
         11    1    3    3    0    0 -0.32831719341E+02  0.27944994490E+02  0.42071929976E+02  0.60240283898E+02  0.51100000000E-03 0.  1.
         22    1    1    0    0    0  0.19177961114E+02 -0.18740402077E+02 -0.98353498710E+01  0.28561004352E+02  0.00000000000E+00 0.  1.
</event>
<event>
 5    1  0.1099741E-009  0.9118800E+02  0.7818608E-02  0.1130116E+00
         25   -1    0    0    0    0  0.00000000000E+00  0.00000000000E+00  0.99999998245E-14  0.12500000000E+03  0.12500000000E+03 0.  0.
        -11    1    3    3    0    0  0.43434457767E+02  0.31575440852E+01  0.32354222440E+02  0.54252354015E+02  0.51100000000E-03 0.  1.
         23    2    1    0    0    0  0.28916419526E+02 -0.95971139509E+01 -0.28372434724E+01  0.94400753850E+02  0.89303910679E+02 0.  0.
         11    1    3    3    0    0 -0.14518038241E+02 -0.12754658036E+02 -0.35191465913E+02  0.40148399835E+02  0.51100000000E-03 0. -1.
         22    1    1    0    0    0 -0.28916419526E+02  0.95971139509E+01  0.28372434724E+01  0.30599246150E+02  0.00000000000E+00 0.  1.
</event>
<event>
 5    1  0.1099741E-009  0.9118800E+02  0.7818608E-02  0.1130116E+00
         25   -1    0    0    0    0  0.00000000000E+00  0.00000000000E+00  0.99999998245E-14  0.12500000000E+03  0.12500000000E+03 0.  0.
        -11    1    3    3    0    0 -0.17949552118E+02  0.23538260187E+01  0.32294589918E+02  0.37022526337E+02  0.51100000000E-03 0.  1.
         23    2    1    0    0    0  0.21089984828E+01  0.21462858611E+02 -0.19605749341E+02  0.95854029754E+02  0.91315428261E+02 0.  0.
         11    1    3    3    0    0  0.20058550601E+02  0.19109032592E+02 -0.51900339259E+02  0.58831503417E+02  0.51100000000E-03 0. -1.
         22    1    1    0    0    0 -0.21089984828E+01 -0.21462858611E+02  0.19605749341E+02  0.29145970246E+02  0.00000000000E+00 0. -1.
</event>
<event>
 5    1  0.1099741E-009  0.9118800E+02  0.7818608E-02  0.1130116E+00
         25   -1    0    0    0    0  0.00000000000E+00  0.00000000000E+00  0.99999998245E-14  0.12500000000E+03  0.12500000000E+03 0.  0.
        -11    1    3    3    0    0  0.22220976213E+02  0.40090322880E+02 -0.31368870213E+00  0.45837802885E+02  0.51100000000E-03 0. -1.
         23    2    1    0    0    0 -0.16272037527E+02  0.20225372147E+02 -0.18814804797E+02  0.92940028644E+02  0.87235354995E+02 0.  0.
         11    1    3    3    0    0 -0.38493013740E+02 -0.19864950733E+02 -0.18501116095E+02  0.47102225759E+02  0.51100000000E-03 0.  1.
         22    1    1    0    0    0  0.16272037527E+02 -0.20225372147E+02  0.18814804797E+02  0.32059971356E+02  0.00000000000E+00 0.  1.
</event>
<event>
 5    1  0.1099741E-009  0.9118800E+02  0.7818608E-02  0.1130116E+00
         25   -1    0    0    0    0  0.00000000000E+00  0.00000000000E+00  0.99999998245E-14  0.12500000000E+03  0.12500000000E+03 0.  0.
        -11    1    3    3    0    0  0.39125985296E+02  0.85022032695E+01 -0.46775623671E+02  0.61571821119E+02  0.51100000000E-03 0.  1.
         23    2    1    0    0    0  0.20910103452E+02 -0.24189108947E+01 -0.18217798307E+02  0.97161685909E+02  0.93088245645E+02 0.  0.
         11    1    3    3    0    0 -0.18215881844E+02 -0.10921114164E+02  0.28557825364E+02  0.35589864790E+02  0.51100000000E-03 0. -1.
         22    1    1    0    0    0 -0.20910103452E+02  0.24189108947E+01  0.18217798307E+02  0.27838314091E+02  0.00000000000E+00 0.  1.
</event>
<event>
 5    1  0.1099741E-009  0.9118800E+02  0.7818608E-02  0.1130116E+00
         25   -1    0    0    0    0  0.00000000000E+00  0.00000000000E+00  0.99999998245E-14  0.12500000000E+03  0.12500000000E+03 0.  0.
        -11    1    3    3    0    0  0.20730602365E+02 -0.39609454057E+02 -0.39228751867E+02  0.59477404940E+02  0.51100000000E-03 0. -1.
         23    2    1    0    0    0 -0.17591606393E+01 -0.13869105157E+02 -0.24699599268E+02  0.96618369885E+02  0.92355792840E+02 0.  0.
         11    1    3    3    0    0 -0.22489763004E+02  0.25740348900E+02  0.14529152599E+02  0.37140964944E+02  0.51100000000E-03 0.  1.
         22    1    1    0    0    0  0.17591606393E+01  0.13869105157E+02  0.24699599268E+02  0.28381630115E+02  0.00000000000E+00 0. -1.
</event>
<event>
 5    1  0.1099741E-009  0.9118800E+02  0.7818608E-02  0.1130116E+00
         25   -1    0    0    0    0  0.00000000000E+00  0.00000000000E+00  0.99999998245E-14  0.12500000000E+03  0.12500000000E+03 0.  0.
        -11    1    3    3    0    0 -0.23599661051E+02 -0.16862102624E+02 -0.20199652241E+02  0.35345444650E+02  0.51100000000E-03 0. -1.
         23    2    1    0    0    0 -0.40962043025E+01  0.39723707887E+01  0.30740095529E+02  0.93734810212E+02  0.88366863433E+02 0.  0.
         11    1    3    3    0    0  0.19503456749E+02  0.20834473413E+02  0.50939747770E+02  0.58389365561E+02  0.51100000000E-03 0.  1.
         22    1    1    0    0    0  0.40962043025E+01 -0.39723707887E+01 -0.30740095529E+02  0.31265189788E+02  0.00000000000E+00 0.  1.
</event>
<event>
 5    1  0.1099741E-009  0.9118800E+02  0.7818608E-02  0.1130116E+00
         25   -1    0    0    0    0  0.00000000000E+00  0.00000000000E+00  0.99999998245E-14  0.12500000000E+03  0.12500000000E+03 0.  0.
        -11    1    3    3    0    0 -0.22518485545E+02  0.38488024038E+02  0.18643399191E+02  0.48332044435E+02  0.51100000000E-03 0.  1.
         23    2    1    0    0    0 -0.24557598840E+02 -0.85815227231E+01  0.13403316110E+02  0.95736249800E+02  0.91154058878E+02 0.  0.
         11    1    3    3    0    0 -0.20391132950E+01 -0.47069546761E+02 -0.52400830807E+01  0.47404205365E+02  0.51100000000E-03 0. -1.
         22    1    1    0    0    0  0.24557598840E+02  0.85815227231E+01 -0.13403316110E+02  0.29263750200E+02  0.00000000000E+00 0. -1.
</event>
<event>
 5    1  0.1099741E-009  0.9118800E+02  0.7818608E-02  0.1130116E+00
         25   -1    0    0    0    0  0.00000000000E+00  0.00000000000E+00  0.99999998245E-14  0.12500000000E+03  0.12500000000E+03 0.  0.
        -11    1    3    3    0    0 -0.26290844107E+01  0.17889983006E+02 -0.28207856444E+02  0.33505921002E+02  0.51100000000E-03 0. -1.
         23    2    1    0    0    0 -0.26265467285E+01 -0.19624570161E+02  0.21494028221E+02  0.95776452116E+02  0.91209171847E+02 0.  0.
         11    1    3    3    0    0  0.25376821363E-02 -0.37514553167E+02  0.49701884665E+02  0.62270531114E+02  0.51100000000E-03 0.  1.
         22    1    1    0    0    0  0.26265467285E+01  0.19624570161E+02 -0.21494028221E+02  0.29223547884E+02  0.00000000000E+00 0.  1.
</event>
<event>
 5    1  0.1099741E-009  0.9118800E+02  0.7818608E-02  0.1130116E+00
         25   -1    0    0    0    0  0.00000000000E+00  0.00000000000E+00  0.99999998245E-14  0.12500000000E+03  0.12500000000E+03 0.  0.
        -11    1    3    3    0    0  0.39057854967E+02 -0.76375325694E+01 -0.40334540965E+02  0.56663243231E+02  0.51100000000E-03 0.  1.
         23    2    1    0    0    0  0.90181163933E-01  0.66586604905E+01 -0.21954027689E+02  0.10205822099E+03  0.99446243009E+02 0.  0.
         11    1    3    3    0    0 -0.38967673803E+02  0.14296193060E+02  0.18380513275E+02  0.45394977763E+02  0.51100000000E-03 0. -1.
         22    1    1    0    0    0 -0.90181163933E-01 -0.66586604905E+01  0.21954027689E+02  0.22941779006E+02  0.00000000000E+00 0.  1.
</event>
<event>
 5    1  0.1099741E-009  0.9118800E+02  0.7818608E-02  0.1130116E+00
         25   -1    0    0    0    0  0.00000000000E+00  0.00000000000E+00  0.99999998245E-14  0.12500000000E+03  0.12500000000E+03 0.  0.
        -11    1    3    3    0    0 -0.59844065513E+02  0.26801510680E+01  0.16979849089E+01  0.59928111433E+02  0.51100000000E-03 0. -1.
         23    2    1    0    0    0 -0.29159963595E+02 -0.97515988994E+01 -0.53864286568E+01  0.93784446639E+02  0.88437049135E+02 0.  0.
         11    1    3    3    0    0  0.30684101918E+02 -0.12431749967E+02 -0.70844135658E+01  0.33856335206E+02  0.51100000000E-03 0.  1.
         22    1    1    0    0    0  0.29159963595E+02  0.97515988994E+01  0.53864286568E+01  0.31215553361E+02  0.00000000000E+00 0. -1.
</event>
<event>
 5    1  0.1099741E-009  0.9118800E+02  0.7818608E-02  0.1130116E+00
         25   -1    0    0    0    0  0.00000000000E+00  0.00000000000E+00  0.99999998245E-14  0.12500000000E+03  0.12500000000E+03 0.  0.
        -11    1    3    3    0    0 -0.15863151298E+02  0.33334750957E+02 -0.82286982512E+01  0.37822700401E+02  0.51100000000E-03 0.  1.
         23    2    1    0    0    0  0.28887158347E+02 -0.53467571823E+00  0.54744041641E+01  0.95593828940E+02  0.90958546794E+02 0.  0.
         11    1    3    3    0    0  0.44750309644E+02 -0.33869426675E+02  0.13703102415E+02  0.57771128539E+02  0.51100000000E-03 0. -1.
         22    1    1    0    0    0 -0.28887158347E+02  0.53467571823E+00 -0.54744041641E+01  0.29406171060E+02  0.00000000000E+00 0. -1.
</event>
<event>
 5    1  0.1099741E-009  0.9118800E+02  0.7818608E-02  0.1130116E+00
         25   -1    0    0    0    0  0.00000000000E+00  0.00000000000E+00  0.99999998245E-14  0.12500000000E+03  0.12500000000E+03 0.  0.
        -11    1    3    3    0    0 -0.30608005561E+02 -0.16630486952E+02  0.45349573850E+02  0.57183974585E+02  0.51100000000E-03 0.  1.
         23    2    1    0    0    0 -0.17261503755E+02  0.90416514071E+01  0.27887338956E+02  0.90979202741E+02  0.84378911378E+02 0.  0.
         11    1    3    3    0    0  0.13346501806E+02  0.25672138359E+02 -0.17462234894E+02  0.33795228156E+02  0.51100000000E-03 0. -1.
         22    1    1    0    0    0  0.17261503755E+02 -0.90416514071E+01 -0.27887338956E+02  0.34020797259E+02  0.00000000000E+00 0.  1.
</event>
<event>
 5    1  0.1099741E-009  0.9118800E+02  0.7818608E-02  0.1130116E+00
         25   -1    0    0    0    0  0.00000000000E+00  0.00000000000E+00  0.99999998245E-14  0.12500000000E+03  0.12500000000E+03 0.  0.
        -11    1    3    3    0    0  0.10430274924E+01 -0.80769571992E+00  0.45675720459E+02  0.45694766861E+02  0.51100000000E-03 0.  1.
         23    2    1    0    0    0 -0.18963721919E+02  0.20224295296E+02  0.32709676281E+01  0.97083264903E+02  0.92982881358E+02 0.  0.
         11    1    3    3    0    0 -0.20006749412E+02  0.21031991016E+02 -0.42404752831E+02  0.51388498042E+02  0.51100000000E-03 0. -1.
         22    1    1    0    0    0  0.18963721919E+02 -0.20224295296E+02 -0.32709676281E+01  0.27916735097E+02  0.00000000000E+00 0. -1.
</event>
<event>
 5    1  0.1099741E-009  0.9118800E+02  0.7818608E-02  0.1130116E+00
         25   -1    0    0    0    0  0.00000000000E+00  0.00000000000E+00  0.99999998245E-14  0.12500000000E+03  0.12500000000E+03 0.  0.
        -11    1    3    3    0    0  0.35688515398E+02 -0.16051549857E+02  0.45878901856E+01  0.39400141126E+02  0.51100000000E-03 0. -1.
         23    2    1    0    0    0  0.76720570673E+01  0.27487600259E+02 -0.12391631096E+02  0.93887604578E+02  0.88582736154E+02 0.  0.
         11    1    3    3    0    0 -0.28016458330E+02  0.43539150117E+02 -0.16979521282E+02  0.54487463452E+02  0.51100000000E-03 0.  1.
         22    1    1    0    0    0 -0.76720570673E+01 -0.27487600259E+02  0.12391631096E+02  0.31112395422E+02  0.00000000000E+00 0.  1.
</event>
<event>
 5    1  0.1099741E-009  0.9118800E+02  0.7818608E-02  0.1130116E+00
         25   -1    0    0    0    0  0.00000000000E+00  0.00000000000E+00  0.99999998245E-14  0.12500000000E+03  0.12500000000E+03 0.  0.
        -11    1    3    3    0    0 -0.24152972220E+02 -0.37543047699E+02 -0.21721518105E+02  0.49645451419E+02  0.51100000000E-03 0.  1.
         23    2    1    0    0    0  0.11551503665E+01  0.31650937744E+01 -0.26928727779E+02  0.97861308602E+02  0.94023013941E+02 0.  0.
         11    1    3    3    0    0  0.25308122586E+02  0.40708141473E+02 -0.52072096746E+01  0.48215857183E+02  0.51100000000E-03 0. -1.
         22    1    1    0    0    0 -0.11551503665E+01 -0.31650937744E+01  0.26928727779E+02  0.27138691398E+02  0.00000000000E+00 0.  1.
</event>
<event>
 5    1  0.1099741E-009  0.9118800E+02  0.7818608E-02  0.1130116E+00
         25   -1    0    0    0    0  0.00000000000E+00  0.00000000000E+00  0.99999998245E-14  0.12500000000E+03  0.12500000000E+03 0.  0.
        -11    1    3    3    0    0  0.33158892220E+02 -0.40221266914E+02 -0.62854561878E+01  0.52504946483E+02  0.51100000000E-03 0. -1.
         23    2    1    0    0    0 -0.46615780485E+01 -0.27452985966E+02  0.97122014760E+01  0.95508923284E+02  0.90841790058E+02 0.  0.
         11    1    3    3    0    0 -0.37820470269E+02  0.12768280947E+02  0.15997657664E+02  0.43003976801E+02  0.51100000000E-03 0.  1.
         22    1    1    0    0    0  0.46615780485E+01  0.27452985966E+02 -0.97122014760E+01  0.29491076716E+02  0.00000000000E+00 0. -1.
</event>
<event>
 5    1  0.1099741E-009  0.9118800E+02  0.7818608E-02  0.1130116E+00
         25   -1    0    0    0    0  0.00000000000E+00  0.00000000000E+00  0.99999998245E-14  0.12500000000E+03  0.12500000000E+03 0.  0.
        -11    1    3    3    0    0  0.35864606832E+02 -0.27476182124E+01 -0.13241270337E+02  0.38329501294E+02  0.51100000000E-03 0. -1.
         23    2    1    0    0    0 -0.23358918211E+02 -0.77241161706E+01  0.36794156200E+01  0.10012352256E+03  0.96983919490E+02 0.  0.
         11    1    3    3    0    0 -0.59223525043E+02 -0.49764979582E+01  0.16920685957E+02  0.61794021264E+02  0.51100000000E-03 0.  1.
         22    1    1    0    0    0  0.23358918211E+02  0.77241161706E+01 -0.36794156200E+01  0.24876477442E+02  0.00000000000E+00 0.  1.
</event>
<event>
 5    1  0.1099741E-009  0.9118800E+02  0.7818608E-02  0.1130116E+00
         25   -1    0    0    0    0  0.00000000000E+00  0.00000000000E+00  0.99999998245E-14  0.12500000000E+03  0.12500000000E+03 0.  0.
        -11    1    3    3    0    0 -0.35795579494E+01  0.46737034004E+02 -0.23315380731E+02  0.52352369206E+02  0.51100000000E-03 0.  1.
         23    2    1    0    0    0  0.34864280917E+01  0.26828916252E+02  0.13474344584E+02  0.94775773127E+02  0.89827296974E+02 0.  0.
         11    1    3    3    0    0  0.70659860412E+01 -0.19908117752E+02  0.36789725315E+02  0.42423403920E+02  0.51100000000E-03 0. -1.
         22    1    1    0    0    0 -0.34864280917E+01 -0.26828916252E+02 -0.13474344584E+02  0.30224226873E+02  0.00000000000E+00 0.  1.
</event>
<event>
 5    1  0.1099741E-009  0.9118800E+02  0.7818608E-02  0.1130116E+00
         25   -1    0    0    0    0  0.00000000000E+00  0.00000000000E+00  0.99999998245E-14  0.12500000000E+03  0.12500000000E+03 0.  0.
        -11    1    3    3    0    0 -0.87265832308E+01  0.24986864492E+02 -0.54586183662E+02  0.60664224211E+02  0.51100000000E-03 0.  1.
         23    2    1    0    0    0 -0.18937522791E+01  0.21331948959E+01 -0.29799855219E+02  0.95063931634E+02  0.90227395554E+02 0.  0.
         11    1    3    3    0    0  0.68328309518E+01 -0.22853669596E+02  0.24786328444E+02  0.34399707423E+02  0.51100000000E-03 0. -1.
         22    1    1    0    0    0  0.18937522791E+01 -0.21331948959E+01  0.29799855219E+02  0.29936068366E+02  0.00000000000E+00 0.  1.
</event>
<event>
 5    1  0.1099741E-009  0.9118800E+02  0.7818608E-02  0.1130116E+00
         25   -1    0    0    0    0  0.00000000000E+00  0.00000000000E+00  0.99999998245E-14  0.12500000000E+03  0.12500000000E+03 0.  0.
        -11    1    3    3    0    0 -0.36516393760E+02  0.24002880339E+02  0.37635901687E+02  0.57671885471E+02  0.51100000000E-03 0.  1.
         23    2    1    0    0    0 -0.14017925814E+02 -0.37141300580E+01  0.26017676365E+02  0.95213820492E+02  0.90434811456E+02 0.  0.
         11    1    3    3    0    0  0.22498467946E+02 -0.27717010397E+02 -0.11618225321E+02  0.37541935021E+02  0.51100000000E-03 0. -1.
         22    1    1    0    0    0  0.14017925814E+02  0.37141300580E+01 -0.26017676365E+02  0.29786179508E+02  0.00000000000E+00 0.  1.
</event>
<event>
 5    1  0.1099741E-009  0.9118800E+02  0.7818608E-02  0.1130116E+00
         25   -1    0    0    0    0  0.00000000000E+00  0.00000000000E+00  0.99999998245E-14  0.12500000000E+03  0.12500000000E+03 0.  0.
        -11    1    3    3    0    0 -0.17187247611E+02 -0.27394528537E+02 -0.48986688978E+02  0.58698870274E+02  0.51100000000E-03 0.  1.
         23    2    1    0    0    0  0.75244325279E+01 -0.15496065464E+02 -0.19982356994E+02  0.98617435289E+02  0.95022938400E+02 0.  0.
         11    1    3    3    0    0  0.24711680138E+02  0.11898463073E+02  0.29004331984E+02  0.39918565015E+02  0.51100000000E-03 0. -1.
         22    1    1    0    0    0 -0.75244325279E+01  0.15496065464E+02  0.19982356994E+02  0.26382564711E+02  0.00000000000E+00 0.  1.
</event>
<event>
 5    1  0.1099741E-009  0.9118800E+02  0.7818608E-02  0.1130116E+00
         25   -1    0    0    0    0  0.00000000000E+00  0.00000000000E+00  0.99999998245E-14  0.12500000000E+03  0.12500000000E+03 0.  0.
        -11    1    3    3    0    0  0.40091385477E+02 -0.47216532045E+02  0.84798849694E+00  0.61947067506E+02  0.51100000000E-03 0. -1.
         23    2    1    0    0    0  0.16751732477E+02 -0.23563293696E+02  0.57095774716E+01  0.95530547584E+02  0.90871540628E+02 0.  0.
         11    1    3    3    0    0 -0.23339653000E+02  0.23653238350E+02  0.48615889747E+01  0.33583480079E+02  0.51100000000E-03 0.  1.
         22    1    1    0    0    0 -0.16751732477E+02  0.23563293696E+02 -0.57095774716E+01  0.29469452416E+02  0.00000000000E+00 0. -1.
</event>
<event>
 5    1  0.1099741E-009  0.9118800E+02  0.7818608E-02  0.1130116E+00
         25   -1    0    0    0    0  0.00000000000E+00  0.00000000000E+00  0.99999998245E-14  0.12500000000E+03  0.12500000000E+03 0.  0.
        -11    1    3    3    0    0  0.42652988359E+02 -0.20428105477E+02 -0.47290823879E+01  0.47528403401E+02  0.51100000000E-03 0. -1.
         23    2    1    0    0    0  0.55413151589E+01 -0.11787898173E+01 -0.28717797424E+02  0.95728723840E+02  0.91143737909E+02 0.  0.
         11    1    3    3    0    0 -0.37111673200E+02  0.19249315660E+02 -0.23988715036E+02  0.48200320439E+02  0.51100000000E-03 0.  1.
         22    1    1    0    0    0 -0.55413151589E+01  0.11787898173E+01  0.28717797424E+02  0.29271276160E+02  0.00000000000E+00 0. -1.
</event>
<event>
 5    1  0.1099741E-009  0.9118800E+02  0.7818608E-02  0.1130116E+00
         25   -1    0    0    0    0  0.00000000000E+00  0.00000000000E+00  0.99999998245E-14  0.12500000000E+03  0.12500000000E+03 0.  0.
        -11    1    3    3    0    0  0.18379580013E+02 -0.36146177482E+02 -0.40661270616E+02  0.57425552121E+02  0.51100000000E-03 0. -1.
         23    2    1    0    0    0 -0.10333457101E+02 -0.98950755402E+01 -0.16225908958E+02  0.10336731692E+03  0.10107833215E+03 0.  0.
         11    1    3    3    0    0 -0.28713037114E+02  0.26251101942E+02  0.24435361658E+02  0.45941764802E+02  0.51100000000E-03 0.  1.
         22    1    1    0    0    0  0.10333457101E+02  0.98950755402E+01  0.16225908958E+02  0.21632683077E+02  0.00000000000E+00 0. -1.
</event>
<event>
 5    1  0.1099741E-009  0.9118800E+02  0.7818608E-02  0.1130116E+00
         25   -1    0    0    0    0  0.00000000000E+00  0.00000000000E+00  0.99999998245E-14  0.12500000000E+03  0.12500000000E+03 0.  0.
        -11    1    3    3    0    0  0.13365898958E+02  0.35512761857E+02 -0.31402334778E+02  0.49253529208E+02  0.51100000000E-03 0. -1.
         23    2    1    0    0    0  0.22690368206E+02  0.26241797725E+02  0.67939424709E+01  0.89649718368E+02  0.82385857961E+02 0.  0.
         11    1    3    3    0    0  0.93244692479E+01 -0.92709641317E+01  0.38196277249E+02  0.40396189160E+02  0.51100000000E-03 0.  1.
         22    1    1    0    0    0 -0.22690368206E+02 -0.26241797725E+02 -0.67939424709E+01  0.35350281632E+02  0.00000000000E+00 0. -1.
</event>
<event>
 5    1  0.1099741E-009  0.9118800E+02  0.7818608E-02  0.1130116E+00
         25   -1    0    0    0    0  0.00000000000E+00  0.00000000000E+00  0.99999998245E-14  0.12500000000E+03  0.12500000000E+03 0.  0.
        -11    1    3    3    0    0 -0.25529876050E+02  0.33076451146E+02  0.16908594132E+02  0.45074679670E+02  0.51100000000E-03 0. -1.
         23    2    1    0    0    0  0.15083665971E+01 -0.84500990347E+01  0.27880523206E+02  0.95828045699E+02  0.91279852239E+02 0.  0.
         11    1    3    3    0    0  0.27038242647E+02 -0.41526550181E+02  0.10971929075E+02  0.50753366029E+02  0.51100000000E-03 0.  1.
         22    1    1    0    0    0 -0.15083665971E+01  0.84500990347E+01 -0.27880523206E+02  0.29171954301E+02  0.00000000000E+00 0.  1.
</event>
<event>
 5    1  0.1099741E-009  0.9118800E+02  0.7818608E-02  0.1130116E+00
         25   -1    0    0    0    0  0.00000000000E+00  0.00000000000E+00  0.99999998245E-14  0.12500000000E+03  0.12500000000E+03 0.  0.
        -11    1    3    3    0    0 -0.10730808093E+02  0.39136219928E+02 -0.29834806815E+01  0.40690233593E+02  0.51100000000E-03 0.  1.
         23    2    1    0    0    0 -0.26020203319E+02 -0.12621841592E+02 -0.82786804644E+01  0.94918470515E+02  0.90025649838E+02 0.  0.
         11    1    3    3    0    0 -0.15289395226E+02 -0.51758061520E+02 -0.52951997829E+01  0.54228236922E+02  0.51100000000E-03 0. -1.
         22    1    1    0    0    0  0.26020203319E+02  0.12621841592E+02  0.82786804644E+01  0.30081529485E+02  0.00000000000E+00 0.  1.
</event>
<event>
 5    1  0.1099741E-009  0.9118800E+02  0.7818608E-02  0.1130116E+00
         25   -1    0    0    0    0  0.00000000000E+00  0.00000000000E+00  0.99999998245E-14  0.12500000000E+03  0.12500000000E+03 0.  0.
        -11    1    3    3    0    0 -0.32911674531E+02 -0.19127271240E+02 -0.19572404453E+02  0.42803152242E+02  0.51100000000E-03 0.  1.
         23    2    1    0    0    0  0.48137807377E+01 -0.23614572619E+02  0.16976381819E+02  0.95520887655E+02  0.90858251765E+02 0.  0.
         11    1    3    3    0    0  0.37725455269E+02 -0.44873013794E+01  0.36548786272E+02  0.52717735413E+02  0.51100000000E-03 0. -1.
         22    1    1    0    0    0 -0.48137807377E+01  0.23614572619E+02 -0.16976381819E+02  0.29479112345E+02  0.00000000000E+00 0. -1.
</event>
<event>
 5    1  0.1099741E-009  0.9118800E+02  0.7818608E-02  0.1130116E+00
         25   -1    0    0    0    0  0.00000000000E+00  0.00000000000E+00  0.99999998245E-14  0.12500000000E+03  0.12500000000E+03 0.  0.
        -11    1    3    3    0    0 -0.57645659454E+02 -0.24078503141E+01  0.19504557503E+02  0.60903592346E+02  0.51100000000E-03 0. -1.
         23    2    1    0    0    0 -0.24073749833E+02 -0.10488567343E+02  0.11400922062E+02  0.96372452082E+02  0.92022350658E+02 0.  0.
         11    1    3    3    0    0  0.33571909622E+02 -0.80807170289E+01 -0.81036354416E+01  0.35468859736E+02  0.51100000000E-03 0.  1.
         22    1    1    0    0    0  0.24073749833E+02  0.10488567343E+02 -0.11400922062E+02  0.28627547918E+02  0.00000000000E+00 0. -1.
</event>
<event>
 5    1  0.1099741E-009  0.9118800E+02  0.7818608E-02  0.1130116E+00
         25   -1    0    0    0    0  0.00000000000E+00  0.00000000000E+00  0.99999998245E-14  0.12500000000E+03  0.12500000000E+03 0.  0.
        -11    1    3    3    0    0  0.32588576151E+02  0.36361049931E+02  0.36968459221E+02  0.61243842344E+02  0.51100000000E-03 0.  1.
         23    2    1    0    0    0  0.75592786299E+01  0.20120989587E+02  0.20372642302E+02  0.95385114052E+02  0.90671266193E+02 0.  0.
         11    1    3    3    0    0 -0.25029297521E+02 -0.16240060344E+02 -0.16595816919E+02  0.34141271708E+02  0.51100000000E-03 0. -1.
         22    1    1    0    0    0 -0.75592786299E+01 -0.20120989587E+02 -0.20372642302E+02  0.29614885948E+02  0.00000000000E+00 0.  1.
</event>
<event>
 5    1  0.1099741E-009  0.9118800E+02  0.7818608E-02  0.1130116E+00
         25   -1    0    0    0    0  0.00000000000E+00  0.00000000000E+00  0.99999998245E-14  0.12500000000E+03  0.12500000000E+03 0.  0.
        -11    1    3    3    0    0 -0.31952022619E+02  0.66216454692E+01  0.13423680933E+02  0.35284177023E+02  0.51100000000E-03 0.  1.
         23    2    1    0    0    0  0.19489430501E+02 -0.21509846405E+02 -0.19848271742E+01  0.95906170198E+02  0.91386774478E+02 0.  0.
         11    1    3    3    0    0  0.51441453120E+02 -0.28131491874E+02 -0.15408508107E+02  0.60621993175E+02  0.51100000000E-03 0. -1.
         22    1    1    0    0    0 -0.19489430501E+02  0.21509846405E+02  0.19848271742E+01  0.29093829802E+02  0.00000000000E+00 0. -1.
</event>
<event>
 5    1  0.1099741E-009  0.9118800E+02  0.7818608E-02  0.1130116E+00
         25   -1    0    0    0    0  0.00000000000E+00  0.00000000000E+00  0.99999998245E-14  0.12500000000E+03  0.12500000000E+03 0.  0.
        -11    1    3    3    0    0  0.44769167180E+01 -0.13323001069E+02  0.50703637962E+02  0.52615625471E+02  0.51100000000E-03 0. -1.
         23    2    1    0    0    0  0.20861605662E+02 -0.19826247896E+02  0.14745187766E+02  0.92662602784E+02  0.86836920120E+02 0.  0.
         11    1    3    3    0    0  0.16384688944E+02 -0.65032468278E+01 -0.35958450197E+02  0.40046977313E+02  0.51100000000E-03 0.  1.
         22    1    1    0    0    0 -0.20861605662E+02  0.19826247896E+02 -0.14745187766E+02  0.32337397216E+02  0.00000000000E+00 0. -1.
</event>
<event>
 5    1  0.1099741E-009  0.9118800E+02  0.7818608E-02  0.1130116E+00
         25   -1    0    0    0    0  0.00000000000E+00  0.00000000000E+00  0.99999998245E-14  0.12500000000E+03  0.12500000000E+03 0.  0.
        -11    1    3    3    0    0  0.29414474314E+02  0.24662502140E+01  0.51415577769E+02  0.59286215319E+02  0.51100000000E-03 0. -1.
         23    2    1    0    0    0  0.11482274463E+02 -0.12924625713E+02  0.21281451045E+02  0.97581233885E+02  0.93649925100E+02 0.  0.
         11    1    3    3    0    0 -0.17932199851E+02 -0.15390875927E+02 -0.30134126724E+02  0.38295018566E+02  0.51100000000E-03 0.  1.
         22    1    1    0    0    0 -0.11482274463E+02  0.12924625713E+02 -0.21281451045E+02  0.27418766115E+02  0.00000000000E+00 0. -1.
</event>
<event>
 5    1  0.1099741E-009  0.9118800E+02  0.7818608E-02  0.1130116E+00
         25   -1    0    0    0    0  0.00000000000E+00  0.00000000000E+00  0.99999998245E-14  0.12500000000E+03  0.12500000000E+03 0.  0.
        -11    1    3    3    0    0 -0.54054548857E+02 -0.27663493532E+02 -0.12620748615E+01  0.60735129536E+02  0.51100000000E-03 0.  1.
         23    2    1    0    0    0 -0.26410851465E+02 -0.98568258790E+01  0.93694406740E+01  0.95293493809E+02  0.90544869829E+02 0.  0.
         11    1    3    3    0    0  0.27643697392E+02  0.17806667653E+02  0.10631515535E+02  0.34558364273E+02  0.51100000000E-03 0. -1.
         22    1    1    0    0    0  0.26410851465E+02  0.98568258790E+01 -0.93694406740E+01  0.29706506191E+02  0.00000000000E+00 0. -1.
</event>
<event>
 5    1  0.1099741E-009  0.9118800E+02  0.7818608E-02  0.1130116E+00
         25   -1    0    0    0    0  0.00000000000E+00  0.00000000000E+00  0.99999998245E-14  0.12500000000E+03  0.12500000000E+03 0.  0.
        -11    1    3    3    0    0  0.27575707149E+02 -0.30676612965E+02 -0.18817513648E+01  0.41291829655E+02  0.51100000000E-03 0.  1.
         23    2    1    0    0    0  0.35927742053E+01  0.62845484763E+01  0.29008542340E+02  0.95101854493E+02  0.90279918162E+02 0.  0.
         11    1    3    3    0    0 -0.23982932944E+02  0.36961161441E+02  0.30890293705E+02  0.53810024839E+02  0.51100000000E-03 0. -1.
         22    1    1    0    0    0 -0.35927742053E+01 -0.62845484763E+01 -0.29008542340E+02  0.29898145507E+02  0.00000000000E+00 0. -1.
</event>
<event>
 5    1  0.1099741E-009  0.9118800E+02  0.7818608E-02  0.1130116E+00
         25   -1    0    0    0    0  0.00000000000E+00  0.00000000000E+00  0.99999998245E-14  0.12500000000E+03  0.12500000000E+03 0.  0.
        -11    1    3    3    0    0 -0.21074386005E+02  0.28901239111E+02  0.14690945828E+02  0.38668271971E+02  0.51100000000E-03 0.  1.
         23    2    1    0    0    0  0.60714337593E+01  0.34607578746E+01 -0.28489817029E+02  0.95665569253E+02  0.91057082718E+02 0.  0.
         11    1    3    3    0    0  0.27145819764E+02 -0.25440481237E+02 -0.43180762857E+02  0.56997297281E+02  0.51100000000E-03 0. -1.
         22    1    1    0    0    0 -0.60714337593E+01 -0.34607578746E+01  0.28489817029E+02  0.29334430747E+02  0.00000000000E+00 0. -1.
</event>
<event>
 5    1  0.1099741E-009  0.9118800E+02  0.7818608E-02  0.1130116E+00
         25   -1    0    0    0    0  0.00000000000E+00  0.00000000000E+00  0.99999998245E-14  0.12500000000E+03  0.12500000000E+03 0.  0.
        -11    1    3    3    0    0  0.16837192640E+02 -0.10690667601E+02 -0.28237961142E+02  0.34571142293E+02  0.51100000000E-03 0. -1.
         23    2    1    0    0    0 -0.35298948735E+01 -0.10163560514E+01  0.28832531568E+02  0.95934418739E+02  0.91425405029E+02 0.  0.
         11    1    3    3    0    0 -0.20367087513E+02  0.96743115496E+01  0.57070492710E+02  0.61363276446E+02  0.51100000000E-03 0.  1.
         22    1    1    0    0    0  0.35298948735E+01  0.10163560514E+01 -0.28832531568E+02  0.29065581261E+02  0.00000000000E+00 0.  1.
</event>
<event>
 5    1  0.1099741E-009  0.9118800E+02  0.7818608E-02  0.1130116E+00
         25   -1    0    0    0    0  0.00000000000E+00  0.00000000000E+00  0.99999998245E-14  0.12500000000E+03  0.12500000000E+03 0.  0.
        -11    1    3    3    0    0  0.13896400143E+02  0.18712939303E+02  0.20333656212E+02  0.30931240026E+02  0.51100000000E-03 0. -1.
         23    2    1    0    0    0  0.77862424740E+01 -0.14102029284E+02 -0.29779232205E+02  0.91143014421E+02  0.84621236137E+02 0.  0.
         11    1    3    3    0    0 -0.61101576694E+01 -0.32814968587E+02 -0.50112888417E+02  0.60211774395E+02  0.51100000000E-03 0.  1.
         22    1    1    0    0    0 -0.77862424740E+01  0.14102029284E+02  0.29779232205E+02  0.33856985579E+02  0.00000000000E+00 0.  1.
</event>
<event>
 5    1  0.1099741E-009  0.9118800E+02  0.7818608E-02  0.1130116E+00
         25   -1    0    0    0    0  0.00000000000E+00  0.00000000000E+00  0.99999998245E-14  0.12500000000E+03  0.12500000000E+03 0.  0.
        -11    1    3    3    0    0  0.44733051906E+02 -0.25331173162E+02  0.83773255546E+01  0.52085447587E+02  0.51100000000E-03 0. -1.
         23    2    1    0    0    0  0.24774295120E+02  0.61217908760E+01 -0.14350354199E+02  0.95722454203E+02  0.91135138947E+02 0.  0.
         11    1    3    3    0    0 -0.19958756786E+02  0.31452964038E+02 -0.22727679754E+02  0.43637006617E+02  0.51100000000E-03 0.  1.
         22    1    1    0    0    0 -0.24774295120E+02 -0.61217908760E+01  0.14350354199E+02  0.29277545797E+02  0.00000000000E+00 0. -1.
</event>
<event>
 5    1  0.1099741E-009  0.9118800E+02  0.7818608E-02  0.1130116E+00
         25   -1    0    0    0    0  0.00000000000E+00  0.00000000000E+00  0.99999998245E-14  0.12500000000E+03  0.12500000000E+03 0.  0.
        -11    1    3    3    0    0  0.38128622023E+02 -0.41379004642E+02  0.51885836676E+01  0.56506063775E+02  0.51100000000E-03 0.  1.
         23    2    1    0    0    0  0.18433687116E+02 -0.18037258054E+02 -0.16872086577E+02  0.94180999298E+02  0.88995785431E+02 0.  0.
         11    1    3    3    0    0 -0.19694934908E+02  0.23341746587E+02 -0.22060670245E+02  0.37674935523E+02  0.51100000000E-03 0. -1.
         22    1    1    0    0    0 -0.18433687116E+02  0.18037258054E+02  0.16872086577E+02  0.30819000702E+02  0.00000000000E+00 0.  1.
</event>
<event>
 5    1  0.1099741E-009  0.9118800E+02  0.7818608E-02  0.1130116E+00
         25   -1    0    0    0    0  0.00000000000E+00  0.00000000000E+00  0.99999998245E-14  0.12500000000E+03  0.12500000000E+03 0.  0.
        -11    1    3    3    0    0 -0.68750188973E+01  0.53246240591E+01 -0.52669251728E+02  0.53382277809E+02  0.51100000000E-03 0.  1.
         23    2    1    0    0    0  0.12236939901E+02 -0.15836409285E+02 -0.21983299538E+02  0.95271225795E+02  0.90514122924E+02 0.  0.
         11    1    3    3    0    0  0.19111958798E+02 -0.21161033344E+02  0.30685952190E+02  0.41888947986E+02  0.51100000000E-03 0. -1.
         22    1    1    0    0    0 -0.12236939901E+02  0.15836409285E+02  0.21983299538E+02  0.29728774205E+02  0.00000000000E+00 0.  1.
</event>
<event>
 5    1  0.1099741E-009  0.9118800E+02  0.7818608E-02  0.1130116E+00
         25   -1    0    0    0    0  0.00000000000E+00  0.00000000000E+00  0.99999998245E-14  0.12500000000E+03  0.12500000000E+03 0.  0.
        -11    1    3    3    0    0 -0.65909480362E+01  0.25072473626E+02  0.23714697870E+02  0.35134832077E+02  0.51100000000E-03 0.  1.
         23    2    1    0    0    0  0.81604736245E+01 -0.28785840222E+02  0.21269422461E+01  0.95004303469E+02  0.90144749527E+02 0.  0.
         11    1    3    3    0    0  0.14751421661E+02 -0.53858313848E+02 -0.21587755624E+02  0.59869471392E+02  0.51100000000E-03 0. -1.
         22    1    1    0    0    0 -0.81604736245E+01  0.28785840222E+02 -0.21269422461E+01  0.29995696531E+02  0.00000000000E+00 0. -1.
</event>
<event>
 5    1  0.1099741E-009  0.9118800E+02  0.7818608E-02  0.1130116E+00
         25   -1    0    0    0    0  0.00000000000E+00  0.00000000000E+00  0.99999998245E-14  0.12500000000E+03  0.12500000000E+03 0.  0.
        -11    1    3    3    0    0  0.18589979124E+02  0.30843186709E+02 -0.10567510180E+02  0.37530810834E+02  0.51100000000E-03 0.  1.
         23    2    1    0    0    0  0.12417837024E+02 -0.26383042166E+02 -0.56472001259E+01  0.95298847504E+02  0.90552260469E+02 0.  0.
         11    1    3    3    0    0 -0.61721420998E+01 -0.57226228875E+02  0.49203100542E+01  0.57768036670E+02  0.51100000000E-03 0. -1.
         22    1    1    0    0    0 -0.12417837024E+02  0.26383042166E+02  0.56472001259E+01  0.29701152496E+02  0.00000000000E+00 0. -1.
</event>
<event>
 5    1  0.1099741E-009  0.9118800E+02  0.7818608E-02  0.1130116E+00
         25   -1    0    0    0    0  0.00000000000E+00  0.00000000000E+00  0.99999998245E-14  0.12500000000E+03  0.12500000000E+03 0.  0.
        -11    1    3    3    0    0 -0.19142126645E+02 -0.22929066375E+02 -0.31054216183E+02  0.43087439473E+02  0.51100000000E-03 0.  1.
         23    2    1    0    0    0  0.25334270814E+02 -0.12290450541E+02 -0.31338279438E+01  0.96668015781E+02  0.92422962219E+02 0.  0.
         11    1    3    3    0    0  0.44476397459E+02  0.10638615834E+02  0.27920388239E+02  0.53580576308E+02  0.51100000000E-03 0. -1.
         22    1    1    0    0    0 -0.25334270814E+02  0.12290450541E+02  0.31338279438E+01  0.28331984219E+02  0.00000000000E+00 0. -1.
</event>
<event>
 5    1  0.1099741E-009  0.9118800E+02  0.7818608E-02  0.1130116E+00
         25   -1    0    0    0    0  0.00000000000E+00  0.00000000000E+00  0.99999998245E-14  0.12500000000E+03  0.12500000000E+03 0.  0.
        -11    1    3    3    0    0  0.24325808360E+01  0.55152503823E+02  0.56108775788E+01  0.55490522388E+02  0.51100000000E-03 0. -1.
         23    2    1    0    0    0 -0.16403723429E+02  0.21534418144E+02  0.13383117372E+02  0.94801967983E+02  0.89863741274E+02 0.  0.
         11    1    3    3    0    0 -0.18836304265E+02 -0.33618085679E+02  0.77722397929E+01  0.39311445595E+02  0.51100000000E-03 0.  1.
         22    1    1    0    0    0  0.16403723429E+02 -0.21534418144E+02 -0.13383117372E+02  0.30198032017E+02  0.00000000000E+00 0. -1.
</event>
<event>
 5    1  0.1099741E-009  0.9118800E+02  0.7818608E-02  0.1130116E+00
         25   -1    0    0    0    0  0.00000000000E+00  0.00000000000E+00  0.99999998245E-14  0.12500000000E+03  0.12500000000E+03 0.  0.
        -11    1    3    3    0    0 -0.73523825837E+01  0.71358768801E+01 -0.61298280560E+02  0.62148672298E+02  0.51100000000E-03 0. -1.
         23    2    1    0    0    0  0.14685509043E+01  0.38778747083E+01 -0.25682831067E+02  0.98984574468E+02  0.95504678508E+02 0.  0.
         11    1    3    3    0    0  0.88209334880E+01 -0.32580021717E+01  0.35615449494E+02  0.36835902169E+02  0.51100000000E-03 0.  1.
         22    1    1    0    0    0 -0.14685509043E+01 -0.38778747083E+01  0.25682831067E+02  0.26015425532E+02  0.00000000000E+00 0. -1.
</event>
<event>
 5    1  0.1099741E-009  0.9118800E+02  0.7818608E-02  0.1130116E+00
         25   -1    0    0    0    0  0.00000000000E+00  0.00000000000E+00  0.99999998245E-14  0.12500000000E+03  0.12500000000E+03 0.  0.
        -11    1    3    3    0    0  0.43977960931E+01 -0.36196253045E+02  0.52308092620E+01  0.36835726011E+02  0.51100000000E-03 0.  1.
         23    2    1    0    0    0  0.10740398748E+02  0.18824719930E+02 -0.17932750300E+02  0.96869771081E+02  0.92695430148E+02 0.  0.
         11    1    3    3    0    0  0.63426026547E+01  0.55020972975E+02 -0.23163559562E+02  0.60034045070E+02  0.51100000000E-03 0. -1.
         22    1    1    0    0    0 -0.10740398748E+02 -0.18824719930E+02  0.17932750300E+02  0.28130228919E+02  0.00000000000E+00 0. -1.
</event>
<event>
 5    1  0.1099741E-009  0.9118800E+02  0.7818608E-02  0.1130116E+00
         25   -1    0    0    0    0  0.00000000000E+00  0.00000000000E+00  0.99999998245E-14  0.12500000000E+03  0.12500000000E+03 0.  0.
        -11    1    3    3    0    0  0.24711679729E+01 -0.40859553188E+02  0.25722068590E+02  0.48344953931E+02  0.51100000000E-03 0.  1.
         23    2    1    0    0    0  0.15228037731E+02  0.28491181779E+01  0.26973108866E+02  0.93894386207E+02  0.88592305263E+02 0.  0.
         11    1    3    3    0    0  0.12756869758E+02  0.43708671366E+02  0.12510402767E+01  0.45549432275E+02  0.51100000000E-03 0. -1.
         22    1    1    0    0    0 -0.15228037731E+02 -0.28491181779E+01 -0.26973108866E+02  0.31105613793E+02  0.00000000000E+00 0.  1.
</event>
<event>
 5    1  0.1099741E-009  0.9118800E+02  0.7818608E-02  0.1130116E+00
         25   -1    0    0    0    0  0.00000000000E+00  0.00000000000E+00  0.99999998245E-14  0.12500000000E+03  0.12500000000E+03 0.  0.
        -11    1    3    3    0    0  0.16951073027E+01  0.48759963494E+01  0.57336872420E+02  0.57568790749E+02  0.51100000000E-03 0. -1.
         23    2    1    0    0    0 -0.55757309085E+01 -0.14092652932E+02  0.25587929128E+02  0.95260568955E+02  0.90499404631E+02 0.  0.
         11    1    3    3    0    0 -0.72708382112E+01 -0.18968649282E+02 -0.31748943292E+02  0.37691778205E+02  0.51100000000E-03 0.  1.
         22    1    1    0    0    0  0.55757309085E+01  0.14092652932E+02 -0.25587929128E+02  0.29739431045E+02  0.00000000000E+00 0. -1.
</event>
<event>
 5    1  0.1099741E-009  0.9118800E+02  0.7818608E-02  0.1130116E+00
         25   -1    0    0    0    0  0.00000000000E+00  0.00000000000E+00  0.99999998245E-14  0.12500000000E+03  0.12500000000E+03 0.  0.
        -11    1    3    3    0    0 -0.36153337999E+02 -0.40780761311E+02 -0.20511041680E+02  0.58230895344E+02  0.51100000000E-03 0. -1.
         23    2    1    0    0    0 -0.22071514622E+02 -0.26701823789E+02  0.43516357280E+01  0.90084732782E+02  0.83043260988E+02 0.  0.
         11    1    3    3    0    0  0.14081823377E+02  0.14078937521E+02  0.24862677408E+02  0.31853837438E+02  0.51100000000E-03 0.  1.
         22    1    1    0    0    0  0.22071514622E+02  0.26701823789E+02 -0.43516357280E+01  0.34915267218E+02  0.00000000000E+00 0. -1.
</event>
<event>
 5    1  0.1099741E-009  0.9118800E+02  0.7818608E-02  0.1130116E+00
         25   -1    0    0    0    0  0.00000000000E+00  0.00000000000E+00  0.99999998245E-14  0.12500000000E+03  0.12500000000E+03 0.  0.
        -11    1    3    3    0    0 -0.25894863822E+02  0.30036810313E+02 -0.45691683332E+02  0.60501932797E+02  0.51100000000E-03 0. -1.
         23    2    1    0    0    0 -0.70324869264E+01  0.78012844607E+01 -0.29127474878E+02  0.94036703916E+02  0.88792882480E+02 0.  0.
         11    1    3    3    0    0  0.18862376896E+02 -0.22235525852E+02  0.16564208454E+02  0.33534771120E+02  0.51100000000E-03 0.  1.
         22    1    1    0    0    0  0.70324869264E+01 -0.78012844607E+01  0.29127474878E+02  0.30963296084E+02  0.00000000000E+00 0. -1.
</event>
<event>
 5    1  0.1099741E-009  0.9118800E+02  0.7818608E-02  0.1130116E+00
         25   -1    0    0    0    0  0.00000000000E+00  0.00000000000E+00  0.99999998245E-14  0.12500000000E+03  0.12500000000E+03 0.  0.
        -11    1    3    3    0    0  0.78836784601E+00  0.74444208319E+01  0.37954936350E+02  0.38686148930E+02  0.51100000000E-03 0.  1.
         23    2    1    0    0    0 -0.29043343446E+02  0.57386594999E+01 -0.87478582326E+01  0.94129738662E+02  0.88923757599E+02 0.  0.
         11    1    3    3    0    0 -0.29831711292E+02 -0.17057613320E+01 -0.46702794583E+02  0.55443589733E+02  0.51100000000E-03 0. -1.
         22    1    1    0    0    0  0.29043343446E+02 -0.57386594999E+01  0.87478582326E+01  0.30870261338E+02  0.00000000000E+00 0. -1.
</event>
<event>
 5    1  0.1099741E-009  0.9118800E+02  0.7818608E-02  0.1130116E+00
         25   -1    0    0    0    0  0.00000000000E+00  0.00000000000E+00  0.99999998245E-14  0.12500000000E+03  0.12500000000E+03 0.  0.
        -11    1    3    3    0    0  0.32130206393E+02 -0.13935596118E+02 -0.13597999020E+02  0.37569356923E+02  0.51100000000E-03 0. -1.
         23    2    1    0    0    0 -0.69474964915E+01  0.28110565734E+02 -0.39731229345E+01  0.95772319298E+02  0.91203507742E+02 0.  0.
         11    1    3    3    0    0 -0.39077702885E+02  0.42046161852E+02  0.96248760854E+01  0.58202962374E+02  0.51100000000E-03 0.  1.
         22    1    1    0    0    0  0.69474964915E+01 -0.28110565734E+02  0.39731229345E+01  0.29227680702E+02  0.00000000000E+00 0. -1.
</event>
<event>
 5    1  0.1099741E-009  0.9118800E+02  0.7818608E-02  0.1130116E+00
         25   -1    0    0    0    0  0.00000000000E+00  0.00000000000E+00  0.99999998245E-14  0.12500000000E+03  0.12500000000E+03 0.  0.
        -11    1    3    3    0    0  0.34390781175E+02 -0.26254421425E+02 -0.30375360470E+02  0.52864761402E+02  0.51100000000E-03 0. -1.
         23    2    1    0    0    0 -0.58650157461E+01 -0.22309056143E+02 -0.19616001852E+02  0.94719974829E+02  0.89749616753E+02 0.  0.
         11    1    3    3    0    0 -0.40255796921E+02  0.39453652829E+01  0.10759358618E+02  0.41855213427E+02  0.51100000000E-03 0.  1.
         22    1    1    0    0    0  0.58650157461E+01  0.22309056143E+02  0.19616001852E+02  0.30280025171E+02  0.00000000000E+00 0. -1.
</event>
<event>
 5    1  0.1099741E-009  0.9118800E+02  0.7818608E-02  0.1130116E+00
         25   -1    0    0    0    0  0.00000000000E+00  0.00000000000E+00  0.99999998245E-14  0.12500000000E+03  0.12500000000E+03 0.  0.
        -11    1    3    3    0    0  0.32941805942E+02  0.47035213984E+02 -0.16048977466E+02  0.59624186461E+02  0.51100000000E-03 0.  1.
         23    2    1    0    0    0  0.24198578201E+02  0.27659667631E+02  0.29456632313E+01  0.88131241785E+02  0.80048800405E+02 0.  0.
         11    1    3    3    0    0 -0.87432277407E+01 -0.19375546352E+02  0.18994640697E+02  0.28507055324E+02  0.51100000000E-03 0. -1.
         22    1    1    0    0    0 -0.24198578201E+02 -0.27659667631E+02 -0.29456632313E+01  0.36868758215E+02  0.00000000000E+00 0.  1.
</event>
<event>
 5    1  0.1099741E-009  0.9118800E+02  0.7818608E-02  0.1130116E+00
         25   -1    0    0    0    0  0.00000000000E+00  0.00000000000E+00  0.99999998245E-14  0.12500000000E+03  0.12500000000E+03 0.  0.
        -11    1    3    3    0    0 -0.11545511632E+01 -0.49379309822E+02 -0.14975074024E+02  0.51613002908E+02  0.51100000000E-03 0.  1.
         23    2    1    0    0    0 -0.95633652822E+01 -0.29025637398E+02  0.16686804229E+02  0.90180536804E+02  0.83187343996E+02 0.  0.
         11    1    3    3    0    0 -0.84088141191E+01  0.20353672425E+02  0.31661878253E+02  0.38567533896E+02  0.51100000000E-03 0. -1.
         22    1    1    0    0    0  0.95633652822E+01  0.29025637398E+02 -0.16686804229E+02  0.34819463196E+02  0.00000000000E+00 0.  1.
</event>
<event>
 5    1  0.1099741E-009  0.9118800E+02  0.7818608E-02  0.1130116E+00
         25   -1    0    0    0    0  0.00000000000E+00  0.00000000000E+00  0.99999998245E-14  0.12500000000E+03  0.12500000000E+03 0.  0.
        -11    1    3    3    0    0  0.31377990072E+02  0.40157170133E+02 -0.12765403418E+02  0.52536959360E+02  0.51100000000E-03 0. -1.
         23    2    1    0    0    0  0.28402736799E+02  0.11696563258E+01  0.60611943755E+01  0.95934184497E+02  0.91425084765E+02 0.  0.
         11    1    3    3    0    0 -0.29752532735E+01 -0.38987513807E+02  0.18826597793E+02  0.43397225138E+02  0.51100000000E-03 0.  1.
         22    1    1    0    0    0 -0.28402736799E+02 -0.11696563258E+01 -0.60611943755E+01  0.29065815503E+02  0.00000000000E+00 0. -1.
</event>
<event>
 5    1  0.1099741E-009  0.9118800E+02  0.7818608E-02  0.1130116E+00
         25   -1    0    0    0    0  0.00000000000E+00  0.00000000000E+00  0.99999998245E-14  0.12500000000E+03  0.12500000000E+03 0.  0.
        -11    1    3    3    0    0 -0.25573121586E+02 -0.36408836032E+02 -0.42821531321E+02  0.61751691749E+02  0.51100000000E-03 0. -1.
         23    2    1    0    0    0 -0.16950827292E+02 -0.12434301876E+02 -0.20779857114E+02  0.95440824255E+02  0.90748036143E+02 0.  0.
         11    1    3    3    0    0  0.86222942942E+01  0.23974534157E+02  0.22041674207E+02  0.33689132506E+02  0.51100000000E-03 0.  1.
         22    1    1    0    0    0  0.16950827292E+02  0.12434301876E+02  0.20779857114E+02  0.29559175745E+02  0.00000000000E+00 0. -1.
</event>
<event>
 5    1  0.1099741E-009  0.9118800E+02  0.7818608E-02  0.1130116E+00
         25   -1    0    0    0    0  0.00000000000E+00  0.00000000000E+00  0.99999998245E-14  0.12500000000E+03  0.12500000000E+03 0.  0.
        -11    1    3    3    0    0 -0.12478330564E+02  0.42482920258E+02 -0.28586238768E+02  0.52703702854E+02  0.51100000000E-03 0.  1.
         23    2    1    0    0    0  0.18837314946E+02  0.20813726701E+02 -0.90454538075E+01  0.95506341560E+02  0.90838237489E+02 0.  0.
         11    1    3    3    0    0  0.31315645510E+02 -0.21669193557E+02  0.19540784961E+02  0.42802638707E+02  0.51100000000E-03 0. -1.
         22    1    1    0    0    0 -0.18837314946E+02 -0.20813726701E+02  0.90454538075E+01  0.29493658440E+02  0.00000000000E+00 0.  1.
</event>
<event>
 5    1  0.1099741E-009  0.9118800E+02  0.7818608E-02  0.1130116E+00
         25   -1    0    0    0    0  0.00000000000E+00  0.00000000000E+00  0.99999998245E-14  0.12500000000E+03  0.12500000000E+03 0.  0.
        -11    1    3    3    0    0 -0.38108184263E+02 -0.25923904305E+01  0.16130506513E+01  0.38230303800E+02  0.51100000000E-03 0. -1.
         23    2    1    0    0    0  0.16161785475E+02 -0.16329770402E+02  0.17151944339E+02  0.96328517552E+02  0.91962652137E+02 0.  0.
         11    1    3    3    0    0  0.54269969739E+02 -0.13737379971E+02  0.15538893688E+02  0.58098213752E+02  0.51100000000E-03 0.  1.
         22    1    1    0    0    0 -0.16161785475E+02  0.16329770402E+02 -0.17151944339E+02  0.28671482448E+02  0.00000000000E+00 0.  1.
</event>
<event>
 5    1  0.1099741E-009  0.9118800E+02  0.7818608E-02  0.1130116E+00
         25   -1    0    0    0    0  0.00000000000E+00  0.00000000000E+00  0.99999998245E-14  0.12500000000E+03  0.12500000000E+03 0.  0.
        -11    1    3    3    0    0  0.41056651789E+02 -0.26964909603E+02 -0.77055240704E+01  0.49720519984E+02  0.51100000000E-03 0.  1.
         23    2    1    0    0    0  0.56860738163E+01  0.10262132928E+02 -0.19346148201E+02  0.10237443353E+03  0.99842918545E+02 0.  0.
         11    1    3    3    0    0 -0.35370577972E+02  0.37227042531E+02 -0.11640624131E+02  0.52653913550E+02  0.51100000000E-03 0. -1.
         22    1    1    0    0    0 -0.56860738163E+01 -0.10262132928E+02  0.19346148201E+02  0.22625566466E+02  0.00000000000E+00 0. -1.
</event>
<event>
 5    1  0.1099741E-009  0.9118800E+02  0.7818608E-02  0.1130116E+00
         25   -1    0    0    0    0  0.00000000000E+00  0.00000000000E+00  0.99999998245E-14  0.12500000000E+03  0.12500000000E+03 0.  0.
        -11    1    3    3    0    0 -0.16237671937E+02 -0.22687744810E+02 -0.25243024930E+02  0.37624540693E+02  0.51100000000E-03 0.  1.
         23    2    1    0    0    0 -0.18773441666E+02  0.14933288459E+02  0.18008193462E+02  0.95004329513E+02  0.90144785641E+02 0.  0.
         11    1    3    3    0    0 -0.25357697295E+01  0.37621033270E+02  0.43251218391E+02  0.57379788820E+02  0.51100000000E-03 0. -1.
         22    1    1    0    0    0  0.18773441666E+02 -0.14933288459E+02 -0.18008193462E+02  0.29995670487E+02  0.00000000000E+00 0. -1.
</event>
<event>
 5    1  0.1099741E-009  0.9118800E+02  0.7818608E-02  0.1130116E+00
         25   -1    0    0    0    0  0.00000000000E+00  0.00000000000E+00  0.99999998245E-14  0.12500000000E+03  0.12500000000E+03 0.  0.
        -11    1    3    3    0    0  0.19330027296E+02 -0.28038874444E+02  0.18783802384E+02  0.38892925676E+02  0.51100000000E-03 0. -1.
         23    2    1    0    0    0 -0.21629780177E+02 -0.11080859238E+01 -0.15199548125E+02  0.98540568636E+02  0.94921768625E+02 0.  0.
         11    1    3    3    0    0 -0.40959807473E+02  0.26930788521E+02 -0.33983350509E+02  0.59647642960E+02  0.51100000000E-03 0.  1.
         22    1    1    0    0    0  0.21629780177E+02  0.11080859238E+01  0.15199548125E+02  0.26459431364E+02  0.00000000000E+00 0.  1.
</event>
<event>
 5    1  0.1099741E-009  0.9118800E+02  0.7818608E-02  0.1130116E+00
         25   -1    0    0    0    0  0.00000000000E+00  0.00000000000E+00  0.99999998245E-14  0.12500000000E+03  0.12500000000E+03 0.  0.
        -11    1    3    3    0    0 -0.14405632666E+02  0.33156469105E+02  0.17386935915E+02  0.40114576363E+02  0.51100000000E-03 0.  1.
         23    2    1    0    0    0  0.16274605881E+02  0.10542280590E+02 -0.22509075916E+02  0.95290389178E+02  0.90540583687E+02 0.  0.
         11    1    3    3    0    0  0.30680238547E+02 -0.22614188514E+02 -0.39896011831E+02  0.55175812815E+02  0.51100000000E-03 0. -1.
         22    1    1    0    0    0 -0.16274605881E+02 -0.10542280590E+02  0.22509075916E+02  0.29709610822E+02  0.00000000000E+00 0. -1.
</event>
<event>
 5    1  0.1099741E-009  0.9118800E+02  0.7818608E-02  0.1130116E+00
         25   -1    0    0    0    0  0.00000000000E+00  0.00000000000E+00  0.99999998245E-14  0.12500000000E+03  0.12500000000E+03 0.  0.
        -11    1    3    3    0    0 -0.33596102156E+02 -0.17894940124E+02 -0.96915848486E+01  0.39279177426E+02  0.51100000000E-03 0. -1.
         23    2    1    0    0    0 -0.20285531861E+02  0.25621179926E+02  0.12629460208E+02  0.89965004227E+02  0.82862844851E+02 0.  0.
         11    1    3    3    0    0  0.13310570295E+02  0.43516120050E+02  0.22321045057E+02  0.50685826801E+02  0.51100000000E-03 0.  1.
         22    1    1    0    0    0  0.20285531861E+02 -0.25621179926E+02 -0.12629460208E+02  0.35034995773E+02  0.00000000000E+00 0.  1.
</event>
<event>
 5    1  0.1099741E-009  0.9118800E+02  0.7818608E-02  0.1130116E+00
         25   -1    0    0    0    0  0.00000000000E+00  0.00000000000E+00  0.99999998245E-14  0.12500000000E+03  0.12500000000E+03 0.  0.
        -11    1    3    3    0    0  0.17257002863E+02 -0.47115575521E+02  0.25164657987E+02  0.56133248760E+02  0.51100000000E-03 0.  1.
         23    2    1    0    0    0  0.24351773710E+02 -0.16004202402E+02  0.15725111520E+01  0.95817536624E+02  0.91265459820E+02 0.  0.
         11    1    3    3    0    0  0.70947708465E+01  0.31111373119E+02 -0.23592146835E+02  0.39684287864E+02  0.51100000000E-03 0. -1.
         22    1    1    0    0    0 -0.24351773710E+02  0.16004202402E+02 -0.15725111520E+01  0.29182463376E+02  0.00000000000E+00 0.  1.
</event>
<event>
 5    1  0.1099741E-009  0.9118800E+02  0.7818608E-02  0.1130116E+00
         25   -1    0    0    0    0  0.00000000000E+00  0.00000000000E+00  0.99999998245E-14  0.12500000000E+03  0.12500000000E+03 0.  0.
        -11    1    3    3    0    0 -0.24736680506E+02 -0.42944504347E+02  0.59869335163E+01  0.49919707423E+02  0.51100000000E-03 0.  1.
         23    2    1    0    0    0  0.73143540766E+01 -0.21628431136E+02  0.23523404001E+02  0.92218307781E+02  0.86194993737E+02 0.  0.
         11    1    3    3    0    0  0.32051034582E+02  0.21316073211E+02  0.17536470484E+02  0.42298600358E+02  0.51100000000E-03 0. -1.
         22    1    1    0    0    0 -0.73143540766E+01  0.21628431136E+02 -0.23523404001E+02  0.32781692219E+02  0.00000000000E+00 0. -1.
</event>
<event>
 5    1  0.1099741E-009  0.9118800E+02  0.7818608E-02  0.1130116E+00
         25   -1    0    0    0    0  0.00000000000E+00  0.00000000000E+00  0.99999998245E-14  0.12500000000E+03  0.12500000000E+03 0.  0.
        -11    1    3    3    0    0  0.13054030732E+01 -0.10989757731E+02 -0.34009047001E+02  0.35764425486E+02  0.51100000000E-03 0.  1.
         23    2    1    0    0    0 -0.19916833934E+02  0.21681632749E+01  0.20877889323E+02  0.96064425554E+02  0.91602982421E+02 0.  0.
         11    1    3    3    0    0 -0.21222237007E+02  0.13157921006E+02  0.54886936324E+02  0.60300000067E+02  0.51100000000E-03 0. -1.
         22    1    1    0    0    0  0.19916833934E+02 -0.21681632749E+01 -0.20877889323E+02  0.28935574446E+02  0.00000000000E+00 0. -1.
</event>
<event>
 5    1  0.1099741E-009  0.9118800E+02  0.7818608E-02  0.1130116E+00
         25   -1    0    0    0    0  0.00000000000E+00  0.00000000000E+00  0.99999998245E-14  0.12500000000E+03  0.12500000000E+03 0.  0.
        -11    1    3    3    0    0 -0.30898979599E+02 -0.35116882209E+01  0.32046864216E+02  0.44655127373E+02  0.51100000000E-03 0. -1.
         23    2    1    0    0    0 -0.19525694885E+02  0.14535050161E+02 -0.15066542145E+02  0.96372720420E+02  0.92022715158E+02 0.  0.
         11    1    3    3    0    0  0.11373284714E+02  0.18046738382E+02 -0.47113406361E+02  0.51717593047E+02  0.51100000000E-03 0.  1.
         22    1    1    0    0    0  0.19525694885E+02 -0.14535050161E+02  0.15066542145E+02  0.28627279580E+02  0.00000000000E+00 0.  1.
</event>
<event>
 5    1  0.1099741E-009  0.9118800E+02  0.7818608E-02  0.1130116E+00
         25   -1    0    0    0    0  0.00000000000E+00  0.00000000000E+00  0.99999998245E-14  0.12500000000E+03  0.12500000000E+03 0.  0.
        -11    1    3    3    0    0 -0.44174904929E+02 -0.18482776064E+02  0.88969877596E+01  0.48705149912E+02  0.51100000000E-03 0. -1.
         23    2    1    0    0    0 -0.26535050125E+01 -0.31121500070E+02 -0.27548682566E+01  0.93644328191E+02  0.88238778595E+02 0.  0.
         11    1    3    3    0    0  0.41521399917E+02 -0.12638724006E+02 -0.11651856016E+02  0.44939178279E+02  0.51100000000E-03 0.  1.
         22    1    1    0    0    0  0.26535050125E+01  0.31121500070E+02  0.27548682566E+01  0.31355671809E+02  0.00000000000E+00 0. -1.
</event>
<event>
 5    1  0.1099741E-009  0.9118800E+02  0.7818608E-02  0.1130116E+00
         25   -1    0    0    0    0  0.00000000000E+00  0.00000000000E+00  0.99999998245E-14  0.12500000000E+03  0.12500000000E+03 0.  0.
        -11    1    3    3    0    0 -0.44183680600E+01  0.12220483056E+01 -0.48950194382E+02  0.49164386589E+02  0.51100000000E-03 0. -1.
         23    2    1    0    0    0 -0.27726361544E+02 -0.10684028923E+02 -0.15974287823E+02  0.91264596195E+02  0.84800642973E+02 0.  0.
         11    1    3    3    0    0 -0.23307993484E+02 -0.11906077228E+02  0.32975906559E+02  0.42100209606E+02  0.51100000000E-03 0.  1.
         22    1    1    0    0    0  0.27726361544E+02  0.10684028923E+02  0.15974287823E+02  0.33735403805E+02  0.00000000000E+00 0. -1.
</event>
<event>
 5    1  0.1099741E-009  0.9118800E+02  0.7818608E-02  0.1130116E+00
         25   -1    0    0    0    0  0.00000000000E+00  0.00000000000E+00  0.99999998245E-14  0.12500000000E+03  0.12500000000E+03 0.  0.
        -11    1    3    3    0    0 -0.26562921662E+02  0.32099216586E+02 -0.83795932395E+01  0.42499012880E+02  0.51100000000E-03 0. -1.
         23    2    1    0    0    0  0.18985819229E+02 -0.49308805336E+01  0.85625640880E+01  0.10359690634E+03  0.10136185961E+03 0.  0.
         11    1    3    3    0    0  0.45548740892E+02 -0.37030097120E+02  0.16942157328E+02  0.61097893455E+02  0.51100000000E-03 0.  1.
         22    1    1    0    0    0 -0.18985819229E+02  0.49308805336E+01 -0.85625640880E+01  0.21403093664E+02  0.00000000000E+00 0.  1.
</event>
<event>
 5    1  0.1099741E-009  0.9118800E+02  0.7818608E-02  0.1130116E+00
         25   -1    0    0    0    0  0.00000000000E+00  0.00000000000E+00  0.99999998245E-14  0.12500000000E+03  0.12500000000E+03 0.  0.
        -11    1    3    3    0    0  0.91889956014E+01 -0.44650163258E+02 -0.41331572375E+01  0.45772892722E+02  0.51100000000E-03 0. -1.
         23    2    1    0    0    0 -0.24904954592E+02 -0.10748844237E+02  0.10318870106E+02  0.95978051479E+02  0.91485041781E+02 0.  0.
         11    1    3    3    0    0 -0.34093950194E+02  0.33901319021E+02  0.14452027344E+02  0.50205158757E+02  0.51100000000E-03 0.  1.
         22    1    1    0    0    0  0.24904954592E+02  0.10748844237E+02 -0.10318870106E+02  0.29021948521E+02  0.00000000000E+00 0. -1.
</event>
<event>
 5    1  0.1099741E-009  0.9118800E+02  0.7818608E-02  0.1130116E+00
         25   -1    0    0    0    0  0.00000000000E+00  0.00000000000E+00  0.99999998245E-14  0.12500000000E+03  0.12500000000E+03 0.  0.
        -11    1    3    3    0    0 -0.29813931803E+02 -0.56021094124E+00  0.21373708599E+02  0.36688142299E+02  0.51100000000E-03 0. -1.
         23    2    1    0    0    0  0.47273734135E+01 -0.10412650789E+02 -0.26266645474E+02  0.96351997970E+02  0.91994562298E+02 0.  0.
         11    1    3    3    0    0  0.34541305216E+02 -0.98524398481E+01 -0.47640354073E+02  0.59663855671E+02  0.51100000000E-03 0.  1.
         22    1    1    0    0    0 -0.47273734135E+01  0.10412650789E+02  0.26266645474E+02  0.28648002030E+02  0.00000000000E+00 0.  1.
</event>
<event>
 5    1  0.1099741E-009  0.9118800E+02  0.7818608E-02  0.1130116E+00
         25   -1    0    0    0    0  0.00000000000E+00  0.00000000000E+00  0.99999998245E-14  0.12500000000E+03  0.12500000000E+03 0.  0.
        -11    1    3    3    0    0 -0.31966749726E+02 -0.17007142658E+02  0.24728869115E+02  0.43847838685E+02  0.51100000000E-03 0.  1.
         23    2    1    0    0    0  0.61396750906E+01  0.18419449977E+02  0.21577076700E+02  0.95973426199E+02  0.91478721842E+02 0.  0.
         11    1    3    3    0    0  0.38106424816E+02  0.35426592635E+02 -0.31517924149E+01  0.52125587514E+02  0.51100000000E-03 0. -1.
         22    1    1    0    0    0 -0.61396750906E+01 -0.18419449977E+02 -0.21577076700E+02  0.29026573801E+02  0.00000000000E+00 0.  1.
</event>
<event>
 5    1  0.1099741E-009  0.9118800E+02  0.7818608E-02  0.1130116E+00
         25   -1    0    0    0    0  0.00000000000E+00  0.00000000000E+00  0.99999998245E-14  0.12500000000E+03  0.12500000000E+03 0.  0.
        -11    1    3    3    0    0 -0.29638038588E+02  0.21237312480E+02  0.38893049541E+02  0.53311406617E+02  0.51100000000E-03 0.  1.
         23    2    1    0    0    0 -0.48179703004E+01  0.28697374961E+02  0.58280510474E+01  0.95323100794E+02  0.90585733968E+02 0.  0.
         11    1    3    3    0    0  0.24820068287E+02  0.74600624805E+01 -0.33064998493E+02  0.42011694177E+02  0.51100000000E-03 0. -1.
         22    1    1    0    0    0  0.48179703004E+01 -0.28697374961E+02 -0.58280510474E+01  0.29676899206E+02  0.00000000000E+00 0.  1.
</event>
<event>
 5    1  0.1099741E-009  0.9118800E+02  0.7818608E-02  0.1130116E+00
         25   -1    0    0    0    0  0.00000000000E+00  0.00000000000E+00  0.99999998245E-14  0.12500000000E+03  0.12500000000E+03 0.  0.
        -11    1    3    3    0    0  0.38099395183E+02  0.66852538059E+01 -0.19540945694E+01  0.38730801923E+02  0.51100000000E-03 0.  1.
         23    2    1    0    0    0  0.11529052484E+02 -0.17233874793E+02 -0.32964385658E+02  0.86056756512E+02  0.76741052429E+02 0.  0.
         11    1    3    3    0    0 -0.26570342699E+02 -0.23919128599E+02 -0.31010291089E+02  0.47325954589E+02  0.51100000000E-03 0. -1.
         22    1    1    0    0    0 -0.11529052484E+02  0.17233874793E+02  0.32964385658E+02  0.38943243488E+02  0.00000000000E+00 0. -1.
</event>
<event>
 5    1  0.1099741E-009  0.9118800E+02  0.7818608E-02  0.1130116E+00
         25   -1    0    0    0    0  0.00000000000E+00  0.00000000000E+00  0.99999998245E-14  0.12500000000E+03  0.12500000000E+03 0.  0.
        -11    1    3    3    0    0 -0.33778775023E+01 -0.48200118864E+01  0.26447921742E+02  0.27094928229E+02  0.51100000000E-03 0. -1.
         23    2    1    0    0    0  0.16578387585E+02 -0.22302395569E+02 -0.26678437478E+02  0.86477554473E+02  0.77423437139E+02 0.  0.
         11    1    3    3    0    0  0.19956265088E+02 -0.17482383683E+02 -0.53126359220E+02  0.59382626245E+02  0.51100000000E-03 0.  1.
         22    1    1    0    0    0 -0.16578387585E+02  0.22302395569E+02  0.26678437478E+02  0.38522445527E+02  0.00000000000E+00 0.  1.
</event>
<event>
 5    1  0.1099741E-009  0.9118800E+02  0.7818608E-02  0.1130116E+00
         25   -1    0    0    0    0  0.00000000000E+00  0.00000000000E+00  0.99999998245E-14  0.12500000000E+03  0.12500000000E+03 0.  0.
        -11    1    3    3    0    0 -0.39180895608E+02  0.17585803657E+01  0.44734535967E+01  0.39474637084E+02  0.51100000000E-03 0.  1.
         23    2    1    0    0    0  0.74562694850E+01 -0.28340546707E+02  0.63580203403E+01  0.95013220164E+02  0.90157113092E+02 0.  0.
         11    1    3    3    0    0  0.46637165093E+02 -0.30099127073E+02  0.18845667437E+01  0.55538583080E+02  0.51100000000E-03 0. -1.
         22    1    1    0    0    0 -0.74562694850E+01  0.28340546707E+02 -0.63580203403E+01  0.29986779836E+02  0.00000000000E+00 0. -1.
</event>
<event>
 5    1  0.1099741E-009  0.9118800E+02  0.7818608E-02  0.1130116E+00
         25   -1    0    0    0    0  0.00000000000E+00  0.00000000000E+00  0.99999998245E-14  0.12500000000E+03  0.12500000000E+03 0.  0.
        -11    1    3    3    0    0  0.17688630184E+02  0.49210288299E+02 -0.40302777445E+01  0.52447909885E+02  0.51100000000E-03 0.  1.
         23    2    1    0    0    0  0.87460518537E+01  0.16633370881E+02 -0.26128152960E+02  0.92815487778E+02  0.87056716825E+02 0.  0.
         11    1    3    3    0    0 -0.89425783303E+01 -0.32576917418E+02 -0.22097875215E+02  0.40367577893E+02  0.51100000000E-03 0. -1.
         22    1    1    0    0    0 -0.87460518537E+01 -0.16633370881E+02  0.26128152960E+02  0.32184512222E+02  0.00000000000E+00 0. -1.
</event>
<event>
 5    1  0.1099741E-009  0.9118800E+02  0.7818608E-02  0.1130116E+00
         25   -1    0    0    0    0  0.00000000000E+00  0.00000000000E+00  0.99999998245E-14  0.12500000000E+03  0.12500000000E+03 0.  0.
        -11    1    3    3    0    0 -0.25155826884E+02 -0.14919785351E+02 -0.24679710459E+02  0.38268834967E+02  0.51100000000E-03 0.  1.
         23    2    1    0    0    0 -0.11787795937E+02  0.13180361942E+02  0.23479545845E+02  0.95606749974E+02  0.90976301824E+02 0.  0.
         11    1    3    3    0    0  0.13368030948E+02  0.28100147293E+02  0.48159256304E+02  0.57337915007E+02  0.51100000000E-03 0. -1.
         22    1    1    0    0    0  0.11787795937E+02 -0.13180361942E+02 -0.23479545845E+02  0.29393250026E+02  0.00000000000E+00 0. -1.
</event>
<event>
 5    1  0.1099741E-009  0.9118800E+02  0.7818608E-02  0.1130116E+00
         25   -1    0    0    0    0  0.00000000000E+00  0.00000000000E+00  0.99999998245E-14  0.12500000000E+03  0.12500000000E+03 0.  0.
        -11    1    3    3    0    0  0.17185088453E+02  0.70662644937E+01 -0.29381671516E+02  0.34764090386E+02  0.51100000000E-03 0.  1.
         23    2    1    0    0    0  0.30315226207E+01  0.31905810768E+01  0.29360491338E+02  0.95311477156E+02  0.90569692994E+02 0.  0.
         11    1    3    3    0    0 -0.14153565833E+02 -0.38756834168E+01  0.58742162854E+02  0.60547386771E+02  0.51100000000E-03 0. -1.
         22    1    1    0    0    0 -0.30315226207E+01 -0.31905810768E+01 -0.29360491338E+02  0.29688522844E+02  0.00000000000E+00 0. -1.
</event>
<event>
 5    1  0.1099741E-009  0.9118800E+02  0.7818608E-02  0.1130116E+00
         25   -1    0    0    0    0  0.00000000000E+00  0.00000000000E+00  0.99999998245E-14  0.12500000000E+03  0.12500000000E+03 0.  0.
        -11    1    3    3    0    0  0.60946417140E+02 -0.24038528618E+01  0.36030959419E+01  0.61100135609E+02  0.51100000000E-03 0.  1.
         23    2    1    0    0    0  0.29941310559E+02 -0.60289102318E+00 -0.75777185460E+01  0.94108781605E+02  0.88894293412E+02 0.  0.
         11    1    3    3    0    0 -0.31005106581E+02  0.18009618386E+01 -0.11180814488E+02  0.33008645997E+02  0.51100000000E-03 0. -1.
         22    1    1    0    0    0 -0.29941310559E+02  0.60289102318E+00  0.75777185460E+01  0.30891218395E+02  0.00000000000E+00 0.  1.
</event>
<event>
 5    1  0.1099741E-009  0.9118800E+02  0.7818608E-02  0.1130116E+00
         25   -1    0    0    0    0  0.00000000000E+00  0.00000000000E+00  0.99999998245E-14  0.12500000000E+03  0.12500000000E+03 0.  0.
        -11    1    3    3    0    0 -0.10365916413E+01  0.13273781860E+02 -0.43962565324E+02  0.45934463720E+02  0.51100000000E-03 0.  1.
         23    2    1    0    0    0  0.13310733758E+02  0.25566828205E+02  0.24762493498E+01  0.96069563631E+02  0.91609993493E+02 0.  0.
         11    1    3    3    0    0  0.14347325399E+02  0.12293046346E+02  0.46438814674E+02  0.50135099912E+02  0.51100000000E-03 0. -1.
         22    1    1    0    0    0 -0.13310733758E+02 -0.25566828205E+02 -0.24762493498E+01  0.28930436369E+02  0.00000000000E+00 0.  1.
</event>
<event>
 5    1  0.1099741E-009  0.9118800E+02  0.7818608E-02  0.1130116E+00
         25   -1    0    0    0    0  0.00000000000E+00  0.00000000000E+00  0.99999998245E-14  0.12500000000E+03  0.12500000000E+03 0.  0.
        -11    1    3    3    0    0 -0.17468896312E+02 -0.30832731529E+02 -0.49502259821E+02  0.60879334750E+02  0.51100000000E-03 0.  1.
         23    2    1    0    0    0 -0.35310136283E+01 -0.69680097624E+01 -0.28100470359E+02  0.95833964073E+02  0.91287956589E+02 0.  0.
         11    1    3    3    0    0  0.13937882683E+02  0.23864721767E+02  0.21401789462E+02  0.34954629323E+02  0.51100000000E-03 0. -1.
         22    1    1    0    0    0  0.35310136283E+01  0.69680097624E+01  0.28100470359E+02  0.29166035927E+02  0.00000000000E+00 0.  1.
</event>
<event>
 5    1  0.1099741E-009  0.9118800E+02  0.7818608E-02  0.1130116E+00
         25   -1    0    0    0    0  0.00000000000E+00  0.00000000000E+00  0.99999998245E-14  0.12500000000E+03  0.12500000000E+03 0.  0.
        -11    1    3    3    0    0  0.39619716508E+02 -0.30614879999E+01 -0.34048364448E+01  0.39883424582E+02  0.51100000000E-03 0. -1.
         23    2    1    0    0    0  0.10579173074E+02 -0.32215312828E+02  0.18366312154E+02  0.86437496118E+02  0.77358735961E+02 0.  0.
         11    1    3    3    0    0 -0.29040543433E+02 -0.29153824828E+02  0.21771148598E+02  0.46554071536E+02  0.51100000000E-03 0.  1.
         22    1    1    0    0    0 -0.10579173074E+02  0.32215312828E+02 -0.18366312154E+02  0.38562503882E+02  0.00000000000E+00 0.  1.
</event>
<event>
 5    1  0.1099741E-009  0.9118800E+02  0.7818608E-02  0.1130116E+00
         25   -1    0    0    0    0  0.00000000000E+00  0.00000000000E+00  0.99999998245E-14  0.12500000000E+03  0.12500000000E+03 0.  0.
        -11    1    3    3    0    0 -0.18047624120E+02  0.24734569844E+02 -0.18548017970E+02  0.35798668307E+02  0.51100000000E-03 0. -1.
         23    2    1    0    0    0 -0.21341903101E+01 -0.29435038661E+02  0.78940160082E+00  0.95477137264E+02  0.90798041367E+02 0.  0.
         11    1    3    3    0    0  0.15913433810E+02 -0.54169608504E+02  0.19337419571E+02  0.59678468957E+02  0.51100000000E-03 0.  1.
         22    1    1    0    0    0  0.21341903101E+01  0.29435038661E+02 -0.78940160082E+00  0.29522862736E+02  0.00000000000E+00 0.  1.
</event>
<event>
 5    1  0.1099741E-009  0.9118800E+02  0.7818608E-02  0.1130116E+00
         25   -1    0    0    0    0  0.00000000000E+00  0.00000000000E+00  0.99999998245E-14  0.12500000000E+03  0.12500000000E+03 0.  0.
        -11    1    3    3    0    0  0.25468309085E+02 -0.85108083925E+01 -0.41259720006E+02  0.49228377207E+02  0.51100000000E-03 0. -1.
         23    2    1    0    0    0  0.42473262764E+02 -0.11691646769E+02 -0.20049888155E+02  0.76598856739E+02  0.59369303387E+02 0.  0.
         11    1    3    3    0    0  0.17004953679E+02 -0.31808383764E+01  0.21209831851E+02  0.27370479532E+02  0.51100000000E-03 0.  1.
         22    1    1    0    0    0 -0.42473262764E+02  0.11691646769E+02  0.20049888155E+02  0.48401143261E+02  0.00000000000E+00 0.  1.
</event>
<event>
 5    1  0.1099741E-009  0.9118800E+02  0.7818608E-02  0.1130116E+00
         25   -1    0    0    0    0  0.00000000000E+00  0.00000000000E+00  0.99999998245E-14  0.12500000000E+03  0.12500000000E+03 0.  0.
        -11    1    3    3    0    0 -0.51787508617E+02 -0.26382359614E+02 -0.19400591068E+02  0.61272815192E+02  0.51100000000E-03 0.  1.
         23    2    1    0    0    0 -0.25189201947E+02 -0.22334901501E+02 -0.86860476127E+01  0.90232326180E+02  0.83265128024E+02 0.  0.
         11    1    3    3    0    0  0.26598306670E+02  0.40474581131E+01  0.10714543455E+02  0.28959510987E+02  0.51100000000E-03 0. -1.
         22    1    1    0    0    0  0.25189201947E+02  0.22334901501E+02  0.86860476127E+01  0.34767673820E+02  0.00000000000E+00 0.  1.
</event>
<event>
 5    1  0.1099741E-009  0.9118800E+02  0.7818608E-02  0.1130116E+00
         25   -1    0    0    0    0  0.00000000000E+00  0.00000000000E+00  0.99999998245E-14  0.12500000000E+03  0.12500000000E+03 0.  0.
        -11    1    3    3    0    0 -0.42168887478E+02 -0.16658549715E+02  0.36138854043E+02  0.57980506393E+02  0.51100000000E-03 0.  1.
         23    2    1    0    0    0 -0.24163870476E+02 -0.17010614040E+02  0.35201305799E+01  0.95240212607E+02  0.90471283575E+02 0.  0.
         11    1    3    3    0    0  0.18005017002E+02 -0.35206432454E+00 -0.32618723463E+02  0.37259706214E+02  0.51100000000E-03 0. -1.
         22    1    1    0    0    0  0.24163870476E+02  0.17010614040E+02 -0.35201305799E+01  0.29759787393E+02  0.00000000000E+00 0.  1.
</event>
<event>
 5    1  0.1099741E-009  0.9118800E+02  0.7818608E-02  0.1130116E+00
         25   -1    0    0    0    0  0.00000000000E+00  0.00000000000E+00  0.99999998245E-14  0.12500000000E+03  0.12500000000E+03 0.  0.
        -11    1    3    3    0    0 -0.24628593468E+01  0.59384010437E+02  0.87569025156E+01  0.60076698592E+02  0.51100000000E-03 0.  1.
         23    2    1    0    0    0 -0.66679418658E+01  0.27083339184E+02 -0.69735184599E+01  0.96249370967E+02  0.91855009345E+02 0.  0.
         11    1    3    3    0    0 -0.42050825190E+01 -0.32300671253E+02 -0.15730420975E+02  0.36172672375E+02  0.51100000000E-03 0. -1.
         22    1    1    0    0    0  0.66679418658E+01 -0.27083339184E+02  0.69735184599E+01  0.28750629033E+02  0.00000000000E+00 0.  1.
</event>
<event>
 5    1  0.1099741E-009  0.9118800E+02  0.7818608E-02  0.1130116E+00
         25   -1    0    0    0    0  0.00000000000E+00  0.00000000000E+00  0.99999998245E-14  0.12500000000E+03  0.12500000000E+03 0.  0.
        -11    1    3    3    0    0  0.38779223821E+02  0.40459239444E+01 -0.66512367409E+01  0.39552960081E+02  0.51100000000E-03 0.  1.
         23    2    1    0    0    0 -0.92647850770E+01  0.20676386231E+02  0.18007553904E+02  0.96058314014E+02  0.91594642330E+02 0.  0.
         11    1    3    3    0    0 -0.48044008898E+02  0.16630462286E+02  0.24658790645E+02  0.56505353934E+02  0.51100000000E-03 0. -1.
         22    1    1    0    0    0  0.92647850770E+01 -0.20676386231E+02 -0.18007553904E+02  0.28941685986E+02  0.00000000000E+00 0. -1.
</event>
<event>
 5    1  0.1099741E-009  0.9118800E+02  0.7818608E-02  0.1130116E+00
         25   -1    0    0    0    0  0.00000000000E+00  0.00000000000E+00  0.99999998245E-14  0.12500000000E+03  0.12500000000E+03 0.  0.
        -11    1    3    3    0    0 -0.43998861631E+02 -0.40334233127E+02 -0.10436784152E+02  0.60594361540E+02  0.51100000000E-03 0.  1.
         23    2    1    0    0    0 -0.17785959559E+02 -0.17814021379E+02 -0.15374006827E+02  0.95503562909E+02  0.90834413783E+02 0.  0.
         11    1    3    3    0    0  0.26212902071E+02  0.22520211749E+02 -0.49372226751E+01  0.34909201369E+02  0.51100000000E-03 0. -1.
         22    1    1    0    0    0  0.17785959559E+02  0.17814021379E+02  0.15374006827E+02  0.29496437091E+02  0.00000000000E+00 0.  1.
</event>
<event>
 5    1  0.1099741E-009  0.9118800E+02  0.7818608E-02  0.1130116E+00
         25   -1    0    0    0    0  0.00000000000E+00  0.00000000000E+00  0.99999998245E-14  0.12500000000E+03  0.12500000000E+03 0.  0.
        -11    1    3    3    0    0  0.15907163844E+02  0.32872184717E+02  0.14321241476E+02  0.39226475082E+02  0.51100000000E-03 0. -1.
         23    2    1    0    0    0 -0.11747326017E+02 -0.91601696706E+01 -0.19948920870E+02  0.10010285517E+03  0.96957278179E+02 0.  0.
         11    1    3    3    0    0 -0.27654489861E+02 -0.42032354388E+02 -0.34270162346E+02  0.60876380086E+02  0.51100000000E-03 0.  1.
         22    1    1    0    0    0  0.11747326017E+02  0.91601696706E+01  0.19948920870E+02  0.24897144833E+02  0.00000000000E+00 0.  1.
</event>
<event>
 5    1  0.1099741E-009  0.9118800E+02  0.7818608E-02  0.1130116E+00
         25   -1    0    0    0    0  0.00000000000E+00  0.00000000000E+00  0.99999998245E-14  0.12500000000E+03  0.12500000000E+03 0.  0.
        -11    1    3    3    0    0 -0.31521752334E+02 -0.27644496762E+02  0.21135678829E+02  0.46952699510E+02  0.51100000000E-03 0.  1.
         23    2    1    0    0    0 -0.50004360839E+01  0.13115789412E+02  0.25618693234E+02  0.95787917980E+02  0.91224884188E+02 0.  0.
         11    1    3    3    0    0  0.26521316251E+02  0.40760286174E+02  0.44830144045E+01  0.48835218470E+02  0.51100000000E-03 0. -1.
         22    1    1    0    0    0  0.50004360839E+01 -0.13115789412E+02 -0.25618693234E+02  0.29212082020E+02  0.00000000000E+00 0.  1.
</event>
<event>
 5    1  0.1099741E-009  0.9118800E+02  0.7818608E-02  0.1130116E+00
         25   -1    0    0    0    0  0.00000000000E+00  0.00000000000E+00  0.99999998245E-14  0.12500000000E+03  0.12500000000E+03 0.  0.
        -11    1    3    3    0    0  0.27089753356E+02 -0.46803113030E+02  0.76244650445E+01  0.54612439917E+02  0.51100000000E-03 0. -1.
         23    2    1    0    0    0 -0.67763343330E+00 -0.19654872056E+02  0.21510613983E+02  0.95854165022E+02  0.91315613427E+02 0.  0.
         11    1    3    3    0    0 -0.27767386789E+02  0.27148240974E+02  0.13886148938E+02  0.41241725105E+02  0.51100000000E-03 0.  1.
         22    1    1    0    0    0  0.67763343330E+00  0.19654872056E+02 -0.21510613983E+02  0.29145834978E+02  0.00000000000E+00 0. -1.
</event>
<event>
 5    1  0.1099741E-009  0.9118800E+02  0.7818608E-02  0.1130116E+00
         25   -1    0    0    0    0  0.00000000000E+00  0.00000000000E+00  0.99999998245E-14  0.12500000000E+03  0.12500000000E+03 0.  0.
        -11    1    3    3    0    0 -0.32462830881E+02  0.10055164585E+02 -0.19599627746E+02  0.39231200997E+02  0.51100000000E-03 0. -1.
         23    2    1    0    0    0  0.78657020991E+01  0.21275454112E+02  0.18419896930E+02  0.95780027035E+02  0.91214071056E+02 0.  0.
         11    1    3    3    0    0  0.40328532980E+02  0.11220289526E+02  0.38019524676E+02  0.56548826038E+02  0.51100000000E-03 0.  1.
         22    1    1    0    0    0 -0.78657020991E+01 -0.21275454112E+02 -0.18419896930E+02  0.29219972965E+02  0.00000000000E+00 0.  1.
</event>
<event>
 5    1  0.1099741E-009  0.9118800E+02  0.7818608E-02  0.1130116E+00
         25   -1    0    0    0    0  0.00000000000E+00  0.00000000000E+00  0.99999998245E-14  0.12500000000E+03  0.12500000000E+03 0.  0.
        -11    1    3    3    0    0 -0.49920577550E+02 -0.87294849500E+01  0.25143326380E+02  0.56572562538E+02  0.51100000000E-03 0. -1.
         23    2    1    0    0    0 -0.14084698242E+02  0.59706348040E+01  0.25448306016E+02  0.95307518063E+02  0.90564228676E+02 0.  0.
         11    1    3    3    0    0  0.35835879309E+02  0.14700119754E+02  0.30497963620E+00  0.38734955524E+02  0.51100000000E-03 0.  1.
         22    1    1    0    0    0  0.14084698242E+02 -0.59706348040E+01 -0.25448306016E+02  0.29692481937E+02  0.00000000000E+00 0. -1.
</event>
<event>
 5    1  0.1099741E-009  0.9118800E+02  0.7818608E-02  0.1130116E+00
         25   -1    0    0    0    0  0.00000000000E+00  0.00000000000E+00  0.99999998245E-14  0.12500000000E+03  0.12500000000E+03 0.  0.
        -11    1    3    3    0    0  0.37633723755E+02  0.20879385690E+02  0.38171626524E+00  0.43039419351E+02  0.51100000000E-03 0. -1.
         23    2    1    0    0    0 -0.13611964378E+02  0.84177069221E+01  0.20066768742E+02  0.99332538657E+02  0.95959025965E+02 0.  0.
         11    1    3    3    0    0 -0.51245688133E+02 -0.12461678767E+02  0.19685052477E+02  0.56293119306E+02  0.51100000000E-03 0.  1.
         22    1    1    0    0    0  0.13611964378E+02 -0.84177069221E+01 -0.20066768742E+02  0.25667461343E+02  0.00000000000E+00 0.  1.
</event>
<event>
 5    1  0.1099741E-009  0.9118800E+02  0.7818608E-02  0.1130116E+00
         25   -1    0    0    0    0  0.00000000000E+00  0.00000000000E+00  0.99999998245E-14  0.12500000000E+03  0.12500000000E+03 0.  0.
        -11    1    3    3    0    0  0.31970156926E+02 -0.12787584272E+02  0.54630512637E+01  0.34863421730E+02  0.51100000000E-03 0. -1.
         23    2    1    0    0    0 -0.28168592322E+02 -0.94183819222E+01  0.59950069518E+00  0.95292510835E+02  0.90543512792E+02 0.  0.
         11    1    3    3    0    0 -0.60138749248E+02  0.33692023494E+01 -0.48635505686E+01  0.60429089104E+02  0.51100000000E-03 0.  1.
         22    1    1    0    0    0  0.28168592322E+02  0.94183819222E+01 -0.59950069518E+00  0.29707489165E+02  0.00000000000E+00 0.  1.
</event>
<event>
 5    1  0.1099741E-009  0.9118800E+02  0.7818608E-02  0.1130116E+00
         25   -1    0    0    0    0  0.00000000000E+00  0.00000000000E+00  0.99999998245E-14  0.12500000000E+03  0.12500000000E+03 0.  0.
        -11    1    3    3    0    0  0.14749419309E+02  0.37571346719E+02  0.19235464814E+02  0.44711906368E+02  0.51100000000E-03 0. -1.
         23    2    1    0    0    0 -0.10444090955E+02 -0.50414259056E+01  0.27733675240E+02  0.94939199057E+02  0.90054426677E+02 0.  0.
         11    1    3    3    0    0 -0.25193510264E+02 -0.42612772624E+02  0.84982104259E+01  0.50227292689E+02  0.51100000000E-03 0.  1.
         22    1    1    0    0    0  0.10444090955E+02  0.50414259056E+01 -0.27733675240E+02  0.30060800943E+02  0.00000000000E+00 0. -1.
</event>
<event>
 5    1  0.1099741E-009  0.9118800E+02  0.7818608E-02  0.1130116E+00
         25   -1    0    0    0    0  0.00000000000E+00  0.00000000000E+00  0.99999998245E-14  0.12500000000E+03  0.12500000000E+03 0.  0.
        -11    1    3    3    0    0  0.39551670230E+02  0.22715248852E+01 -0.12744628565E+02  0.41616342954E+02  0.51100000000E-03 0. -1.
         23    2    1    0    0    0  0.43736575942E+00  0.23420922897E+02  0.17814340238E+02  0.95570735037E+02  0.90926804405E+02 0.  0.
         11    1    3    3    0    0 -0.39114304471E+02  0.21149398012E+02  0.30558968804E+02  0.53954392083E+02  0.51100000000E-03 0.  1.
         22    1    1    0    0    0 -0.43736575942E+00 -0.23420922897E+02 -0.17814340238E+02  0.29429264963E+02  0.00000000000E+00 0.  1.
</event>
<event>
 5    1  0.1099741E-009  0.9118800E+02  0.7818608E-02  0.1130116E+00
         25   -1    0    0    0    0  0.00000000000E+00  0.00000000000E+00  0.99999998245E-14  0.12500000000E+03  0.12500000000E+03 0.  0.
        -11    1    3    3    0    0 -0.28755910115E+01 -0.46016984187E+02 -0.33381931306E+02  0.56922624635E+02  0.51100000000E-03 0. -1.
         23    2    1    0    0    0 -0.15522705907E+02 -0.11398720797E+02 -0.22566719120E+02  0.95332811958E+02  0.90599133492E+02 0.  0.
         11    1    3    3    0    0 -0.12647114895E+02  0.34618263390E+02  0.10815212186E+02  0.38410187323E+02  0.51100000000E-03 0.  1.
         22    1    1    0    0    0  0.15522705907E+02  0.11398720797E+02  0.22566719120E+02  0.29667188042E+02  0.00000000000E+00 0.  1.
</event>
<event>
 5    1  0.1099741E-009  0.9118800E+02  0.7818608E-02  0.1130116E+00
         25   -1    0    0    0    0  0.00000000000E+00  0.00000000000E+00  0.99999998245E-14  0.12500000000E+03  0.12500000000E+03 0.  0.
        -11    1    3    3    0    0  0.16610060490E+02  0.36452405124E+02 -0.35653812310E+02  0.53627103980E+02  0.51100000000E-03 0. -1.
         23    2    1    0    0    0  0.27625435369E+02  0.59506539037E+01 -0.98389579431E+01  0.95077098159E+02  0.90245634463E+02 0.  0.
         11    1    3    3    0    0  0.11015374879E+02 -0.30501751220E+02  0.25814854367E+02  0.41449994179E+02  0.51100000000E-03 0.  1.
         22    1    1    0    0    0 -0.27625435369E+02 -0.59506539037E+01  0.98389579431E+01  0.29922901841E+02  0.00000000000E+00 0. -1.
</event>
<event>
 5    1  0.1099741E-009  0.9118800E+02  0.7818608E-02  0.1130116E+00
         25   -1    0    0    0    0  0.00000000000E+00  0.00000000000E+00  0.99999998245E-14  0.12500000000E+03  0.12500000000E+03 0.  0.
        -11    1    3    3    0    0  0.20355259475E+02 -0.38819325782E+02  0.34184861550E+02  0.55586701664E+02  0.51100000000E-03 0.  1.
         23    2    1    0    0    0  0.28127015569E+02 -0.10869520357E+02  0.10393885824E+02  0.93104728562E+02  0.87471036009E+02 0.  0.
         11    1    3    3    0    0  0.77717560936E+01  0.27949805424E+02 -0.23790975726E+02  0.37518026897E+02  0.51100000000E-03 0. -1.
         22    1    1    0    0    0 -0.28127015569E+02  0.10869520357E+02 -0.10393885824E+02  0.31895271438E+02  0.00000000000E+00 0.  1.
</event>
<event>
 5    1  0.1099741E-009  0.9118800E+02  0.7818608E-02  0.1130116E+00
         25   -1    0    0    0    0  0.00000000000E+00  0.00000000000E+00  0.99999998245E-14  0.12500000000E+03  0.12500000000E+03 0.  0.
        -11    1    3    3    0    0 -0.38268646746E+01  0.40674545816E+01  0.60154166255E+02  0.60412852922E+02  0.51100000000E-03 0.  1.
         23    2    1    0    0    0  0.49725847724E+01  0.11143644561E+02  0.29879044432E+02  0.92725169101E+02  0.86926936419E+02 0.  0.
         11    1    3    3    0    0  0.87994494470E+01  0.70761899790E+01 -0.30275121823E+02  0.32312316179E+02  0.51100000000E-03 0. -1.
         22    1    1    0    0    0 -0.49725847724E+01 -0.11143644561E+02 -0.29879044432E+02  0.32274830899E+02  0.00000000000E+00 0.  1.
</event>
<event>
 5    1  0.1099741E-009  0.9118800E+02  0.7818608E-02  0.1130116E+00
         25   -1    0    0    0    0  0.00000000000E+00  0.00000000000E+00  0.99999998245E-14  0.12500000000E+03  0.12500000000E+03 0.  0.
        -11    1    3    3    0    0  0.19178064452E+02  0.24670970541E+02  0.14052513564E+02  0.34262633893E+02  0.51100000000E-03 0. -1.
         23    2    1    0    0    0 -0.42473203030E+01 -0.21897931689E+02 -0.18755916850E+02  0.95856500572E+02  0.91318810455E+02 0.  0.
         11    1    3    3    0    0 -0.23425384755E+02 -0.46568902230E+02 -0.32808430415E+02  0.61593866678E+02  0.51100000000E-03 0.  1.
         22    1    1    0    0    0  0.42473203030E+01  0.21897931689E+02  0.18755916850E+02  0.29143499428E+02  0.00000000000E+00 0.  1.
</event>
<event>
 5    1  0.1099741E-009  0.9118800E+02  0.7818608E-02  0.1130116E+00
         25   -1    0    0    0    0  0.00000000000E+00  0.00000000000E+00  0.99999998245E-14  0.12500000000E+03  0.12500000000E+03 0.  0.
        -11    1    3    3    0    0 -0.20262104187E+02  0.27338365867E+02 -0.16311693437E+02  0.37736063089E+02  0.51100000000E-03 0.  1.
         23    2    1    0    0    0  0.27571756314E+02 -0.48578959186E+01 -0.69828690442E+01  0.96145860625E+02  0.91714040126E+02 0.  0.
         11    1    3    3    0    0  0.47833860501E+02 -0.32196261786E+02  0.93288243933E+01  0.58409797536E+02  0.51100000000E-03 0. -1.
         22    1    1    0    0    0 -0.27571756314E+02  0.48578959186E+01  0.69828690442E+01  0.28854139375E+02  0.00000000000E+00 0. -1.
</event>
<event>
 5    1  0.1099741E-009  0.9118800E+02  0.7818608E-02  0.1130116E+00
         25   -1    0    0    0    0  0.00000000000E+00  0.00000000000E+00  0.99999998245E-14  0.12500000000E+03  0.12500000000E+03 0.  0.
        -11    1    3    3    0    0 -0.45561615942E+02 -0.83298646471E+01  0.26660574607E+01  0.46393483971E+02  0.51100000000E-03 0.  1.
         23    2    1    0    0    0 -0.10350896923E+02  0.15033738203E+02 -0.22848641460E+02  0.95755944741E+02  0.91181062646E+02 0.  0.
         11    1    3    3    0    0  0.35210719020E+02  0.23363602850E+02 -0.25514698920E+02  0.49362460770E+02  0.51100000000E-03 0. -1.
         22    1    1    0    0    0  0.10350896923E+02 -0.15033738203E+02  0.22848641460E+02  0.29244055259E+02  0.00000000000E+00 0. -1.
</event>
<event>
 5    1  0.1099741E-009  0.9118800E+02  0.7818608E-02  0.1130116E+00
         25   -1    0    0    0    0  0.00000000000E+00  0.00000000000E+00  0.99999998245E-14  0.12500000000E+03  0.12500000000E+03 0.  0.
        -11    1    3    3    0    0 -0.18053640733E+02 -0.46552775811E+02 -0.62487905907E+01  0.50320396099E+02  0.51100000000E-03 0. -1.
         23    2    1    0    0    0 -0.29592842016E+02 -0.63470675611E+01  0.64902612445E+01  0.94046081731E+02  0.88806083309E+02 0.  0.
         11    1    3    3    0    0 -0.11539201282E+02  0.40205708250E+02  0.12739051835E+02  0.43725685632E+02  0.51100000000E-03 0.  1.
         22    1    1    0    0    0  0.29592842016E+02  0.63470675611E+01 -0.64902612445E+01  0.30953918269E+02  0.00000000000E+00 0. -1.
</event>
<event>
 5    1  0.1099741E-009  0.9118800E+02  0.7818608E-02  0.1130116E+00
         25   -1    0    0    0    0  0.00000000000E+00  0.00000000000E+00  0.99999998245E-14  0.12500000000E+03  0.12500000000E+03 0.  0.
        -11    1    3    3    0    0 -0.24264737023E+01 -0.46088852169E+02 -0.30187189286E+02  0.55148313357E+02  0.51100000000E-03 0.  1.
         23    2    1    0    0    0  0.37798701178E+01 -0.61688089677E+01 -0.28513928441E+02  0.95582560660E+02  0.90943060015E+02 0.  0.
         11    1    3    3    0    0  0.62063438201E+01  0.39920043201E+02  0.16732608446E+01  0.40434247303E+02  0.51100000000E-03 0. -1.
         22    1    1    0    0    0 -0.37798701178E+01  0.61688089677E+01  0.28513928441E+02  0.29417439340E+02  0.00000000000E+00 0.  1.
</event>
<event>
 5    1  0.1099741E-009  0.9118800E+02  0.7818608E-02  0.1130116E+00
         25   -1    0    0    0    0  0.00000000000E+00  0.00000000000E+00  0.99999998245E-14  0.12500000000E+03  0.12500000000E+03 0.  0.
        -11    1    3    3    0    0  0.39986942466E+02 -0.14543356893E+02  0.19953396850E+02  0.46995774743E+02  0.51100000000E-03 0. -1.
         23    2    1    0    0    0  0.26145535291E+02  0.11149604128E+02 -0.15266587935E+02  0.92735911681E+02  0.86942382762E+02 0.  0.
         11    1    3    3    0    0 -0.13841407175E+02  0.25692961021E+02 -0.35219984785E+02  0.45740136939E+02  0.51100000000E-03 0.  1.
         22    1    1    0    0    0 -0.26145535291E+02 -0.11149604128E+02  0.15266587935E+02  0.32264088319E+02  0.00000000000E+00 0. -1.
</event>
<event>
 5    1  0.1099741E-009  0.9118800E+02  0.7818608E-02  0.1130116E+00
         25   -1    0    0    0    0  0.00000000000E+00  0.00000000000E+00  0.99999998245E-14  0.12500000000E+03  0.12500000000E+03 0.  0.
        -11    1    3    3    0    0  0.15048050705E+01 -0.42301586979E+01  0.40418834662E+02  0.40667442465E+02  0.51100000000E-03 0.  1.
         23    2    1    0    0    0  0.27024500818E+02 -0.72873737400E+01 -0.83471469257E+01  0.95792050358E+02  0.91230546362E+02 0.  0.
         11    1    3    3    0    0  0.25519695747E+02 -0.30572150421E+01 -0.48765981588E+02  0.55124607893E+02  0.51100000000E-03 0. -1.
         22    1    1    0    0    0 -0.27024500818E+02  0.72873737400E+01  0.83471469257E+01  0.29207949642E+02  0.00000000000E+00 0.  1.
</event>
<event>
 5    1  0.1099741E-009  0.9118800E+02  0.7818608E-02  0.1130116E+00
         25   -1    0    0    0    0  0.00000000000E+00  0.00000000000E+00  0.99999998245E-14  0.12500000000E+03  0.12500000000E+03 0.  0.
        -11    1    3    3    0    0  0.44242945025E+02  0.18261692932E+02  0.62291018859E+01  0.48267269695E+02  0.51100000000E-03 0. -1.
         23    2    1    0    0    0  0.12410867040E+02 -0.99613872933E+01  0.25477062895E+02  0.94961032121E+02  0.90084726953E+02 0.  0.
         11    1    3    3    0    0 -0.31832077985E+02 -0.28223080225E+02  0.19247961009E+02  0.46693762426E+02  0.51100000000E-03 0.  1.
         22    1    1    0    0    0 -0.12410867040E+02  0.99613872933E+01 -0.25477062895E+02  0.30038967879E+02  0.00000000000E+00 0. -1.
</event>
<event>
 5    1  0.1099741E-009  0.9118800E+02  0.7818608E-02  0.1130116E+00
         25   -1    0    0    0    0  0.00000000000E+00  0.00000000000E+00  0.99999998245E-14  0.12500000000E+03  0.12500000000E+03 0.  0.
        -11    1    3    3    0    0  0.53694461957E+01 -0.28874252083E+02  0.38551751893E+02  0.48464326675E+02  0.51100000000E-03 0.  1.
         23    2    1    0    0    0  0.86616925643E+01 -0.25924004982E+02 -0.90019199644E+01  0.96223038461E+02  0.91819168016E+02 0.  0.
         11    1    3    3    0    0  0.32922463686E+01  0.29502471004E+01 -0.47553671857E+02  0.47758711786E+02  0.51100000000E-03 0. -1.
         22    1    1    0    0    0 -0.86616925643E+01  0.25924004982E+02  0.90019199644E+01  0.28776961539E+02  0.00000000000E+00 0.  1.
</event>
<event>
 5    1  0.1099741E-009  0.9118800E+02  0.7818608E-02  0.1130116E+00
         25   -1    0    0    0    0  0.00000000000E+00  0.00000000000E+00  0.99999998245E-14  0.12500000000E+03  0.12500000000E+03 0.  0.
        -11    1    3    3    0    0 -0.28555862841E+01 -0.40591702085E+02 -0.18017363385E+02  0.44502427291E+02  0.51100000000E-03 0.  1.
         23    2    1    0    0    0  0.15460492440E+02 -0.11795856416E+02  0.21026792261E+02  0.96359206578E+02  0.92004356660E+02 0.  0.
         11    1    3    3    0    0  0.18316078724E+02  0.28795845669E+02  0.39044155646E+02  0.51856779287E+02  0.51100000000E-03 0. -1.
         22    1    1    0    0    0 -0.15460492440E+02  0.11795856416E+02 -0.21026792261E+02  0.28640793422E+02  0.00000000000E+00 0. -1.
</event>
<event>
 5    1  0.1099741E-009  0.9118800E+02  0.7818608E-02  0.1130116E+00
         25   -1    0    0    0    0  0.00000000000E+00  0.00000000000E+00  0.99999998245E-14  0.12500000000E+03  0.12500000000E+03 0.  0.
        -11    1    3    3    0    0  0.34192439078E+02  0.17838187175E+02 -0.42125613756E+01  0.38795225034E+02  0.51100000000E-03 0.  1.
         23    2    1    0    0    0 -0.18385530127E+02  0.33241422810E+01 -0.21972153473E+02  0.96158135147E+02  0.91730767939E+02 0.  0.
         11    1    3    3    0    0 -0.52577969206E+02 -0.14514044894E+02 -0.17759592097E+02  0.57362910113E+02  0.51100000000E-03 0. -1.
         22    1    1    0    0    0  0.18385530127E+02 -0.33241422810E+01  0.21972153473E+02  0.28841864853E+02  0.00000000000E+00 0. -1.
</event>
<event>
 5    1  0.1099741E-009  0.9118800E+02  0.7818608E-02  0.1130116E+00
         25   -1    0    0    0    0  0.00000000000E+00  0.00000000000E+00  0.99999998245E-14  0.12500000000E+03  0.12500000000E+03 0.  0.
        -11    1    3    3    0    0 -0.26984543347E+02 -0.46566484193E+02  0.12997640695E+02  0.55367334175E+02  0.51100000000E-03 0.  1.
         23    2    1    0    0    0 -0.27908146569E+02 -0.79255865660E+01  0.51916509156E+00  0.95983640825E+02  0.91492678430E+02 0.  0.
         11    1    3    3    0    0 -0.92360322221E+00  0.38640897627E+02 -0.12478475603E+02  0.40616306651E+02  0.51100000000E-03 0. -1.
         22    1    1    0    0    0  0.27908146569E+02  0.79255865660E+01 -0.51916509156E+00  0.29016359175E+02  0.00000000000E+00 0.  1.
</event>
<event>
 5    1  0.1099741E-009  0.9118800E+02  0.7818608E-02  0.1130116E+00
         25   -1    0    0    0    0  0.00000000000E+00  0.00000000000E+00  0.99999998245E-14  0.12500000000E+03  0.12500000000E+03 0.  0.
        -11    1    3    3    0    0 -0.25661292061E+02  0.50408167155E+01  0.27309470754E+02  0.37811624357E+02  0.51100000000E-03 0. -1.
         23    2    1    0    0    0  0.52369624670E+01  0.10331467849E+02 -0.24234509639E+02  0.98139686129E+02  0.94392380690E+02 0.  0.
         11    1    3    3    0    0  0.30898254528E+02  0.52906511333E+01 -0.51543980393E+02  0.60328061773E+02  0.51100000000E-03 0.  1.
         22    1    1    0    0    0 -0.52369624670E+01 -0.10331467849E+02  0.24234509639E+02  0.26860313871E+02  0.00000000000E+00 0.  1.
</event>
<event>
 5    1  0.1099741E-009  0.9118800E+02  0.7818608E-02  0.1130116E+00
         25   -1    0    0    0    0  0.00000000000E+00  0.00000000000E+00  0.99999998245E-14  0.12500000000E+03  0.12500000000E+03 0.  0.
        -11    1    3    3    0    0 -0.42926237370E+02  0.99321790718E+01 -0.28597461827E+02  0.52527372475E+02  0.51100000000E-03 0. -1.
         23    2    1    0    0    0 -0.13904371214E+02  0.25132460931E+02  0.39450887895E+00  0.96274962688E+02  0.91889828991E+02 0.  0.
         11    1    3    3    0    0  0.29021866157E+02  0.15200281860E+02  0.28991970706E+02  0.43747590213E+02  0.51100000000E-03 0.  1.
         22    1    1    0    0    0  0.13904371214E+02 -0.25132460931E+02 -0.39450887895E+00  0.28725037312E+02  0.00000000000E+00 0.  1.
</event>
<event>
 5    1  0.1099741E-009  0.9118800E+02  0.7818608E-02  0.1130116E+00
         25   -1    0    0    0    0  0.00000000000E+00  0.00000000000E+00  0.99999998245E-14  0.12500000000E+03  0.12500000000E+03 0.  0.
        -11    1    3    3    0    0  0.30274341093E+02  0.39753893852E+02  0.17995313531E+02  0.53110630898E+02  0.51100000000E-03 0.  1.
         23    2    1    0    0    0  0.29306402037E+02 -0.26156918278E+00  0.45155975220E+01  0.95346598176E+02  0.90618152397E+02 0.  0.
         11    1    3    3    0    0 -0.96793905574E+00 -0.40015463035E+02 -0.13479716009E+02  0.42235967278E+02  0.51100000000E-03 0. -1.
         22    1    1    0    0    0 -0.29306402037E+02  0.26156918278E+00 -0.45155975220E+01  0.29653401824E+02  0.00000000000E+00 0.  1.
</event>
<event>
 5    1  0.1099741E-009  0.9118800E+02  0.7818608E-02  0.1130116E+00
         25   -1    0    0    0    0  0.00000000000E+00  0.00000000000E+00  0.99999998245E-14  0.12500000000E+03  0.12500000000E+03 0.  0.
        -11    1    3    3    0    0 -0.19570535261E+02 -0.36927858062E+02  0.24679357937E+02  0.48535999628E+02  0.51100000000E-03 0. -1.
         23    2    1    0    0    0 -0.13366434243E+02 -0.10240152729E+02 -0.18695255343E+02  0.99839815887E+02  0.96617565544E+02 0.  0.
         11    1    3    3    0    0  0.62041010184E+01  0.26687705332E+02 -0.43374613279E+02  0.51303816259E+02  0.51100000000E-03 0.  1.
         22    1    1    0    0    0  0.13366434243E+02  0.10240152729E+02  0.18695255343E+02  0.25160184113E+02  0.00000000000E+00 0.  1.
</event>
<event>
 5    1  0.1099741E-009  0.9118800E+02  0.7818608E-02  0.1130116E+00
         25   -1    0    0    0    0  0.00000000000E+00  0.00000000000E+00  0.99999998245E-14  0.12500000000E+03  0.12500000000E+03 0.  0.
        -11    1    3    3    0    0  0.20277841050E+02  0.33768709021E+02 -0.58684580739E+01  0.39824054880E+02  0.51100000000E-03 0.  1.
         23    2    1    0    0    0  0.17501886177E+02 -0.11424611000E+02  0.23311629817E+02  0.93690738735E+02  0.88304499793E+02 0.  0.
         11    1    3    3    0    0 -0.27759548730E+01 -0.45193320021E+02  0.29180087891E+02  0.53866683855E+02  0.51100000000E-03 0. -1.
         22    1    1    0    0    0 -0.17501886177E+02  0.11424611000E+02 -0.23311629817E+02  0.31309261265E+02  0.00000000000E+00 0. -1.
</event>
<event>
 5    1  0.1099741E-009  0.9118800E+02  0.7818608E-02  0.1130116E+00
         25   -1    0    0    0    0  0.00000000000E+00  0.00000000000E+00  0.99999998245E-14  0.12500000000E+03  0.12500000000E+03 0.  0.
        -11    1    3    3    0    0  0.37202732771E+02 -0.10458761057E+02  0.16641705063E+02  0.42075828644E+02  0.51100000000E-03 0.  1.
         23    2    1    0    0    0 -0.39779884286E+01 -0.26238477837E+02  0.26749188382E+02  0.87319750661E+02  0.78771426706E+02 0.  0.
         11    1    3    3    0    0 -0.41180721199E+02 -0.15779716780E+02  0.10107483319E+02  0.45243922017E+02  0.51100000000E-03 0. -1.
         22    1    1    0    0    0  0.39779884286E+01  0.26238477837E+02 -0.26749188382E+02  0.37680249339E+02  0.00000000000E+00 0. -1.
</event>
<event>
 5    1  0.1099741E-009  0.9118800E+02  0.7818608E-02  0.1130116E+00
         25   -1    0    0    0    0  0.00000000000E+00  0.00000000000E+00  0.99999998245E-14  0.12500000000E+03  0.12500000000E+03 0.  0.
        -11    1    3    3    0    0 -0.30288704088E+02  0.13221133099E+02  0.84438194744E+01  0.34110145754E+02  0.51100000000E-03 0.  1.
         23    2    1    0    0    0  0.28898559123E+02 -0.31058004949E+01  0.15520705512E+01  0.95893615149E+02  0.91369599908E+02 0.  0.
         11    1    3    3    0    0  0.59187263211E+02 -0.16326933594E+02 -0.68917489232E+01  0.61783469395E+02  0.51100000000E-03 0. -1.
         22    1    1    0    0    0 -0.28898559123E+02  0.31058004949E+01 -0.15520705512E+01  0.29106384851E+02  0.00000000000E+00 0. -1.
</event>
<event>
 5    1  0.1099741E-009  0.9118800E+02  0.7818608E-02  0.1130116E+00
         25   -1    0    0    0    0  0.00000000000E+00  0.00000000000E+00  0.99999998245E-14  0.12500000000E+03  0.12500000000E+03 0.  0.
        -11    1    3    3    0    0 -0.16095473660E+02 -0.36148668868E+00  0.48954415571E+02  0.51533772898E+02  0.51100000000E-03 0.  1.
         23    2    1    0    0    0 -0.18443948419E+02  0.20766199626E+02  0.10820967246E+02  0.95192155188E+02  0.90404860472E+02 0.  0.
         11    1    3    3    0    0 -0.23484747588E+01  0.21127686315E+02 -0.38133448325E+02  0.43658382289E+02  0.51100000000E-03 0. -1.
         22    1    1    0    0    0  0.18443948419E+02 -0.20766199626E+02 -0.10820967246E+02  0.29807844812E+02  0.00000000000E+00 0. -1.
</event>
<event>
 5    1  0.1099741E-009  0.9118800E+02  0.7818608E-02  0.1130116E+00
         25   -1    0    0    0    0  0.00000000000E+00  0.00000000000E+00  0.99999998245E-14  0.12500000000E+03  0.12500000000E+03 0.  0.
        -11    1    3    3    0    0 -0.90801060525E+01 -0.40473746663E+02 -0.19821584479E+01  0.41527117011E+02  0.51100000000E-03 0. -1.
         23    2    1    0    0    0  0.26468534297E+02 -0.34528491435E+01  0.13433916117E+02  0.95117303045E+02  0.90301305424E+02 0.  0.
         11    1    3    3    0    0  0.35548640350E+02  0.37020897520E+02  0.15416074565E+02  0.53590186034E+02  0.51100000000E-03 0.  1.
         22    1    1    0    0    0 -0.26468534297E+02  0.34528491435E+01 -0.13433916117E+02  0.29882696955E+02  0.00000000000E+00 0.  1.
</event>
<event>
 5    1  0.1099741E-009  0.9118800E+02  0.7818608E-02  0.1130116E+00
         25   -1    0    0    0    0  0.00000000000E+00  0.00000000000E+00  0.99999998245E-14  0.12500000000E+03  0.12500000000E+03 0.  0.
        -11    1    3    3    0    0  0.47638702959E+01  0.47921956172E+02 -0.37129666343E+02  0.60809707009E+02  0.51100000000E-03 0.  1.
         23    2    1    0    0    0  0.43073497317E+01  0.15768779323E+02 -0.24901262397E+02  0.95212745477E+02  0.90433325546E+02 0.  0.
         11    1    3    3    0    0 -0.45652056412E+00 -0.32153176849E+02  0.12228403946E+02  0.34403038468E+02  0.51100000000E-03 0. -1.
         22    1    1    0    0    0 -0.43073497317E+01 -0.15768779323E+02  0.24901262397E+02  0.29787254523E+02  0.00000000000E+00 0.  1.
</event>
<event>
 5    1  0.1099741E-009  0.9118800E+02  0.7818608E-02  0.1130116E+00
         25   -1    0    0    0    0  0.00000000000E+00  0.00000000000E+00  0.99999998245E-14  0.12500000000E+03  0.12500000000E+03 0.  0.
        -11    1    3    3    0    0  0.53628682571E+02  0.86481685247E+01 -0.10083158906E+02  0.55249402775E+02  0.51100000000E-03 0.  1.
         23    2    1    0    0    0  0.54435230322E+01 -0.44871307089E+01 -0.17862365232E+02  0.10579504291E+03  0.10403730450E+03 0.  0.
         11    1    3    3    0    0 -0.48185159539E+02 -0.13135299234E+02 -0.77792063258E+01  0.50545640139E+02  0.51100000000E-03 0. -1.
         22    1    1    0    0    0 -0.54435230322E+01  0.44871307089E+01  0.17862365232E+02  0.19204957086E+02  0.00000000000E+00 0.  1.
</event>
<event>
 5    1  0.1099741E-009  0.9118800E+02  0.7818608E-02  0.1130116E+00
         25   -1    0    0    0    0  0.00000000000E+00  0.00000000000E+00  0.99999998245E-14  0.12500000000E+03  0.12500000000E+03 0.  0.
        -11    1    3    3    0    0  0.48255606714E+01  0.33538756658E+02  0.18274221869E+02  0.38497810576E+02  0.51100000000E-03 0.  1.
         23    2    1    0    0    0  0.44078634876E+01 -0.23740241875E+02  0.16404108552E+02  0.95808851989E+02  0.91253564300E+02 0.  0.
         11    1    3    3    0    0 -0.41769718382E+00 -0.57278998533E+02 -0.18701133173E+01  0.57311041414E+02  0.51100000000E-03 0. -1.
         22    1    1    0    0    0 -0.44078634876E+01  0.23740241875E+02 -0.16404108552E+02  0.29191148011E+02  0.00000000000E+00 0. -1.
</event>
<event>
 5    1  0.1099741E-009  0.9118800E+02  0.7818608E-02  0.1130116E+00
         25   -1    0    0    0    0  0.00000000000E+00  0.00000000000E+00  0.99999998245E-14  0.12500000000E+03  0.12500000000E+03 0.  0.
        -11    1    3    3    0    0 -0.47531008782E+01  0.35880905136E+02 -0.21060083404E+02  0.41875511156E+02  0.51100000000E-03 0. -1.
         23    2    1    0    0    0  0.93159904099E+00  0.83888135058E+01  0.26546939631E+02  0.97143581124E+02  0.93063931149E+02 0.  0.
         11    1    3    3    0    0  0.56846999192E+01 -0.27492091630E+02  0.47607023036E+02  0.55268069968E+02  0.51100000000E-03 0.  1.
         22    1    1    0    0    0 -0.93159904099E+00 -0.83888135058E+01 -0.26546939631E+02  0.27856418876E+02  0.00000000000E+00 0.  1.
</event>
<event>
 5    1  0.1099741E-009  0.9118800E+02  0.7818608E-02  0.1130116E+00
         25   -1    0    0    0    0  0.00000000000E+00  0.00000000000E+00  0.99999998245E-14  0.12500000000E+03  0.12500000000E+03 0.  0.
        -11    1    3    3    0    0 -0.24367965149E+00 -0.11433724852E+02 -0.34069099496E+02  0.35937348045E+02  0.51100000000E-03 0. -1.
         23    2    1    0    0    0  0.14322351742E+02 -0.17764296729E+01  0.24228852388E+02  0.96798532842E+02  0.92599315389E+02 0.  0.
         11    1    3    3    0    0  0.14566031394E+02  0.96572951787E+01  0.58297951884E+02  0.60861184797E+02  0.51100000000E-03 0.  1.
         22    1    1    0    0    0 -0.14322351742E+02  0.17764296729E+01 -0.24228852388E+02  0.28201467158E+02  0.00000000000E+00 0.  1.
</event>
<event>
 5    1  0.1099741E-009  0.9118800E+02  0.7818608E-02  0.1130116E+00
         25   -1    0    0    0    0  0.00000000000E+00  0.00000000000E+00  0.99999998245E-14  0.12500000000E+03  0.12500000000E+03 0.  0.
        -11    1    3    3    0    0 -0.57546469721E+02 -0.90913859148E+00 -0.21659497958E+02  0.61494362038E+02  0.51100000000E-03 0. -1.
         23    2    1    0    0    0 -0.27423183077E+02  0.55799903174E+01 -0.15806090520E+02  0.92859686381E+02  0.87120156080E+02 0.  0.
         11    1    3    3    0    0  0.30123286645E+02  0.64891289088E+01  0.58534074380E+01  0.31365324344E+02  0.51100000000E-03 0.  1.
         22    1    1    0    0    0  0.27423183077E+02 -0.55799903174E+01  0.15806090520E+02  0.32140313619E+02  0.00000000000E+00 0. -1.
</event>
<event>
 5    1  0.1099741E-009  0.9118800E+02  0.7818608E-02  0.1130116E+00
         25   -1    0    0    0    0  0.00000000000E+00  0.00000000000E+00  0.99999998245E-14  0.12500000000E+03  0.12500000000E+03 0.  0.
        -11    1    3    3    0    0 -0.40297788309E+02  0.33004054611E+02 -0.25295501431E+02  0.57905455324E+02  0.51100000000E-03 0.  1.
         23    2    1    0    0    0 -0.28029330026E+02  0.14586505060E+01 -0.14341412759E+02  0.93481003777E+02  0.88007107350E+02 0.  0.
         11    1    3    3    0    0  0.12268458283E+02 -0.31545404105E+02  0.10954088672E+02  0.35575548452E+02  0.51100000000E-03 0. -1.
         22    1    1    0    0    0  0.28029330026E+02 -0.14586505060E+01  0.14341412759E+02  0.31518996223E+02  0.00000000000E+00 0.  1.
</event>
<event>
 5    1  0.1099741E-009  0.9118800E+02  0.7818608E-02  0.1130116E+00
         25   -1    0    0    0    0  0.00000000000E+00  0.00000000000E+00  0.99999998245E-14  0.12500000000E+03  0.12500000000E+03 0.  0.
        -11    1    3    3    0    0 -0.64237745510E+01 -0.42970251420E+02  0.96721592877E+01  0.44511324988E+02  0.51100000000E-03 0.  1.
         23    2    1    0    0    0 -0.31774397428E+02 -0.25169658502E+01  0.72444053448E+01  0.92313169964E+02  0.86332453289E+02 0.  0.
         11    1    3    3    0    0 -0.25350622877E+02  0.40453285570E+02 -0.24277539429E+01  0.47801844976E+02  0.51100000000E-03 0. -1.
         22    1    1    0    0    0  0.31774397428E+02  0.25169658502E+01 -0.72444053448E+01  0.32686830036E+02  0.00000000000E+00 0. -1.
</event>
<event>
 5    1  0.1099741E-009  0.9118800E+02  0.7818608E-02  0.1130116E+00
         25   -1    0    0    0    0  0.00000000000E+00  0.00000000000E+00  0.99999998245E-14  0.12500000000E+03  0.12500000000E+03 0.  0.
        -11    1    3    3    0    0  0.61947571609E+01  0.14092944523E+02  0.12535398372E+02  0.19852514053E+02  0.51100000000E-03 0.  1.
         23    2    1    0    0    0  0.77555334785E+01  0.16108328173E+02 -0.44550921429E+02  0.76995717522E+02  0.60199081226E+02 0.  0.
         11    1    3    3    0    0  0.15607763176E+01  0.20153836500E+01 -0.57086319801E+02  0.57143203469E+02  0.51100000000E-03 0. -1.
         22    1    1    0    0    0 -0.77555334785E+01 -0.16108328173E+02  0.44550921429E+02  0.48004282478E+02  0.00000000000E+00 0. -1.
</event>
<event>
 5    1  0.1099741E-009  0.9118800E+02  0.7818608E-02  0.1130116E+00
         25   -1    0    0    0    0  0.00000000000E+00  0.00000000000E+00  0.99999998245E-14  0.12500000000E+03  0.12500000000E+03 0.  0.
        -11    1    3    3    0    0 -0.55142851117E+02 -0.12777685986E+02 -0.23960552564E+02  0.61466343375E+02  0.51100000000E-03 0. -1.
         23    2    1    0    0    0 -0.28189204289E+02  0.86002362846E+00 -0.77323440061E+01  0.95756880759E+02  0.91182345823E+02 0.  0.
         11    1    3    3    0    0  0.26953646828E+02  0.13637709614E+02  0.16228208558E+02  0.34290537384E+02  0.51100000000E-03 0.  1.
         22    1    1    0    0    0  0.28189204289E+02 -0.86002362846E+00  0.77323440061E+01  0.29243119241E+02  0.00000000000E+00 0. -1.
</event>
<event>
 5    1  0.1099741E-009  0.9118800E+02  0.7818608E-02  0.1130116E+00
         25   -1    0    0    0    0  0.00000000000E+00  0.00000000000E+00  0.99999998245E-14  0.12500000000E+03  0.12500000000E+03 0.  0.
        -11    1    3    3    0    0 -0.28282479683E+02  0.15118856162E+02  0.12993658524E+02  0.34602220026E+02  0.51100000000E-03 0. -1.
         23    2    1    0    0    0  0.10219369149E+02 -0.29034144772E+02  0.64765877951E+01  0.93545854679E+02  0.88099169518E+02 0.  0.
         11    1    3    3    0    0  0.38501848832E+02 -0.44153000933E+02 -0.65170707288E+01  0.58943634652E+02  0.51100000000E-03 0.  1.
         22    1    1    0    0    0 -0.10219369149E+02  0.29034144772E+02 -0.64765877951E+01  0.31454145321E+02  0.00000000000E+00 0.  1.
</event>
<event>
 5    1  0.1099741E-009  0.9118800E+02  0.7818608E-02  0.1130116E+00
         25   -1    0    0    0    0  0.00000000000E+00  0.00000000000E+00  0.99999998245E-14  0.12500000000E+03  0.12500000000E+03 0.  0.
        -11    1    3    3    0    0 -0.21436133138E+02  0.19539895105E+02  0.26128876677E+02  0.39038871670E+02  0.51100000000E-03 0.  1.
         23    2    1    0    0    0  0.73717937092E+01  0.21707412135E+02 -0.20733146054E+02  0.94090156432E+02  0.88868099496E+02 0.  0.
         11    1    3    3    0    0  0.28807926847E+02  0.21675170303E+01 -0.46862022731E+02  0.55051284762E+02  0.51100000000E-03 0. -1.
         22    1    1    0    0    0 -0.73717937092E+01 -0.21707412135E+02  0.20733146054E+02  0.30909843568E+02  0.00000000000E+00 0. -1.
</event>
<event>
 5    1  0.1099741E-009  0.9118800E+02  0.7818608E-02  0.1130116E+00
         25   -1    0    0    0    0  0.00000000000E+00  0.00000000000E+00  0.99999998245E-14  0.12500000000E+03  0.12500000000E+03 0.  0.
        -11    1    3    3    0    0  0.23368499668E+02  0.10108418000E+02  0.34755557468E+02  0.43083821399E+02  0.51100000000E-03 0.  1.
         23    2    1    0    0    0 -0.19775118089E+01 -0.27747945474E+02  0.74369261078E+01  0.96204741694E+02  0.91794255939E+02 0.  0.
         11    1    3    3    0    0 -0.25346011477E+02 -0.37856363474E+02 -0.27318631360E+02  0.53120920294E+02  0.51100000000E-03 0. -1.
         22    1    1    0    0    0  0.19775118089E+01  0.27747945474E+02 -0.74369261078E+01  0.28795258306E+02  0.00000000000E+00 0. -1.
</event>
<event>
 5    1  0.1099741E-009  0.9118800E+02  0.7818608E-02  0.1130116E+00
         25   -1    0    0    0    0  0.00000000000E+00  0.00000000000E+00  0.99999998245E-14  0.12500000000E+03  0.12500000000E+03 0.  0.
        -11    1    3    3    0    0 -0.38716812672E+01  0.18641241545E+02  0.39847034000E+02  0.44161883123E+02  0.51100000000E-03 0. -1.
         23    2    1    0    0    0 -0.15014679952E+02  0.98780104480E+01 -0.15482264418E+02  0.10127835975E+03  0.98461108760E+02 0.  0.
         11    1    3    3    0    0 -0.11142998685E+02 -0.87632310967E+01 -0.55329298418E+02  0.57116476630E+02  0.51100000000E-03 0.  1.
         22    1    1    0    0    0  0.15014679952E+02 -0.98780104480E+01  0.15482264418E+02  0.23721640247E+02  0.00000000000E+00 0.  1.
</event>
<event>
 5    1  0.1099741E-009  0.9118800E+02  0.7818608E-02  0.1130116E+00
         25   -1    0    0    0    0  0.00000000000E+00  0.00000000000E+00  0.99999998245E-14  0.12500000000E+03  0.12500000000E+03 0.  0.
        -11    1    3    3    0    0  0.19355823673E+02 -0.22191253057E+02  0.16427843190E+02  0.33719039939E+02  0.51100000000E-03 0.  1.
         23    2    1    0    0    0  0.39318654787E+01  0.10260869409E+02 -0.30360498862E+02  0.92712155564E+02  0.86908221079E+02 0.  0.
         11    1    3    3    0    0 -0.15423958194E+02  0.32452122466E+02 -0.46788342052E+02  0.58993115625E+02  0.51100000000E-03 0. -1.
         22    1    1    0    0    0 -0.39318654787E+01 -0.10260869409E+02  0.30360498862E+02  0.32287844436E+02  0.00000000000E+00 0. -1.
</event>
<event>
 5    1  0.1099741E-009  0.9118800E+02  0.7818608E-02  0.1130116E+00
         25   -1    0    0    0    0  0.00000000000E+00  0.00000000000E+00  0.99999998245E-14  0.12500000000E+03  0.12500000000E+03 0.  0.
        -11    1    3    3    0    0 -0.11775670075E+02 -0.25926639081E+02 -0.43592742329E+02  0.52069033060E+02  0.51100000000E-03 0. -1.
         23    2    1    0    0    0 -0.24990364653E+02 -0.15185725513E+02 -0.35996336753E+01  0.95536769569E+02  0.90880098989E+02 0.  0.
         11    1    3    3    0    0 -0.13214694578E+02  0.10740913568E+02  0.39993108654E+02  0.43467736508E+02  0.51100000000E-03 0.  1.
         22    1    1    0    0    0  0.24990364653E+02  0.15185725513E+02  0.35996336753E+01  0.29463230431E+02  0.00000000000E+00 0.  1.
</event>
<event>
 5    1  0.1099741E-009  0.9118800E+02  0.7818608E-02  0.1130116E+00
         25   -1    0    0    0    0  0.00000000000E+00  0.00000000000E+00  0.99999998245E-14  0.12500000000E+03  0.12500000000E+03 0.  0.
        -11    1    3    3    0    0 -0.16717288314E+02  0.35262567712E+02  0.81366973727E+01  0.39863796290E+02  0.51100000000E-03 0. -1.
         23    2    1    0    0    0  0.18338748022E+02 -0.62626105974E+01  0.21732301150E+02  0.95882601700E+02  0.91354531496E+02 0.  0.
         11    1    3    3    0    0  0.35056036336E+02 -0.41525178310E+02  0.13595603777E+02  0.56018805410E+02  0.51100000000E-03 0.  1.
         22    1    1    0    0    0 -0.18338748022E+02  0.62626105974E+01 -0.21732301150E+02  0.29117398300E+02  0.00000000000E+00 0. -1.
</event>
<event>
 5    1  0.1099741E-009  0.9118800E+02  0.7818608E-02  0.1130116E+00
         25   -1    0    0    0    0  0.00000000000E+00  0.00000000000E+00  0.99999998245E-14  0.12500000000E+03  0.12500000000E+03 0.  0.
        -11    1    3    3    0    0  0.59305771865E+01 -0.33053794723E+02  0.38416401695E+02  0.51024944985E+02  0.51100000000E-03 0.  1.
         23    2    1    0    0    0  0.16092771625E+02 -0.23964570329E+02 -0.42550157629E+01  0.95821530391E+02  0.91270929642E+02 0.  0.
         11    1    3    3    0    0  0.10162194438E+02  0.90892243941E+01 -0.42671417457E+02  0.44796585405E+02  0.51100000000E-03 0. -1.
         22    1    1    0    0    0 -0.16092771625E+02  0.23964570329E+02  0.42550157629E+01  0.29178469609E+02  0.00000000000E+00 0. -1.
</event>
<event>
 5    1  0.1099741E-009  0.9118800E+02  0.7818608E-02  0.1130116E+00
         25   -1    0    0    0    0  0.00000000000E+00  0.00000000000E+00  0.99999998245E-14  0.12500000000E+03  0.12500000000E+03 0.  0.
        -11    1    3    3    0    0  0.50532126467E+01 -0.20689810811E+02 -0.56512436844E+02  0.60392538842E+02  0.51100000000E-03 0.  1.
         23    2    1    0    0    0  0.12809338192E+02 -0.12903318837E+02 -0.22877565965E+02  0.95777443534E+02  0.91210530551E+02 0.  0.
         11    1    3    3    0    0  0.77561255457E+01  0.77864919740E+01  0.33634870879E+02  0.35384904692E+02  0.51100000000E-03 0. -1.
         22    1    1    0    0    0 -0.12809338192E+02  0.12903318837E+02  0.22877565965E+02  0.29222556466E+02  0.00000000000E+00 0.  1.
</event>
<event>
 5    1  0.1099741E-009  0.9118800E+02  0.7818608E-02  0.1130116E+00
         25   -1    0    0    0    0  0.00000000000E+00  0.00000000000E+00  0.99999998245E-14  0.12500000000E+03  0.12500000000E+03 0.  0.
        -11    1    3    3    0    0  0.50823901151E+02  0.98003845394E+01  0.34098864133E+02  0.61982650805E+02  0.51100000000E-03 0.  1.
         23    2    1    0    0    0  0.26370406534E+02  0.84591666515E+01  0.12584399707E+02  0.94580878429E+02  0.89555678810E+02 0.  0.
         11    1    3    3    0    0 -0.24453494618E+02 -0.13412178878E+01 -0.21514464426E+02  0.32598227624E+02  0.51100000000E-03 0. -1.
         22    1    1    0    0    0 -0.26370406534E+02 -0.84591666515E+01 -0.12584399707E+02  0.30419121571E+02  0.00000000000E+00 0.  1.
</event>
<event>
 5    1  0.1099741E-009  0.9118800E+02  0.7818608E-02  0.1130116E+00
         25   -1    0    0    0    0  0.00000000000E+00  0.00000000000E+00  0.99999998245E-14  0.12500000000E+03  0.12500000000E+03 0.  0.
        -11    1    3    3    0    0  0.20836004224E+02 -0.15070890782E+02 -0.35073394422E+02  0.43490387645E+02  0.51100000000E-03 0.  1.
         23    2    1    0    0    0 -0.23773664444E+02  0.54571721484E+01 -0.13436113031E+02  0.97152253550E+02  0.93075578900E+02 0.  0.
         11    1    3    3    0    0 -0.44609668667E+02  0.20528062930E+02  0.21637281390E+02  0.53661865906E+02  0.51100000000E-03 0. -1.
         22    1    1    0    0    0  0.23773664444E+02 -0.54571721484E+01  0.13436113031E+02  0.27847746450E+02  0.00000000000E+00 0. -1.
</event>
<event>
 5    1  0.1099741E-009  0.9118800E+02  0.7818608E-02  0.1130116E+00
         25   -1    0    0    0    0  0.00000000000E+00  0.00000000000E+00  0.99999998245E-14  0.12500000000E+03  0.12500000000E+03 0.  0.
        -11    1    3    3    0    0  0.52615900694E+01 -0.13054290080E+02  0.28894987672E+02  0.32140614997E+02  0.51100000000E-03 0. -1.
         23    2    1    0    0    0 -0.86065281459E+01  0.15815917814E+02 -0.24614224687E+02  0.94502858495E+02  0.89446713879E+02 0.  0.
         11    1    3    3    0    0 -0.13868118215E+02  0.28870207894E+02 -0.53509212359E+02  0.62362243499E+02  0.51100000000E-03 0.  1.
         22    1    1    0    0    0  0.86065281459E+01 -0.15815917814E+02  0.24614224687E+02  0.30497141505E+02  0.00000000000E+00 0.  1.
</event>
<event>
 5    1  0.1099741E-009  0.9118800E+02  0.7818608E-02  0.1130116E+00
         25   -1    0    0    0    0  0.00000000000E+00  0.00000000000E+00  0.99999998245E-14  0.12500000000E+03  0.12500000000E+03 0.  0.
        -11    1    3    3    0    0  0.25962940547E+02  0.17344649072E+02  0.10919350088E+02  0.33077837594E+02  0.51100000000E-03 0.  1.
         23    2    1    0    0    0 -0.27276124135E+02 -0.48245868087E+01 -0.11574121655E+02  0.94979608967E+02  0.90110500174E+02 0.  0.
         11    1    3    3    0    0 -0.53239064683E+02 -0.22169235880E+02 -0.22493471743E+02  0.61901771373E+02  0.51100000000E-03 0. -1.
         22    1    1    0    0    0  0.27276124135E+02  0.48245868087E+01  0.11574121655E+02  0.30020391033E+02  0.00000000000E+00 0. -1.
</event>
<event>
 5    1  0.1099741E-009  0.9118800E+02  0.7818608E-02  0.1130116E+00
         25   -1    0    0    0    0  0.00000000000E+00  0.00000000000E+00  0.99999998245E-14  0.12500000000E+03  0.12500000000E+03 0.  0.
        -11    1    3    3    0    0 -0.54858959659E+00  0.11360703680E+02  0.30922154435E+02  0.32947627742E+02  0.51100000000E-03 0.  1.
         23    2    1    0    0    0  0.69201294783E+00  0.15302007344E+02 -0.28569838057E+02  0.92582937251E+02  0.86722167366E+02 0.  0.
         11    1    3    3    0    0  0.12406025444E+01  0.39413036638E+01 -0.59491992492E+02  0.59635309509E+02  0.51100000000E-03 0. -1.
         22    1    1    0    0    0 -0.69201294783E+00 -0.15302007344E+02  0.28569838057E+02  0.32417062749E+02  0.00000000000E+00 0. -1.
</event>
<event>
 5    1  0.1099741E-009  0.9118800E+02  0.7818608E-02  0.1130116E+00
         25   -1    0    0    0    0  0.00000000000E+00  0.00000000000E+00  0.99999998245E-14  0.12500000000E+03  0.12500000000E+03 0.  0.
        -11    1    3    3    0    0  0.33358237332E+02 -0.10010514175E+02 -0.21017301128E+01  0.34891254802E+02  0.51100000000E-03 0.  1.
         23    2    1    0    0    0 -0.15375780690E+02  0.25158839582E+02 -0.51537864276E+01  0.95067687101E+02  0.90232598185E+02 0.  0.
         11    1    3    3    0    0 -0.48734018022E+02  0.35169353757E+02 -0.30520563147E+01  0.60176432299E+02  0.51100000000E-03 0. -1.
         22    1    1    0    0    0  0.15375780690E+02 -0.25158839582E+02  0.51537864276E+01  0.29932312899E+02  0.00000000000E+00 0. -1.
</event>
<event>
 5    1  0.1099741E-009  0.9118800E+02  0.7818608E-02  0.1130116E+00
         25   -1    0    0    0    0  0.00000000000E+00  0.00000000000E+00  0.99999998245E-14  0.12500000000E+03  0.12500000000E+03 0.  0.
        -11    1    3    3    0    0 -0.10088405791E+02 -0.19908124948E+02 -0.24434559567E+02  0.33093157478E+02  0.51100000000E-03 0.  1.
         23    2    1    0    0    0  0.13458603497E+02  0.18232603333E+02  0.18938695901E+02  0.95466357576E+02  0.90783199954E+02 0.  0.
         11    1    3    3    0    0  0.23547009288E+02  0.38140728282E+02  0.43373255468E+02  0.62373200098E+02  0.51100000000E-03 0. -1.
         22    1    1    0    0    0 -0.13458603497E+02 -0.18232603333E+02 -0.18938695901E+02  0.29533642424E+02  0.00000000000E+00 0. -1.
</event>
<event>
 5    1  0.1099741E-009  0.9118800E+02  0.7818608E-02  0.1130116E+00
         25   -1    0    0    0    0  0.00000000000E+00  0.00000000000E+00  0.99999998245E-14  0.12500000000E+03  0.12500000000E+03 0.  0.
        -11    1    3    3    0    0  0.23730655806E+02  0.88551865548E+00  0.12688268899E+02  0.26924344675E+02  0.51100000000E-03 0.  1.
         23    2    1    0    0    0 -0.30696314677E+02 -0.37636431967E+01 -0.17632456232E+02  0.89400389642E+02  0.82006691254E+02 0.  0.
         11    1    3    3    0    0 -0.54426970484E+02 -0.46491618522E+01 -0.30320725131E+02  0.62476044967E+02  0.51100000000E-03 0. -1.
         22    1    1    0    0    0  0.30696314677E+02  0.37636431967E+01  0.17632456232E+02  0.35599610358E+02  0.00000000000E+00 0. -1.
</event>
<event>
 5    1  0.1099741E-009  0.9118800E+02  0.7818608E-02  0.1130116E+00
         25   -1    0    0    0    0  0.00000000000E+00  0.00000000000E+00  0.99999998245E-14  0.12500000000E+03  0.12500000000E+03 0.  0.
        -11    1    3    3    0    0  0.11660251359E+02 -0.33121658443E+02 -0.43274034712E+02  0.55728339292E+02  0.51100000000E-03 0. -1.
         23    2    1    0    0    0  0.14456012291E+02 -0.58032654922E+01  0.26132070406E+01  0.10920496810E+03  0.10805666118E+03 0.  0.
         11    1    3    3    0    0  0.27957609313E+01  0.27318392951E+02  0.45887241753E+02  0.53476628807E+02  0.51100000000E-03 0.  1.
         22    1    1    0    0    0 -0.14456012291E+02  0.58032654922E+01 -0.26132070406E+01  0.15795031901E+02  0.00000000000E+00 0.  1.
</event>
<event>
 5    1  0.1099741E-009  0.9118800E+02  0.7818608E-02  0.1130116E+00
         25   -1    0    0    0    0  0.00000000000E+00  0.00000000000E+00  0.99999998245E-14  0.12500000000E+03  0.12500000000E+03 0.  0.
        -11    1    3    3    0    0  0.55894113328E+02 -0.12455794519E+02  0.16117821090E+02  0.59490191450E+02  0.51100000000E-03 0.  1.
         23    2    1    0    0    0  0.21889809828E+02 -0.18484484826E+01  0.19961935443E+02  0.95317355193E+02  0.90577805219E+02 0.  0.
         11    1    3    3    0    0 -0.34004303500E+02  0.10607346037E+02  0.38441143531E+01  0.35827163743E+02  0.51100000000E-03 0. -1.
         22    1    1    0    0    0 -0.21889809828E+02  0.18484484826E+01 -0.19961935443E+02  0.29682644807E+02  0.00000000000E+00 0.  1.
</event>
<event>
 5    1  0.1099741E-009  0.9118800E+02  0.7818608E-02  0.1130116E+00
         25   -1    0    0    0    0  0.00000000000E+00  0.00000000000E+00  0.99999998245E-14  0.12500000000E+03  0.12500000000E+03 0.  0.
        -11    1    3    3    0    0 -0.48390450790E+02  0.33268073959E+02  0.18611157177E+02  0.61601750335E+02  0.51100000000E-03 0. -1.
         23    2    1    0    0    0 -0.22991042447E+02  0.16661170910E+02  0.12156704903E+01  0.96580631540E+02  0.92304701316E+02 0.  0.
         11    1    3    3    0    0  0.25399408343E+02 -0.16606903049E+02 -0.17395486687E+02  0.34978881205E+02  0.51100000000E-03 0.  1.
         22    1    1    0    0    0  0.22991042447E+02 -0.16661170910E+02 -0.12156704903E+01  0.28419368460E+02  0.00000000000E+00 0. -1.
</event>
<event>
 5    1  0.1099741E-009  0.9118800E+02  0.7818608E-02  0.1130116E+00
         25   -1    0    0    0    0  0.00000000000E+00  0.00000000000E+00  0.99999998245E-14  0.12500000000E+03  0.12500000000E+03 0.  0.
        -11    1    3    3    0    0  0.33408797285E+02 -0.22435922402E+02  0.52381024746E+01  0.40582706512E+02  0.51100000000E-03 0.  1.
         23    2    1    0    0    0  0.97052568012E+01  0.26794291062E+02 -0.46958489170E+01  0.96117876807E+02  0.91675892151E+02 0.  0.
         11    1    3    3    0    0 -0.23703540484E+02  0.49230213464E+02 -0.99339513916E+01  0.55535170295E+02  0.51100000000E-03 0. -1.
         22    1    1    0    0    0 -0.97052568012E+01 -0.26794291062E+02  0.46958489170E+01  0.28882123193E+02  0.00000000000E+00 0.  1.
</event>
<event>
 5    1  0.1099741E-009  0.9118800E+02  0.7818608E-02  0.1130116E+00
         25   -1    0    0    0    0  0.00000000000E+00  0.00000000000E+00  0.99999998245E-14  0.12500000000E+03  0.12500000000E+03 0.  0.
        -11    1    3    3    0    0  0.28182579851E+02 -0.32598189561E+02 -0.10872309590E+02  0.44442174629E+02  0.51100000000E-03 0.  1.
         23    2    1    0    0    0 -0.19627262067E+02  0.25446190438E+01 -0.73666288004E+01  0.10388195742E+03  0.10171277873E+03 0.  0.
         11    1    3    3    0    0 -0.47809841918E+02  0.35142808604E+02  0.35056807895E+01  0.59439782796E+02  0.51100000000E-03 0. -1.
         22    1    1    0    0    0  0.19627262067E+02 -0.25446190438E+01  0.73666288004E+01  0.21118042575E+02  0.00000000000E+00 0. -1.
</event>
<event>
 5    1  0.1099741E-009  0.9118800E+02  0.7818608E-02  0.1130116E+00
         25   -1    0    0    0    0  0.00000000000E+00  0.00000000000E+00  0.99999998245E-14  0.12500000000E+03  0.12500000000E+03 0.  0.
        -11    1    3    3    0    0 -0.31287095280E+02  0.20199012883E+02 -0.13026349340E+02  0.39453367789E+02  0.51100000000E-03 0. -1.
         23    2    1    0    0    0  0.23670758848E+02  0.11991469211E+02 -0.13935973707E+02  0.95028154521E+02  0.90177816730E+02 0.  0.
         11    1    3    3    0    0  0.54957854128E+02 -0.82075436717E+01 -0.90962436673E+00  0.55574786732E+02  0.51100000000E-03 0.  1.
         22    1    1    0    0    0 -0.23670758848E+02 -0.11991469211E+02  0.13935973707E+02  0.29971845479E+02  0.00000000000E+00 0.  1.
</event>
<event>
 5    1  0.1099741E-009  0.9118800E+02  0.7818608E-02  0.1130116E+00
         25   -1    0    0    0    0  0.00000000000E+00  0.00000000000E+00  0.99999998245E-14  0.12500000000E+03  0.12500000000E+03 0.  0.
        -11    1    3    3    0    0  0.12647776350E+02 -0.25120765696E+02  0.30641777853E+02  0.41592519352E+02  0.51100000000E-03 0. -1.
         23    2    1    0    0    0  0.21336803418E+02 -0.11334581887E+02 -0.19269146550E+02  0.94096409021E+02  0.88876893820E+02 0.  0.
         11    1    3    3    0    0  0.86890270685E+01  0.13786183809E+02 -0.49910924402E+02  0.52503889669E+02  0.51100000000E-03 0.  1.
         22    1    1    0    0    0 -0.21336803418E+02  0.11334581887E+02  0.19269146550E+02  0.30903590979E+02  0.00000000000E+00 0. -1.
</event>
<event>
 5    1  0.1099741E-009  0.9118800E+02  0.7818608E-02  0.1130116E+00
         25   -1    0    0    0    0  0.00000000000E+00  0.00000000000E+00  0.99999998245E-14  0.12500000000E+03  0.12500000000E+03 0.  0.
        -11    1    3    3    0    0  0.41330172878E+01 -0.15673649646E+02 -0.42906148488E+02  0.45865920938E+02  0.51100000000E-03 0.  1.
         23    2    1    0    0    0  0.21305894092E+02  0.18511773816E+02 -0.18948515737E+02  0.91004807082E+02  0.84416833455E+02 0.  0.
         11    1    3    3    0    0  0.17172876805E+02  0.34185423462E+02  0.23957632752E+02  0.45138886144E+02  0.51100000000E-03 0. -1.
         22    1    1    0    0    0 -0.21305894092E+02 -0.18511773816E+02  0.18948515737E+02  0.33995192918E+02  0.00000000000E+00 0. -1.
</event>
<event>
 5    1  0.1099741E-009  0.9118800E+02  0.7818608E-02  0.1130116E+00
         25   -1    0    0    0    0  0.00000000000E+00  0.00000000000E+00  0.99999998245E-14  0.12500000000E+03  0.12500000000E+03 0.  0.
        -11    1    3    3    0    0  0.57000388109E+02  0.16271827961E+02  0.11531795324E+02  0.60388731842E+02  0.51100000000E-03 0.  1.
         23    2    1    0    0    0  0.24090860493E+02  0.33637938425E+01  0.15797715309E+02  0.95995647270E+02  0.91509080519E+02 0.  0.
         11    1    3    3    0    0 -0.32909527616E+02 -0.12908034119E+02  0.42659199857E+01  0.35606915428E+02  0.51100000000E-03 0. -1.
         22    1    1    0    0    0 -0.24090860493E+02 -0.33637938425E+01 -0.15797715309E+02  0.29004352730E+02  0.00000000000E+00 0.  1.
</event>
<event>
 5    1  0.1099741E-009  0.9118800E+02  0.7818608E-02  0.1130116E+00
         25   -1    0    0    0    0  0.00000000000E+00  0.00000000000E+00  0.99999998245E-14  0.12500000000E+03  0.12500000000E+03 0.  0.
        -11    1    3    3    0    0 -0.14678129192E+02  0.72245253898E+01 -0.32156801670E+02  0.36079095576E+02  0.51100000000E-03 0.  1.
         23    2    1    0    0    0  0.16563015086E+02 -0.24124211234E+02  0.67068433309E+01  0.94978461334E+02  0.90108908181E+02 0.  0.
         11    1    3    3    0    0  0.31241144278E+02 -0.31348736623E+02  0.38863645001E+02  0.58899365758E+02  0.51100000000E-03 0. -1.
         22    1    1    0    0    0 -0.16563015086E+02  0.24124211234E+02 -0.67068433309E+01  0.30021538666E+02  0.00000000000E+00 0. -1.
</event>
<event>
 5    1  0.1099741E-009  0.9118800E+02  0.7818608E-02  0.1130116E+00
         25   -1    0    0    0    0  0.00000000000E+00  0.00000000000E+00  0.99999998245E-14  0.12500000000E+03  0.12500000000E+03 0.  0.
        -11    1    3    3    0    0  0.15497830796E+02 -0.39633259497E+00 -0.45380746922E+02  0.47955729901E+02  0.51100000000E-03 0. -1.
         23    2    1    0    0    0  0.19709328863E+02  0.20317374773E+02 -0.15097596723E+01  0.96653347003E+02  0.92403120892E+02 0.  0.
         11    1    3    3    0    0  0.42114980668E+01  0.20713707368E+02  0.43870987249E+02  0.48697617102E+02  0.51100000000E-03 0.  1.
         22    1    1    0    0    0 -0.19709328863E+02 -0.20317374773E+02  0.15097596723E+01  0.28346652997E+02  0.00000000000E+00 0. -1.
</event>
<event>
 5    1  0.1099741E-009  0.9118800E+02  0.7818608E-02  0.1130116E+00
         25   -1    0    0    0    0  0.00000000000E+00  0.00000000000E+00  0.99999998245E-14  0.12500000000E+03  0.12500000000E+03 0.  0.
        -11    1    3    3    0    0 -0.16237922077E+01  0.13855555758E+02 -0.28599925616E+02  0.31820887354E+02  0.51100000000E-03 0. -1.
         23    2    1    0    0    0 -0.22514076557E+02  0.89551453696E+00  0.25335405674E+02  0.91094714716E+02  0.84549859131E+02 0.  0.
         11    1    3    3    0    0 -0.20890284349E+02 -0.12960041221E+02  0.53935331290E+02  0.59273827363E+02  0.51100000000E-03 0.  1.
         22    1    1    0    0    0  0.22514076557E+02 -0.89551453696E+00 -0.25335405674E+02  0.33905285284E+02  0.00000000000E+00 0.  1.
</event>
<event>
 5    1  0.1099741E-009  0.9118800E+02  0.7818608E-02  0.1130116E+00
         25   -1    0    0    0    0  0.00000000000E+00  0.00000000000E+00  0.99999998245E-14  0.12500000000E+03  0.12500000000E+03 0.  0.
        -11    1    3    3    0    0  0.31547978016E+02 -0.12394470042E+02 -0.35788443923E+01  0.34083807474E+02  0.51100000000E-03 0.  1.
         23    2    1    0    0    0 -0.28799194388E+02  0.17845377878E+01 -0.13107692727E+01  0.96115812481E+02  0.91673077402E+02 0.  0.
         11    1    3    3    0    0 -0.60347172404E+02  0.14179007830E+02  0.22680751197E+01  0.62032005007E+02  0.51100000000E-03 0. -1.
         22    1    1    0    0    0  0.28799194388E+02 -0.17845377878E+01  0.13107692727E+01  0.28884187519E+02  0.00000000000E+00 0. -1.
</event>
<event>
 5    1  0.1099741E-009  0.9118800E+02  0.7818608E-02  0.1130116E+00
         25   -1    0    0    0    0  0.00000000000E+00  0.00000000000E+00  0.99999998245E-14  0.12500000000E+03  0.12500000000E+03 0.  0.
        -11    1    3    3    0    0 -0.30898182948E+01 -0.45382746681E+02 -0.21666490938E+02  0.50384298181E+02  0.51100000000E-03 0.  1.
         23    2    1    0    0    0  0.14169947417E+02 -0.37770795142E+01 -0.25492817122E+02  0.95590180819E+02  0.90953533218E+02 0.  0.
         11    1    3    3    0    0  0.17259765712E+02  0.41605667166E+02 -0.38263261841E+01  0.45205882638E+02  0.51100000000E-03 0. -1.
         22    1    1    0    0    0 -0.14169947417E+02  0.37770795142E+01  0.25492817122E+02  0.29409819181E+02  0.00000000000E+00 0. -1.
</event>
<event>
 5    1  0.1099741E-009  0.9118800E+02  0.7818608E-02  0.1130116E+00
         25   -1    0    0    0    0  0.00000000000E+00  0.00000000000E+00  0.99999998245E-14  0.12500000000E+03  0.12500000000E+03 0.  0.
        -11    1    3    3    0    0  0.29492193932E+02  0.72631101751E+01  0.23388600716E+02  0.38334956841E+02  0.51100000000E-03 0. -1.
         23    2    1    0    0    0  0.11190193286E+01 -0.28910322106E+02 -0.91469936340E+01  0.94656525890E+02  0.89661203831E+02 0.  0.
         11    1    3    3    0    0 -0.28373174603E+02 -0.36173432281E+02 -0.32535594350E+02  0.56321569048E+02  0.51100000000E-03 0.  1.
         22    1    1    0    0    0 -0.11190193286E+01  0.28910322106E+02  0.91469936340E+01  0.30343474110E+02  0.00000000000E+00 0.  1.
</event>
<event>
 5    1  0.1099741E-009  0.9118800E+02  0.7818608E-02  0.1130116E+00
         25   -1    0    0    0    0  0.00000000000E+00  0.00000000000E+00  0.99999998245E-14  0.12500000000E+03  0.12500000000E+03 0.  0.
        -11    1    3    3    0    0  0.24307064154E+02 -0.15882379981E+02 -0.19659495593E+02  0.35065355108E+02  0.51100000000E-03 0.  1.
         23    2    1    0    0    0 -0.30449528476E+02  0.32368598264E+00 -0.39327806754E+01  0.94295841961E+02  0.89156943029E+02 0.  0.
         11    1    3    3    0    0 -0.54756592630E+02  0.16206065963E+02  0.15726714917E+02  0.59230486853E+02  0.51100000000E-03 0. -1.
         22    1    1    0    0    0  0.30449528476E+02 -0.32368598264E+00  0.39327806754E+01  0.30704158039E+02  0.00000000000E+00 0. -1.
</event>
<event>
 5    1  0.1099741E-009  0.9118800E+02  0.7818608E-02  0.1130116E+00
         25   -1    0    0    0    0  0.00000000000E+00  0.00000000000E+00  0.99999998245E-14  0.12500000000E+03  0.12500000000E+03 0.  0.
        -11    1    3    3    0    0 -0.11510363290E+02  0.21628653948E+02  0.32666935852E+02  0.40834003391E+02  0.51100000000E-03 0.  1.
         23    2    1    0    0    0 -0.19306182170E+02  0.63229068073E+01 -0.20157692125E+02  0.96381118605E+02  0.92034122212E+02 0.  0.
         11    1    3    3    0    0 -0.77958188800E+01 -0.15305747141E+02 -0.52824627977E+02  0.55547115215E+02  0.51100000000E-03 0. -1.
         22    1    1    0    0    0  0.19306182170E+02 -0.63229068073E+01  0.20157692125E+02  0.28618881395E+02  0.00000000000E+00 0. -1.
</event>
<event>
 5    1  0.1099741E-009  0.9118800E+02  0.7818608E-02  0.1130116E+00
         25   -1    0    0    0    0  0.00000000000E+00  0.00000000000E+00  0.99999998245E-14  0.12500000000E+03  0.12500000000E+03 0.  0.
        -11    1    3    3    0    0  0.11687447666E+02 -0.33573735276E+02 -0.23684178451E+02  0.42716887088E+02  0.51100000000E-03 0. -1.
         23    2    1    0    0    0 -0.11371525147E+02 -0.18169120923E+02  0.20797124452E+02  0.95134486029E+02  0.90325087917E+02 0.  0.
         11    1    3    3    0    0 -0.23058972813E+02  0.15404614353E+02  0.44481302903E+02  0.52417598941E+02  0.51100000000E-03 0.  1.
         22    1    1    0    0    0  0.11371525147E+02  0.18169120923E+02 -0.20797124452E+02  0.29865513971E+02  0.00000000000E+00 0.  1.
</event>
<event>
 5    1  0.1099741E-009  0.9118800E+02  0.7818608E-02  0.1130116E+00
         25   -1    0    0    0    0  0.00000000000E+00  0.00000000000E+00  0.99999998245E-14  0.12500000000E+03  0.12500000000E+03 0.  0.
        -11    1    3    3    0    0 -0.39231831186E+02  0.38494666743E+02  0.62636202040E+01  0.55319154767E+02  0.51100000000E-03 0. -1.
         23    2    1    0    0    0 -0.37232337239E+01  0.23094615843E+02  0.17686211282E+02  0.95673803181E+02  0.91068385268E+02 0.  0.
         11    1    3    3    0    0  0.35508597462E+02 -0.15400050900E+02  0.11422591078E+02  0.40354648414E+02  0.51100000000E-03 0.  1.
         22    1    1    0    0    0  0.37232337239E+01 -0.23094615843E+02 -0.17686211282E+02  0.29326196819E+02  0.00000000000E+00 0. -1.
</event>
<event>
 5    1  0.1099741E-009  0.9118800E+02  0.7818608E-02  0.1130116E+00
         25   -1    0    0    0    0  0.00000000000E+00  0.00000000000E+00  0.99999998245E-14  0.12500000000E+03  0.12500000000E+03 0.  0.
        -11    1    3    3    0    0  0.16696337074E+02 -0.32294024676E+02 -0.18974380297E+02  0.41008521180E+02  0.51100000000E-03 0. -1.
         23    2    1    0    0    0 -0.28314147290E+02 -0.53598554871E+01 -0.21132445509E+01  0.96105627016E+02  0.91659188050E+02 0.  0.
         11    1    3    3    0    0 -0.45010484364E+02  0.26934169189E+02  0.16861135746E+02  0.55097105836E+02  0.51100000000E-03 0.  1.
         22    1    1    0    0    0  0.28314147290E+02  0.53598554871E+01  0.21132445509E+01  0.28894372984E+02  0.00000000000E+00 0.  1.
</event>
<event>
 5    1  0.1099741E-009  0.9118800E+02  0.7818608E-02  0.1130116E+00
         25   -1    0    0    0    0  0.00000000000E+00  0.00000000000E+00  0.99999998245E-14  0.12500000000E+03  0.12500000000E+03 0.  0.
        -11    1    3    3    0    0  0.40722843820E+01  0.11901709302E+02 -0.31672700676E+02  0.34079233453E+02  0.51100000000E-03 0. -1.
         23    2    1    0    0    0  0.23817103248E+00  0.11994650697E+02  0.28345686561E+02  0.94220033831E+02  0.89050594932E+02 0.  0.
         11    1    3    3    0    0 -0.38341133495E+01  0.92941395708E-01  0.60018387237E+02  0.60140800377E+02  0.51100000000E-03 0.  1.
         22    1    1    0    0    0 -0.23817103248E+00 -0.11994650697E+02 -0.28345686561E+02  0.30779966169E+02  0.00000000000E+00 0.  1.
</event>
<event>
 5    1  0.1099741E-009  0.9118800E+02  0.7818608E-02  0.1130116E+00
         25   -1    0    0    0    0  0.00000000000E+00  0.00000000000E+00  0.99999998245E-14  0.12500000000E+03  0.12500000000E+03 0.  0.
        -11    1    3    3    0    0  0.27698383522E+02 -0.32404901136E+01 -0.44263845708E+02  0.52316242822E+02  0.51100000000E-03 0. -1.
         23    2    1    0    0    0  0.29218944306E+02  0.52833789365E+01 -0.22399321951E+01  0.95222859513E+02  0.90447304427E+02 0.  0.
         11    1    3    3    0    0  0.15205607843E+01  0.85238690502E+01  0.42023913513E+02  0.42906616691E+02  0.51100000000E-03 0.  1.
         22    1    1    0    0    0 -0.29218944306E+02 -0.52833789365E+01  0.22399321951E+01  0.29777140487E+02  0.00000000000E+00 0. -1.
</event>
<event>
 5    1  0.1099741E-009  0.9118800E+02  0.7818608E-02  0.1130116E+00
         25   -1    0    0    0    0  0.00000000000E+00  0.00000000000E+00  0.99999998245E-14  0.12500000000E+03  0.12500000000E+03 0.  0.
        -11    1    3    3    0    0 -0.39699371520E+02 -0.27318182523E+02 -0.26791084834E+02  0.55136969651E+02  0.51100000000E-03 0.  1.
         23    2    1    0    0    0 -0.26330601085E+02 -0.13064075206E+02  0.75529469298E+01  0.94651727861E+02  0.89654514472E+02 0.  0.
         11    1    3    3    0    0  0.13368770435E+02  0.14254107317E+02  0.34344031764E+02  0.39514758210E+02  0.51100000000E-03 0. -1.
         22    1    1    0    0    0  0.26330601085E+02  0.13064075206E+02 -0.75529469298E+01  0.30348272139E+02  0.00000000000E+00 0. -1.
</event>
<event>
 5    1  0.1099741E-009  0.9118800E+02  0.7818608E-02  0.1130116E+00
         25   -1    0    0    0    0  0.00000000000E+00  0.00000000000E+00  0.99999998245E-14  0.12500000000E+03  0.12500000000E+03 0.  0.
        -11    1    3    3    0    0  0.28744181767E+02  0.54684882646E+02 -0.61244754860E+01  0.62081990752E+02  0.51100000000E-03 0. -1.
         23    2    1    0    0    0  0.18111530875E+02  0.24723055301E+02 -0.62718718483E+00  0.94346282806E+02  0.89227634181E+02 0.  0.
         11    1    3    3    0    0 -0.10632650892E+02 -0.29961827345E+02  0.54972883011E+01  0.32264292054E+02  0.51100000000E-03 0.  1.
         22    1    1    0    0    0 -0.18111530875E+02 -0.24723055301E+02  0.62718718483E+00  0.30653717194E+02  0.00000000000E+00 0. -1.
</event>
<event>
 5    1  0.1099741E-009  0.9118800E+02  0.7818608E-02  0.1130116E+00
         25   -1    0    0    0    0  0.00000000000E+00  0.00000000000E+00  0.99999998245E-14  0.12500000000E+03  0.12500000000E+03 0.  0.
        -11    1    3    3    0    0 -0.35704010647E+02  0.26936399089E+02  0.37255712992E+02  0.58209398923E+02  0.51100000000E-03 0.  1.
         23    2    1    0    0    0 -0.20295227279E+02 -0.33674577539E+01  0.19890779759E+02  0.96383935605E+02  0.92037948159E+02 0.  0.
         11    1    3    3    0    0  0.15408783369E+02 -0.30303856843E+02 -0.17364933233E+02  0.38174536682E+02  0.51100000000E-03 0. -1.
         22    1    1    0    0    0  0.20295227279E+02  0.33674577539E+01 -0.19890779759E+02  0.28616064395E+02  0.00000000000E+00 0.  1.
</event>
<event>
 5    1  0.1099741E-009  0.9118800E+02  0.7818608E-02  0.1130116E+00
         25   -1    0    0    0    0  0.00000000000E+00  0.00000000000E+00  0.99999998245E-14  0.12500000000E+03  0.12500000000E+03 0.  0.
        -11    1    3    3    0    0 -0.23829459163E+02 -0.55396957590E+02 -0.10241466425E+02  0.61168240689E+02  0.51100000000E-03 0. -1.
         23    2    1    0    0    0 -0.14950431747E+02 -0.23076823956E+02  0.32762742317E+01  0.97309041437E+02  0.93285906541E+02 0.  0.
         11    1    3    3    0    0  0.88790274161E+01  0.32320133634E+02  0.13517740656E+02  0.36140800748E+02  0.51100000000E-03 0.  1.
         22    1    1    0    0    0  0.14950431747E+02  0.23076823956E+02 -0.32762742317E+01  0.27690958563E+02  0.00000000000E+00 0. -1.
</event>
<event>
 5    1  0.1099741E-009  0.9118800E+02  0.7818608E-02  0.1130116E+00
         25   -1    0    0    0    0  0.00000000000E+00  0.00000000000E+00  0.99999998245E-14  0.12500000000E+03  0.12500000000E+03 0.  0.
        -11    1    3    3    0    0  0.21610935062E+02  0.70094145292E+01  0.30616941722E+02  0.38125601988E+02  0.51100000000E-03 0.  1.
         23    2    1    0    0    0 -0.27009585791E+02 -0.28009461138E+00 -0.32044635724E+01  0.97799544776E+02  0.93940865410E+02 0.  0.
         11    1    3    3    0    0 -0.48620520853E+02 -0.72895091406E+01 -0.33821405294E+02  0.59673942788E+02  0.51100000000E-03 0. -1.
         22    1    1    0    0    0  0.27009585791E+02  0.28009461138E+00  0.32044635724E+01  0.27200455224E+02  0.00000000000E+00 0. -1.
</event>
<event>
 5    1  0.1099741E-009  0.9118800E+02  0.7818608E-02  0.1130116E+00
         25   -1    0    0    0    0  0.00000000000E+00  0.00000000000E+00  0.99999998245E-14  0.12500000000E+03  0.12500000000E+03 0.  0.
        -11    1    3    3    0    0  0.31313026578E+02 -0.23949148386E+02  0.48180233106E+01  0.39714993275E+02  0.51100000000E-03 0.  1.
         23    2    1    0    0    0 -0.18877895223E+01  0.13430660636E+02  0.27287665922E+02  0.94527666550E+02  0.89481375926E+02 0.  0.
         11    1    3    3    0    0 -0.33200816101E+02  0.37379809022E+02  0.22469642611E+02  0.54812673276E+02  0.51100000000E-03 0. -1.
         22    1    1    0    0    0  0.18877895223E+01 -0.13430660636E+02 -0.27287665922E+02  0.30472333450E+02  0.00000000000E+00 0. -1.
</event>
<event>
 5    1  0.1099741E-009  0.9118800E+02  0.7818608E-02  0.1130116E+00
         25   -1    0    0    0    0  0.00000000000E+00  0.00000000000E+00  0.99999998245E-14  0.12500000000E+03  0.12500000000E+03 0.  0.
        -11    1    3    3    0    0  0.38343099205E+02 -0.40152790447E+02  0.25023741922E+02  0.60898501602E+02  0.51100000000E-03 0.  1.
         23    2    1    0    0    0  0.22712500747E+02 -0.10726898514E+02  0.15219623184E+02  0.95630611655E+02  0.91009081490E+02 0.  0.
         11    1    3    3    0    0 -0.15630598458E+02  0.29425891933E+02 -0.98041187388E+01  0.34732110053E+02  0.51100000000E-03 0. -1.
         22    1    1    0    0    0 -0.22712500747E+02  0.10726898514E+02 -0.15219623184E+02  0.29369388345E+02  0.00000000000E+00 0.  1.
</event>
<event>
 5    1  0.1099741E-009  0.9118800E+02  0.7818608E-02  0.1130116E+00
         25   -1    0    0    0    0  0.00000000000E+00  0.00000000000E+00  0.99999998245E-14  0.12500000000E+03  0.12500000000E+03 0.  0.
        -11    1    3    3    0    0 -0.20221120785E+02  0.23836873017E+02  0.13111037084E+02  0.33896748144E+02  0.51100000000E-03 0. -1.
         23    2    1    0    0    0  0.26002936559E+01 -0.34182666625E+01 -0.32776873198E+02  0.91942935842E+02  0.85794719888E+02 0.  0.
         11    1    3    3    0    0  0.22821414440E+02 -0.27255139680E+02 -0.45887910282E+02  0.58046187699E+02  0.51100000000E-03 0.  1.
         22    1    1    0    0    0 -0.26002936559E+01  0.34182666625E+01  0.32776873198E+02  0.33057064158E+02  0.00000000000E+00 0.  1.
</event>
<event>
 5    1  0.1099741E-009  0.9118800E+02  0.7818608E-02  0.1130116E+00
         25   -1    0    0    0    0  0.00000000000E+00  0.00000000000E+00  0.99999998245E-14  0.12500000000E+03  0.12500000000E+03 0.  0.
        -11    1    3    3    0    0 -0.27352111281E+02 -0.24885255520E+02  0.32696525573E+02  0.49360679884E+02  0.51100000000E-03 0. -1.
         23    2    1    0    0    0  0.15620736887E+02 -0.18930208319E+02  0.15146093107E+02  0.96159675031E+02  0.91732866290E+02 0.  0.
         11    1    3    3    0    0  0.42972848168E+02  0.59550472011E+01 -0.17550432466E+02  0.46798995147E+02  0.51100000000E-03 0.  1.
         22    1    1    0    0    0 -0.15620736887E+02  0.18930208319E+02 -0.15146093107E+02  0.28840324969E+02  0.00000000000E+00 0. -1.
</event>
<event>
 5    1  0.1099741E-009  0.9118800E+02  0.7818608E-02  0.1130116E+00
         25   -1    0    0    0    0  0.00000000000E+00  0.00000000000E+00  0.99999998245E-14  0.12500000000E+03  0.12500000000E+03 0.  0.
        -11    1    3    3    0    0 -0.26544546535E+02  0.66728150694E+01 -0.40712704839E+02  0.49057759297E+02  0.51100000000E-03 0.  1.
         23    2    1    0    0    0  0.15049116025E+02  0.14377970643E+02 -0.19908210725E+02  0.96198284995E+02  0.91785463167E+02 0.  0.
         11    1    3    3    0    0  0.41593662559E+02  0.77051555734E+01  0.20804494114E+02  0.47140525698E+02  0.51100000000E-03 0. -1.
         22    1    1    0    0    0 -0.15049116025E+02 -0.14377970643E+02  0.19908210725E+02  0.28801715005E+02  0.00000000000E+00 0.  1.
</event>
<event>
 5    1  0.1099741E-009  0.9118800E+02  0.7818608E-02  0.1130116E+00
         25   -1    0    0    0    0  0.00000000000E+00  0.00000000000E+00  0.99999998245E-14  0.12500000000E+03  0.12500000000E+03 0.  0.
        -11    1    3    3    0    0 -0.51708086217E+00 -0.25582422638E+02 -0.27456950753E+02  0.37531478329E+02  0.51100000000E-03 0. -1.
         23    2    1    0    0    0 -0.17364594079E+02  0.24257683907E+02 -0.49253899271E+01  0.94763865624E+02  0.89810725451E+02 0.  0.
         11    1    3    3    0    0 -0.16847513217E+02  0.49840106545E+02  0.22531560826E+02  0.57232387295E+02  0.51100000000E-03 0.  1.
         22    1    1    0    0    0  0.17364594079E+02 -0.24257683907E+02  0.49253899271E+01  0.30236134376E+02  0.00000000000E+00 0.  1.
</event>
<event>
 5    1  0.1099741E-009  0.9118800E+02  0.7818608E-02  0.1130116E+00
         25   -1    0    0    0    0  0.00000000000E+00  0.00000000000E+00  0.99999998245E-14  0.12500000000E+03  0.12500000000E+03 0.  0.
        -11    1    3    3    0    0 -0.41957644120E+02  0.43700837583E+02 -0.86052958824E+00  0.60588345554E+02  0.51100000000E-03 0. -1.
         23    2    1    0    0    0 -0.11504466615E+02  0.25472312216E+02  0.51330328772E+01  0.96582761073E+02  0.92307585107E+02 0.  0.
         11    1    3    3    0    0  0.30453177505E+02 -0.18228525367E+02  0.59935624654E+01  0.35994415519E+02  0.51100000000E-03 0.  1.
         22    1    1    0    0    0  0.11504466615E+02 -0.25472312216E+02 -0.51330328772E+01  0.28417238927E+02  0.00000000000E+00 0. -1.
</event>
<event>
 5    1  0.1099741E-009  0.9118800E+02  0.7818608E-02  0.1130116E+00
         25   -1    0    0    0    0  0.00000000000E+00  0.00000000000E+00  0.99999998245E-14  0.12500000000E+03  0.12500000000E+03 0.  0.
        -11    1    3    3    0    0 -0.15591638727E+02 -0.32317559200E+02 -0.26745805286E+02  0.44753345478E+02  0.51100000000E-03 0.  1.
         23    2    1    0    0    0  0.19883961345E+02  0.63552923549E+01 -0.16884455485E+02  0.98151415369E+02  0.94407911968E+02 0.  0.
         11    1    3    3    0    0  0.35475600072E+02  0.38672851555E+02  0.98613498015E+01  0.53398069890E+02  0.51100000000E-03 0. -1.
         22    1    1    0    0    0 -0.19883961345E+02 -0.63552923549E+01  0.16884455485E+02  0.26848584631E+02  0.00000000000E+00 0. -1.
</event>
<event>
 5    1  0.1099741E-009  0.9118800E+02  0.7818608E-02  0.1130116E+00
         25   -1    0    0    0    0  0.00000000000E+00  0.00000000000E+00  0.99999998245E-14  0.12500000000E+03  0.12500000000E+03 0.  0.
        -11    1    3    3    0    0 -0.28414371954E+02 -0.16461285912E+02 -0.18611501143E+02  0.37745707603E+02  0.51100000000E-03 0.  1.
         23    2    1    0    0    0  0.68082311533E+01  0.24281416176E+02  0.89442446033E+01  0.98242969251E+02  0.94529055390E+02 0.  0.
         11    1    3    3    0    0  0.35222603107E+02  0.40742702088E+02  0.27555745746E+02  0.60497261648E+02  0.51100000000E-03 0. -1.
         22    1    1    0    0    0 -0.68082311533E+01 -0.24281416176E+02 -0.89442446033E+01  0.26757030749E+02  0.00000000000E+00 0. -1.
</event>
<event>
 5    1  0.1099741E-009  0.9118800E+02  0.7818608E-02  0.1130116E+00
         25   -1    0    0    0    0  0.00000000000E+00  0.00000000000E+00  0.99999998245E-14  0.12500000000E+03  0.12500000000E+03 0.  0.
        -11    1    3    3    0    0  0.33206691678E+02 -0.47278232907E+01  0.30738630985E+02  0.45496155006E+02  0.51100000000E-03 0.  1.
         23    2    1    0    0    0  0.10694518033E+02 -0.26014778191E+02 -0.86154794968E+01  0.95582864054E+02  0.90943477026E+02 0.  0.
         11    1    3    3    0    0 -0.22512173645E+02 -0.21286954901E+02 -0.39354110482E+02  0.50086709048E+02  0.51100000000E-03 0. -1.
         22    1    1    0    0    0 -0.10694518033E+02  0.26014778191E+02  0.86154794968E+01  0.29417135946E+02  0.00000000000E+00 0.  1.
</event>
<event>
 5    1  0.1099741E-009  0.9118800E+02  0.7818608E-02  0.1130116E+00
         25   -1    0    0    0    0  0.00000000000E+00  0.00000000000E+00  0.99999998245E-14  0.12500000000E+03  0.12500000000E+03 0.  0.
        -11    1    3    3    0    0 -0.20810689325E+02 -0.37052549127E+02  0.22478674778E+02  0.48075638394E+02  0.51100000000E-03 0.  1.
         23    2    1    0    0    0  0.14468858703E+02 -0.20855890600E+02 -0.90143327355E+01  0.98063514714E+02  0.94291456021E+02 0.  0.
         11    1    3    3    0    0  0.35279548028E+02  0.16196658527E+02 -0.31493007513E+02  0.49987876320E+02  0.51100000000E-03 0. -1.
         22    1    1    0    0    0 -0.14468858703E+02  0.20855890600E+02  0.90143327355E+01  0.26936485286E+02  0.00000000000E+00 0.  1.
</event>
<event>
 5    1  0.1099741E-009  0.9118800E+02  0.7818608E-02  0.1130116E+00
         25   -1    0    0    0    0  0.00000000000E+00  0.00000000000E+00  0.99999998245E-14  0.12500000000E+03  0.12500000000E+03 0.  0.
        -11    1    3    3    0    0  0.37712055723E+02  0.11727099597E+02 -0.12705035667E+02  0.41486647772E+02  0.51100000000E-03 0.  1.
         23    2    1    0    0    0 -0.14679508401E+02  0.24531239968E+02 -0.52738123515E+01  0.95929692159E+02  0.91418942456E+02 0.  0.
         11    1    3    3    0    0 -0.52391564123E+02  0.12804140371E+02  0.74312233151E+01  0.54443044387E+02  0.51100000000E-03 0. -1.
         22    1    1    0    0    0  0.14679508401E+02 -0.24531239968E+02  0.52738123515E+01  0.29070307841E+02  0.00000000000E+00 0. -1.
</event>
<event>
 5    1  0.1099741E-009  0.9118800E+02  0.7818608E-02  0.1130116E+00
         25   -1    0    0    0    0  0.00000000000E+00  0.00000000000E+00  0.99999998245E-14  0.12500000000E+03  0.12500000000E+03 0.  0.
        -11    1    3    3    0    0 -0.15703842642E+01  0.34193193405E+02  0.31102938502E+01  0.34370256183E+02  0.51100000000E-03 0.  1.
         23    2    1    0    0    0 -0.83882694296E+01 -0.26865277692E+02  0.72161558929E+01  0.95945239368E+02  0.91440198173E+02 0.  0.
         11    1    3    3    0    0 -0.68178851654E+01 -0.61058471097E+02  0.41058620426E+01  0.61574983185E+02  0.51100000000E-03 0. -1.
         22    1    1    0    0    0  0.83882694296E+01  0.26865277692E+02 -0.72161558929E+01  0.29054760632E+02  0.00000000000E+00 0. -1.
</event>
<event>
 5    1  0.1099741E-009  0.9118800E+02  0.7818608E-02  0.1130116E+00
         25   -1    0    0    0    0  0.00000000000E+00  0.00000000000E+00  0.99999998245E-14  0.12500000000E+03  0.12500000000E+03 0.  0.
        -11    1    3    3    0    0  0.31425962394E+02 -0.14280134699E+02 -0.30123255601E+02  0.45814014097E+02  0.51100000000E-03 0. -1.
         23    2    1    0    0    0  0.15695020922E+02  0.23523235038E+02  0.12540807135E+00  0.96721174077E+02  0.92494829689E+02 0.  0.
         11    1    3    3    0    0 -0.15730941471E+02  0.37803369737E+02  0.30248663673E+02  0.50907159980E+02  0.51100000000E-03 0.  1.
         22    1    1    0    0    0 -0.15695020922E+02 -0.23523235038E+02 -0.12540807135E+00  0.28278825923E+02  0.00000000000E+00 0.  1.
</event>
<event>
 5    1  0.1099741E-009  0.9118800E+02  0.7818608E-02  0.1130116E+00
         25   -1    0    0    0    0  0.00000000000E+00  0.00000000000E+00  0.99999998245E-14  0.12500000000E+03  0.12500000000E+03 0.  0.
        -11    1    3    3    0    0 -0.49153733893E+01 -0.25994700291E+02 -0.36584911541E+02  0.45147991002E+02  0.51100000000E-03 0.  1.
         23    2    1    0    0    0 -0.29202251910E+02 -0.29714878640E+01  0.12006185542E+01  0.95622410895E+02  0.90997817137E+02 0.  0.
         11    1    3    3    0    0 -0.24286878520E+02  0.23023212427E+02  0.37785530095E+02  0.50474419893E+02  0.51100000000E-03 0. -1.
         22    1    1    0    0    0  0.29202251910E+02  0.29714878640E+01 -0.12006185542E+01  0.29377589105E+02  0.00000000000E+00 0. -1.
</event>
<event>
 5    1  0.1099741E-009  0.9118800E+02  0.7818608E-02  0.1130116E+00
         25   -1    0    0    0    0  0.00000000000E+00  0.00000000000E+00  0.99999998245E-14  0.12500000000E+03  0.12500000000E+03 0.  0.
        -11    1    3    3    0    0  0.37549390621E+02 -0.15186888730E+02  0.11156544296E+02  0.42012698155E+02  0.51100000000E-03 0.  1.
         23    2    1    0    0    0 -0.12917445833E+02 -0.23191438074E+02 -0.90396333897E+01  0.96956851486E+02  0.92812783987E+02 0.  0.
         11    1    3    3    0    0 -0.50466836454E+02 -0.80045493436E+01 -0.20196177686E+02  0.54944153331E+02  0.51100000000E-03 0. -1.
         22    1    1    0    0    0  0.12917445833E+02  0.23191438074E+02  0.90396333897E+01  0.28043148514E+02  0.00000000000E+00 0. -1.
</event>
<event>
 5    1  0.1099741E-009  0.9118800E+02  0.7818608E-02  0.1130116E+00
         25   -1    0    0    0    0  0.00000000000E+00  0.00000000000E+00  0.99999998245E-14  0.12500000000E+03  0.12500000000E+03 0.  0.
        -11    1    3    3    0    0 -0.66154739652E+01 -0.21520388303E+01 -0.34937417417E+02  0.35623291579E+02  0.51100000000E-03 0.  1.
         23    2    1    0    0    0  0.25609744018E+02 -0.33410348122E+01  0.15048908479E+02  0.95108677703E+02  0.90289364964E+02 0.  0.
         11    1    3    3    0    0  0.32225217983E+02 -0.11889959818E+01  0.49986325895E+02  0.59485386124E+02  0.51100000000E-03 0. -1.
         22    1    1    0    0    0 -0.25609744018E+02  0.33410348122E+01 -0.15048908479E+02  0.29891322297E+02  0.00000000000E+00 0. -1.
</event>
<event>
 5    1  0.1099741E-009  0.9118800E+02  0.7818608E-02  0.1130116E+00
         25   -1    0    0    0    0  0.00000000000E+00  0.00000000000E+00  0.99999998245E-14  0.12500000000E+03  0.12500000000E+03 0.  0.
        -11    1    3    3    0    0 -0.51126763645E+02  0.21042386449E+02  0.14670883637E+01  0.55307145441E+02  0.51100000000E-03 0.  1.
         23    2    1    0    0    0 -0.20036470122E+02  0.11000075804E+01  0.20031344930E+02  0.96646430008E+02  0.92393763328E+02 0.  0.
         11    1    3    3    0    0  0.31090293524E+02 -0.19942378869E+02  0.18564256566E+02  0.41339284566E+02  0.51100000000E-03 0. -1.
         22    1    1    0    0    0  0.20036470122E+02 -0.11000075804E+01 -0.20031344930E+02  0.28353569992E+02  0.00000000000E+00 0.  1.
</event>
<event>
 5    1  0.1099741E-009  0.9118800E+02  0.7818608E-02  0.1130116E+00
         25   -1    0    0    0    0  0.00000000000E+00  0.00000000000E+00  0.99999998245E-14  0.12500000000E+03  0.12500000000E+03 0.  0.
        -11    1    3    3    0    0 -0.78632060146E+01  0.34310786885E+02  0.72250687111E+00  0.35207699754E+02  0.51100000000E-03 0. -1.
         23    2    1    0    0    0  0.80021582963E+00 -0.27422925624E+02 -0.56376998726E+00  0.97559609482E+02  0.93621057303E+02 0.  0.
         11    1    3    3    0    0  0.86634218443E+01 -0.61733712510E+02 -0.12862768584E+01  0.62351909728E+02  0.51100000000E-03 0.  1.
         22    1    1    0    0    0 -0.80021582963E+00  0.27422925624E+02  0.56376998726E+00  0.27440390518E+02  0.00000000000E+00 0.  1.
</event>
<event>
 5    1  0.1099741E-009  0.9118800E+02  0.7818608E-02  0.1130116E+00
         25   -1    0    0    0    0  0.00000000000E+00  0.00000000000E+00  0.99999998245E-14  0.12500000000E+03  0.12500000000E+03 0.  0.
        -11    1    3    3    0    0  0.47279147147E+01 -0.16702186607E+02 -0.58328307895E+02  0.60856451730E+02  0.51100000000E-03 0.  1.
         23    2    1    0    0    0  0.10390095665E+02 -0.16274934089E+01 -0.25301461867E+02  0.97599875998E+02  0.93674804507E+02 0.  0.
         11    1    3    3    0    0  0.56621809507E+01  0.15074693198E+02  0.33026846028E+02  0.36743424268E+02  0.51100000000E-03 0. -1.
         22    1    1    0    0    0 -0.10390095665E+02  0.16274934089E+01  0.25301461867E+02  0.27400124002E+02  0.00000000000E+00 0.  1.
</event>
<event>
 5    1  0.1099741E-009  0.9118800E+02  0.7818608E-02  0.1130116E+00
         25   -1    0    0    0    0  0.00000000000E+00  0.00000000000E+00  0.99999998245E-14  0.12500000000E+03  0.12500000000E+03 0.  0.
        -11    1    3    3    0    0 -0.90121200540E+01 -0.34928650382E+02 -0.49341266902E+02  0.61121105562E+02  0.51100000000E-03 0. -1.
         23    2    1    0    0    0 -0.12819439292E+02 -0.17938150309E+02 -0.20039715133E+02  0.95205613903E+02  0.90423467506E+02 0.  0.
         11    1    3    3    0    0 -0.38073192381E+01  0.16990500073E+02  0.29301551769E+02  0.34084508341E+02  0.51100000000E-03 0.  1.
         22    1    1    0    0    0  0.12819439292E+02  0.17938150309E+02  0.20039715133E+02  0.29794386097E+02  0.00000000000E+00 0. -1.
</event>
<event>
 5    1  0.1099741E-009  0.9118800E+02  0.7818608E-02  0.1130116E+00
         25   -1    0    0    0    0  0.00000000000E+00  0.00000000000E+00  0.99999998245E-14  0.12500000000E+03  0.12500000000E+03 0.  0.
        -11    1    3    3    0    0 -0.96955695714E+01  0.19000068514E+02  0.26993794261E+02  0.34404528797E+02  0.51100000000E-03 0. -1.
         23    2    1    0    0    0  0.10368352854E+02  0.10265681774E+00 -0.27575512548E+02  0.95539481138E+02  0.90883828509E+02 0.  0.
         11    1    3    3    0    0  0.20063922425E+02 -0.18897411696E+02 -0.54569306809E+02  0.61134952341E+02  0.51100000000E-03 0.  1.
         22    1    1    0    0    0 -0.10368352854E+02 -0.10265681774E+00  0.27575512548E+02  0.29460518862E+02  0.00000000000E+00 0.  1.
</event>
<event>
 5    1  0.1099741E-009  0.9118800E+02  0.7818608E-02  0.1130116E+00
         25   -1    0    0    0    0  0.00000000000E+00  0.00000000000E+00  0.99999998245E-14  0.12500000000E+03  0.12500000000E+03 0.  0.
        -11    1    3    3    0    0  0.18118563833E+02  0.37483969310E+02  0.35929298486E+02  0.54993134122E+02  0.51100000000E-03 0.  1.
         23    2    1    0    0    0  0.26167059375E+02  0.54306488038E+01  0.19618845538E+02  0.91847231744E+02  0.85655168765E+02 0.  0.
         11    1    3    3    0    0  0.80484955419E+01 -0.32053320506E+02 -0.16310452947E+02  0.36854097623E+02  0.51100000000E-03 0. -1.
         22    1    1    0    0    0 -0.26167059375E+02 -0.54306488038E+01 -0.19618845538E+02  0.33152768256E+02  0.00000000000E+00 0.  1.
</event>
<event>
 5    1  0.1099741E-009  0.9118800E+02  0.7818608E-02  0.1130116E+00
         25   -1    0    0    0    0  0.00000000000E+00  0.00000000000E+00  0.99999998245E-14  0.12500000000E+03  0.12500000000E+03 0.  0.
        -11    1    3    3    0    0  0.40995613920E+02 -0.37197626457E+02 -0.21918164299E+02  0.59537464686E+02  0.51100000000E-03 0.  1.
         23    2    1    0    0    0  0.11437303883E+01 -0.16802248150E+02 -0.74459548028E+01  0.10658625771E+03  0.10498363886E+03 0.  0.
         11    1    3    3    0    0 -0.39851883532E+02  0.20395378307E+02  0.14472209496E+02  0.47048793027E+02  0.51100000000E-03 0. -1.
         22    1    1    0    0    0 -0.11437303883E+01  0.16802248150E+02  0.74459548028E+01  0.18413742287E+02  0.00000000000E+00 0.  1.
</event>
<event>
 5    1  0.1099741E-009  0.9118800E+02  0.7818608E-02  0.1130116E+00
         25   -1    0    0    0    0  0.00000000000E+00  0.00000000000E+00  0.99999998245E-14  0.12500000000E+03  0.12500000000E+03 0.  0.
        -11    1    3    3    0    0 -0.38846670034E+02 -0.39076677975E+02  0.14771936759E+02  0.57046127390E+02  0.51100000000E-03 0.  1.
         23    2    1    0    0    0 -0.89933768844E+01 -0.27411511926E+02 -0.63876715309E+01  0.95452171629E+02  0.90763665127E+02 0.  0.
         11    1    3    3    0    0  0.29853293150E+02  0.11665166049E+02 -0.21159608290E+02  0.38406044239E+02  0.51100000000E-03 0. -1.
         22    1    1    0    0    0  0.89933768844E+01  0.27411511926E+02  0.63876715309E+01  0.29547828371E+02  0.00000000000E+00 0.  1.
</event>
<event>
 5    1  0.1099741E-009  0.9118800E+02  0.7818608E-02  0.1130116E+00
         25   -1    0    0    0    0  0.00000000000E+00  0.00000000000E+00  0.99999998245E-14  0.12500000000E+03  0.12500000000E+03 0.  0.
        -11    1    3    3    0    0 -0.42400472033E+01  0.37698467251E+02  0.15245512481E+02  0.40884937134E+02  0.51100000000E-03 0.  1.
         23    2    1    0    0    0  0.18938745561E+02  0.28097880989E+01 -0.21219032782E+02  0.96419965976E+02  0.92086869281E+02 0.  0.
         11    1    3    3    0    0  0.23178792765E+02 -0.34888679152E+02 -0.36464545263E+02  0.55535028842E+02  0.51100000000E-03 0. -1.
         22    1    1    0    0    0 -0.18938745561E+02 -0.28097880989E+01  0.21219032782E+02  0.28580034024E+02  0.00000000000E+00 0. -1.
</event>
<event>
 5    1  0.1099741E-009  0.9118800E+02  0.7818608E-02  0.1130116E+00
         25   -1    0    0    0    0  0.00000000000E+00  0.00000000000E+00  0.99999998245E-14  0.12500000000E+03  0.12500000000E+03 0.  0.
        -11    1    3    3    0    0  0.52909531692E+01 -0.31082775408E+02 -0.15648261066E+01  0.31568683747E+02  0.51100000000E-03 0.  1.
         23    2    1    0    0    0 -0.16034628374E+02  0.18140368034E+02  0.23925983406E+02  0.90961272917E+02  0.84352345725E+02 0.  0.
         11    1    3    3    0    0 -0.21325581543E+02  0.49223143442E+02  0.25490809513E+02  0.59392589170E+02  0.51100000000E-03 0. -1.
         22    1    1    0    0    0  0.16034628374E+02 -0.18140368034E+02 -0.23925983406E+02  0.34038727083E+02  0.00000000000E+00 0. -1.
</event>
<event>
 5    1  0.1099741E-009  0.9118800E+02  0.7818608E-02  0.1130116E+00
         25   -1    0    0    0    0  0.00000000000E+00  0.00000000000E+00  0.99999998245E-14  0.12500000000E+03  0.12500000000E+03 0.  0.
        -11    1    3    3    0    0  0.79364291231E+01 -0.29611857988E+02 -0.31281535206E+02  0.43799354856E+02  0.51100000000E-03 0.  1.
         23    2    1    0    0    0  0.16193756543E+02 -0.14257136108E+02  0.18521020479E+02  0.96565304986E+02  0.92283943601E+02 0.  0.
         11    1    3    3    0    0  0.82573274196E+01  0.15354721881E+02  0.49802555685E+02  0.52765950130E+02  0.51100000000E-03 0. -1.
         22    1    1    0    0    0 -0.16193756543E+02  0.14257136108E+02 -0.18521020479E+02  0.28434695014E+02  0.00000000000E+00 0.  1.
</event>
<event>
 5    1  0.1099741E-009  0.9118800E+02  0.7818608E-02  0.1130116E+00
         25   -1    0    0    0    0  0.00000000000E+00  0.00000000000E+00  0.99999998245E-14  0.12500000000E+03  0.12500000000E+03 0.  0.
        -11    1    3    3    0    0 -0.37693994700E+02 -0.15576571293E+02 -0.37711216818E+01  0.40959591901E+02  0.51100000000E-03 0. -1.
         23    2    1    0    0    0 -0.53699053809E+01  0.28657175715E+02 -0.20438458206E+01  0.95772497378E+02  0.91203751812E+02 0.  0.
         11    1    3    3    0    0  0.32324089319E+02  0.44233747008E+02  0.17272758612E+01  0.54812905477E+02  0.51100000000E-03 0.  1.
         22    1    1    0    0    0  0.53699053809E+01 -0.28657175715E+02  0.20438458206E+01  0.29227502622E+02  0.00000000000E+00 0. -1.
</event>
<event>
 5    1  0.1099741E-009  0.9118800E+02  0.7818608E-02  0.1130116E+00
         25   -1    0    0    0    0  0.00000000000E+00  0.00000000000E+00  0.99999998245E-14  0.12500000000E+03  0.12500000000E+03 0.  0.
        -11    1    3    3    0    0 -0.13602672105E+01  0.33852925318E+02 -0.18274319092E+02  0.38494436196E+02  0.51100000000E-03 0.  1.
         23    2    1    0    0    0  0.24575116322E+02 -0.81593817986E+01  0.12053316097E+02  0.96437887289E+02  0.92111192710E+02 0.  0.
         11    1    3    3    0    0  0.25935383532E+02 -0.42012307117E+02  0.30327635189E+02  0.57943451094E+02  0.51100000000E-03 0. -1.
         22    1    1    0    0    0 -0.24575116322E+02  0.81593817986E+01 -0.12053316097E+02  0.28562112711E+02  0.00000000000E+00 0. -1.
</event>
<event>
 5    1  0.1099741E-009  0.9118800E+02  0.7818608E-02  0.1130116E+00
         25   -1    0    0    0    0  0.00000000000E+00  0.00000000000E+00  0.99999998245E-14  0.12500000000E+03  0.12500000000E+03 0.  0.
        -11    1    3    3    0    0 -0.30848480713E+02  0.12455089116E+02 -0.40947568059E+01  0.33519025057E+02  0.51100000000E-03 0. -1.
         23    2    1    0    0    0  0.18941796168E+02 -0.15158484977E+02  0.18208484501E+02  0.94666516576E+02  0.89675131134E+02 0.  0.
         11    1    3    3    0    0  0.49790276881E+02 -0.27613574092E+02  0.22303241306E+02  0.61147491519E+02  0.51100000000E-03 0.  1.
         22    1    1    0    0    0 -0.18941796168E+02  0.15158484977E+02 -0.18208484501E+02  0.30333483424E+02  0.00000000000E+00 0.  1.
</event>
<event>
 5    1  0.1099741E-009  0.9118800E+02  0.7818608E-02  0.1130116E+00
         25   -1    0    0    0    0  0.00000000000E+00  0.00000000000E+00  0.99999998245E-14  0.12500000000E+03  0.12500000000E+03 0.  0.
        -11    1    3    3    0    0 -0.19419392811E+01  0.25433060326E+02  0.29303065420E+02  0.38849470125E+02  0.51100000000E-03 0. -1.
         23    2    1    0    0    0  0.23273195571E+02 -0.18069197361E+02  0.36092216664E+01  0.95315593212E+02  0.90575373601E+02 0.  0.
         11    1    3    3    0    0  0.25215134852E+02 -0.43502257687E+02 -0.25693843753E+02  0.56466123087E+02  0.51100000000E-03 0.  1.
         22    1    1    0    0    0 -0.23273195571E+02  0.18069197361E+02 -0.36092216664E+01  0.29684406788E+02  0.00000000000E+00 0.  1.
</event>
<event>
 5    1  0.1099741E-009  0.9118800E+02  0.7818608E-02  0.1130116E+00
         25   -1    0    0    0    0  0.00000000000E+00  0.00000000000E+00  0.99999998245E-14  0.12500000000E+03  0.12500000000E+03 0.  0.
        -11    1    3    3    0    0  0.14848379843E+02 -0.54658922368E+01 -0.27911792789E+02  0.32084552963E+02  0.51100000000E-03 0.  1.
         23    2    1    0    0    0 -0.66336487815E+01 -0.35746357858E+01  0.30097970428E+02  0.93973057820E+02  0.88703238132E+02 0.  0.
         11    1    3    3    0    0 -0.21482028625E+02  0.18912564510E+01  0.58009763216E+02  0.61888504857E+02  0.51100000000E-03 0. -1.
         22    1    1    0    0    0  0.66336487815E+01  0.35746357858E+01 -0.30097970428E+02  0.31026942180E+02  0.00000000000E+00 0. -1.
</event>
<event>
 5    1  0.1099741E-009  0.9118800E+02  0.7818608E-02  0.1130116E+00
         25   -1    0    0    0    0  0.00000000000E+00  0.00000000000E+00  0.99999998245E-14  0.12500000000E+03  0.12500000000E+03 0.  0.
        -11    1    3    3    0    0  0.35886410902E+02  0.15889334772E+02  0.36793999951E+02  0.53796876114E+02  0.51100000000E-03 0. -1.
         23    2    1    0    0    0  0.13864828172E+02 -0.15494349168E+02  0.21548504591E+02  0.95055946058E+02  0.90216331750E+02 0.  0.
         11    1    3    3    0    0 -0.22021582730E+02 -0.31383683941E+02 -0.15245495360E+02  0.41259069944E+02  0.51100000000E-03 0.  1.
         22    1    1    0    0    0 -0.13864828172E+02  0.15494349168E+02 -0.21548504591E+02  0.29944053942E+02  0.00000000000E+00 0. -1.
</event>
<event>
 5    1  0.1099741E-009  0.9118800E+02  0.7818608E-02  0.1130116E+00
         25   -1    0    0    0    0  0.00000000000E+00  0.00000000000E+00  0.99999998245E-14  0.12500000000E+03  0.12500000000E+03 0.  0.
        -11    1    3    3    0    0  0.37434191680E+02  0.20841123861E+02  0.13300630651E+02  0.44861764639E+02  0.51100000000E-03 0.  1.
         23    2    1    0    0    0 -0.79942272851E+01  0.72454238613E+01  0.28394115584E+02  0.94625180879E+02  0.89617493938E+02 0.  0.
         11    1    3    3    0    0 -0.45428418966E+02 -0.13595700000E+02  0.15093484933E+02  0.49763416240E+02  0.51100000000E-03 0. -1.
         22    1    1    0    0    0  0.79942272851E+01 -0.72454238613E+01 -0.28394115584E+02  0.30374819121E+02  0.00000000000E+00 0.  1.
</event>
<event>
 5    1  0.1099741E-009  0.9118800E+02  0.7818608E-02  0.1130116E+00
         25   -1    0    0    0    0  0.00000000000E+00  0.00000000000E+00  0.99999998245E-14  0.12500000000E+03  0.12500000000E+03 0.  0.
        -11    1    3    3    0    0 -0.13511438251E+02 -0.26292145578E+01 -0.44694614314E+02  0.46766230143E+02  0.51100000000E-03 0.  1.
         23    2    1    0    0    0 -0.11084438248E+02  0.27513070635E+02 -0.80735001982E+01  0.94258899946E+02  0.89105134457E+02 0.  0.
         11    1    3    3    0    0  0.24270000034E+01  0.30142285193E+02  0.36621114116E+02  0.47492669803E+02  0.51100000000E-03 0. -1.
         22    1    1    0    0    0  0.11084438248E+02 -0.27513070635E+02  0.80735001982E+01  0.30741100054E+02  0.00000000000E+00 0.  1.
</event>
<event>
 5    1  0.1099741E-009  0.9118800E+02  0.7818608E-02  0.1130116E+00
         25   -1    0    0    0    0  0.00000000000E+00  0.00000000000E+00  0.99999998245E-14  0.12500000000E+03  0.12500000000E+03 0.  0.
        -11    1    3    3    0    0 -0.69518481650E+01 -0.48241258806E+02 -0.52336379088E+01  0.49019773665E+02  0.51100000000E-03 0. -1.
         23    2    1    0    0    0 -0.17006900625E+02 -0.66979302865E+01 -0.23267766142E+02  0.95411389349E+02  0.90707482257E+02 0.  0.
         11    1    3    3    0    0 -0.10055052460E+02  0.41543328520E+02 -0.18034128233E+02  0.46391615685E+02  0.51100000000E-03 0.  1.
         22    1    1    0    0    0  0.17006900625E+02  0.66979302865E+01  0.23267766142E+02  0.29588610651E+02  0.00000000000E+00 0.  1.
</event>
<event>
 5    1  0.1099741E-009  0.9118800E+02  0.7818608E-02  0.1130116E+00
         25   -1    0    0    0    0  0.00000000000E+00  0.00000000000E+00  0.99999998245E-14  0.12500000000E+03  0.12500000000E+03 0.  0.
        -11    1    3    3    0    0  0.42325820864E+02 -0.26028215401E+02  0.23588669977E+02  0.55003349537E+02  0.51100000000E-03 0.  1.
         23    2    1    0    0    0  0.24607530234E+02  0.83107871521E+01  0.16329920031E+02  0.94319941077E+02  0.89190724121E+02 0.  0.
         11    1    3    3    0    0 -0.17718290630E+02  0.34339002554E+02 -0.72587499451E+01  0.39316591539E+02  0.51100000000E-03 0. -1.
         22    1    1    0    0    0 -0.24607530234E+02 -0.83107871521E+01 -0.16329920031E+02  0.30680058923E+02  0.00000000000E+00 0. -1.
</event>
<event>
 5    1  0.1099741E-009  0.9118800E+02  0.7818608E-02  0.1130116E+00
         25   -1    0    0    0    0  0.00000000000E+00  0.00000000000E+00  0.99999998245E-14  0.12500000000E+03  0.12500000000E+03 0.  0.
        -11    1    3    3    0    0 -0.17157854017E+02  0.89777581109E+01  0.41128570663E+02  0.45459338097E+02  0.51100000000E-03 0.  1.
         23    2    1    0    0    0  0.12154337191E+02 -0.21045667759E+02  0.24193220233E+02  0.90707727558E+02  0.83975781566E+02 0.  0.
         11    1    3    3    0    0  0.29312191208E+02 -0.30023425870E+02 -0.16935350430E+02  0.45248389461E+02  0.51100000000E-03 0. -1.
         22    1    1    0    0    0 -0.12154337191E+02  0.21045667759E+02 -0.24193220233E+02  0.34292272442E+02  0.00000000000E+00 0. -1.
</event>
<event>
 5    1  0.1099741E-009  0.9118800E+02  0.7818608E-02  0.1130116E+00
         25   -1    0    0    0    0  0.00000000000E+00  0.00000000000E+00  0.99999998245E-14  0.12500000000E+03  0.12500000000E+03 0.  0.
        -11    1    3    3    0    0  0.12527677336E+02 -0.65089356402E+01 -0.45060809148E+02  0.47220604231E+02  0.51100000000E-03 0. -1.
         23    2    1    0    0    0 -0.21731994448E+02 -0.14765822049E+02 -0.10126289792E+02  0.96842393063E+02  0.92658503472E+02 0.  0.
         11    1    3    3    0    0 -0.34259671784E+02 -0.82568864085E+01  0.34934519356E+02  0.49621788832E+02  0.51100000000E-03 0.  1.
         22    1    1    0    0    0  0.21731994448E+02  0.14765822049E+02  0.10126289792E+02  0.28157606937E+02  0.00000000000E+00 0. -1.
</event>
<event>
 5    1  0.1099741E-009  0.9118800E+02  0.7818608E-02  0.1130116E+00
         25   -1    0    0    0    0  0.00000000000E+00  0.00000000000E+00  0.99999998245E-14  0.12500000000E+03  0.12500000000E+03 0.  0.
        -11    1    3    3    0    0 -0.51045569538E+02  0.16188355382E+02 -0.28026305918E+02  0.60441598615E+02  0.51100000000E-03 0.  1.
         23    2    1    0    0    0 -0.29740501197E+02  0.10338065615E+01 -0.59676356370E+01  0.94649071801E+02  0.89650811208E+02 0.  0.
         11    1    3    3    0    0  0.21305068341E+02 -0.15154548820E+02  0.22058670281E+02  0.34207473187E+02  0.51100000000E-03 0. -1.
         22    1    1    0    0    0  0.29740501197E+02 -0.10338065615E+01  0.59676356370E+01  0.30350928199E+02  0.00000000000E+00 0.  1.
</event>
<event>
 5    1  0.1099741E-009  0.9118800E+02  0.7818608E-02  0.1130116E+00
         25   -1    0    0    0    0  0.00000000000E+00  0.00000000000E+00  0.99999998245E-14  0.12500000000E+03  0.12500000000E+03 0.  0.
        -11    1    3    3    0    0  0.31594774977E+02  0.22522254150E+02 -0.47848584528E+01  0.39094457517E+02  0.51100000000E-03 0.  1.
         23    2    1    0    0    0 -0.11336356715E+02  0.41961450856E+00 -0.29539743822E+02  0.93356903992E+02  0.87830666614E+02 0.  0.
         11    1    3    3    0    0 -0.42931131693E+02 -0.22102639641E+02 -0.24754885369E+02  0.54262446475E+02  0.51100000000E-03 0. -1.
         22    1    1    0    0    0  0.11336356715E+02 -0.41961450856E+00  0.29539743822E+02  0.31643096008E+02  0.00000000000E+00 0. -1.
</event>
<event>
 5    1  0.1099741E-009  0.9118800E+02  0.7818608E-02  0.1130116E+00
         25   -1    0    0    0    0  0.00000000000E+00  0.00000000000E+00  0.99999998245E-14  0.12500000000E+03  0.12500000000E+03 0.  0.
        -11    1    3    3    0    0 -0.58298534945E+02  0.41149170353E+01  0.95433805302E+01  0.59217631083E+02  0.51100000000E-03 0. -1.
         23    2    1    0    0    0 -0.28772420780E+02  0.70152740395E+01 -0.88077681464E+01  0.94102701622E+02  0.88885743544E+02 0.  0.
         11    1    3    3    0    0  0.29526114165E+02  0.29003570043E+01 -0.18351148677E+02  0.34885070538E+02  0.51100000000E-03 0.  1.
         22    1    1    0    0    0  0.28772420780E+02 -0.70152740395E+01  0.88077681464E+01  0.30897298378E+02  0.00000000000E+00 0. -1.
</event>
<event>
 5    1  0.1099741E-009  0.9118800E+02  0.7818608E-02  0.1130116E+00
         25   -1    0    0    0    0  0.00000000000E+00  0.00000000000E+00  0.99999998245E-14  0.12500000000E+03  0.12500000000E+03 0.  0.
        -11    1    3    3    0    0  0.36816609027E+02  0.45286253117E+02 -0.17498154771E+02  0.60930229298E+02  0.51100000000E-03 0. -1.
         23    2    1    0    0    0  0.94550507301E+01  0.26589287760E+02 -0.50457877916E+01  0.96332105374E+02  0.91967528745E+02 0.  0.
         11    1    3    3    0    0 -0.27361558297E+02 -0.18696965357E+02  0.12452366979E+02  0.35401876076E+02  0.51100000000E-03 0.  1.
         22    1    1    0    0    0 -0.94550507301E+01 -0.26589287760E+02  0.50457877916E+01  0.28667894626E+02  0.00000000000E+00 0. -1.
</event>
<event>
 5    1  0.1099741E-009  0.9118800E+02  0.7818608E-02  0.1130116E+00
         25   -1    0    0    0    0  0.00000000000E+00  0.00000000000E+00  0.99999998245E-14  0.12500000000E+03  0.12500000000E+03 0.  0.
        -11    1    3    3    0    0 -0.28535110138E+02 -0.36912244028E+02  0.82644152322E+01  0.47382136182E+02  0.51100000000E-03 0.  1.
         23    2    1    0    0    0 -0.19961229995E+02  0.97751153352E+01  0.18664781803E+02  0.95976256918E+02  0.91482589761E+02 0.  0.
         11    1    3    3    0    0  0.85738801429E+01  0.46687359363E+02  0.10400366571E+02  0.48594120736E+02  0.51100000000E-03 0. -1.
         22    1    1    0    0    0  0.19961229995E+02 -0.97751153352E+01 -0.18664781803E+02  0.29023743082E+02  0.00000000000E+00 0.  1.
</event>
<event>
 5    1  0.1099741E-009  0.9118800E+02  0.7818608E-02  0.1130116E+00
         25   -1    0    0    0    0  0.00000000000E+00  0.00000000000E+00  0.99999998245E-14  0.12500000000E+03  0.12500000000E+03 0.  0.
        -11    1    3    3    0    0 -0.16338256603E+02  0.23082244362E+02 -0.40880192132E+02  0.49708336752E+02  0.51100000000E-03 0.  1.
         23    2    1    0    0    0 -0.15883853925E+02  0.27335785265E+02  0.24877469688E+01  0.93286740052E+02  0.87730752949E+02 0.  0.
         11    1    3    3    0    0  0.45440267853E+00  0.42535409028E+01  0.43367939101E+02  0.43578403300E+02  0.51100000000E-03 0. -1.
         22    1    1    0    0    0  0.15883853925E+02 -0.27335785265E+02 -0.24877469688E+01  0.31713259948E+02  0.00000000000E+00 0.  1.
</event>
<event>
 5    1  0.1099741E-009  0.9118800E+02  0.7818608E-02  0.1130116E+00
         25   -1    0    0    0    0  0.00000000000E+00  0.00000000000E+00  0.99999998245E-14  0.12500000000E+03  0.12500000000E+03 0.  0.
        -11    1    3    3    0    0 -0.31142130418E+02 -0.89696017371E+01  0.52787198706E+02  0.61941701541E+02  0.51100000000E-03 0.  1.
         23    2    1    0    0    0 -0.18302440312E+02 -0.99351078796E+01  0.25794103484E+02  0.91848507357E+02  0.85657030296E+02 0.  0.
         11    1    3    3    0    0  0.12839690107E+02 -0.96550614248E+00 -0.26993095222E+02  0.29906805815E+02  0.51100000000E-03 0. -1.
         22    1    1    0    0    0  0.18302440312E+02  0.99351078796E+01 -0.25794103484E+02  0.33151492643E+02  0.00000000000E+00 0.  1.
</event>
<event>
 5    1  0.1099741E-009  0.9118800E+02  0.7818608E-02  0.1130116E+00
         25   -1    0    0    0    0  0.00000000000E+00  0.00000000000E+00  0.99999998245E-14  0.12500000000E+03  0.12500000000E+03 0.  0.
        -11    1    3    3    0    0 -0.49736825750E+01 -0.44030969140E+02 -0.10596308918E+01  0.44323657111E+02  0.51100000000E-03 0.  1.
         23    2    1    0    0    0  0.22017090823E+02 -0.12673508203E+02 -0.22625890610E+02  0.90980872668E+02  0.84381385193E+02 0.  0.
         11    1    3    3    0    0  0.26990773398E+02  0.31357460937E+02 -0.21566259719E+02  0.46657215557E+02  0.51100000000E-03 0. -1.
         22    1    1    0    0    0 -0.22017090823E+02  0.12673508203E+02  0.22625890610E+02  0.34019127332E+02  0.00000000000E+00 0. -1.
</event>
<event>
 5    1  0.1099741E-009  0.9118800E+02  0.7818608E-02  0.1130116E+00
         25   -1    0    0    0    0  0.00000000000E+00  0.00000000000E+00  0.99999998245E-14  0.12500000000E+03  0.12500000000E+03 0.  0.
        -11    1    3    3    0    0  0.83504195485E+01 -0.14545178255E+02  0.40115954938E+02  0.43480818276E+02  0.51100000000E-03 0. -1.
         23    2    1    0    0    0 -0.26861744573E+02 -0.65178354413E+01  0.13511644537E+00  0.97358477668E+02  0.93352125938E+02 0.  0.
         11    1    3    3    0    0 -0.35212164122E+02  0.80273428142E+01 -0.39980838492E+02  0.53877659392E+02  0.51100000000E-03 0.  1.
         22    1    1    0    0    0  0.26861744573E+02  0.65178354413E+01 -0.13511644537E+00  0.27641522332E+02  0.00000000000E+00 0.  1.
</event>
<event>
 5    1  0.1099741E-009  0.9118800E+02  0.7818608E-02  0.1130116E+00
         25   -1    0    0    0    0  0.00000000000E+00  0.00000000000E+00  0.99999998245E-14  0.12500000000E+03  0.12500000000E+03 0.  0.
        -11    1    3    3    0    0 -0.16320636543E+01  0.30804559745E+02  0.21710825210E+02  0.37721936117E+02  0.51100000000E-03 0.  1.
         23    2    1    0    0    0  0.11342087364E+01 -0.26370874184E+02  0.12839559733E+02  0.95647594156E+02  0.91032403786E+02 0.  0.
         11    1    3    3    0    0  0.27662723907E+01 -0.57175433929E+02 -0.88712654769E+01  0.57925658039E+02  0.51100000000E-03 0. -1.
         22    1    1    0    0    0 -0.11342087364E+01  0.26370874184E+02 -0.12839559733E+02  0.29352405844E+02  0.00000000000E+00 0. -1.
</event>
<event>
 5    1  0.1099741E-009  0.9118800E+02  0.7818608E-02  0.1130116E+00
         25   -1    0    0    0    0  0.00000000000E+00  0.00000000000E+00  0.99999998245E-14  0.12500000000E+03  0.12500000000E+03 0.  0.
        -11    1    3    3    0    0 -0.49623135408E+02 -0.17776470942E+02 -0.30802125813E+02  0.61051039645E+02  0.51100000000E-03 0.  1.
         23    2    1    0    0    0 -0.24608749865E+02 -0.14556262491E+02 -0.73774963252E+01  0.95471999735E+02  0.90790968348E+02 0.  0.
         11    1    3    3    0    0  0.25014385543E+02  0.32202084515E+01  0.23424629488E+02  0.34420960089E+02  0.51100000000E-03 0. -1.
         22    1    1    0    0    0  0.24608749865E+02  0.14556262491E+02  0.73774963252E+01  0.29528000265E+02  0.00000000000E+00 0.  1.
</event>
<event>
 5    1  0.1099741E-009  0.9118800E+02  0.7818608E-02  0.1130116E+00
         25   -1    0    0    0    0  0.00000000000E+00  0.00000000000E+00  0.99999998245E-14  0.12500000000E+03  0.12500000000E+03 0.  0.
        -11    1    3    3    0    0  0.56771466044E+02 -0.25692874527E+01  0.13755387001E+02  0.58470601729E+02  0.51100000000E-03 0.  1.
         23    2    1    0    0    0  0.22870118403E+02 -0.12480295357E+02 -0.50136712775E+01  0.98468189137E+02  0.94826406050E+02 0.  0.
         11    1    3    3    0    0 -0.33901347640E+02 -0.99110079046E+01 -0.18769058278E+02  0.39997587408E+02  0.51100000000E-03 0. -1.
         22    1    1    0    0    0 -0.22870118403E+02  0.12480295357E+02  0.50136712775E+01  0.26531810863E+02  0.00000000000E+00 0.  1.
</event>
<event>
 5    1  0.1099741E-009  0.9118800E+02  0.7818608E-02  0.1130116E+00
         25   -1    0    0    0    0  0.00000000000E+00  0.00000000000E+00  0.99999998245E-14  0.12500000000E+03  0.12500000000E+03 0.  0.
        -11    1    3    3    0    0  0.52489329798E+02 -0.22393195998E+01 -0.20794653275E+02  0.56502760110E+02  0.51100000000E-03 0. -1.
         23    2    1    0    0    0  0.28052204512E+02  0.87700477052E+01  0.66520082543E+01  0.94865482773E+02  0.89952046631E+02 0.  0.
         11    1    3    3    0    0 -0.24437125287E+02  0.11009367305E+02  0.27446661529E+02  0.38362722663E+02  0.51100000000E-03 0.  1.
         22    1    1    0    0    0 -0.28052204512E+02 -0.87700477052E+01 -0.66520082543E+01  0.30134517227E+02  0.00000000000E+00 0. -1.
</event>
<event>
 5    1  0.1099741E-009  0.9118800E+02  0.7818608E-02  0.1130116E+00
         25   -1    0    0    0    0  0.00000000000E+00  0.00000000000E+00  0.99999998245E-14  0.12500000000E+03  0.12500000000E+03 0.  0.
        -11    1    3    3    0    0 -0.40454579850E+02  0.24885485203E+02 -0.80471603768E+01  0.48172784797E+02  0.51100000000E-03 0. -1.
         23    2    1    0    0    0 -0.42601417668E+01  0.18058782011E+02  0.22366505153E+02  0.95939219412E+02  0.91431968441E+02 0.  0.
         11    1    3    3    0    0  0.36194438084E+02 -0.68267031922E+01  0.30413665530E+02  0.47766434616E+02  0.51100000000E-03 0.  1.
         22    1    1    0    0    0  0.42601417668E+01 -0.18058782011E+02 -0.22366505153E+02  0.29060780588E+02  0.00000000000E+00 0. -1.
</event>
<event>
 5    1  0.1099741E-009  0.9118800E+02  0.7818608E-02  0.1130116E+00
         25   -1    0    0    0    0  0.00000000000E+00  0.00000000000E+00  0.99999998245E-14  0.12500000000E+03  0.12500000000E+03 0.  0.
        -11    1    3    3    0    0  0.10315678415E+02 -0.57513395087E+02 -0.44115517684E+01  0.58597488213E+02  0.51100000000E-03 0. -1.
         23    2    1    0    0    0  0.18841298985E+02 -0.21926092947E+02 -0.69078841835E+01  0.95276827840E+02  0.90521859017E+02 0.  0.
         11    1    3    3    0    0  0.85256205706E+01  0.35587302140E+02 -0.24963324151E+01  0.36679339627E+02  0.51100000000E-03 0.  1.
         22    1    1    0    0    0 -0.18841298985E+02  0.21926092947E+02  0.69078841835E+01  0.29723172160E+02  0.00000000000E+00 0. -1.
</event>
<event>
 5    1  0.1099741E-009  0.9118800E+02  0.7818608E-02  0.1130116E+00
         25   -1    0    0    0    0  0.00000000000E+00  0.00000000000E+00  0.99999998245E-14  0.12500000000E+03  0.12500000000E+03 0.  0.
        -11    1    3    3    0    0 -0.84213982665E+01 -0.54431161850E+02  0.21161682117E+02  0.59004136460E+02  0.51100000000E-03 0. -1.
         23    2    1    0    0    0  0.10491897330E+02 -0.26101723038E+02  0.12885386120E+02  0.94057908432E+02  0.88822728556E+02 0.  0.
         11    1    3    3    0    0  0.18913295597E+02  0.28329438812E+02 -0.82762959974E+01  0.35053771972E+02  0.51100000000E-03 0.  1.
         22    1    1    0    0    0 -0.10491897330E+02  0.26101723038E+02 -0.12885386120E+02  0.30942091568E+02  0.00000000000E+00 0. -1.
</event>
<event>
 5    1  0.1099741E-009  0.9118800E+02  0.7818608E-02  0.1130116E+00
         25   -1    0    0    0    0  0.00000000000E+00  0.00000000000E+00  0.99999998245E-14  0.12500000000E+03  0.12500000000E+03 0.  0.
        -11    1    3    3    0    0 -0.30480855453E+02 -0.44693753903E+02  0.97621200104E+01  0.54971930787E+02  0.51100000000E-03 0.  1.
         23    2    1    0    0    0 -0.23281449172E+02 -0.46276281261E+01  0.16305464587E+02  0.96202274516E+02  0.91790896221E+02 0.  0.
         11    1    3    3    0    0  0.71994062810E+01  0.40066125777E+02  0.65433445769E+01  0.41230343730E+02  0.51100000000E-03 0. -1.
         22    1    1    0    0    0  0.23281449172E+02  0.46276281261E+01 -0.16305464587E+02  0.28797725484E+02  0.00000000000E+00 0.  1.
</event>
<event>
 5    1  0.1099741E-009  0.9118800E+02  0.7818608E-02  0.1130116E+00
         25   -1    0    0    0    0  0.00000000000E+00  0.00000000000E+00  0.99999998245E-14  0.12500000000E+03  0.12500000000E+03 0.  0.
        -11    1    3    3    0    0 -0.14312623427E+01  0.33169384958E+02  0.47333827252E+01  0.33535973561E+02  0.51100000000E-03 0.  1.
         23    2    1    0    0    0  0.19652305916E+02 -0.22993753563E+02 -0.50958505443E+01  0.94326012267E+02  0.89199232433E+02 0.  0.
         11    1    3    3    0    0  0.21083568258E+02 -0.56163138520E+02 -0.98292332696E+01  0.60790038706E+02  0.51100000000E-03 0. -1.
         22    1    1    0    0    0 -0.19652305916E+02  0.22993753563E+02  0.50958505443E+01  0.30673987733E+02  0.00000000000E+00 0. -1.
</event>
<event>
 5    1  0.1099741E-009  0.9118800E+02  0.7818608E-02  0.1130116E+00
         25   -1    0    0    0    0  0.00000000000E+00  0.00000000000E+00  0.99999998245E-14  0.12500000000E+03  0.12500000000E+03 0.  0.
        -11    1    3    3    0    0  0.43135320857E+02 -0.14555448127E+02 -0.31765299837E+02  0.55511721732E+02  0.51100000000E-03 0.  1.
         23    2    1    0    0    0  0.20619711405E+02  0.13858873563E+02 -0.78416433677E+01  0.98947509801E+02  0.95456154596E+02 0.  0.
         11    1    3    3    0    0 -0.22515609451E+02  0.28414321690E+02  0.23923656469E+02  0.43435788069E+02  0.51100000000E-03 0. -1.
         22    1    1    0    0    0 -0.20619711405E+02 -0.13858873563E+02  0.78416433677E+01  0.26052490199E+02  0.00000000000E+00 0.  1.
</event>
<event>
 5    1  0.1099741E-009  0.9118800E+02  0.7818608E-02  0.1130116E+00
         25   -1    0    0    0    0  0.00000000000E+00  0.00000000000E+00  0.99999998245E-14  0.12500000000E+03  0.12500000000E+03 0.  0.
        -11    1    3    3    0    0 -0.10988117409E+02 -0.36443643444E+02  0.76040829956E+00  0.38071723007E+02  0.51100000000E-03 0.  1.
         23    2    1    0    0    0  0.77847782708E+01  0.12013477572E+02  0.25599789207E+02  0.95669544437E+02  0.91062539549E+02 0.  0.
         11    1    3    3    0    0  0.18772895680E+02  0.48457121016E+02  0.24839380908E+02  0.57597821430E+02  0.51100000000E-03 0. -1.
         22    1    1    0    0    0 -0.77847782708E+01 -0.12013477572E+02 -0.25599789207E+02  0.29330455563E+02  0.00000000000E+00 0. -1.
</event>
<event>
 5    1  0.1099741E-009  0.9118800E+02  0.7818608E-02  0.1130116E+00
         25   -1    0    0    0    0  0.00000000000E+00  0.00000000000E+00  0.99999998245E-14  0.12500000000E+03  0.12500000000E+03 0.  0.
        -11    1    3    3    0    0 -0.46690346610E+02  0.23040795526E+02  0.12248943049E+02  0.53487412829E+02  0.51100000000E-03 0.  1.
         23    2    1    0    0    0 -0.19461272648E+02 -0.82824181563E+01  0.20208144425E+02  0.95747501223E+02  0.91169486703E+02 0.  0.
         11    1    3    3    0    0  0.27229073962E+02 -0.31323213682E+02  0.79592013762E+01  0.42260088394E+02  0.51100000000E-03 0. -1.
         22    1    1    0    0    0  0.19461272648E+02  0.82824181563E+01 -0.20208144425E+02  0.29252498777E+02  0.00000000000E+00 0.  1.
</event>
<event>
 5    1  0.1099741E-009  0.9118800E+02  0.7818608E-02  0.1130116E+00
         25   -1    0    0    0    0  0.00000000000E+00  0.00000000000E+00  0.99999998245E-14  0.12500000000E+03  0.12500000000E+03 0.  0.
        -11    1    3    3    0    0 -0.50550514741E+01  0.37241974034E+02  0.10806689711E+02  0.39106300236E+02  0.51100000000E-03 0.  1.
         23    2    1    0    0    0 -0.24370008268E+02 -0.15599808196E+02  0.44259891575E+01  0.95728158603E+02  0.91142962706E+02 0.  0.
         11    1    3    3    0    0 -0.19314956794E+02 -0.52841782230E+02 -0.63807005532E+01  0.56621858367E+02  0.51100000000E-03 0. -1.
         22    1    1    0    0    0  0.24370008268E+02  0.15599808196E+02 -0.44259891575E+01  0.29271841397E+02  0.00000000000E+00 0. -1.
</event>
<event>
 5    1  0.1099741E-009  0.9118800E+02  0.7818608E-02  0.1130116E+00
         25   -1    0    0    0    0  0.00000000000E+00  0.00000000000E+00  0.99999998245E-14  0.12500000000E+03  0.12500000000E+03 0.  0.
        -11    1    3    3    0    0  0.44359581572E+02  0.11326811452E+02 -0.35156266711E+02  0.57723757884E+02  0.51100000000E-03 0.  1.
         23    2    1    0    0    0  0.11908049253E+02  0.20341913633E+02 -0.16517953140E+02  0.96217403466E+02  0.91811496375E+02 0.  0.
         11    1    3    3    0    0 -0.32451532319E+02  0.90151021816E+01  0.18638313571E+02  0.38493645583E+02  0.51100000000E-03 0. -1.
         22    1    1    0    0    0 -0.11908049253E+02 -0.20341913633E+02  0.16517953140E+02  0.28782596534E+02  0.00000000000E+00 0.  1.
</event>
<event>
 5    1  0.1099741E-009  0.9118800E+02  0.7818608E-02  0.1130116E+00
         25   -1    0    0    0    0  0.00000000000E+00  0.00000000000E+00  0.99999998245E-14  0.12500000000E+03  0.12500000000E+03 0.  0.
        -11    1    3    3    0    0 -0.27928390981E+02  0.21029984494E+02 -0.11091791628E+02  0.36678101265E+02  0.51100000000E-03 0. -1.
         23    2    1    0    0    0  0.13862816630E+02 -0.20468863492E+02 -0.15636421123E+02  0.95748509045E+02  0.91170868490E+02 0.  0.
         11    1    3    3    0    0  0.41791207611E+02 -0.41498847986E+02 -0.45446294955E+01  0.59070407780E+02  0.51100000000E-03 0.  1.
         22    1    1    0    0    0 -0.13862816630E+02  0.20468863492E+02  0.15636421123E+02  0.29251490955E+02  0.00000000000E+00 0.  1.
</event>
<event>
 5    1  0.1099741E-009  0.9118800E+02  0.7818608E-02  0.1130116E+00
         25   -1    0    0    0    0  0.00000000000E+00  0.00000000000E+00  0.99999998245E-14  0.12500000000E+03  0.12500000000E+03 0.  0.
        -11    1    3    3    0    0  0.20149990971E+02 -0.50215934080E+02 -0.13958860556E+01  0.54125878005E+02  0.51100000000E-03 0.  1.
         23    2    1    0    0    0 -0.77792278819E+01 -0.24230774646E+02 -0.15961205464E+02  0.94959911680E+02  0.90083172236E+02 0.  0.
         11    1    3    3    0    0 -0.27929218853E+02  0.25985159434E+02 -0.14565319408E+02  0.40834033676E+02  0.51100000000E-03 0. -1.
         22    1    1    0    0    0  0.77792278819E+01  0.24230774646E+02  0.15961205464E+02  0.30040088320E+02  0.00000000000E+00 0.  1.
</event>
<event>
 5    1  0.1099741E-009  0.9118800E+02  0.7818608E-02  0.1130116E+00
         25   -1    0    0    0    0  0.00000000000E+00  0.00000000000E+00  0.99999998245E-14  0.12500000000E+03  0.12500000000E+03 0.  0.
        -11    1    3    3    0    0  0.37808898531E+02 -0.98141408481E+01  0.19422576908E+02  0.43624152287E+02  0.51100000000E-03 0. -1.
         23    2    1    0    0    0 -0.13630127892E+02 -0.20588215889E+02  0.14394302731E+02  0.96419395196E+02  0.92086094494E+02 0.  0.
         11    1    3    3    0    0 -0.51439026424E+02 -0.10774075041E+02 -0.50282741777E+01  0.52795242909E+02  0.51100000000E-03 0.  1.
         22    1    1    0    0    0  0.13630127892E+02  0.20588215889E+02 -0.14394302731E+02  0.28580604804E+02  0.00000000000E+00 0. -1.
</event>
<event>
 5    1  0.1099741E-009  0.9118800E+02  0.7818608E-02  0.1130116E+00
         25   -1    0    0    0    0  0.00000000000E+00  0.00000000000E+00  0.99999998245E-14  0.12500000000E+03  0.12500000000E+03 0.  0.
        -11    1    3    3    0    0 -0.27656455486E+02  0.94014875547E+01 -0.17121620606E+02  0.33858786020E+02  0.51100000000E-03 0.  1.
         23    2    1    0    0    0  0.28530340094E+02  0.24453088118E+01  0.71938646191E+01  0.95475238710E+02  0.90795427625E+02 0.  0.
         11    1    3    3    0    0  0.56186795579E+02 -0.69561787428E+01  0.24315485225E+02  0.61616452691E+02  0.51100000000E-03 0. -1.
         22    1    1    0    0    0 -0.28530340094E+02 -0.24453088118E+01 -0.71938646191E+01  0.29524761290E+02  0.00000000000E+00 0. -1.
</event>
<event>
 5    1  0.1099741E-009  0.9118800E+02  0.7818608E-02  0.1130116E+00
         25   -1    0    0    0    0  0.00000000000E+00  0.00000000000E+00  0.99999998245E-14  0.12500000000E+03  0.12500000000E+03 0.  0.
        -11    1    3    3    0    0  0.14090308946E+02 -0.28045537316E+02 -0.45259611034E+02  0.55077412437E+02  0.51100000000E-03 0.  1.
         23    2    1    0    0    0  0.12695409910E+02 -0.25095909793E+02 -0.38523195191E+01  0.96613057812E+02  0.92348602875E+02 0.  0.
         11    1    3    3    0    0 -0.13948990356E+01  0.29496275225E+01  0.41407291515E+02  0.41535645375E+02  0.51100000000E-03 0. -1.
         22    1    1    0    0    0 -0.12695409910E+02  0.25095909793E+02  0.38523195191E+01  0.28386942188E+02  0.00000000000E+00 0.  1.
</event>
<event>
 5    1  0.1099741E-009  0.9118800E+02  0.7818608E-02  0.1130116E+00
         25   -1    0    0    0    0  0.00000000000E+00  0.00000000000E+00  0.99999998245E-14  0.12500000000E+03  0.12500000000E+03 0.  0.
        -11    1    3    3    0    0  0.44015181888E+02 -0.19023563382E+02  0.17887600939E+02  0.51178105357E+02  0.51100000000E-03 0.  1.
         23    2    1    0    0    0 -0.16543347836E+01 -0.21655000827E+02  0.17793703079E+02  0.96923466139E+02  0.92767809798E+02 0.  0.
         11    1    3    3    0    0 -0.45669516671E+02 -0.26314374450E+01 -0.93897860492E-01  0.45745360782E+02  0.51100000000E-03 0. -1.
         22    1    1    0    0    0  0.16543347836E+01  0.21655000827E+02 -0.17793703079E+02  0.28076533861E+02  0.00000000000E+00 0.  1.
</event>
<event>
 5    1  0.1099741E-009  0.9118800E+02  0.7818608E-02  0.1130116E+00
         25   -1    0    0    0    0  0.00000000000E+00  0.00000000000E+00  0.99999998245E-14  0.12500000000E+03  0.12500000000E+03 0.  0.
        -11    1    3    3    0    0  0.53696236541E+02  0.16462865271E+02  0.81527147338E+01  0.56751903134E+02  0.51100000000E-03 0.  1.
         23    2    1    0    0    0  0.25960487965E+02 -0.11154032254E+02  0.69106092037E+01  0.95911928726E+02  0.91394650726E+02 0.  0.
         11    1    3    3    0    0 -0.27735748576E+02 -0.27616897524E+02 -0.12421055301E+01  0.39160025592E+02  0.51100000000E-03 0. -1.
         22    1    1    0    0    0 -0.25960487965E+02  0.11154032254E+02 -0.69106092037E+01  0.29088071274E+02  0.00000000000E+00 0.  1.
</event>
<event>
 5    1  0.1099741E-009  0.9118800E+02  0.7818608E-02  0.1130116E+00
         25   -1    0    0    0    0  0.00000000000E+00  0.00000000000E+00  0.99999998245E-14  0.12500000000E+03  0.12500000000E+03 0.  0.
        -11    1    3    3    0    0 -0.32007337524E+02 -0.32482388616E+02 -0.28182333973E+02  0.53608014084E+02  0.51100000000E-03 0. -1.
         23    2    1    0    0    0 -0.17740060033E+02  0.16178423520E+01 -0.29435630398E+02  0.90593845307E+02  0.83806093614E+02 0.  0.
         11    1    3    3    0    0  0.14267277492E+02  0.34100230968E+02 -0.12532964242E+01  0.36985831223E+02  0.51100000000E-03 0.  1.
         22    1    1    0    0    0  0.17740060033E+02 -0.16178423520E+01  0.29435630398E+02  0.34406154693E+02  0.00000000000E+00 0. -1.
</event>
<event>
 5    1  0.1099741E-009  0.9118800E+02  0.7818608E-02  0.1130116E+00
         25   -1    0    0    0    0  0.00000000000E+00  0.00000000000E+00  0.99999998245E-14  0.12500000000E+03  0.12500000000E+03 0.  0.
        -11    1    3    3    0    0 -0.62481954986E+01  0.36861380763E+02  0.49488486065E+02  0.62023476136E+02  0.51100000000E-03 0. -1.
         23    2    1    0    0    0 -0.62930935783E+01  0.25802929587E+02  0.26771291556E+02  0.87289308497E+02  0.78723104132E+02 0.  0.
         11    1    3    3    0    0 -0.44898079740E-01 -0.11058451176E+02 -0.22717194509E+02  0.25265832360E+02  0.51100000000E-03 0.  1.
         22    1    1    0    0    0  0.62930935783E+01 -0.25802929587E+02 -0.26771291556E+02  0.37710691503E+02  0.00000000000E+00 0. -1.
</event>
<event>
 5    1  0.1099741E-009  0.9118800E+02  0.7818608E-02  0.1130116E+00
         25   -1    0    0    0    0  0.00000000000E+00  0.00000000000E+00  0.99999998245E-14  0.12500000000E+03  0.12500000000E+03 0.  0.
        -11    1    3    3    0    0  0.11888001412E+02  0.16595291369E+02 -0.39662782193E+02  0.44607898009E+02  0.51100000000E-03 0.  1.
         23    2    1    0    0    0  0.27778726616E+02  0.85922430927E+01  0.74628197823E+01  0.94980373539E+02  0.90111560772E+02 0.  0.
         11    1    3    3    0    0  0.15890725204E+02 -0.80030482765E+01  0.47125601976E+02  0.50372475530E+02  0.51100000000E-03 0. -1.
         22    1    1    0    0    0 -0.27778726616E+02 -0.85922430927E+01 -0.74628197823E+01  0.30019626461E+02  0.00000000000E+00 0.  1.
</event>
<event>
 5    1  0.1099741E-009  0.9118800E+02  0.7818608E-02  0.1130116E+00
         25   -1    0    0    0    0  0.00000000000E+00  0.00000000000E+00  0.99999998245E-14  0.12500000000E+03  0.12500000000E+03 0.  0.
        -11    1    3    3    0    0  0.10351605251E+02 -0.22063455123E+02  0.45115094259E+02  0.51276929642E+02  0.51100000000E-03 0.  1.
         23    2    1    0    0    0  0.70983326406E+01 -0.23045727242E+02 -0.40403614616E+01  0.10054971593E+03  0.97531681942E+02 0.  0.
         11    1    3    3    0    0 -0.32532726107E+01 -0.98227211899E+00 -0.49155455721E+02  0.49272786288E+02  0.51100000000E-03 0. -1.
         22    1    1    0    0    0 -0.70983326406E+01  0.23045727242E+02  0.40403614616E+01  0.24450284070E+02  0.00000000000E+00 0. -1.
</event>
<event>
 5    1  0.1099741E-009  0.9118800E+02  0.7818608E-02  0.1130116E+00
         25   -1    0    0    0    0  0.00000000000E+00  0.00000000000E+00  0.99999998245E-14  0.12500000000E+03  0.12500000000E+03 0.  0.
        -11    1    3    3    0    0 -0.27591525152E+02  0.26210077282E+02 -0.96740456545E+01  0.39266366917E+02  0.51100000000E-03 0.  1.
         23    2    1    0    0    0 -0.11074510819E+02 -0.17440043924E+02  0.21336864644E+02  0.95300476186E+02  0.90554508703E+02 0.  0.
         11    1    3    3    0    0  0.16517014332E+02 -0.43650121206E+02  0.31010910298E+02  0.56034109269E+02  0.51100000000E-03 0. -1.
         22    1    1    0    0    0  0.11074510819E+02  0.17440043924E+02 -0.21336864644E+02  0.29699523814E+02  0.00000000000E+00 0. -1.
</event>
<event>
 5    1  0.1099741E-009  0.9118800E+02  0.7818608E-02  0.1130116E+00
         25   -1    0    0    0    0  0.00000000000E+00  0.00000000000E+00  0.99999998245E-14  0.12500000000E+03  0.12500000000E+03 0.  0.
        -11    1    3    3    0    0  0.18871456101E+02  0.41488478824E+02  0.75481267740E+01  0.46199566541E+02  0.51100000000E-03 0.  1.
         23    2    1    0    0    0  0.60844226222E+01 -0.32756544541E+01  0.27349988329E+02  0.96790569443E+02  0.92588564957E+02 0.  0.
         11    1    3    3    0    0 -0.12787033479E+02 -0.44764133278E+02  0.19801861555E+02  0.50591002902E+02  0.51100000000E-03 0. -1.
         22    1    1    0    0    0 -0.60844226222E+01  0.32756544541E+01 -0.27349988329E+02  0.28209430557E+02  0.00000000000E+00 0.  1.
</event>
<event>
 5    1  0.1099741E-009  0.9118800E+02  0.7818608E-02  0.1130116E+00
         25   -1    0    0    0    0  0.00000000000E+00  0.00000000000E+00  0.99999998245E-14  0.12500000000E+03  0.12500000000E+03 0.  0.
        -11    1    3    3    0    0  0.25743580971E+02  0.23669393871E+02  0.37032864123E+01  0.35166553683E+02  0.51100000000E-03 0.  1.
         23    2    1    0    0    0 -0.22343816417E+02 -0.14391498220E+02 -0.72207278605E+01  0.97459116501E+02  0.93486785832E+02 0.  0.
         11    1    3    3    0    0 -0.48087397388E+02 -0.38060892090E+02 -0.10924014273E+02  0.62292562818E+02  0.51100000000E-03 0. -1.
         22    1    1    0    0    0  0.22343816417E+02  0.14391498220E+02  0.72207278605E+01  0.27540883499E+02  0.00000000000E+00 0. -1.
</event>
<event>
 5    1  0.1099741E-009  0.9118800E+02  0.7818608E-02  0.1130116E+00
         25   -1    0    0    0    0  0.00000000000E+00  0.00000000000E+00  0.99999998245E-14  0.12500000000E+03  0.12500000000E+03 0.  0.
        -11    1    3    3    0    0  0.84083109224E+01 -0.33175742516E+02 -0.33307348734E+02  0.47756769824E+02  0.51100000000E-03 0. -1.
         23    2    1    0    0    0 -0.19209616913E+02 -0.71285558033E+01 -0.33511944212E+02  0.85720538514E+02  0.76191434089E+02 0.  0.
         11    1    3    3    0    0 -0.27617927835E+02  0.26047186713E+02 -0.20459547789E+00  0.37963768690E+02  0.51100000000E-03 0.  1.
         22    1    1    0    0    0  0.19209616913E+02  0.71285558033E+01  0.33511944212E+02  0.39279461486E+02  0.00000000000E+00 0.  1.
</event>
<event>
 5    1  0.1099741E-009  0.9118800E+02  0.7818608E-02  0.1130116E+00
         25   -1    0    0    0    0  0.00000000000E+00  0.00000000000E+00  0.99999998245E-14  0.12500000000E+03  0.12500000000E+03 0.  0.
        -11    1    3    3    0    0  0.32505615178E+02  0.23691630105E+02  0.34518805460E+02  0.53004304408E+02  0.51100000000E-03 0. -1.
         23    2    1    0    0    0  0.20434685540E+02  0.25468355522E+02 -0.27616236595E+01  0.92230500898E+02  0.86212674385E+02 0.  0.
         11    1    3    3    0    0 -0.12070929637E+02  0.17767254175E+01 -0.37280429120E+02  0.39226196491E+02  0.51100000000E-03 0.  1.
         22    1    1    0    0    0 -0.20434685540E+02 -0.25468355522E+02  0.27616236595E+01  0.32769499102E+02  0.00000000000E+00 0.  1.
</event>
<event>
 5    1  0.1099741E-009  0.9118800E+02  0.7818608E-02  0.1130116E+00
         25   -1    0    0    0    0  0.00000000000E+00  0.00000000000E+00  0.99999998245E-14  0.12500000000E+03  0.12500000000E+03 0.  0.
        -11    1    3    3    0    0  0.52020815937E+01 -0.46194944194E+01 -0.41480293929E+02  0.42059673873E+02  0.51100000000E-03 0.  1.
         23    2    1    0    0    0 -0.25693334618E+02 -0.21787138442E+01  0.57792911331E+01  0.98574738529E+02  0.94966755406E+02 0.  0.
         11    1    3    3    0    0 -0.30895416211E+02  0.24407805752E+01  0.47259585062E+02  0.56515064657E+02  0.51100000000E-03 0. -1.
         22    1    1    0    0    0  0.25693334618E+02  0.21787138442E+01 -0.57792911331E+01  0.26425261471E+02  0.00000000000E+00 0.  1.
</event>
<event>
 5    1  0.1099741E-009  0.9118800E+02  0.7818608E-02  0.1130116E+00
         25   -1    0    0    0    0  0.00000000000E+00  0.00000000000E+00  0.99999998245E-14  0.12500000000E+03  0.12500000000E+03 0.  0.
        -11    1    3    3    0    0  0.45867749291E+02  0.36455140985E+02 -0.23033486352E+00  0.58590790946E+02  0.51100000000E-03 0.  1.
         23    2    1    0    0    0  0.15702862573E+02  0.22052651421E+02  0.13525267794E+02  0.94737280417E+02  0.89773716110E+02 0.  0.
         11    1    3    3    0    0 -0.30164886718E+02 -0.14402489564E+02  0.13755602658E+02  0.36146489471E+02  0.51100000000E-03 0. -1.
         22    1    1    0    0    0 -0.15702862573E+02 -0.22052651421E+02 -0.13525267794E+02  0.30262719583E+02  0.00000000000E+00 0.  1.
</event>
<event>
 5    1  0.1099741E-009  0.9118800E+02  0.7818608E-02  0.1130116E+00
         25   -1    0    0    0    0  0.00000000000E+00  0.00000000000E+00  0.99999998245E-14  0.12500000000E+03  0.12500000000E+03 0.  0.
        -11    1    3    3    0    0 -0.29430247679E+02  0.10959095941E+02  0.22709883545E+01  0.31486483619E+02  0.51100000000E-03 0.  1.
         23    2    1    0    0    0  0.18657261913E+02  0.50719137517E+01  0.31479705671E+02  0.88056941107E+02  0.79932692165E+02 0.  0.
         11    1    3    3    0    0  0.48087509592E+02 -0.58871821890E+01  0.29208717317E+02  0.56570457489E+02  0.51100000000E-03 0. -1.
         22    1    1    0    0    0 -0.18657261913E+02 -0.50719137517E+01 -0.31479705671E+02  0.36943058893E+02  0.00000000000E+00 0. -1.
</event>
<event>
 5    1  0.1099741E-009  0.9118800E+02  0.7818608E-02  0.1130116E+00
         25   -1    0    0    0    0  0.00000000000E+00  0.00000000000E+00  0.99999998245E-14  0.12500000000E+03  0.12500000000E+03 0.  0.
        -11    1    3    3    0    0  0.15326241329E+02 -0.56564825937E+02  0.20073062150E+02  0.61946759648E+02  0.51100000000E-03 0. -1.
         23    2    1    0    0    0  0.87318879840E+01 -0.29309397856E+02  0.43100440183E+01  0.94115325000E+02  0.88903494025E+02 0.  0.
         11    1    3    3    0    0 -0.65943533449E+01  0.27255428081E+02 -0.15763018132E+02  0.32168565352E+02  0.51100000000E-03 0.  1.
         22    1    1    0    0    0 -0.87318879840E+01  0.29309397856E+02 -0.43100440183E+01  0.30884675000E+02  0.00000000000E+00 0. -1.
</event>
<event>
 5    1  0.1099741E-009  0.9118800E+02  0.7818608E-02  0.1130116E+00
         25   -1    0    0    0    0  0.00000000000E+00  0.00000000000E+00  0.99999998245E-14  0.12500000000E+03  0.12500000000E+03 0.  0.
        -11    1    3    3    0    0  0.53786186551E+01  0.32540342126E+01 -0.40310325540E+02  0.40797556578E+02  0.51100000000E-03 0. -1.
         23    2    1    0    0    0 -0.21469774911E+02  0.19064571008E+02  0.50686261326E+01  0.95843524333E+02  0.91301046452E+02 0.  0.
         11    1    3    3    0    0 -0.26848393566E+02  0.15810536795E+02  0.45378951673E+02  0.55045967755E+02  0.51100000000E-03 0.  1.
         22    1    1    0    0    0  0.21469774911E+02 -0.19064571008E+02 -0.50686261326E+01  0.29156475667E+02  0.00000000000E+00 0.  1.
</event>
<event>
 5    1  0.1099741E-009  0.9118800E+02  0.7818608E-02  0.1130116E+00
         25   -1    0    0    0    0  0.00000000000E+00  0.00000000000E+00  0.99999998245E-14  0.12500000000E+03  0.12500000000E+03 0.  0.
        -11    1    3    3    0    0  0.68145160350E+00 -0.15183808087E+02 -0.38402231844E+02  0.41300651510E+02  0.51100000000E-03 0. -1.
         23    2    1    0    0    0 -0.16920722905E+02 -0.18877611224E+02  0.13533686920E+02  0.96262641896E+02  0.91873067185E+02 0.  0.
         11    1    3    3    0    0 -0.17602174508E+02 -0.36938031369E+01  0.51935918764E+02  0.54961990386E+02  0.51100000000E-03 0.  1.
         22    1    1    0    0    0  0.16920722905E+02  0.18877611224E+02 -0.13533686920E+02  0.28737358104E+02  0.00000000000E+00 0. -1.
</event>
<event>
 5    1  0.1099741E-009  0.9118800E+02  0.7818608E-02  0.1130116E+00
         25   -1    0    0    0    0  0.00000000000E+00  0.00000000000E+00  0.99999998245E-14  0.12500000000E+03  0.12500000000E+03 0.  0.
        -11    1    3    3    0    0 -0.36974478559E+02 -0.33024576689E+02 -0.32608230128E+02  0.59338279403E+02  0.51100000000E-03 0. -1.
         23    2    1    0    0    0 -0.73333261101E+01 -0.15413616980E+02 -0.25134920218E+02  0.94617085811E+02  0.89606202089E+02 0.  0.
         11    1    3    3    0    0  0.29641152449E+02  0.17610959709E+02  0.74733099098E+01  0.35278806409E+02  0.51100000000E-03 0.  1.
         22    1    1    0    0    0  0.73333261101E+01  0.15413616980E+02  0.25134920218E+02  0.30382914189E+02  0.00000000000E+00 0. -1.
</event>
<event>
 5    1  0.1099741E-009  0.9118800E+02  0.7818608E-02  0.1130116E+00
         25   -1    0    0    0    0  0.00000000000E+00  0.00000000000E+00  0.99999998245E-14  0.12500000000E+03  0.12500000000E+03 0.  0.
        -11    1    3    3    0    0  0.47301660495E+02  0.88357853714E+01  0.38082844775E+02  0.61366287611E+02  0.51100000000E-03 0.  1.
         23    2    1    0    0    0  0.17852181915E+02  0.28475472196E+01  0.25014397195E+02  0.94136931596E+02  0.88933868121E+02 0.  0.
         11    1    3    3    0    0 -0.29449478580E+02 -0.59882381519E+01 -0.13068447580E+02  0.32770643985E+02  0.51100000000E-03 0. -1.
         22    1    1    0    0    0 -0.17852181915E+02 -0.28475472196E+01 -0.25014397195E+02  0.30863068404E+02  0.00000000000E+00 0.  1.
</event>
<event>
 5    1  0.1099741E-009  0.9118800E+02  0.7818608E-02  0.1130116E+00
         25   -1    0    0    0    0  0.00000000000E+00  0.00000000000E+00  0.99999998245E-14  0.12500000000E+03  0.12500000000E+03 0.  0.
        -11    1    3    3    0    0  0.15006844560E+02  0.33865029154E+02 -0.18472477283E+02  0.41391762472E+02  0.51100000000E-03 0. -1.
         23    2    1    0    0    0 -0.13703282611E+01 -0.22009232321E+02 -0.11776851486E+02  0.10000043325E+03  0.96825142974E+02 0.  0.
         11    1    3    3    0    0 -0.16377172821E+02 -0.55874261475E+02  0.66956257970E+01  0.58608670776E+02  0.51100000000E-03 0.  1.
         22    1    1    0    0    0  0.13703282611E+01  0.22009232321E+02  0.11776851486E+02  0.24999566752E+02  0.00000000000E+00 0.  1.
</event>
<event>
 5    1  0.1099741E-009  0.9118800E+02  0.7818608E-02  0.1130116E+00
         25   -1    0    0    0    0  0.00000000000E+00  0.00000000000E+00  0.99999998245E-14  0.12500000000E+03  0.12500000000E+03 0.  0.
        -11    1    3    3    0    0 -0.40306760248E+02  0.91494400838E+01  0.23564575877E+02  0.47577688175E+02  0.51100000000E-03 0.  1.
         23    2    1    0    0    0  0.12954021069E+01 -0.15705473671E+02  0.24291542748E+02  0.96044533868E+02  0.91575834514E+02 0.  0.
         11    1    3    3    0    0  0.41602162355E+02 -0.24854913755E+02  0.72696687141E+00  0.48466845693E+02  0.51100000000E-03 0. -1.
         22    1    1    0    0    0 -0.12954021069E+01  0.15705473671E+02 -0.24291542748E+02  0.28955466132E+02  0.00000000000E+00 0. -1.
</event>
<event>
 5    1  0.1099741E-009  0.9118800E+02  0.7818608E-02  0.1130116E+00
         25   -1    0    0    0    0  0.00000000000E+00  0.00000000000E+00  0.99999998245E-14  0.12500000000E+03  0.12500000000E+03 0.  0.
        -11    1    3    3    0    0  0.42041606991E+02  0.20511285566E+02 -0.33474534734E+02  0.57521770051E+02  0.51100000000E-03 0.  1.
         23    2    1    0    0    0  0.15902668813E+02  0.24529394939E+02 -0.70040704548E+01  0.94939343081E+02  0.90054626590E+02 0.  0.
         11    1    3    3    0    0 -0.26138938178E+02  0.40181093736E+01  0.26470464279E+02  0.37417573030E+02  0.51100000000E-03 0. -1.
         22    1    1    0    0    0 -0.15902668813E+02 -0.24529394939E+02  0.70040704548E+01  0.30060656919E+02  0.00000000000E+00 0.  1.
</event>
<event>
 5    1  0.1099741E-009  0.9118800E+02  0.7818608E-02  0.1130116E+00
         25   -1    0    0    0    0  0.00000000000E+00  0.00000000000E+00  0.99999998245E-14  0.12500000000E+03  0.12500000000E+03 0.  0.
        -11    1    3    3    0    0  0.53542657416E+01 -0.11457701392E+02 -0.33296642278E+02  0.35617600565E+02  0.51100000000E-03 0.  1.
         23    2    1    0    0    0  0.12939539488E+02  0.12910633113E+02  0.21926948041E+02  0.96453420871E+02  0.92132270231E+02 0.  0.
         11    1    3    3    0    0  0.75852737462E+01  0.24368334505E+02  0.55223590319E+02  0.60835820306E+02  0.51100000000E-03 0. -1.
         22    1    1    0    0    0 -0.12939539488E+02 -0.12910633113E+02 -0.21926948041E+02  0.28546579129E+02  0.00000000000E+00 0. -1.
</event>
<event>
 5    1  0.1099741E-009  0.9118800E+02  0.7818608E-02  0.1130116E+00
         25   -1    0    0    0    0  0.00000000000E+00  0.00000000000E+00  0.99999998245E-14  0.12500000000E+03  0.12500000000E+03 0.  0.
        -11    1    3    3    0    0  0.15970756298E+02  0.53111293563E+01  0.42330035314E+02  0.45553320864E+02  0.51100000000E-03 0. -1.
         23    2    1    0    0    0  0.13902122806E+01 -0.28602072448E+02  0.98663969206E+01  0.94712097684E+02  0.89738645081E+02 0.  0.
         11    1    3    3    0    0 -0.14580544017E+02 -0.33913201804E+02 -0.32463638393E+02  0.49158776820E+02  0.51100000000E-03 0.  1.
         22    1    1    0    0    0 -0.13902122806E+01  0.28602072448E+02 -0.98663969206E+01  0.30287902316E+02  0.00000000000E+00 0. -1.
</event>
<event>
 5    1  0.1099741E-009  0.9118800E+02  0.7818608E-02  0.1130116E+00
         25   -1    0    0    0    0  0.00000000000E+00  0.00000000000E+00  0.99999998245E-14  0.12500000000E+03  0.12500000000E+03 0.  0.
        -11    1    3    3    0    0  0.42464054628E+02  0.31907326556E+02  0.21615828982E+02  0.57345596921E+02  0.51100000000E-03 0. -1.
         23    2    1    0    0    0  0.25906609731E+02 -0.15941305358E+01  0.14093567107E+02  0.95464896924E+02  0.90781188751E+02 0.  0.
         11    1    3    3    0    0 -0.16557444897E+02 -0.33501457092E+02 -0.75222618748E+01  0.38119300004E+02  0.51100000000E-03 0.  1.
         22    1    1    0    0    0 -0.25906609731E+02  0.15941305358E+01 -0.14093567107E+02  0.29535103076E+02  0.00000000000E+00 0. -1.
</event>
<event>
 5    1  0.1099741E-009  0.9118800E+02  0.7818608E-02  0.1130116E+00
         25   -1    0    0    0    0  0.00000000000E+00  0.00000000000E+00  0.99999998245E-14  0.12500000000E+03  0.12500000000E+03 0.  0.
        -11    1    3    3    0    0 -0.22629853086E+02  0.49170947116E+02 -0.22803922087E+02  0.58735944308E+02  0.51100000000E-03 0. -1.
         23    2    1    0    0    0 -0.19186148656E+02  0.12313433406E+02 -0.17770546784E+02  0.96094615112E+02  0.91644169362E+02 0.  0.
         11    1    3    3    0    0  0.34437044298E+01 -0.36857513709E+02  0.50333753027E+01  0.37358670804E+02  0.51100000000E-03 0.  1.
         22    1    1    0    0    0  0.19186148656E+02 -0.12313433406E+02  0.17770546784E+02  0.28905384888E+02  0.00000000000E+00 0. -1.
</event>
<event>
 5    1  0.1099741E-009  0.9118800E+02  0.7818608E-02  0.1130116E+00
         25   -1    0    0    0    0  0.00000000000E+00  0.00000000000E+00  0.99999998245E-14  0.12500000000E+03  0.12500000000E+03 0.  0.
        -11    1    3    3    0    0 -0.42350341624E+02 -0.20101440715E+02 -0.12911005378E+02  0.48624206056E+02  0.51100000000E-03 0.  1.
         23    2    1    0    0    0 -0.23595301587E+02  0.18836180991E+02  0.29560798406E+01  0.94663909623E+02  0.89671497176E+02 0.  0.
         11    1    3    3    0    0  0.18755040037E+02  0.38937621706E+02  0.15867085219E+02  0.46039703567E+02  0.51100000000E-03 0. -1.
         22    1    1    0    0    0  0.23595301587E+02 -0.18836180991E+02 -0.29560798406E+01  0.30336090377E+02  0.00000000000E+00 0.  1.
</event>
<event>
 5    1  0.1099741E-009  0.9118800E+02  0.7818608E-02  0.1130116E+00
         25   -1    0    0    0    0  0.00000000000E+00  0.00000000000E+00  0.99999998245E-14  0.12500000000E+03  0.12500000000E+03 0.  0.
        -11    1    3    3    0    0 -0.26850301477E+02  0.17405546393E+02  0.19790729241E+02  0.37623991000E+02  0.51100000000E-03 0. -1.
         23    2    1    0    0    0  0.18889472944E+02  0.30581454986E+02  0.31555320882E+00  0.89053690718E+02  0.81476516122E+02 0.  0.
         11    1    3    3    0    0  0.45739774421E+02  0.13175908594E+02 -0.19475176032E+02  0.51429699718E+02  0.51100000000E-03 0.  1.
         22    1    1    0    0    0 -0.18889472944E+02 -0.30581454986E+02 -0.31555320882E+00  0.35946309282E+02  0.00000000000E+00 0.  1.
</event>
<event>
 5    1  0.1099741E-009  0.9118800E+02  0.7818608E-02  0.1130116E+00
         25   -1    0    0    0    0  0.00000000000E+00  0.00000000000E+00  0.99999998245E-14  0.12500000000E+03  0.12500000000E+03 0.  0.
        -11    1    3    3    0    0 -0.17453705683E+02 -0.16833957808E+02  0.26923188229E+02  0.36233576172E+02  0.51100000000E-03 0. -1.
         23    2    1    0    0    0 -0.81500563084E+01  0.18011501200E+01 -0.28426988697E+02  0.95372964273E+02  0.90654514881E+02 0.  0.
         11    1    3    3    0    0  0.93036493741E+01  0.18635107928E+02 -0.55350176925E+02  0.59139388102E+02  0.51100000000E-03 0.  1.
         22    1    1    0    0    0  0.81500563084E+01 -0.18011501200E+01  0.28426988697E+02  0.29627035727E+02  0.00000000000E+00 0.  1.
</event>
<event>
 5    1  0.1099741E-009  0.9118800E+02  0.7818608E-02  0.1130116E+00
         25   -1    0    0    0    0  0.00000000000E+00  0.00000000000E+00  0.99999998245E-14  0.12500000000E+03  0.12500000000E+03 0.  0.
        -11    1    3    3    0    0 -0.11675434224E+02 -0.40427286760E+02 -0.20255059098E+02  0.46700628459E+02  0.51100000000E-03 0. -1.
         23    2    1    0    0    0 -0.28569925967E+02  0.24967047108E+01 -0.22011531448E+01  0.96236841631E+02  0.91837957337E+02 0.  0.
         11    1    3    3    0    0 -0.16894491743E+02  0.42923991471E+02  0.18053905953E+02  0.49536213172E+02  0.51100000000E-03 0.  1.
         22    1    1    0    0    0  0.28569925967E+02 -0.24967047108E+01  0.22011531448E+01  0.28763158369E+02  0.00000000000E+00 0. -1.
</event>
<event>
 5    1  0.1099741E-009  0.9118800E+02  0.7818608E-02  0.1130116E+00
         25   -1    0    0    0    0  0.00000000000E+00  0.00000000000E+00  0.99999998245E-14  0.12500000000E+03  0.12500000000E+03 0.  0.
        -11    1    3    3    0    0  0.76518977002E+01 -0.21613027041E+02 -0.24550728746E+02  0.33591855538E+02  0.51100000000E-03 0. -1.
         23    2    1    0    0    0 -0.77022841532E+01  0.22778528413E+02  0.16388566439E+02  0.95900658981E+02  0.91379235853E+02 0.  0.
         11    1    3    3    0    0 -0.15354181853E+02  0.44391555454E+02  0.40939295184E+02  0.62308803443E+02  0.51100000000E-03 0.  1.
         22    1    1    0    0    0  0.77022841532E+01 -0.22778528413E+02 -0.16388566439E+02  0.29099341019E+02  0.00000000000E+00 0.  1.
</event>
<event>
 5    1  0.1099741E-009  0.9118800E+02  0.7818608E-02  0.1130116E+00
         25   -1    0    0    0    0  0.00000000000E+00  0.00000000000E+00  0.99999998245E-14  0.12500000000E+03  0.12500000000E+03 0.  0.
        -11    1    3    3    0    0  0.30264209773E+02  0.23227416835E+02 -0.68557746583E+01  0.38761281357E+02  0.51100000000E-03 0.  1.
         23    2    1    0    0    0  0.19561690077E+01 -0.25146361930E+02 -0.15386896135E+02  0.95454734929E+02  0.90767195242E+02 0.  0.
         11    1    3    3    0    0 -0.28308040765E+02 -0.48373778765E+02 -0.85311214765E+01  0.56693453571E+02  0.51100000000E-03 0. -1.
         22    1    1    0    0    0 -0.19561690077E+01  0.25146361930E+02  0.15386896135E+02  0.29545265071E+02  0.00000000000E+00 0. -1.
</event>
<event>
 5    1  0.1099741E-009  0.9118800E+02  0.7818608E-02  0.1130116E+00
         25   -1    0    0    0    0  0.00000000000E+00  0.00000000000E+00  0.99999998245E-14  0.12500000000E+03  0.12500000000E+03 0.  0.
        -11    1    3    3    0    0  0.29698299321E+02  0.28665250909E+02  0.30193348061E+02  0.51140237188E+02  0.51100000000E-03 0.  1.
         23    2    1    0    0    0 -0.14065159362E+02  0.14321067685E+02  0.15995495246E+02  0.99333337659E+02  0.95960066772E+02 0.  0.
         11    1    3    3    0    0 -0.43763458683E+02 -0.14344183224E+02 -0.14197852815E+02  0.48193100472E+02  0.51100000000E-03 0. -1.
         22    1    1    0    0    0  0.14065159362E+02 -0.14321067685E+02 -0.15995495246E+02  0.25666662341E+02  0.00000000000E+00 0. -1.
</event>
<event>
 5    1  0.1099741E-009  0.9118800E+02  0.7818608E-02  0.1130116E+00
         25   -1    0    0    0    0  0.00000000000E+00  0.00000000000E+00  0.99999998245E-14  0.12500000000E+03  0.12500000000E+03 0.  0.
        -11    1    3    3    0    0 -0.37264639811E+02 -0.40406294070E+01  0.29401164728E+01  0.37598196119E+02  0.51100000000E-03 0.  1.
         23    2    1    0    0    0  0.16423414055E+02 -0.24762388491E+02  0.28861969913E+01  0.95146448351E+02  0.90341640940E+02 0.  0.
         11    1    3    3    0    0  0.53688053866E+02 -0.20721759084E+02 -0.53919481546E-01  0.57548252232E+02  0.51100000000E-03 0. -1.
         22    1    1    0    0    0 -0.16423414055E+02  0.24762388491E+02 -0.28861969913E+01  0.29853551649E+02  0.00000000000E+00 0. -1.
</event>
<event>
 5    1  0.1099741E-009  0.9118800E+02  0.7818608E-02  0.1130116E+00
         25   -1    0    0    0    0  0.00000000000E+00  0.00000000000E+00  0.99999998245E-14  0.12500000000E+03  0.12500000000E+03 0.  0.
        -11    1    3    3    0    0  0.16400403678E+02 -0.27781614346E+02 -0.84625220183E+01  0.33352745249E+02  0.51100000000E-03 0.  1.
         23    2    1    0    0    0 -0.11859679191E+02  0.27056273163E+02 -0.17793852193E+01  0.95405065978E+02  0.90698767878E+02 0.  0.
         11    1    3    3    0    0 -0.28260082869E+02  0.54837887509E+02  0.66831367989E+01  0.62052320730E+02  0.51100000000E-03 0. -1.
         22    1    1    0    0    0  0.11859679191E+02 -0.27056273163E+02  0.17793852193E+01  0.29594934022E+02  0.00000000000E+00 0. -1.
</event>
<event>
 5    1  0.1099741E-009  0.9118800E+02  0.7818608E-02  0.1130116E+00
         25   -1    0    0    0    0  0.00000000000E+00  0.00000000000E+00  0.99999998245E-14  0.12500000000E+03  0.12500000000E+03 0.  0.
        -11    1    3    3    0    0 -0.48039574086E+02 -0.12110241147E+02  0.10120365732E+02  0.50565605126E+02  0.51100000000E-03 0.  1.
         23    2    1    0    0    0 -0.14168989109E+02  0.15470835164E+02  0.20720851390E+02  0.95513381419E+02  0.90847924328E+02 0.  0.
         11    1    3    3    0    0  0.33870584977E+02  0.27581076311E+02  0.10600485658E+02  0.44947776292E+02  0.51100000000E-03 0. -1.
         22    1    1    0    0    0  0.14168989109E+02 -0.15470835164E+02 -0.20720851390E+02  0.29486618581E+02  0.00000000000E+00 0. -1.
</event>
<event>
 5    1  0.1099741E-009  0.9118800E+02  0.7818608E-02  0.1130116E+00
         25   -1    0    0    0    0  0.00000000000E+00  0.00000000000E+00  0.99999998245E-14  0.12500000000E+03  0.12500000000E+03 0.  0.
        -11    1    3    3    0    0  0.43192109861E+02  0.22208846020E+02  0.31622800305E+02  0.57955092056E+02  0.51100000000E-03 0.  1.
         23    2    1    0    0    0  0.69407559568E+01  0.15716981747E+02  0.23868719432E+02  0.95590590353E+02  0.90954096050E+02 0.  0.
         11    1    3    3    0    0 -0.36251353904E+02 -0.64918642727E+01 -0.77540808734E+01  0.37635498297E+02  0.51100000000E-03 0. -1.
         22    1    1    0    0    0 -0.69407559568E+01 -0.15716981747E+02 -0.23868719432E+02  0.29409409647E+02  0.00000000000E+00 0.  1.
</event>
<event>
 5    1  0.1099741E-009  0.9118800E+02  0.7818608E-02  0.1130116E+00
         25   -1    0    0    0    0  0.00000000000E+00  0.00000000000E+00  0.99999998245E-14  0.12500000000E+03  0.12500000000E+03 0.  0.
        -11    1    3    3    0    0 -0.21016552152E+02  0.22746093439E+02  0.10554889500E+02  0.32718281185E+02  0.51100000000E-03 0.  1.
         23    2    1    0    0    0  0.20094248079E+02 -0.20176479387E+02 -0.87515555862E+01  0.95209752410E+02  0.90429188332E+02 0.  0.
         11    1    3    3    0    0  0.41110800231E+02 -0.42922572826E+02 -0.19306445086E+02  0.62491471224E+02  0.51100000000E-03 0. -1.
         22    1    1    0    0    0 -0.20094248079E+02  0.20176479387E+02  0.87515555862E+01  0.29790247590E+02  0.00000000000E+00 0. -1.
</event>
<event>
 5    1  0.1099741E-009  0.9118800E+02  0.7818608E-02  0.1130116E+00
         25   -1    0    0    0    0  0.00000000000E+00  0.00000000000E+00  0.99999998245E-14  0.12500000000E+03  0.12500000000E+03 0.  0.
        -11    1    3    3    0    0  0.39695172816E+02 -0.39496936486E+01  0.46764032097E+02  0.61466914052E+02  0.51100000000E-03 0.  1.
         23    2    1    0    0    0  0.14825943767E+02 -0.89617815899E+01  0.22800433439E+02  0.96364673865E+02  0.92011784388E+02 0.  0.
         11    1    3    3    0    0 -0.24869229049E+02 -0.50120879413E+01 -0.23963598658E+02  0.34897759813E+02  0.51100000000E-03 0. -1.
         22    1    1    0    0    0 -0.14825943767E+02  0.89617815899E+01 -0.22800433439E+02  0.28635326135E+02  0.00000000000E+00 0.  1.
</event>
<event>
 5    1  0.1099741E-009  0.9118800E+02  0.7818608E-02  0.1130116E+00
         25   -1    0    0    0    0  0.00000000000E+00  0.00000000000E+00  0.99999998245E-14  0.12500000000E+03  0.12500000000E+03 0.  0.
        -11    1    3    3    0    0 -0.49277023924E+02 -0.11096335851E+02 -0.13293200602E+02  0.52230861937E+02  0.51100000000E-03 0.  1.
         23    2    1    0    0    0 -0.14708472717E+02 -0.27242304301E+02 -0.15359193997E+02  0.90440093265E+02  0.83576451924E+02 0.  0.
         11    1    3    3    0    0  0.34568551207E+02 -0.16145968449E+02 -0.20659933949E+01  0.38209231328E+02  0.51100000000E-03 0. -1.
         22    1    1    0    0    0  0.14708472717E+02  0.27242304301E+02  0.15359193997E+02  0.34559906735E+02  0.00000000000E+00 0.  1.
</event>
<event>
 5    1  0.1099741E-009  0.9118800E+02  0.7818608E-02  0.1130116E+00
         25   -1    0    0    0    0  0.00000000000E+00  0.00000000000E+00  0.99999998245E-14  0.12500000000E+03  0.12500000000E+03 0.  0.
        -11    1    3    3    0    0 -0.44107011928E+01 -0.38442538748E+02  0.16691455932E+02  0.42141283462E+02  0.51100000000E-03 0.  1.
         23    2    1    0    0    0 -0.23269366925E+02  0.11870035370E+02  0.12516498399E+02  0.96034090572E+02  0.91561578422E+02 0.  0.
         11    1    3    3    0    0 -0.18858665733E+02  0.50312574118E+02 -0.41749575326E+01  0.53892807111E+02  0.51100000000E-03 0. -1.
         22    1    1    0    0    0  0.23269366925E+02 -0.11870035370E+02 -0.12516498399E+02  0.28965909428E+02  0.00000000000E+00 0. -1.
</event>
<event>
 5    1  0.1099741E-009  0.9118800E+02  0.7818608E-02  0.1130116E+00
         25   -1    0    0    0    0  0.00000000000E+00  0.00000000000E+00  0.99999998245E-14  0.12500000000E+03  0.12500000000E+03 0.  0.
        -11    1    3    3    0    0 -0.60292782541E+02 -0.88031224495E-01  0.14189686914E+02  0.61940088723E+02  0.51100000000E-03 0.  1.
         23    2    1    0    0    0 -0.34356585228E+02 -0.33860269146E+00  0.14055782093E+02  0.87877842054E+02  0.79652121840E+02 0.  0.
         11    1    3    3    0    0  0.25936197313E+02 -0.25057146696E+00 -0.13390482042E+00  0.25937753332E+02  0.51100000000E-03 0. -1.
         22    1    1    0    0    0  0.34356585228E+02  0.33860269146E+00 -0.14055782093E+02  0.37122157946E+02  0.00000000000E+00 0.  1.
</event>
<event>
 5    1  0.1099741E-009  0.9118800E+02  0.7818608E-02  0.1130116E+00
         25   -1    0    0    0    0  0.00000000000E+00  0.00000000000E+00  0.99999998245E-14  0.12500000000E+03  0.12500000000E+03 0.  0.
        -11    1    3    3    0    0  0.39278449454E+02  0.34257045436E+01  0.15859403545E+02  0.42497679045E+02  0.51100000000E-03 0.  1.
         23    2    1    0    0    0  0.62987368627E+01 -0.88865573715E+01 -0.25773814392E+02  0.97019033321E+02  0.92896492562E+02 0.  0.
         11    1    3    3    0    0 -0.32979712592E+02 -0.12312261915E+02 -0.41633217936E+02  0.54521354276E+02  0.51100000000E-03 0. -1.
         22    1    1    0    0    0 -0.62987368627E+01  0.88865573715E+01  0.25773814392E+02  0.27980966679E+02  0.00000000000E+00 0. -1.
</event>
<event>
 5    1  0.1099741E-009  0.9118800E+02  0.7818608E-02  0.1130116E+00
         25   -1    0    0    0    0  0.00000000000E+00  0.00000000000E+00  0.99999998245E-14  0.12500000000E+03  0.12500000000E+03 0.  0.
        -11    1    3    3    0    0 -0.28796819800E+02  0.16889414165E+02 -0.12490148557E+02  0.35644255536E+02  0.51100000000E-03 0. -1.
         23    2    1    0    0    0  0.53321226914E+01 -0.29571696520E+02  0.13128148121E+01  0.94922761925E+02  0.90031608234E+02 0.  0.
         11    1    3    3    0    0  0.34128942492E+02 -0.46461110685E+02  0.13802963369E+02  0.59278506389E+02  0.51100000000E-03 0.  1.
         22    1    1    0    0    0 -0.53321226914E+01  0.29571696520E+02 -0.13128148121E+01  0.30077238075E+02  0.00000000000E+00 0.  1.
</event>
<event>
 5    1  0.1099741E-009  0.9118800E+02  0.7818608E-02  0.1130116E+00
         25   -1    0    0    0    0  0.00000000000E+00  0.00000000000E+00  0.99999998245E-14  0.12500000000E+03  0.12500000000E+03 0.  0.
        -11    1    3    3    0    0 -0.23896872921E+02  0.28348244969E+02 -0.33992221401E+01  0.37232220450E+02  0.51100000000E-03 0.  1.
         23    2    1    0    0    0  0.11725229823E+02 -0.11979728037E+02  0.22494728916E+02  0.96946341998E+02  0.92798628759E+02 0.  0.
         11    1    3    3    0    0  0.35622102744E+02 -0.40327973007E+02  0.25893951057E+02  0.59714121548E+02  0.51100000000E-03 0. -1.
         22    1    1    0    0    0 -0.11725229823E+02  0.11979728037E+02 -0.22494728916E+02  0.28053658002E+02  0.00000000000E+00 0. -1.
</event>
<event>
 5    1  0.1099741E-009  0.9118800E+02  0.7818608E-02  0.1130116E+00
         25   -1    0    0    0    0  0.00000000000E+00  0.00000000000E+00  0.99999998245E-14  0.12500000000E+03  0.12500000000E+03 0.  0.
        -11    1    3    3    0    0  0.11308476553E+02  0.44228600537E+02  0.12634034615E+01  0.45668883673E+02  0.51100000000E-03 0. -1.
         23    2    1    0    0    0  0.13777169485E+02  0.12327760090E+01  0.26155802261E+02  0.95411892125E+02  0.90708175107E+02 0.  0.
         11    1    3    3    0    0  0.24686929323E+01 -0.42995824528E+02  0.24892398799E+02  0.49743008452E+02  0.51100000000E-03 0.  1.
         22    1    1    0    0    0 -0.13777169485E+02 -0.12327760090E+01 -0.26155802261E+02  0.29588107875E+02  0.00000000000E+00 0.  1.
</event>
<event>
 5    1  0.1099741E-009  0.9118800E+02  0.7818608E-02  0.1130116E+00
         25   -1    0    0    0    0  0.00000000000E+00  0.00000000000E+00  0.99999998245E-14  0.12500000000E+03  0.12500000000E+03 0.  0.
        -11    1    3    3    0    0 -0.51833377336E+02  0.10442231555E+02 -0.85990047704E+01  0.53569413747E+02  0.51100000000E-03 0.  1.
         23    2    1    0    0    0 -0.26761565125E+02 -0.15459748760E+02  0.77268655087E+01  0.93142667246E+02  0.87525235283E+02 0.  0.
         11    1    3    3    0    0  0.25071812212E+02 -0.25901980314E+02  0.16325870279E+02  0.39573253498E+02  0.51100000000E-03 0. -1.
         22    1    1    0    0    0  0.26761565125E+02  0.15459748760E+02 -0.77268655087E+01  0.31857332754E+02  0.00000000000E+00 0.  1.
</event>
<event>
 5    1  0.1099741E-009  0.9118800E+02  0.7818608E-02  0.1130116E+00
         25   -1    0    0    0    0  0.00000000000E+00  0.00000000000E+00  0.99999998245E-14  0.12500000000E+03  0.12500000000E+03 0.  0.
        -11    1    3    3    0    0 -0.11206995943E+02  0.11235841285E+02 -0.31018072792E+02  0.34841953554E+02  0.51100000000E-03 0. -1.
         23    2    1    0    0    0 -0.68813008183E-02 -0.27831975452E+02  0.12590445600E+02  0.94452688739E+02  0.89376575145E+02 0.  0.
         11    1    3    3    0    0  0.11200114642E+02 -0.39067816737E+02  0.43608518392E+02  0.59610735184E+02  0.51100000000E-03 0.  1.
         22    1    1    0    0    0  0.68813008183E-02  0.27831975452E+02 -0.12590445600E+02  0.30547311261E+02  0.00000000000E+00 0.  1.
</event>
<event>
 5    1  0.1099741E-009  0.9118800E+02  0.7818608E-02  0.1130116E+00
         25   -1    0    0    0    0  0.00000000000E+00  0.00000000000E+00  0.99999998245E-14  0.12500000000E+03  0.12500000000E+03 0.  0.
        -11    1    3    3    0    0 -0.98308971734E+01 -0.39777971466E+02 -0.39744856125E+02  0.57084035788E+02  0.51100000000E-03 0.  1.
         23    2    1    0    0    0  0.13940919033E+02 -0.14721893057E+02 -0.17922889669E+02  0.97938711547E+02  0.94125861944E+02 0.  0.
         11    1    3    3    0    0  0.23771816207E+02  0.25056078410E+02  0.21821966457E+02  0.40854675759E+02  0.51100000000E-03 0. -1.
         22    1    1    0    0    0 -0.13940919033E+02  0.14721893057E+02  0.17922889669E+02  0.27061288453E+02  0.00000000000E+00 0.  1.
</event>
<event>
 5    1  0.1099741E-009  0.9118800E+02  0.7818608E-02  0.1130116E+00
         25   -1    0    0    0    0  0.00000000000E+00  0.00000000000E+00  0.99999998245E-14  0.12500000000E+03  0.12500000000E+03 0.  0.
        -11    1    3    3    0    0  0.88969790492E+01  0.11223780391E+02  0.26043512780E+02  0.29721945439E+02  0.51100000000E-03 0.  1.
         23    2    1    0    0    0  0.28655155495E+02 -0.29079978476E+02 -0.43689106474E+01  0.83940890599E+02  0.73213541437E+02 0.  0.
         11    1    3    3    0    0  0.19758176445E+02 -0.40303758867E+02 -0.30412423428E+02  0.54218945160E+02  0.51100000000E-03 0. -1.
         22    1    1    0    0    0 -0.28655155495E+02  0.29079978476E+02  0.43689106474E+01  0.41059109401E+02  0.00000000000E+00 0. -1.
</event>
<event>
 5    1  0.1099741E-009  0.9118800E+02  0.7818608E-02  0.1130116E+00
         25   -1    0    0    0    0  0.00000000000E+00  0.00000000000E+00  0.99999998245E-14  0.12500000000E+03  0.12500000000E+03 0.  0.
        -11    1    3    3    0    0 -0.20083011076E+02  0.48491415366E+02  0.31944006542E+02  0.61442365289E+02  0.51100000000E-03 0. -1.
         23    2    1    0    0    0 -0.75996556397E+01  0.19513184486E+02  0.22238021184E+02  0.94454153788E+02  0.89378624105E+02 0.  0.
         11    1    3    3    0    0  0.12483355436E+02 -0.28978230880E+02 -0.97059853583E+01  0.33011788499E+02  0.51100000000E-03 0.  1.
         22    1    1    0    0    0  0.75996556397E+01 -0.19513184486E+02 -0.22238021184E+02  0.30545846212E+02  0.00000000000E+00 0. -1.
</event>
<event>
 5    1  0.1099741E-009  0.9118800E+02  0.7818608E-02  0.1130116E+00
         25   -1    0    0    0    0  0.00000000000E+00  0.00000000000E+00  0.99999998245E-14  0.12500000000E+03  0.12500000000E+03 0.  0.
        -11    1    3    3    0    0 -0.42722310294E+02  0.47342076055E+01 -0.29462144229E+02  0.52111672986E+02  0.51100000000E-03 0.  1.
         23    2    1    0    0    0 -0.11374004676E+02 -0.21789833853E+02 -0.17312750458E+02  0.94935133958E+02  0.90048783942E+02 0.  0.
         11    1    3    3    0    0  0.31348305618E+02 -0.26524041458E+02  0.12149393771E+02  0.42823460972E+02  0.51100000000E-03 0. -1.
         22    1    1    0    0    0  0.11374004676E+02  0.21789833853E+02  0.17312750458E+02  0.30064866042E+02  0.00000000000E+00 0.  1.
</event>
<event>
 5    1  0.1099741E-009  0.9118800E+02  0.7818608E-02  0.1130116E+00
         25   -1    0    0    0    0  0.00000000000E+00  0.00000000000E+00  0.99999998245E-14  0.12500000000E+03  0.12500000000E+03 0.  0.
        -11    1    3    3    0    0  0.54744644746E+02  0.12250035109E+02 -0.22751292096E+02  0.60536441759E+02  0.51100000000E-03 0.  1.
         23    2    1    0    0    0  0.29012448907E+02  0.11221925102E+02 -0.16172649663E+01  0.93850853293E+02  0.88530860853E+02 0.  0.
         11    1    3    3    0    0 -0.25732195839E+02 -0.10281100066E+01  0.21134027130E+02  0.33314411534E+02  0.51100000000E-03 0. -1.
         22    1    1    0    0    0 -0.29012448907E+02 -0.11221925102E+02  0.16172649663E+01  0.31149146707E+02  0.00000000000E+00 0.  1.
</event>
<event>
 5    1  0.1099741E-009  0.9118800E+02  0.7818608E-02  0.1130116E+00
         25   -1    0    0    0    0  0.00000000000E+00  0.00000000000E+00  0.99999998245E-14  0.12500000000E+03  0.12500000000E+03 0.  0.
        -11    1    3    3    0    0 -0.45888743595E+02  0.13630035584E+02  0.39281218536E+01  0.48031081606E+02  0.51100000000E-03 0. -1.
         23    2    1    0    0    0 -0.12173780114E+01  0.18292774236E+02  0.21928021984E+02  0.96417737202E+02  0.92083843863E+02 0.  0.
         11    1    3    3    0    0  0.44671365583E+02  0.46627386520E+01  0.17999900131E+02  0.48386655596E+02  0.51100000000E-03 0.  1.
         22    1    1    0    0    0  0.12173780114E+01 -0.18292774236E+02 -0.21928021984E+02  0.28582262798E+02  0.00000000000E+00 0. -1.
</event>
<event>
 5    1  0.1099741E-009  0.9118800E+02  0.7818608E-02  0.1130116E+00
         25   -1    0    0    0    0  0.00000000000E+00  0.00000000000E+00  0.99999998245E-14  0.12500000000E+03  0.12500000000E+03 0.  0.
        -11    1    3    3    0    0  0.32719871275E+02 -0.33964404183E+01  0.18110312904E+02  0.37551420979E+02  0.51100000000E-03 0.  1.
         23    2    1    0    0    0 -0.20968650687E+02  0.17774217019E+02  0.21594138590E+01  0.97427002875E+02  0.93443837243E+02 0.  0.
         11    1    3    3    0    0 -0.53688521962E+02  0.21170657437E+02 -0.15950899045E+02  0.59875581896E+02  0.51100000000E-03 0. -1.
         22    1    1    0    0    0  0.20968650687E+02 -0.17774217019E+02 -0.21594138590E+01  0.27572997125E+02  0.00000000000E+00 0. -1.
</event>
<event>
 5    1  0.1099741E-009  0.9118800E+02  0.7818608E-02  0.1130116E+00
         25   -1    0    0    0    0  0.00000000000E+00  0.00000000000E+00  0.99999998245E-14  0.12500000000E+03  0.12500000000E+03 0.  0.
        -11    1    3    3    0    0  0.17688834036E+02 -0.52083375235E+02  0.20121290507E+02  0.58569950976E+02  0.51100000000E-03 0.  1.
         23    2    1    0    0    0  0.92066091293E+01 -0.26352889998E+02 -0.62675064526E+01  0.96390244670E+02  0.92046516324E+02 0.  0.
         11    1    3    3    0    0 -0.84822249063E+01  0.25730485237E+02 -0.26388796959E+02  0.37820293694E+02  0.51100000000E-03 0. -1.
         22    1    1    0    0    0 -0.92066091293E+01  0.26352889998E+02  0.62675064526E+01  0.28609755330E+02  0.00000000000E+00 0.  1.
</event>
<event>
 5    1  0.1099741E-009  0.9118800E+02  0.7818608E-02  0.1130116E+00
         25   -1    0    0    0    0  0.00000000000E+00  0.00000000000E+00  0.99999998245E-14  0.12500000000E+03  0.12500000000E+03 0.  0.
        -11    1    3    3    0    0  0.75809724189E+01  0.26868434517E+02  0.28612584510E+02  0.39975791534E+02  0.51100000000E-03 0.  1.
         23    2    1    0    0    0 -0.12802396674E+02 -0.22601660633E+02  0.14238605874E+02  0.95377806948E+02  0.90661192012E+02 0.  0.
         11    1    3    3    0    0 -0.20383369093E+02 -0.49470095150E+02 -0.14373978636E+02  0.55402015413E+02  0.51100000000E-03 0. -1.
         22    1    1    0    0    0  0.12802396674E+02  0.22601660633E+02 -0.14238605874E+02  0.29622193052E+02  0.00000000000E+00 0. -1.
</event>
<event>
 5    1  0.1099741E-009  0.9118800E+02  0.7818608E-02  0.1130116E+00
         25   -1    0    0    0    0  0.00000000000E+00  0.00000000000E+00  0.99999998245E-14  0.12500000000E+03  0.12500000000E+03 0.  0.
        -11    1    3    3    0    0 -0.32421848252E+02 -0.37278368814E+02 -0.19088353014E+02  0.52964311065E+02  0.51100000000E-03 0.  1.
         23    2    1    0    0    0 -0.23192991277E+02  0.48078535094E+01 -0.16510164996E+02  0.96127593659E+02  0.91689140113E+02 0.  0.
         11    1    3    3    0    0  0.92288569749E+01  0.42086222324E+02  0.25781880183E+01  0.43163282594E+02  0.51100000000E-03 0. -1.
         22    1    1    0    0    0  0.23192991277E+02 -0.48078535094E+01  0.16510164996E+02  0.28872406341E+02  0.00000000000E+00 0.  1.
</event>
<event>
 5    1  0.1099741E-009  0.9118800E+02  0.7818608E-02  0.1130116E+00
         25   -1    0    0    0    0  0.00000000000E+00  0.00000000000E+00  0.99999998245E-14  0.12500000000E+03  0.12500000000E+03 0.  0.
        -11    1    3    3    0    0  0.23925184056E+02 -0.17539668806E+02 -0.13567830049E+02  0.32621165314E+02  0.51100000000E-03 0. -1.
         23    2    1    0    0    0 -0.17874486171E+02  0.21827879437E+02  0.10521563614E+02  0.94889256444E+02  0.89985077157E+02 0.  0.
         11    1    3    3    0    0 -0.41799670227E+02  0.39367548243E+02  0.24089393663E+02  0.62268091131E+02  0.51100000000E-03 0.  1.
         22    1    1    0    0    0  0.17874486171E+02 -0.21827879437E+02 -0.10521563614E+02  0.30110743556E+02  0.00000000000E+00 0.  1.
</event>
<event>
 5    1  0.1099741E-009  0.9118800E+02  0.7818608E-02  0.1130116E+00
         25   -1    0    0    0    0  0.00000000000E+00  0.00000000000E+00  0.99999998245E-14  0.12500000000E+03  0.12500000000E+03 0.  0.
        -11    1    3    3    0    0  0.53251149141E+02  0.17225839164E+02 -0.14700921647E+01  0.55987280618E+02  0.51100000000E-03 0. -1.
         23    2    1    0    0    0  0.14136087582E+02  0.24794530415E+02  0.39202289887E+01  0.96190871135E+02  0.91775365888E+02 0.  0.
         11    1    3    3    0    0 -0.39115061560E+02  0.75686912512E+01  0.53903211534E+01  0.40203590517E+02  0.51100000000E-03 0.  1.
         22    1    1    0    0    0 -0.14136087582E+02 -0.24794530415E+02 -0.39202289887E+01  0.28809128865E+02  0.00000000000E+00 0. -1.
</event>
<event>
 5    1  0.1099741E-009  0.9118800E+02  0.7818608E-02  0.1130116E+00
         25   -1    0    0    0    0  0.00000000000E+00  0.00000000000E+00  0.99999998245E-14  0.12500000000E+03  0.12500000000E+03 0.  0.
        -11    1    3    3    0    0  0.80153142788E+01  0.56289699078E+02  0.20642299025E+02  0.60488676581E+02  0.51100000000E-03 0.  1.
         23    2    1    0    0    0  0.19605439737E+01  0.27453065298E+02 -0.16362387724E+01  0.97428423979E+02  0.93445738238E+02 0.  0.
         11    1    3    3    0    0 -0.60547703052E+01 -0.28836633780E+02 -0.22278537797E+02  0.36939747398E+02  0.51100000000E-03 0. -1.
         22    1    1    0    0    0 -0.19605439737E+01 -0.27453065298E+02  0.16362387724E+01  0.27571576021E+02  0.00000000000E+00 0.  1.
</event>
<event>
 5    1  0.1099741E-009  0.9118800E+02  0.7818608E-02  0.1130116E+00
         25   -1    0    0    0    0  0.00000000000E+00  0.00000000000E+00  0.99999998245E-14  0.12500000000E+03  0.12500000000E+03 0.  0.
        -11    1    3    3    0    0  0.83263781015E+01  0.18765581959E+02  0.12963818150E+02  0.24280366963E+02  0.51100000000E-03 0. -1.
         23    2    1    0    0    0 -0.35563580399E+02  0.59449066182E+01  0.34744501900E+02  0.74927147297E+02  0.55738557789E+02 0.  0.
         11    1    3    3    0    0 -0.43889958501E+02 -0.12820675341E+02  0.21780683750E+02  0.50646780335E+02  0.51100000000E-03 0.  1.
         22    1    1    0    0    0  0.35563580399E+02 -0.59449066182E+01 -0.34744501900E+02  0.50072852703E+02  0.00000000000E+00 0. -1.
</event>
<event>
 5    1  0.1099741E-009  0.9118800E+02  0.7818608E-02  0.1130116E+00
         25   -1    0    0    0    0  0.00000000000E+00  0.00000000000E+00  0.99999998245E-14  0.12500000000E+03  0.12500000000E+03 0.  0.
        -11    1    3    3    0    0 -0.16336934937E+02 -0.79530832680E+01 -0.57995122385E+02  0.60774840167E+02  0.51100000000E-03 0.  1.
         23    2    1    0    0    0 -0.65718887291E+00  0.40670106024E+01 -0.28042181730E+02  0.96656809836E+02  0.92407805185E+02 0.  0.
         11    1    3    3    0    0  0.15679746064E+02  0.12020093870E+02  0.29952940654E+02  0.35881969670E+02  0.51100000000E-03 0. -1.
         22    1    1    0    0    0  0.65718887291E+00 -0.40670106024E+01  0.28042181730E+02  0.28343190164E+02  0.00000000000E+00 0.  1.
</event>
<event>
 5    1  0.1099741E-009  0.9118800E+02  0.7818608E-02  0.1130116E+00
         25   -1    0    0    0    0  0.00000000000E+00  0.00000000000E+00  0.99999998245E-14  0.12500000000E+03  0.12500000000E+03 0.  0.
        -11    1    3    3    0    0  0.32997713064E+02 -0.11919149632E+02  0.45166906103E+02  0.57192347413E+02  0.51100000000E-03 0.  1.
         23    2    1    0    0    0  0.11622040188E+02  0.12044893615E+02  0.24316182667E+02  0.95480040314E+02  0.90802037854E+02 0.  0.
         11    1    3    3    0    0 -0.21375672875E+02  0.23964043247E+02 -0.20850723436E+02  0.38287692901E+02  0.51100000000E-03 0. -1.
         22    1    1    0    0    0 -0.11622040188E+02 -0.12044893615E+02 -0.24316182667E+02  0.29519959686E+02  0.00000000000E+00 0.  1.
</event>
<event>
 5    1  0.1099741E-009  0.9118800E+02  0.7818608E-02  0.1130116E+00
         25   -1    0    0    0    0  0.00000000000E+00  0.00000000000E+00  0.99999998245E-14  0.12500000000E+03  0.12500000000E+03 0.  0.
        -11    1    3    3    0    0  0.23161260682E+02  0.83079679209E+01 -0.19402480922E+02  0.31335644138E+02  0.51100000000E-03 0. -1.
         23    2    1    0    0    0 -0.13210272433E+02 -0.25498230127E+02  0.15818168734E+02  0.92214553541E+02  0.86189549165E+02 0.  0.
         11    1    3    3    0    0 -0.36371533115E+02 -0.33806198048E+02  0.35220649656E+02  0.60878909403E+02  0.51100000000E-03 0.  1.
         22    1    1    0    0    0  0.13210272433E+02  0.25498230127E+02 -0.15818168734E+02  0.32785446459E+02  0.00000000000E+00 0.  1.
</event>
<event>
 5    1  0.1099741E-009  0.9118800E+02  0.7818608E-02  0.1130116E+00
         25   -1    0    0    0    0  0.00000000000E+00  0.00000000000E+00  0.99999998245E-14  0.12500000000E+03  0.12500000000E+03 0.  0.
        -11    1    3    3    0    0 -0.53774676858E+01  0.15567167210E+02 -0.55730672852E+02  0.58113352600E+02  0.51100000000E-03 0. -1.
         23    2    1    0    0    0  0.13878235546E+02  0.94064463094E+01 -0.24880177982E+02  0.94998168215E+02  0.90136241622E+02 0.  0.
         11    1    3    3    0    0  0.19255703232E+02 -0.61607209005E+01  0.30850494870E+02  0.36884815615E+02  0.51100000000E-03 0.  1.
         22    1    1    0    0    0 -0.13878235546E+02 -0.94064463094E+01  0.24880177982E+02  0.30001831785E+02  0.00000000000E+00 0. -1.
</event>
<event>
 5    1  0.1099741E-009  0.9118800E+02  0.7818608E-02  0.1130116E+00
         25   -1    0    0    0    0  0.00000000000E+00  0.00000000000E+00  0.99999998245E-14  0.12500000000E+03  0.12500000000E+03 0.  0.
        -11    1    3    3    0    0  0.46374722296E+02 -0.28746312902E+02 -0.99283188394E+01  0.55457523284E+02  0.51100000000E-03 0.  1.
         23    2    1    0    0    0  0.30109859928E+02  0.52576465568E+01 -0.89547025573E-02  0.94434552311E+02  0.89351206359E+02 0.  0.
         11    1    3    3    0    0 -0.16264862368E+02  0.34003959458E+02  0.99193641368E+01  0.38977029028E+02  0.51100000000E-03 0. -1.
         22    1    1    0    0    0 -0.30109859928E+02 -0.52576465568E+01  0.89547025573E-02  0.30565447689E+02  0.00000000000E+00 0.  1.
</event>
<event>
 5    1  0.1099741E-009  0.9118800E+02  0.7818608E-02  0.1130116E+00
         25   -1    0    0    0    0  0.00000000000E+00  0.00000000000E+00  0.99999998245E-14  0.12500000000E+03  0.12500000000E+03 0.  0.
        -11    1    3    3    0    0  0.78901111226E+01  0.44903660589E+02 -0.24469569757E+02  0.51743138987E+02  0.51100000000E-03 0.  1.
         23    2    1    0    0    0  0.26108743586E+02  0.79095284345E+01 -0.53370941306E+01  0.97202307551E+02  0.93142776896E+02 0.  0.
         11    1    3    3    0    0  0.18218632464E+02 -0.36994132155E+02  0.19132475627E+02  0.45459168565E+02  0.51100000000E-03 0. -1.
         22    1    1    0    0    0 -0.26108743586E+02 -0.79095284345E+01  0.53370941306E+01  0.27797692449E+02  0.00000000000E+00 0.  1.
</event>
<event>
 5    1  0.1099741E-009  0.9118800E+02  0.7818608E-02  0.1130116E+00
         25   -1    0    0    0    0  0.00000000000E+00  0.00000000000E+00  0.99999998245E-14  0.12500000000E+03  0.12500000000E+03 0.  0.
        -11    1    3    3    0    0 -0.34416419799E+02 -0.24831919426E+02  0.37427605370E+02  0.56585685629E+02  0.51100000000E-03 0.  1.
         23    2    1    0    0    0 -0.27194405381E+02 -0.11600757120E+02  0.16737137376E+01  0.95387256671E+02  0.90674219973E+02 0.  0.
         11    1    3    3    0    0  0.72220144178E+01  0.13231162305E+02 -0.35753891632E+02  0.38801571042E+02  0.51100000000E-03 0. -1.
         22    1    1    0    0    0  0.27194405381E+02  0.11600757120E+02 -0.16737137376E+01  0.29612743329E+02  0.00000000000E+00 0.  1.
</event>
<event>
 5    1  0.1099741E-009  0.9118800E+02  0.7818608E-02  0.1130116E+00
         25   -1    0    0    0    0  0.00000000000E+00  0.00000000000E+00  0.99999998245E-14  0.12500000000E+03  0.12500000000E+03 0.  0.
        -11    1    3    3    0    0 -0.36868557156E+02 -0.25838723400E+02  0.26538956294E+02  0.52261327338E+02  0.51100000000E-03 0.  1.
         23    2    1    0    0    0  0.25034666834E+00 -0.38381935714E+01  0.29252633229E+02  0.95495577380E+02  0.90823423988E+02 0.  0.
         11    1    3    3    0    0  0.37118903824E+02  0.22000529829E+02  0.27136769345E+01  0.43234250041E+02  0.51100000000E-03 0. -1.
         22    1    1    0    0    0 -0.25034666834E+00  0.38381935714E+01 -0.29252633229E+02  0.29504422620E+02  0.00000000000E+00 0.  1.
</event>
<event>
 5    1  0.1099741E-009  0.9118800E+02  0.7818608E-02  0.1130116E+00
         25   -1    0    0    0    0  0.00000000000E+00  0.00000000000E+00  0.99999998245E-14  0.12500000000E+03  0.12500000000E+03 0.  0.
        -11    1    3    3    0    0 -0.29855348042E+02  0.16992009223E+02 -0.19967706688E+02  0.39733858292E+02  0.51100000000E-03 0. -1.
         23    2    1    0    0    0 -0.56030857793E+00 -0.26420286377E+02  0.55585833956E+01  0.97995494315E+02  0.94201239794E+02 0.  0.
         11    1    3    3    0    0  0.29295039464E+02 -0.43412295599E+02  0.25526290083E+02  0.58261636023E+02  0.51100000000E-03 0.  1.
         22    1    1    0    0    0  0.56030857793E+00  0.26420286377E+02 -0.55585833956E+01  0.27004505685E+02  0.00000000000E+00 0.  1.
</event>
<event>
 5    1  0.1099741E-009  0.9118800E+02  0.7818608E-02  0.1130116E+00
         25   -1    0    0    0    0  0.00000000000E+00  0.00000000000E+00  0.99999998245E-14  0.12500000000E+03  0.12500000000E+03 0.  0.
        -11    1    3    3    0    0 -0.34627090317E+02  0.40245379189E+02  0.31826498406E+02  0.61900338698E+02  0.51100000000E-03 0. -1.
         23    2    1    0    0    0 -0.11734051009E+02  0.22996085695E+02  0.15479677972E+02  0.94898034275E+02  0.89997269785E+02 0.  0.
         11    1    3    3    0    0  0.22893039308E+02 -0.17249293494E+02 -0.16346820434E+02  0.32997695577E+02  0.51100000000E-03 0.  1.
         22    1    1    0    0    0  0.11734051009E+02 -0.22996085695E+02 -0.15479677972E+02  0.30101965725E+02  0.00000000000E+00 0. -1.
</event>
<event>
 5    1  0.1099741E-009  0.9118800E+02  0.7818608E-02  0.1130116E+00
         25   -1    0    0    0    0  0.00000000000E+00  0.00000000000E+00  0.99999998245E-14  0.12500000000E+03  0.12500000000E+03 0.  0.
        -11    1    3    3    0    0  0.29960941942E+02 -0.74772075689E+01 -0.39268701661E+02  0.49955956656E+02  0.51100000000E-03 0.  1.
         23    2    1    0    0    0 -0.11440226337E+02 -0.14874805516E+02 -0.23627521077E+02  0.94827191546E+02  0.89898820272E+02 0.  0.
         11    1    3    3    0    0 -0.41401168278E+02 -0.73975979469E+01  0.15641180583E+02  0.44871234889E+02  0.51100000000E-03 0. -1.
         22    1    1    0    0    0  0.11440226337E+02  0.14874805516E+02  0.23627521077E+02  0.30172808454E+02  0.00000000000E+00 0.  1.
</event>
<event>
 5    1  0.1099741E-009  0.9118800E+02  0.7818608E-02  0.1130116E+00
         25   -1    0    0    0    0  0.00000000000E+00  0.00000000000E+00  0.99999998245E-14  0.12500000000E+03  0.12500000000E+03 0.  0.
        -11    1    3    3    0    0  0.56352570806E+02  0.16760307846E+02  0.74275511467E+01  0.59259502797E+02  0.51100000000E-03 0.  1.
         23    2    1    0    0    0  0.28299576233E+02 -0.29306722286E+01 -0.57399771332E+01  0.95975834341E+02  0.91482012359E+02 0.  0.
         11    1    3    3    0    0 -0.28052994572E+02 -0.19690980075E+02 -0.13167528280E+02  0.36716331544E+02  0.51100000000E-03 0. -1.
         22    1    1    0    0    0 -0.28299576233E+02  0.29306722286E+01  0.57399771332E+01  0.29024165659E+02  0.00000000000E+00 0.  1.
</event>
<event>
 5    1  0.1099741E-009  0.9118800E+02  0.7818608E-02  0.1130116E+00
         25   -1    0    0    0    0  0.00000000000E+00  0.00000000000E+00  0.99999998245E-14  0.12500000000E+03  0.12500000000E+03 0.  0.
        -11    1    3    3    0    0 -0.28486728415E+01  0.13053757111E+02  0.51757555164E+02  0.53454279796E+02  0.51100000000E-03 0.  1.
         23    2    1    0    0    0  0.93631949468E+01 -0.15328671833E+02  0.24245340233E+02  0.94825936256E+02  0.89897074836E+02 0.  0.
         11    1    3    3    0    0  0.12211867788E+02 -0.28382428944E+02 -0.27512214931E+02  0.41371656461E+02  0.51100000000E-03 0. -1.
         22    1    1    0    0    0 -0.93631949468E+01  0.15328671833E+02 -0.24245340233E+02  0.30174063744E+02  0.00000000000E+00 0.  1.
</event>
<event>
 5    1  0.1099741E-009  0.9118800E+02  0.7818608E-02  0.1130116E+00
         25   -1    0    0    0    0  0.00000000000E+00  0.00000000000E+00  0.99999998245E-14  0.12500000000E+03  0.12500000000E+03 0.  0.
        -11    1    3    3    0    0  0.13944401343E+02 -0.34991304928E+02 -0.86033804229E+01  0.38637493505E+02  0.51100000000E-03 0. -1.
         23    2    1    0    0    0 -0.64156827155E+01  0.17306796978E+02 -0.21946719711E+02  0.96323446643E+02  0.91955759258E+02 0.  0.
         11    1    3    3    0    0 -0.20360084059E+02  0.52298101906E+02 -0.13343339288E+02  0.57685953138E+02  0.51100000000E-03 0.  1.
         22    1    1    0    0    0  0.64156827155E+01 -0.17306796978E+02  0.21946719711E+02  0.28676553357E+02  0.00000000000E+00 0.  1.
</event>
<event>
 5    1  0.1099741E-009  0.9118800E+02  0.7818608E-02  0.1130116E+00
         25   -1    0    0    0    0  0.00000000000E+00  0.00000000000E+00  0.99999998245E-14  0.12500000000E+03  0.12500000000E+03 0.  0.
        -11    1    3    3    0    0 -0.18040628542E+02 -0.84830426413E+01  0.56060534230E+02  0.59499662093E+02  0.51100000000E-03 0.  1.
         23    2    1    0    0    0 -0.12756966938E+02  0.89197141401E+01  0.28634741291E+02  0.92407824335E+02  0.86469393913E+02 0.  0.
         11    1    3    3    0    0  0.52836616047E+01  0.17402756781E+02 -0.27425792940E+02  0.32908162242E+02  0.51100000000E-03 0. -1.
         22    1    1    0    0    0  0.12756966938E+02 -0.89197141401E+01 -0.28634741291E+02  0.32592175665E+02  0.00000000000E+00 0.  1.
</event>
<event>
 5    1  0.1099741E-009  0.9118800E+02  0.7818608E-02  0.1130116E+00
         25   -1    0    0    0    0  0.00000000000E+00  0.00000000000E+00  0.99999998245E-14  0.12500000000E+03  0.12500000000E+03 0.  0.
        -11    1    3    3    0    0 -0.43800813500E+02  0.17777265652E+02  0.36292101907E+02  0.59595797657E+02  0.51100000000E-03 0. -1.
         23    2    1    0    0    0 -0.20906036249E+02  0.18357706415E+02  0.78908501430E+01  0.96080573096E+02  0.91625014456E+02 0.  0.
         11    1    3    3    0    0  0.22894777251E+02  0.58044076272E+00 -0.28401251764E+02  0.36484775439E+02  0.51100000000E-03 0.  1.
         22    1    1    0    0    0  0.20906036249E+02 -0.18357706415E+02 -0.78908501430E+01  0.28919426904E+02  0.00000000000E+00 0. -1.
</event>
<event>
 5    1  0.1099741E-009  0.9118800E+02  0.7818608E-02  0.1130116E+00
         25   -1    0    0    0    0  0.00000000000E+00  0.00000000000E+00  0.99999998245E-14  0.12500000000E+03  0.12500000000E+03 0.  0.
        -11    1    3    3    0    0  0.23031160933E+02 -0.43339794879E+02 -0.29928335799E+02  0.57484584699E+02  0.51100000000E-03 0.  1.
         23    2    1    0    0    0 -0.65277916508E+01 -0.24239221022E+02 -0.15336847391E+02  0.95582814759E+02  0.90943409271E+02 0.  0.
         11    1    3    3    0    0 -0.29558952584E+02  0.19100573856E+02  0.14591488408E+02  0.38098230060E+02  0.51100000000E-03 0. -1.
         22    1    1    0    0    0  0.65277916508E+01  0.24239221022E+02  0.15336847391E+02  0.29417185241E+02  0.00000000000E+00 0.  1.
</event>
<event>
 5    1  0.1099741E-009  0.9118800E+02  0.7818608E-02  0.1130116E+00
         25   -1    0    0    0    0  0.00000000000E+00  0.00000000000E+00  0.99999998245E-14  0.12500000000E+03  0.12500000000E+03 0.  0.
        -11    1    3    3    0    0  0.12592446796E+02  0.47337664277E+02  0.14512633286E+02  0.51088557434E+02  0.51100000000E-03 0.  1.
         23    2    1    0    0    0 -0.20144140974E+02  0.20351600331E+02 -0.12239608807E+01  0.96338664863E+02  0.91976443809E+02 0.  0.
         11    1    3    3    0    0 -0.32736587769E+02 -0.26986063946E+02 -0.15736594167E+02  0.45250107429E+02  0.51100000000E-03 0. -1.
         22    1    1    0    0    0  0.20144140974E+02 -0.20351600331E+02  0.12239608807E+01  0.28661335137E+02  0.00000000000E+00 0.  1.
</event>
<event>
 5    1  0.1099741E-009  0.9118800E+02  0.7818608E-02  0.1130116E+00
         25   -1    0    0    0    0  0.00000000000E+00  0.00000000000E+00  0.99999998245E-14  0.12500000000E+03  0.12500000000E+03 0.  0.
        -11    1    3    3    0    0  0.24394008436E+02 -0.48294216363E+02  0.17313875322E+02  0.56808179522E+02  0.51100000000E-03 0.  1.
         23    2    1    0    0    0  0.26394415640E+00 -0.19172348860E+02  0.23003045355E+02  0.95053569113E+02  0.90213038293E+02 0.  0.
         11    1    3    3    0    0 -0.24130064280E+02  0.29121867503E+02  0.56891700330E+01  0.38245389591E+02  0.51100000000E-03 0. -1.
         22    1    1    0    0    0 -0.26394415640E+00  0.19172348860E+02 -0.23003045355E+02  0.29946430887E+02  0.00000000000E+00 0.  1.
</event>
<event>
 5    1  0.1099741E-009  0.9118800E+02  0.7818608E-02  0.1130116E+00
         25   -1    0    0    0    0  0.00000000000E+00  0.00000000000E+00  0.99999998245E-14  0.12500000000E+03  0.12500000000E+03 0.  0.
        -11    1    3    3    0    0 -0.30733647054E+02 -0.15619808304E+02  0.50666234535E+02  0.61282973125E+02  0.51100000000E-03 0.  1.
         23    2    1    0    0    0 -0.23031947520E+02 -0.30051522357E+01  0.25192245720E+02  0.90734116224E+02  0.84015052557E+02 0.  0.
         11    1    3    3    0    0  0.77016995349E+01  0.12614656069E+02 -0.25473988815E+02  0.29451143100E+02  0.51100000000E-03 0. -1.
         22    1    1    0    0    0  0.23031947520E+02  0.30051522357E+01 -0.25192245720E+02  0.34265883776E+02  0.00000000000E+00 0.  1.
</event>
<event>
 5    1  0.1099741E-009  0.9118800E+02  0.7818608E-02  0.1130116E+00
         25   -1    0    0    0    0  0.00000000000E+00  0.00000000000E+00  0.99999998245E-14  0.12500000000E+03  0.12500000000E+03 0.  0.
        -11    1    3    3    0    0 -0.14459310552E+02 -0.33382868056E+02 -0.32963498334E+02  0.49092563224E+02  0.51100000000E-03 0. -1.
         23    2    1    0    0    0 -0.28174909955E+02 -0.44849415122E+01  0.19000017956E+01  0.96407164216E+02  0.92069490354E+02 0.  0.
         11    1    3    3    0    0 -0.13715599403E+02  0.28897926543E+02  0.34863500129E+02  0.47314600992E+02  0.51100000000E-03 0.  1.
         22    1    1    0    0    0  0.28174909955E+02  0.44849415122E+01 -0.19000017956E+01  0.28592835784E+02  0.00000000000E+00 0. -1.
</event>
<event>
 5    1  0.1099741E-009  0.9118800E+02  0.7818608E-02  0.1130116E+00
         25   -1    0    0    0    0  0.00000000000E+00  0.00000000000E+00  0.99999998245E-14  0.12500000000E+03  0.12500000000E+03 0.  0.
        -11    1    3    3    0    0  0.39806882837E+02 -0.23642673345E+01 -0.32257723570E+02  0.51290724418E+02  0.51100000000E-03 0.  1.
         23    2    1    0    0    0  0.26881011774E+02 -0.79162551303E+01  0.95446022536E+01  0.95396700835E+02  0.90687238401E+02 0.  0.
         11    1    3    3    0    0 -0.12925871063E+02 -0.55519877958E+01  0.41802325823E+02  0.44105976417E+02  0.51100000000E-03 0. -1.
         22    1    1    0    0    0 -0.26881011774E+02  0.79162551303E+01 -0.95446022536E+01  0.29603299165E+02  0.00000000000E+00 0.  1.
</event>
<event>
 5    1  0.1099741E-009  0.9118800E+02  0.7818608E-02  0.1130116E+00
         25   -1    0    0    0    0  0.00000000000E+00  0.00000000000E+00  0.99999998245E-14  0.12500000000E+03  0.12500000000E+03 0.  0.
        -11    1    3    3    0    0  0.47758267552E+02  0.14761193592E+01 -0.12634726083E+02  0.49423348242E+02  0.51100000000E-03 0.  1.
         23    2    1    0    0    0  0.11488766202E+02  0.17602542333E+02  0.16181111461E+02  0.98473228362E+02  0.94833048514E+02 0.  0.
         11    1    3    3    0    0 -0.36269501350E+02  0.16126422974E+02  0.28815837544E+02  0.49049880120E+02  0.51100000000E-03 0. -1.
         22    1    1    0    0    0 -0.11488766202E+02 -0.17602542333E+02 -0.16181111461E+02  0.26526771638E+02  0.00000000000E+00 0. -1.
</event>
<event>
 5    1  0.1099741E-009  0.9118800E+02  0.7818608E-02  0.1130116E+00
         25   -1    0    0    0    0  0.00000000000E+00  0.00000000000E+00  0.99999998245E-14  0.12500000000E+03  0.12500000000E+03 0.  0.
        -11    1    3    3    0    0  0.24818197426E+02 -0.19625400246E+02 -0.45058711439E+02  0.55058030614E+02  0.51100000000E-03 0. -1.
         23    2    1    0    0    0 -0.52946255957E+01  0.12036731365E+01 -0.29774073582E+02  0.94734882342E+02  0.89770376993E+02 0.  0.
         11    1    3    3    0    0 -0.30112823022E+02  0.20829073382E+02  0.15284637857E+02  0.39676851728E+02  0.51100000000E-03 0.  1.
         22    1    1    0    0    0  0.52946255957E+01 -0.12036731365E+01  0.29774073582E+02  0.30265117658E+02  0.00000000000E+00 0. -1.
</event>
<event>
 5    1  0.1099741E-009  0.9118800E+02  0.7818608E-02  0.1130116E+00
         25   -1    0    0    0    0  0.00000000000E+00  0.00000000000E+00  0.99999998245E-14  0.12500000000E+03  0.12500000000E+03 0.  0.
        -11    1    3    3    0    0  0.47775171505E+02  0.17949611011E+02 -0.12005112074E+02  0.52428792318E+02  0.51100000000E-03 0.  1.
         23    2    1    0    0    0  0.68017009111E+01  0.27902727761E+02 -0.98103040474E+01  0.94650907472E+02  0.89653370644E+02 0.  0.
         11    1    3    3    0    0 -0.40973470593E+02  0.99531167504E+01  0.21948080266E+01  0.42222115154E+02  0.51100000000E-03 0. -1.
         22    1    1    0    0    0 -0.68017009111E+01 -0.27902727761E+02  0.98103040474E+01  0.30349092528E+02  0.00000000000E+00 0. -1.
</event>
<event>
 5    1  0.1099741E-009  0.9118800E+02  0.7818608E-02  0.1130116E+00
         25   -1    0    0    0    0  0.00000000000E+00  0.00000000000E+00  0.99999998245E-14  0.12500000000E+03  0.12500000000E+03 0.  0.
        -11    1    3    3    0    0 -0.15246743786E+02  0.20458238801E+02 -0.20905362136E+00  0.25515611586E+02  0.51100000000E-03 0. -1.
         23    2    1    0    0    0 -0.28549851063E+01 -0.38788574838E+02 -0.17932412968E+01  0.86065180208E+02  0.76754772177E+02 0.  0.
         11    1    3    3    0    0  0.12391758679E+02 -0.59246813639E+02 -0.15841876755E+01  0.60549568622E+02  0.51100000000E-03 0.  1.
         22    1    1    0    0    0  0.28549851063E+01  0.38788574838E+02  0.17932412968E+01  0.38934819792E+02  0.00000000000E+00 0.  1.
</event>
<event>
 5    1  0.1099741E-009  0.9118800E+02  0.7818608E-02  0.1130116E+00
         25   -1    0    0    0    0  0.00000000000E+00  0.00000000000E+00  0.99999998245E-14  0.12500000000E+03  0.12500000000E+03 0.  0.
        -11    1    3    3    0    0 -0.13905901416E+02  0.52032747369E+02  0.21136853027E+02  0.57857993822E+02  0.51100000000E-03 0. -1.
         23    2    1    0    0    0 -0.17475342309E+02  0.14400419849E+02  0.18514857685E+02  0.95750048962E+02  0.91172979771E+02 0.  0.
         11    1    3    3    0    0 -0.35694408937E+01 -0.37632327520E+02 -0.26219953418E+01  0.37892055140E+02  0.51100000000E-03 0.  1.
         22    1    1    0    0    0  0.17475342309E+02 -0.14400419849E+02 -0.18514857685E+02  0.29249951038E+02  0.00000000000E+00 0. -1.
</event>
<event>
 5    1  0.1099741E-009  0.9118800E+02  0.7818608E-02  0.1130116E+00
         25   -1    0    0    0    0  0.00000000000E+00  0.00000000000E+00  0.99999998245E-14  0.12500000000E+03  0.12500000000E+03 0.  0.
        -11    1    3    3    0    0  0.25990972394E+02 -0.20233471534E+02 -0.42711517087E+02  0.53936979044E+02  0.51100000000E-03 0.  1.
         23    2    1    0    0    0  0.11188291304E+02  0.12159642646E+02 -0.28035508944E+02  0.92457342866E+02  0.86540948207E+02 0.  0.
         11    1    3    3    0    0 -0.14802681089E+02  0.32393114180E+02  0.14676008143E+02  0.38520363822E+02  0.51100000000E-03 0. -1.
         22    1    1    0    0    0 -0.11188291304E+02 -0.12159642646E+02  0.28035508944E+02  0.32542657134E+02  0.00000000000E+00 0. -1.
</event>
<event>
 5    1  0.1099741E-009  0.9118800E+02  0.7818608E-02  0.1130116E+00
         25   -1    0    0    0    0  0.00000000000E+00  0.00000000000E+00  0.99999998245E-14  0.12500000000E+03  0.12500000000E+03 0.  0.
        -11    1    3    3    0    0  0.28952964067E+02  0.24083506353E+02  0.47820601429E+01  0.37962580339E+02  0.51100000000E-03 0.  1.
         23    2    1    0    0    0  0.26264000716E+02 -0.25558250371E+02 -0.27733230997E+01  0.88247949490E+02  0.80230838040E+02 0.  0.
         11    1    3    3    0    0 -0.26889633507E+01 -0.49641756724E+02 -0.75553832426E+01  0.50285369152E+02  0.51100000000E-03 0. -1.
         22    1    1    0    0    0 -0.26264000716E+02  0.25558250371E+02  0.27733230997E+01  0.36752050510E+02  0.00000000000E+00 0.  1.
</event>
<event>
 5    1  0.1099741E-009  0.9118800E+02  0.7818608E-02  0.1130116E+00
         25   -1    0    0    0    0  0.00000000000E+00  0.00000000000E+00  0.99999998245E-14  0.12500000000E+03  0.12500000000E+03 0.  0.
        -11    1    3    3    0    0  0.51525506376E+02 -0.10372395897E+02 -0.94063519038E+00  0.52567567936E+02  0.51100000000E-03 0.  1.
         23    2    1    0    0    0  0.14535478400E+02 -0.14645524133E+02 -0.21581197032E+02  0.95141674950E+02  0.90335036046E+02 0.  0.
         11    1    3    3    0    0 -0.36990027975E+02 -0.42731282365E+01 -0.20640561842E+02  0.42574107013E+02  0.51100000000E-03 0. -1.
         22    1    1    0    0    0 -0.14535478400E+02  0.14645524133E+02  0.21581197032E+02  0.29858325050E+02  0.00000000000E+00 0.  1.
</event>
<event>
 5    1  0.1099741E-009  0.9118800E+02  0.7818608E-02  0.1130116E+00
         25   -1    0    0    0    0  0.00000000000E+00  0.00000000000E+00  0.99999998245E-14  0.12500000000E+03  0.12500000000E+03 0.  0.
        -11    1    3    3    0    0  0.35127280807E+02 -0.31316775868E+02 -0.99683124200E+01  0.48104402713E+02  0.51100000000E-03 0. -1.
         23    2    1    0    0    0 -0.46330432600E+01 -0.10165544690E+02 -0.26628230024E+02  0.96123261561E+02  0.91683233965E+02 0.  0.
         11    1    3    3    0    0 -0.39760324067E+02  0.21151231177E+02 -0.16659917603E+02  0.48018858848E+02  0.51100000000E-03 0.  1.
         22    1    1    0    0    0  0.46330432600E+01  0.10165544690E+02  0.26628230024E+02  0.28876738439E+02  0.00000000000E+00 0. -1.
</event>
<event>
 5    1  0.1099741E-009  0.9118800E+02  0.7818608E-02  0.1130116E+00
         25   -1    0    0    0    0  0.00000000000E+00  0.00000000000E+00  0.99999998245E-14  0.12500000000E+03  0.12500000000E+03 0.  0.
        -11    1    3    3    0    0  0.10929582062E+02 -0.24047299976E+01  0.37652450185E+02  0.39280344902E+02  0.51100000000E-03 0.  1.
         23    2    1    0    0    0  0.15966915893E+02 -0.14256442125E+02 -0.18387814960E+02  0.96781206897E+02  0.92575924107E+02 0.  0.
         11    1    3    3    0    0  0.50373338311E+01 -0.11851712127E+02 -0.56040265145E+02  0.57500861995E+02  0.51100000000E-03 0. -1.
         22    1    1    0    0    0 -0.15966915893E+02  0.14256442125E+02  0.18387814960E+02  0.28218793103E+02  0.00000000000E+00 0. -1.
</event>
<event>
 5    1  0.1099741E-009  0.9118800E+02  0.7818608E-02  0.1130116E+00
         25   -1    0    0    0    0  0.00000000000E+00  0.00000000000E+00  0.99999998245E-14  0.12500000000E+03  0.12500000000E+03 0.  0.
        -11    1    3    3    0    0 -0.59840243401E+01 -0.56281507324E+02 -0.16766087329E+02  0.59029808559E+02  0.51100000000E-03 0.  1.
         23    2    1    0    0    0 -0.14038281335E+02 -0.24707386715E+02 -0.17506209167E+02  0.91623426471E+02  0.85327935740E+02 0.  0.
         11    1    3    3    0    0 -0.80542569951E+01  0.31574120609E+02 -0.74012183801E+00  0.32593617911E+02  0.51100000000E-03 0. -1.
         22    1    1    0    0    0  0.14038281335E+02  0.24707386715E+02  0.17506209167E+02  0.33376573529E+02  0.00000000000E+00 0.  1.
</event>
<event>
 5    1  0.1099741E-009  0.9118800E+02  0.7818608E-02  0.1130116E+00
         25   -1    0    0    0    0  0.00000000000E+00  0.00000000000E+00  0.99999998245E-14  0.12500000000E+03  0.12500000000E+03 0.  0.
        -11    1    3    3    0    0  0.39442298460E+02  0.23185223883E+01 -0.30528436154E+02  0.49930510394E+02  0.51100000000E-03 0. -1.
         23    2    1    0    0    0  0.82696763088E+01 -0.25352805492E+02 -0.89258489282E+01  0.96878423378E+02  0.92707097056E+02 0.  0.
         11    1    3    3    0    0 -0.31172622152E+02 -0.27671327881E+02  0.21602587226E+02  0.46947912985E+02  0.51100000000E-03 0.  1.
         22    1    1    0    0    0 -0.82696763088E+01  0.25352805492E+02  0.89258489282E+01  0.28121576622E+02  0.00000000000E+00 0. -1.
</event>
<event>
 5    1  0.1099741E-009  0.9118800E+02  0.7818608E-02  0.1130116E+00
         25   -1    0    0    0    0  0.00000000000E+00  0.00000000000E+00  0.99999998245E-14  0.12500000000E+03  0.12500000000E+03 0.  0.
        -11    1    3    3    0    0 -0.79509579799E+01  0.24061188871E+02  0.24565526187E+02  0.35293393430E+02  0.51100000000E-03 0.  1.
         23    2    1    0    0    0 -0.14013633672E+02 -0.13289198102E+02 -0.22281594944E+02  0.95513491422E+02  0.90848075683E+02 0.  0.
         11    1    3    3    0    0 -0.60626756919E+01 -0.37350386973E+02 -0.46847121132E+02  0.60220097992E+02  0.51100000000E-03 0. -1.
         22    1    1    0    0    0  0.14013633672E+02  0.13289198102E+02  0.22281594944E+02  0.29486508578E+02  0.00000000000E+00 0. -1.
</event>
<event>
 5    1  0.1099741E-009  0.9118800E+02  0.7818608E-02  0.1130116E+00
         25   -1    0    0    0    0  0.00000000000E+00  0.00000000000E+00  0.99999998245E-14  0.12500000000E+03  0.12500000000E+03 0.  0.
        -11    1    3    3    0    0  0.20856197347E+02 -0.39246528754E+02 -0.19355821922E+02  0.48475961358E+02  0.51100000000E-03 0. -1.
         23    2    1    0    0    0 -0.16484346935E+02 -0.23581172657E+02  0.50977665098E+01  0.95780270003E+02  0.91214404020E+02 0.  0.
         11    1    3    3    0    0 -0.37340544282E+02  0.15665356097E+02  0.24453588431E+02  0.47304308645E+02  0.51100000000E-03 0.  1.
         22    1    1    0    0    0  0.16484346935E+02  0.23581172657E+02 -0.50977665098E+01  0.29219729997E+02  0.00000000000E+00 0. -1.
</event>
<event>
 5    1  0.1099741E-009  0.9118800E+02  0.7818608E-02  0.1130116E+00
         25   -1    0    0    0    0  0.00000000000E+00  0.00000000000E+00  0.99999998245E-14  0.12500000000E+03  0.12500000000E+03 0.  0.
        -11    1    3    3    0    0  0.21267486916E+02 -0.39331526189E+02 -0.34406678760E+01  0.44845436198E+02  0.51100000000E-03 0.  1.
         23    2    1    0    0    0 -0.21293238469E+02 -0.13960461134E+02 -0.14619312374E+02  0.95639809710E+02  0.91021714044E+02 0.  0.
         11    1    3    3    0    0 -0.42560725385E+02  0.25371065056E+02 -0.11178644498E+02  0.50794373512E+02  0.51100000000E-03 0. -1.
         22    1    1    0    0    0  0.21293238469E+02  0.13960461134E+02  0.14619312374E+02  0.29360190290E+02  0.00000000000E+00 0. -1.
</event>
<event>
 5    1  0.1099741E-009  0.9118800E+02  0.7818608E-02  0.1130116E+00
         25   -1    0    0    0    0  0.00000000000E+00  0.00000000000E+00  0.99999998245E-14  0.12500000000E+03  0.12500000000E+03 0.  0.
        -11    1    3    3    0    0  0.25289896031E+02  0.21942212421E+02 -0.17671765604E+02  0.37859355871E+02  0.51100000000E-03 0.  1.
         23    2    1    0    0    0 -0.46581589415E+01 -0.26540000439E+02 -0.13128450092E+02  0.95026240312E+02  0.90175163310E+02 0.  0.
         11    1    3    3    0    0 -0.29948054972E+02 -0.48482212861E+02  0.45433155122E+01  0.57166884440E+02  0.51100000000E-03 0. -1.
         22    1    1    0    0    0  0.46581589415E+01  0.26540000439E+02  0.13128450092E+02  0.29973759688E+02  0.00000000000E+00 0. -1.
</event>
<event>
 5    1  0.1099741E-009  0.9118800E+02  0.7818608E-02  0.1130116E+00
         25   -1    0    0    0    0  0.00000000000E+00  0.00000000000E+00  0.99999998245E-14  0.12500000000E+03  0.12500000000E+03 0.  0.
        -11    1    3    3    0    0  0.15787372013E+02  0.50143229756E+02 -0.30090126693E+02  0.60572273608E+02  0.51100000000E-03 0. -1.
         23    2    1    0    0    0  0.17012618494E+02  0.18891381655E+02 -0.10385584432E+02  0.97537774073E+02  0.93591898785E+02 0.  0.
         11    1    3    3    0    0  0.12252464815E+01 -0.31251848100E+02  0.19704542261E+02  0.36965500465E+02  0.51100000000E-03 0.  1.
         22    1    1    0    0    0 -0.17012618494E+02 -0.18891381655E+02  0.10385584432E+02  0.27462225927E+02  0.00000000000E+00 0. -1.
</event>
<event>
 5    1  0.1099741E-009  0.9118800E+02  0.7818608E-02  0.1130116E+00
         25   -1    0    0    0    0  0.00000000000E+00  0.00000000000E+00  0.99999998245E-14  0.12500000000E+03  0.12500000000E+03 0.  0.
        -11    1    3    3    0    0  0.21453394730E+02 -0.41735005167E+02  0.39232893092E+02  0.61165993022E+02  0.51100000000E-03 0.  1.
         23    2    1    0    0    0  0.72927053595E+01 -0.13617093485E+02  0.24762114743E+02  0.95814881995E+02  0.91261823885E+02 0.  0.
         11    1    3    3    0    0 -0.14160689371E+02  0.28117911682E+02 -0.14470778349E+02  0.34648888974E+02  0.51100000000E-03 0. -1.
         22    1    1    0    0    0 -0.72927053595E+01  0.13617093485E+02 -0.24762114743E+02  0.29185118005E+02  0.00000000000E+00 0.  1.
</event>
<event>
 5    1  0.1099741E-009  0.9118800E+02  0.7818608E-02  0.1130116E+00
         25   -1    0    0    0    0  0.00000000000E+00  0.00000000000E+00  0.99999998245E-14  0.12500000000E+03  0.12500000000E+03 0.  0.
        -11    1    3    3    0    0 -0.29164734940E+02 -0.30833537132E+02  0.16661665919E+02  0.45594954629E+02  0.51100000000E-03 0.  1.
         23    2    1    0    0    0  0.17603043382E+02 -0.24886598537E+02  0.59212087128E+01  0.93947292619E+02  0.88666922552E+02 0.  0.
         11    1    3    3    0    0  0.46767778322E+02  0.59469385951E+01 -0.10740457206E+02  0.48352337990E+02  0.51100000000E-03 0. -1.
         22    1    1    0    0    0 -0.17603043382E+02  0.24886598537E+02 -0.59212087128E+01  0.31052707381E+02  0.00000000000E+00 0.  1.
</event>
<event>
 5    1  0.1099741E-009  0.9118800E+02  0.7818608E-02  0.1130116E+00
         25   -1    0    0    0    0  0.00000000000E+00  0.00000000000E+00  0.99999998245E-14  0.12500000000E+03  0.12500000000E+03 0.  0.
        -11    1    3    3    0    0 -0.54366724729E+02  0.93624360813E+01  0.99666569545E+01  0.56060059028E+02  0.51100000000E-03 0.  1.
         23    2    1    0    0    0 -0.26281538042E+02  0.13008389374E+02 -0.13383466314E+02  0.92765630043E+02  0.86985099360E+02 0.  0.
         11    1    3    3    0    0  0.28085186687E+02  0.36459532922E+01 -0.23350123268E+02  0.36705571015E+02  0.51100000000E-03 0. -1.
         22    1    1    0    0    0  0.26281538042E+02 -0.13008389374E+02  0.13383466314E+02  0.32234369957E+02  0.00000000000E+00 0.  1.
</event>
<event>
 5    1  0.1099741E-009  0.9118800E+02  0.7818608E-02  0.1130116E+00
         25   -1    0    0    0    0  0.00000000000E+00  0.00000000000E+00  0.99999998245E-14  0.12500000000E+03  0.12500000000E+03 0.  0.
        -11    1    3    3    0    0  0.21600457565E+01  0.16633112914E+02  0.25485892458E+02  0.30509948501E+02  0.51100000000E-03 0.  1.
         23    2    1    0    0    0  0.10291752686E+02 -0.73952788584E+01 -0.30498464996E+02  0.91973242820E+02  0.85838864769E+02 0.  0.
         11    1    3    3    0    0  0.81317069295E+01 -0.24028391772E+02 -0.55984357454E+02  0.61463294319E+02  0.51100000000E-03 0. -1.
         22    1    1    0    0    0 -0.10291752686E+02  0.73952788584E+01  0.30498464996E+02  0.33026757180E+02  0.00000000000E+00 0. -1.
</event>
<event>
 5    1  0.1099741E-009  0.9118800E+02  0.7818608E-02  0.1130116E+00
         25   -1    0    0    0    0  0.00000000000E+00  0.00000000000E+00  0.99999998245E-14  0.12500000000E+03  0.12500000000E+03 0.  0.
        -11    1    3    3    0    0  0.23633402440E+02  0.18303137576E+02  0.18617196441E+02  0.35215657875E+02  0.51100000000E-03 0.  1.
         23    2    1    0    0    0 -0.51694297515E+01  0.18577540273E+01 -0.30238884874E+02  0.94266233351E+02  0.89115421436E+02 0.  0.
         11    1    3    3    0    0 -0.28802832191E+02 -0.16445383549E+02 -0.48856081315E+02  0.59050575476E+02  0.51100000000E-03 0. -1.
         22    1    1    0    0    0  0.51694297515E+01 -0.18577540273E+01  0.30238884874E+02  0.30733766649E+02  0.00000000000E+00 0. -1.
</event>
<event>
 5    1  0.1099741E-009  0.9118800E+02  0.7818608E-02  0.1130116E+00
         25   -1    0    0    0    0  0.00000000000E+00  0.00000000000E+00  0.99999998245E-14  0.12500000000E+03  0.12500000000E+03 0.  0.
        -11    1    3    3    0    0  0.33507666872E+02 -0.11140043806E+01  0.35784421455E+01  0.33716613018E+02  0.51100000000E-03 0. -1.
         23    2    1    0    0    0 -0.22594558060E+02 -0.80085250570E+01 -0.18826184912E+02  0.94519255818E+02  0.89469625877E+02 0.  0.
         11    1    3    3    0    0 -0.56102224932E+02 -0.68945206764E+01 -0.22404627058E+02  0.60802642800E+02  0.51100000000E-03 0.  1.
         22    1    1    0    0    0  0.22594558060E+02  0.80085250570E+01  0.18826184912E+02  0.30480744182E+02  0.00000000000E+00 0.  1.
</event>
<event>
 5    1  0.1099741E-009  0.9118800E+02  0.7818608E-02  0.1130116E+00
         25   -1    0    0    0    0  0.00000000000E+00  0.00000000000E+00  0.99999998245E-14  0.12500000000E+03  0.12500000000E+03 0.  0.
        -11    1    3    3    0    0  0.28608371773E+02 -0.28536085602E+02  0.60014001146E+01  0.40850506981E+02  0.51100000000E-03 0. -1.
         23    2    1    0    0    0 -0.23397448177E+02 -0.62330033423E+01  0.12397347027E+02  0.97797332389E+02  0.93937921508E+02 0.  0.
         11    1    3    3    0    0 -0.52005819950E+02  0.22303082260E+02  0.63959469123E+01  0.56946825408E+02  0.51100000000E-03 0.  1.
         22    1    1    0    0    0  0.23397448177E+02  0.62330033423E+01 -0.12397347027E+02  0.27202667611E+02  0.00000000000E+00 0.  1.
</event>
<event>
 5    1  0.1099741E-009  0.9118800E+02  0.7818608E-02  0.1130116E+00
         25   -1    0    0    0    0  0.00000000000E+00  0.00000000000E+00  0.99999998245E-14  0.12500000000E+03  0.12500000000E+03 0.  0.
        -11    1    3    3    0    0  0.13449388206E+02  0.47268200936E+02 -0.33376764931E+02  0.59406879234E+02  0.51100000000E-03 0. -1.
         23    2    1    0    0    0 -0.76719081873E+01  0.21933008942E+02 -0.16830217909E+02  0.96309038159E+02  0.91936171009E+02 0.  0.
         11    1    3    3    0    0 -0.21121296393E+02 -0.25335191994E+02  0.16546547022E+02  0.36902158925E+02  0.51100000000E-03 0.  1.
         22    1    1    0    0    0  0.76719081873E+01 -0.21933008942E+02  0.16830217909E+02  0.28690961841E+02  0.00000000000E+00 0. -1.
</event>
