<event>
 5    1  0.1691138E-003  0.9118800E+02  0.7818608E-02  0.1130116E+00
         25   -1    0    0    0    0  0.00000000000E+00  0.00000000000E+00  0.99999998245E-14  0.12500000000E+03  0.12500000000E+03 0.  0.
        -11    1    3    3    0    0  0.39463290550E+01  0.18316692138E+02 -0.23159222329E+02  0.29789667723E+02  0.51100000000E-03 0.  1.
         23    2    1    0    0    0 -0.14118430821E+02 -0.20840847151E+02  0.21517735202E+02  0.91883781510E+02  0.85708490697E+02 0.  0.
         11    1    3    3    0    0 -0.18064759876E+02 -0.39157539289E+02  0.44676957531E+02  0.62094113788E+02  0.51100000000E-03 0. -1.
         22    1    1    0    0    0  0.14118430821E+02  0.20840847151E+02 -0.21517735202E+02  0.33116218490E+02  0.00000000000E+00 0. -1.
</event>
<event>
 5    1  0.1691138E-003  0.9118800E+02  0.7818608E-02  0.1130116E+00
         25   -1    0    0    0    0  0.00000000000E+00  0.00000000000E+00  0.99999998245E-14  0.12500000000E+03  0.12500000000E+03 0.  0.
        -11    1    3    3    0    0  0.33295758570E+02 -0.19512119737E+02  0.15701413326E+02  0.41663710062E+02  0.51100000000E-03 0.  1.
         23    2    1    0    0    0 -0.17993384196E+02 -0.24276652778E+02  0.79521864332E+01  0.93753319952E+02  0.88393042645E+02 0.  0.
         11    1    3    3    0    0 -0.51289142767E+02 -0.47645330405E+01 -0.77492268928E+01  0.52089609890E+02  0.51100000000E-03 0. -1.
         22    1    1    0    0    0  0.17993384196E+02  0.24276652778E+02 -0.79521864332E+01  0.31246680048E+02  0.00000000000E+00 0. -1.
</event>
<event>
 5    1  0.1691138E-003  0.9118800E+02  0.7818608E-02  0.1130116E+00
         25   -1    0    0    0    0  0.00000000000E+00  0.00000000000E+00  0.99999998245E-14  0.12500000000E+03  0.12500000000E+03 0.  0.
        -11    1    3    3    0    0  0.47670408744E+02  0.36574503251E+02 -0.19558857000E+01  0.60116450719E+02  0.51100000000E-03 0.  1.
         23    2    1    0    0    0  0.20150743810E+02  0.18274748909E+02  0.11057983450E+02  0.95635090299E+02  0.91015232652E+02 0.  0.
         11    1    3    3    0    0 -0.27519664934E+02 -0.18299754343E+02  0.13013869150E+02  0.35518639580E+02  0.51100000000E-03 0. -1.
         22    1    1    0    0    0 -0.20150743810E+02 -0.18274748909E+02 -0.11057983450E+02  0.29364909701E+02  0.00000000000E+00 0.  1.
</event>
<event>
 5    1  0.1691138E-003  0.9118800E+02  0.7818608E-02  0.1130116E+00
         25   -1    0    0    0    0  0.00000000000E+00  0.00000000000E+00  0.99999998245E-14  0.12500000000E+03  0.12500000000E+03 0.  0.
        -11    1    3    3    0    0 -0.30310346335E+02 -0.31541492015E+01  0.12718041743E+01  0.30500544885E+02  0.51100000000E-03 0. -1.
         23    2    1    0    0    0  0.31186105197E+02 -0.69518964128E+00  0.90107321176E+01  0.92530787824E+02  0.86646967380E+02 0.  0.
         11    1    3    3    0    0  0.61496451532E+02  0.24589595602E+01  0.77389279433E+01  0.62030242940E+02  0.51100000000E-03 0.  1.
         22    1    1    0    0    0 -0.31186105197E+02  0.69518964128E+00 -0.90107321176E+01  0.32469212176E+02  0.00000000000E+00 0.  1.
</event>
<event>
 5    1  0.1691138E-003  0.9118800E+02  0.7818608E-02  0.1130116E+00
         25   -1    0    0    0    0  0.00000000000E+00  0.00000000000E+00  0.99999998245E-14  0.12500000000E+03  0.12500000000E+03 0.  0.
        -11    1    3    3    0    0 -0.32506143949E+02  0.92302025931E+01  0.17070692041E+02  0.37858348635E+02  0.51100000000E-03 0.  1.
         23    2    1    0    0    0  0.17097433117E+02  0.24686194903E+02 -0.54422869371E+01  0.94481990152E+02  0.89417546030E+02 0.  0.
         11    1    3    3    0    0  0.49603577065E+02  0.15455992310E+02 -0.22512978978E+02  0.56623641517E+02  0.51100000000E-03 0. -1.
         22    1    1    0    0    0 -0.17097433117E+02 -0.24686194903E+02  0.54422869371E+01  0.30518009848E+02  0.00000000000E+00 0. -1.
</event>
<event>
 5    1  0.1691138E-003  0.9118800E+02  0.7818608E-02  0.1130116E+00
         25   -1    0    0    0    0  0.00000000000E+00  0.00000000000E+00  0.99999998245E-14  0.12500000000E+03  0.12500000000E+03 0.  0.
        -11    1    3    3    0    0 -0.23883415609E+02 -0.42664284932E+01  0.27861980977E+02  0.36944687540E+02  0.51100000000E-03 0.  1.
         23    2    1    0    0    0  0.14363699739E+02 -0.22171518556E+02 -0.12866807002E+02  0.95615534245E+02  0.90988370473E+02 0.  0.
         11    1    3    3    0    0  0.38247115348E+02 -0.17905090062E+02 -0.40728787979E+02  0.58670846705E+02  0.51100000000E-03 0. -1.
         22    1    1    0    0    0 -0.14363699739E+02  0.22171518556E+02  0.12866807002E+02  0.29384465755E+02  0.00000000000E+00 0. -1.
</event>
<event>
 5    1  0.1691138E-003  0.9118800E+02  0.7818608E-02  0.1130116E+00
         25   -1    0    0    0    0  0.00000000000E+00  0.00000000000E+00  0.99999998245E-14  0.12500000000E+03  0.12500000000E+03 0.  0.
        -11    1    3    3    0    0  0.38101685420E+02 -0.27046953611E+02 -0.70937259359E+01  0.47260946661E+02  0.51100000000E-03 0. -1.
         23    2    1    0    0    0  0.28079996324E+02  0.16590659895E+02 -0.19922833660E+01  0.92324238611E+02  0.86348477999E+02 0.  0.
         11    1    3    3    0    0 -0.10021689095E+02  0.43637613506E+02  0.51014425699E+01  0.45063291950E+02  0.51100000000E-03 0.  1.
         22    1    1    0    0    0 -0.28079996324E+02 -0.16590659895E+02  0.19922833660E+01  0.32675761389E+02  0.00000000000E+00 0. -1.
</event>
<event>
 5    1  0.1691138E-003  0.9118800E+02  0.7818608E-02  0.1130116E+00
         25   -1    0    0    0    0  0.00000000000E+00  0.00000000000E+00  0.99999998245E-14  0.12500000000E+03  0.12500000000E+03 0.  0.
        -11    1    3    3    0    0 -0.32590041910E+02  0.16102822854E+02 -0.32745450607E+02  0.48925210998E+02  0.51100000000E-03 0.  1.
         23    2    1    0    0    0  0.12617182025E+02 -0.15731547687E+00 -0.24180435728E+02  0.97725258894E+02  0.93841966749E+02 0.  0.
         11    1    3    3    0    0  0.45207223935E+02 -0.16260138331E+02  0.85650148787E+01  0.48800047895E+02  0.51100000000E-03 0. -1.
         22    1    1    0    0    0 -0.12617182025E+02  0.15731547687E+00  0.24180435728E+02  0.27274741106E+02  0.00000000000E+00 0. -1.
</event>
<event>
 5    1  0.1691138E-003  0.9118800E+02  0.7818608E-02  0.1130116E+00
         25   -1    0    0    0    0  0.00000000000E+00  0.00000000000E+00  0.99999998245E-14  0.12500000000E+03  0.12500000000E+03 0.  0.
        -11    1    3    3    0    0  0.26988913166E+02 -0.17120068883E+02 -0.47449317652E+02  0.57209579078E+02  0.51100000000E-03 0.  1.
         23    2    1    0    0    0 -0.19560756817E+01 -0.19194965811E+02 -0.21126773910E+02  0.96388577099E+02  0.92044251721E+02 0.  0.
         11    1    3    3    0    0 -0.28944988848E+02 -0.20748969281E+01  0.26322543741E+02  0.39178998021E+02  0.51100000000E-03 0. -1.
         22    1    1    0    0    0  0.19560756817E+01  0.19194965811E+02  0.21126773910E+02  0.28611422901E+02  0.00000000000E+00 0.  1.
</event>
<event>
 5    1  0.1691138E-003  0.9118800E+02  0.7818608E-02  0.1130116E+00
         25   -1    0    0    0    0  0.00000000000E+00  0.00000000000E+00  0.99999998245E-14  0.12500000000E+03  0.12500000000E+03 0.  0.
        -11    1    3    3    0    0 -0.18993010788E+02  0.21563999887E+02  0.26771570198E+02  0.39274132976E+02  0.51100000000E-03 0.  1.
         23    2    1    0    0    0 -0.20372167444E+02 -0.73297564709E+01 -0.20817321156E+02  0.94964830675E+02  0.90089997606E+02 0.  0.
         11    1    3    3    0    0 -0.13791566555E+01 -0.28893756357E+02 -0.47588891355E+02  0.55690697698E+02  0.51100000000E-03 0. -1.
         22    1    1    0    0    0  0.20372167444E+02  0.73297564709E+01  0.20817321156E+02  0.30035169325E+02  0.00000000000E+00 0. -1.
</event>
<event>
 5    1  0.1691138E-003  0.9118800E+02  0.7818608E-02  0.1130116E+00
         25   -1    0    0    0    0  0.00000000000E+00  0.00000000000E+00  0.99999998245E-14  0.12500000000E+03  0.12500000000E+03 0.  0.
        -11    1    3    3    0    0  0.32088194139E+02  0.20674118038E+02  0.14580503721E+02  0.40861503261E+02  0.51100000000E-03 0.  1.
         23    2    1    0    0    0  0.58028318409E+01  0.18655533740E+02 -0.27949246414E+02  0.90899235029E+02  0.84260362908E+02 0.  0.
         11    1    3    3    0    0 -0.26285362298E+02 -0.20185842980E+01 -0.42529750134E+02  0.50037731768E+02  0.51100000000E-03 0. -1.
         22    1    1    0    0    0 -0.58028318409E+01 -0.18655533740E+02  0.27949246414E+02  0.34100764971E+02  0.00000000000E+00 0. -1.
</event>
<event>
 5    1  0.1691138E-003  0.9118800E+02  0.7818608E-02  0.1130116E+00
         25   -1    0    0    0    0  0.00000000000E+00  0.00000000000E+00  0.99999998245E-14  0.12500000000E+03  0.12500000000E+03 0.  0.
        -11    1    3    3    0    0 -0.26466935826E+02 -0.15165464289E+01  0.25601855221E+02  0.36854492211E+02  0.51100000000E-03 0. -1.
         23    2    1    0    0    0  0.27272080239E+02  0.10424969046E+02  0.68490866633E+01  0.95010729781E+02  0.90153660188E+02 0.  0.
         11    1    3    3    0    0  0.53739016065E+02  0.11941515475E+02 -0.18752768558E+02  0.58156237570E+02  0.51100000000E-03 0.  1.
         22    1    1    0    0    0 -0.27272080239E+02 -0.10424969046E+02 -0.68490866633E+01  0.29989270219E+02  0.00000000000E+00 0.  1.
</event>
<event>
 5    1  0.1691138E-003  0.9118800E+02  0.7818608E-02  0.1130116E+00
         25   -1    0    0    0    0  0.00000000000E+00  0.00000000000E+00  0.99999998245E-14  0.12500000000E+03  0.12500000000E+03 0.  0.
        -11    1    3    3    0    0 -0.37659441580E+00  0.45992318181E+02  0.12537864937E+02  0.47672142940E+02  0.51100000000E-03 0. -1.
         23    2    1    0    0    0  0.22640864016E+02  0.57904236955E+01  0.19558319746E+02  0.94525984819E+02  0.89479026619E+02 0.  0.
         11    1    3    3    0    0  0.23017458432E+02 -0.40201894485E+02  0.70204548089E+01  0.46853841880E+02  0.51100000000E-03 0.  1.
         22    1    1    0    0    0 -0.22640864016E+02 -0.57904236955E+01 -0.19558319746E+02  0.30474015181E+02  0.00000000000E+00 0. -1.
</event>
<event>
 5    1  0.1691138E-003  0.9118800E+02  0.7818608E-02  0.1130116E+00
         25   -1    0    0    0    0  0.00000000000E+00  0.00000000000E+00  0.99999998245E-14  0.12500000000E+03  0.12500000000E+03 0.  0.
        -11    1    3    3    0    0  0.20006398919E+02 -0.33020411943E+02  0.39433704432E+02  0.55187142054E+02  0.51100000000E-03 0.  1.
         23    2    1    0    0    0  0.25766178210E+02 -0.69968376831E+01  0.65631327017E+01  0.97505884484E+02  0.93549297812E+02 0.  0.
         11    1    3    3    0    0  0.57597792913E+01  0.26023574260E+02 -0.32870571730E+02  0.42318742430E+02  0.51100000000E-03 0. -1.
         22    1    1    0    0    0 -0.25766178210E+02  0.69968376831E+01 -0.65631327017E+01  0.27494115516E+02  0.00000000000E+00 0.  1.
</event>
<event>
 5    1  0.1691138E-003  0.9118800E+02  0.7818608E-02  0.1130116E+00
         25   -1    0    0    0    0  0.00000000000E+00  0.00000000000E+00  0.99999998245E-14  0.12500000000E+03  0.12500000000E+03 0.  0.
        -11    1    3    3    0    0  0.11013986313E+02  0.22400525035E+02 -0.28272302391E+02  0.37714910832E+02  0.51100000000E-03 0.  1.
         23    2    1    0    0    0  0.33980655404E+02 -0.15132166881E+02 -0.50731475800E+01  0.87457966989E+02  0.78990453520E+02 0.  0.
         11    1    3    3    0    0  0.22966669091E+02 -0.37532691916E+02  0.23199154811E+02  0.49743056157E+02  0.51100000000E-03 0. -1.
         22    1    1    0    0    0 -0.33980655404E+02  0.15132166881E+02  0.50731475800E+01  0.37542033011E+02  0.00000000000E+00 0.  1.
</event>
<event>
 5    1  0.1691138E-003  0.9118800E+02  0.7818608E-02  0.1130116E+00
         25   -1    0    0    0    0  0.00000000000E+00  0.00000000000E+00  0.99999998245E-14  0.12500000000E+03  0.12500000000E+03 0.  0.
        -11    1    3    3    0    0  0.15811065934E+02 -0.15553654171E+02  0.34348992020E+02  0.40887152225E+02  0.51100000000E-03 0. -1.
         23    2    1    0    0    0  0.22768740532E+02  0.14783102499E+02 -0.10849348039E+02  0.95765362705E+02  0.91193972806E+02 0.  0.
         11    1    3    3    0    0  0.69576745977E+01  0.30336756670E+02 -0.45198340059E+02  0.54878210479E+02  0.51100000000E-03 0.  1.
         22    1    1    0    0    0 -0.22768740532E+02 -0.14783102499E+02  0.10849348039E+02  0.29234637295E+02  0.00000000000E+00 0.  1.
</event>
<event>
 5    1  0.1691138E-003  0.9118800E+02  0.7818608E-02  0.1130116E+00
         25   -1    0    0    0    0  0.00000000000E+00  0.00000000000E+00  0.99999998245E-14  0.12500000000E+03  0.12500000000E+03 0.  0.
        -11    1    3    3    0    0  0.33098364629E+02  0.47003741805E+02 -0.12502896316E+01  0.57501449627E+02  0.51100000000E-03 0. -1.
         23    2    1    0    0    0  0.24098070493E+02  0.10003566705E+02  0.97632149181E+01  0.97141272214E+02  0.93060829856E+02 0.  0.
         11    1    3    3    0    0 -0.90002941355E+01 -0.37000175100E+02  0.11013504550E+02  0.39639822587E+02  0.51100000000E-03 0.  1.
         22    1    1    0    0    0 -0.24098070493E+02 -0.10003566705E+02 -0.97632149181E+01  0.27858727786E+02  0.00000000000E+00 0.  1.
</event>
<event>
 5    1  0.1691138E-003  0.9118800E+02  0.7818608E-02  0.1130116E+00
         25   -1    0    0    0    0  0.00000000000E+00  0.00000000000E+00  0.99999998245E-14  0.12500000000E+03  0.12500000000E+03 0.  0.
        -11    1    3    3    0    0  0.23120219897E+02  0.37972295364E+02 -0.25913250976E+02  0.51458102955E+02  0.51100000000E-03 0.  1.
         23    2    1    0    0    0  0.29021038037E+02 -0.12393712141E+01 -0.87786982338E+01  0.94654947151E+02  0.89659002826E+02 0.  0.
         11    1    3    3    0    0  0.59008181402E+01 -0.39211666578E+02  0.17134552742E+02  0.43196844196E+02  0.51100000000E-03 0. -1.
         22    1    1    0    0    0 -0.29021038037E+02  0.12393712141E+01  0.87786982338E+01  0.30345052849E+02  0.00000000000E+00 0. -1.
</event>
<event>
 5    1  0.1691138E-003  0.9118800E+02  0.7818608E-02  0.1130116E+00
         25   -1    0    0    0    0  0.00000000000E+00  0.00000000000E+00  0.99999998245E-14  0.12500000000E+03  0.12500000000E+03 0.  0.
        -11    1    3    3    0    0  0.64956404172E+01  0.25745725572E+02  0.19165140916E+02  0.32746577779E+02  0.51100000000E-03 0.  1.
         23    2    1    0    0    0 -0.83768754798E+01 -0.24942317832E+02 -0.14075948364E+02  0.95160033781E+02  0.90360436282E+02 0.  0.
         11    1    3    3    0    0 -0.14872515897E+02 -0.50688043404E+02 -0.33241089281E+02  0.62413456001E+02  0.51100000000E-03 0. -1.
         22    1    1    0    0    0  0.83768754798E+01  0.24942317832E+02  0.14075948364E+02  0.29839966219E+02  0.00000000000E+00 0. -1.
</event>
<event>
 5    1  0.1691138E-003  0.9118800E+02  0.7818608E-02  0.1130116E+00
         25   -1    0    0    0    0  0.00000000000E+00  0.00000000000E+00  0.99999998245E-14  0.12500000000E+03  0.12500000000E+03 0.  0.
        -11    1    3    3    0    0  0.13192835008E+02 -0.50453405000E+02  0.47629601019E+01  0.52366809725E+02  0.51100000000E-03 0.  1.
         23    2    1    0    0    0 -0.19237703600E+02 -0.22386383497E+02  0.35189709599E+01  0.95274210482E+02  0.90518244683E+02 0.  0.
         11    1    3    3    0    0 -0.32430538608E+02  0.28067021502E+02 -0.12439891420E+01  0.42907400756E+02  0.51100000000E-03 0. -1.
         22    1    1    0    0    0  0.19237703600E+02  0.22386383497E+02 -0.35189709599E+01  0.29725789518E+02  0.00000000000E+00 0.  1.
</event>
<event>
 5    1  0.1691138E-003  0.9118800E+02  0.7818608E-02  0.1130116E+00
         25   -1    0    0    0    0  0.00000000000E+00  0.00000000000E+00  0.99999998245E-14  0.12500000000E+03  0.12500000000E+03 0.  0.
        -11    1    3    3    0    0 -0.19004518023E+02 -0.23522404536E+02  0.22198485169E+02  0.37513303833E+02  0.51100000000E-03 0. -1.
         23    2    1    0    0    0 -0.11890234908E+02  0.15703659382E+02 -0.20939826597E+02  0.96251801064E+02  0.91858316259E+02 0.  0.
         11    1    3    3    0    0  0.71142831150E+01  0.39226063918E+02 -0.43138311766E+02  0.58738497231E+02  0.51100000000E-03 0.  1.
         22    1    1    0    0    0  0.11890234908E+02 -0.15703659382E+02  0.20939826597E+02  0.28748198936E+02  0.00000000000E+00 0.  1.
</event>
<event>
 5    1  0.1691138E-003  0.9118800E+02  0.7818608E-02  0.1130116E+00
         25   -1    0    0    0    0  0.00000000000E+00  0.00000000000E+00  0.99999998245E-14  0.12500000000E+03  0.12500000000E+03 0.  0.
        -11    1    3    3    0    0 -0.17755563190E+02 -0.19979757580E+02 -0.20028445499E+02  0.33400439616E+02  0.51100000000E-03 0. -1.
         23    2    1    0    0    0  0.27230898428E+02  0.11031596878E+02  0.76346785636E+01  0.94643678160E+02  0.89643290546E+02 0.  0.
         11    1    3    3    0    0  0.44986461618E+02  0.31011354458E+02  0.27663124063E+02  0.61243238544E+02  0.51100000000E-03 0.  1.
         22    1    1    0    0    0 -0.27230898428E+02 -0.11031596878E+02 -0.76346785636E+01  0.30356321840E+02  0.00000000000E+00 0.  1.
</event>
<event>
 5    1  0.1691138E-003  0.9118800E+02  0.7818608E-02  0.1130116E+00
         25   -1    0    0    0    0  0.00000000000E+00  0.00000000000E+00  0.99999998245E-14  0.12500000000E+03  0.12500000000E+03 0.  0.
        -11    1    3    3    0    0  0.13014290373E+01 -0.57936493263E+02 -0.10710359813E+02  0.58932527324E+02  0.51100000000E-03 0. -1.
         23    2    1    0    0    0  0.14281462201E+02 -0.25071671676E+02  0.91664800148E+00  0.96131520186E+02  0.91694493000E+02 0.  0.
         11    1    3    3    0    0  0.12980033164E+02  0.32864821588E+02  0.11627007815E+02  0.37198992862E+02  0.51100000000E-03 0.  1.
         22    1    1    0    0    0 -0.14281462201E+02  0.25071671676E+02 -0.91664800148E+00  0.28868479814E+02  0.00000000000E+00 0. -1.
</event>
<event>
 5    1  0.1691138E-003  0.9118800E+02  0.7818608E-02  0.1130116E+00
         25   -1    0    0    0    0  0.00000000000E+00  0.00000000000E+00  0.99999998245E-14  0.12500000000E+03  0.12500000000E+03 0.  0.
        -11    1    3    3    0    0 -0.11128202309E+02 -0.47583550336E+02  0.37755992598E+02  0.61753915880E+02  0.51100000000E-03 0. -1.
         23    2    1    0    0    0  0.99516778489E+00 -0.24545826678E+02  0.15977730347E+02  0.95695122705E+02  0.91097643638E+02 0.  0.
         11    1    3    3    0    0  0.12123370094E+02  0.23037723658E+02 -0.21778262251E+02  0.33941206825E+02  0.51100000000E-03 0.  1.
         22    1    1    0    0    0 -0.99516778489E+00  0.24545826678E+02 -0.15977730347E+02  0.29304877295E+02  0.00000000000E+00 0. -1.
</event>
<event>
 5    1  0.1691138E-003  0.9118800E+02  0.7818608E-02  0.1130116E+00
         25   -1    0    0    0    0  0.00000000000E+00  0.00000000000E+00  0.99999998245E-14  0.12500000000E+03  0.12500000000E+03 0.  0.
        -11    1    3    3    0    0  0.19254747724E+02 -0.52381144605E+02  0.11087675558E+02  0.56898736098E+02  0.51100000000E-03 0. -1.
         23    2    1    0    0    0  0.14396585944E+02 -0.22362750639E+02 -0.12719790936E+02  0.95518694323E+02  0.90855234195E+02 0.  0.
         11    1    3    3    0    0 -0.48581617807E+01  0.30018393966E+02 -0.23807466494E+02  0.38619958225E+02  0.51100000000E-03 0.  1.
         22    1    1    0    0    0 -0.14396585944E+02  0.22362750639E+02  0.12719790936E+02  0.29481305677E+02  0.00000000000E+00 0. -1.
</event>
<event>
 5    1  0.1691138E-003  0.9118800E+02  0.7818608E-02  0.1130116E+00
         25   -1    0    0    0    0  0.00000000000E+00  0.00000000000E+00  0.99999998245E-14  0.12500000000E+03  0.12500000000E+03 0.  0.
        -11    1    3    3    0    0 -0.15199050757E+02  0.17950895153E+02  0.22770658239E+02  0.32737572568E+02  0.51100000000E-03 0. -1.
         23    2    1    0    0    0  0.15978484987E+02 -0.10410152487E+02 -0.23109202527E+02  0.95038049151E+02  0.90191531130E+02 0.  0.
         11    1    3    3    0    0  0.31177535744E+02 -0.28361047640E+02 -0.45879860766E+02  0.62300476583E+02  0.51100000000E-03 0.  1.
         22    1    1    0    0    0 -0.15978484987E+02  0.10410152487E+02  0.23109202527E+02  0.29961950849E+02  0.00000000000E+00 0.  1.
</event>
<event>
 5    1  0.1691138E-003  0.9118800E+02  0.7818608E-02  0.1130116E+00
         25   -1    0    0    0    0  0.00000000000E+00  0.00000000000E+00  0.99999998245E-14  0.12500000000E+03  0.12500000000E+03 0.  0.
        -11    1    3    3    0    0 -0.35631253250E+00  0.24729731943E+02  0.53451692771E+02  0.58896265255E+02  0.51100000000E-03 0. -1.
         23    2    1    0    0    0  0.92815236613E+01  0.22276894713E+02  0.20438046851E+02  0.93375318522E+02  0.87856870138E+02 0.  0.
         11    1    3    3    0    0  0.96378361938E+01 -0.24528372305E+01 -0.33013645920E+02  0.34479053267E+02  0.51100000000E-03 0.  1.
         22    1    1    0    0    0 -0.92815236613E+01 -0.22276894713E+02 -0.20438046851E+02  0.31624681478E+02  0.00000000000E+00 0. -1.
</event>
<event>
 5    1  0.1691138E-003  0.9118800E+02  0.7818608E-02  0.1130116E+00
         25   -1    0    0    0    0  0.00000000000E+00  0.00000000000E+00  0.99999998245E-14  0.12500000000E+03  0.12500000000E+03 0.  0.
        -11    1    3    3    0    0 -0.97244951246E+01 -0.26558748309E+02  0.20756326756E+02  0.35082160963E+02  0.51100000000E-03 0.  1.
         23    2    1    0    0    0 -0.18225777269E+01  0.56579638729E+01 -0.29284023419E+02  0.95118762201E+02  0.90303325245E+02 0.  0.
         11    1    3    3    0    0  0.79019173977E+01  0.32216712182E+02 -0.50040350175E+02  0.60036601239E+02  0.51100000000E-03 0. -1.
         22    1    1    0    0    0  0.18225777269E+01 -0.56579638729E+01  0.29284023419E+02  0.29881237799E+02  0.00000000000E+00 0. -1.
</event>
<event>
 5    1  0.1691138E-003  0.9118800E+02  0.7818608E-02  0.1130116E+00
         25   -1    0    0    0    0  0.00000000000E+00  0.00000000000E+00  0.99999998245E-14  0.12500000000E+03  0.12500000000E+03 0.  0.
        -11    1    3    3    0    0  0.78691110653E+01  0.29648586575E+02  0.24426150296E+02  0.39212222755E+02  0.51100000000E-03 0.  1.
         23    2    1    0    0    0 -0.63034646330E+01  0.69542788345E+01 -0.26580734844E+02  0.96810797717E+02  0.92615870289E+02 0.  0.
         11    1    3    3    0    0 -0.14172575698E+02 -0.22694307741E+02 -0.51006885140E+02  0.57598574962E+02  0.51100000000E-03 0. -1.
         22    1    1    0    0    0  0.63034646330E+01 -0.69542788345E+01  0.26580734844E+02  0.28189202283E+02  0.00000000000E+00 0. -1.
</event>
<event>
 5    1  0.1691138E-003  0.9118800E+02  0.7818608E-02  0.1130116E+00
         25   -1    0    0    0    0  0.00000000000E+00  0.00000000000E+00  0.99999998245E-14  0.12500000000E+03  0.12500000000E+03 0.  0.
        -11    1    3    3    0    0 -0.14364895636E+02  0.53318609455E+02 -0.18834422276E+02  0.58343464103E+02  0.51100000000E-03 0. -1.
         23    2    1    0    0    0 -0.20980028792E+02  0.17234211398E+02 -0.98893350590E+01  0.96104003763E+02  0.91656974316E+02 0.  0.
         11    1    3    3    0    0 -0.66151331558E+01 -0.36084398057E+02  0.89450872166E+01  0.37760539660E+02  0.51100000000E-03 0.  1.
         22    1    1    0    0    0  0.20980028792E+02 -0.17234211398E+02  0.98893350590E+01  0.28895996237E+02  0.00000000000E+00 0. -1.
</event>
<event>
 5    1  0.1691138E-003  0.9118800E+02  0.7818608E-02  0.1130116E+00
         25   -1    0    0    0    0  0.00000000000E+00  0.00000000000E+00  0.99999998245E-14  0.12500000000E+03  0.12500000000E+03 0.  0.
        -11    1    3    3    0    0  0.25989770562E+02  0.34567387528E+01  0.50638025883E+02  0.57023038171E+02  0.51100000000E-03 0.  1.
         23    2    1    0    0    0 -0.27041716950E+01  0.81211618638E+00  0.35149232138E+02  0.89737546921E+02  0.82519008296E+02 0.  0.
         11    1    3    3    0    0 -0.28693942257E+02 -0.26446225664E+01 -0.15488793745E+02  0.32714508750E+02  0.51100000000E-03 0. -1.
         22    1    1    0    0    0  0.27041716950E+01 -0.81211618638E+00 -0.35149232138E+02  0.35262453079E+02  0.00000000000E+00 0.  1.
</event>
<event>
 5    1  0.1691138E-003  0.9118800E+02  0.7818608E-02  0.1130116E+00
         25   -1    0    0    0    0  0.00000000000E+00  0.00000000000E+00  0.99999998245E-14  0.12500000000E+03  0.12500000000E+03 0.  0.
        -11    1    3    3    0    0 -0.40962502005E+02 -0.31652638449E+02 -0.33097434442E+02  0.61443114001E+02  0.51100000000E-03 0.  1.
         23    2    1    0    0    0 -0.13922004009E+02 -0.20825308338E+02 -0.13575277541E+02  0.96507828736E+02  0.92206058282E+02 0.  0.
         11    1    3    3    0    0  0.27040497995E+02  0.10827330110E+02  0.19522156900E+02  0.35064714735E+02  0.51100000000E-03 0. -1.
         22    1    1    0    0    0  0.13922004009E+02  0.20825308338E+02  0.13575277541E+02  0.28492171264E+02  0.00000000000E+00 0.  1.
</event>
<event>
 5    1  0.1691138E-003  0.9118800E+02  0.7818608E-02  0.1130116E+00
         25   -1    0    0    0    0  0.00000000000E+00  0.00000000000E+00  0.99999998245E-14  0.12500000000E+03  0.12500000000E+03 0.  0.
        -11    1    3    3    0    0 -0.45332265078E+02  0.17597083704E+02  0.26665272449E+02  0.55459069295E+02  0.51100000000E-03 0.  1.
         23    2    1    0    0    0 -0.15219600884E+02  0.24293047194E+02 -0.14983231817E+00  0.96332756624E+02  0.91968413904E+02 0.  0.
         11    1    3    3    0    0  0.30112664195E+02  0.66959634902E+01 -0.26815104767E+02  0.40873687329E+02  0.51100000000E-03 0. -1.
         22    1    1    0    0    0  0.15219600884E+02 -0.24293047194E+02  0.14983231817E+00  0.28667243376E+02  0.00000000000E+00 0.  1.
</event>
<event>
 5    1  0.1691138E-003  0.9118800E+02  0.7818608E-02  0.1130116E+00
         25   -1    0    0    0    0  0.00000000000E+00  0.00000000000E+00  0.99999998245E-14  0.12500000000E+03  0.12500000000E+03 0.  0.
        -11    1    3    3    0    0 -0.47333158039E+01 -0.25150569999E+02 -0.27648912203E+02  0.37675161526E+02  0.51100000000E-03 0.  1.
         23    2    1    0    0    0 -0.12866354492E+02  0.25657559196E+02  0.43211786788E+00  0.96293900515E+02  0.91915586974E+02 0.  0.
         11    1    3    3    0    0 -0.81330386880E+01  0.50808129194E+02  0.28081030071E+02  0.58618738989E+02  0.51100000000E-03 0. -1.
         22    1    1    0    0    0  0.12866354492E+02 -0.25657559196E+02 -0.43211786788E+00  0.28706099485E+02  0.00000000000E+00 0. -1.
</event>
<event>
 5    1  0.1691138E-003  0.9118800E+02  0.7818608E-02  0.1130116E+00
         25   -1    0    0    0    0  0.00000000000E+00  0.00000000000E+00  0.99999998245E-14  0.12500000000E+03  0.12500000000E+03 0.  0.
        -11    1    3    3    0    0 -0.16461458101E+02 -0.24553612431E+02  0.49547797953E+02  0.57696133046E+02  0.51100000000E-03 0.  1.
         23    2    1    0    0    0 -0.61793808314E+01 -0.25733812261E+02  0.13323087178E+02  0.95370310618E+02  0.90650855784E+02 0.  0.
         11    1    3    3    0    0  0.10282077270E+02 -0.11801998304E+01 -0.36224710776E+02  0.37674177571E+02  0.51100000000E-03 0. -1.
         22    1    1    0    0    0  0.61793808314E+01  0.25733812261E+02 -0.13323087178E+02  0.29629689382E+02  0.00000000000E+00 0.  1.
</event>
<event>
 5    1  0.1691138E-003  0.9118800E+02  0.7818608E-02  0.1130116E+00
         25   -1    0    0    0    0  0.00000000000E+00  0.00000000000E+00  0.99999998245E-14  0.12500000000E+03  0.12500000000E+03 0.  0.
        -11    1    3    3    0    0 -0.59629982449E+02  0.17486254971E+02 -0.46272332552E+01  0.62313042035E+02  0.51100000000E-03 0. -1.
         23    2    1    0    0    0 -0.28180762061E+02  0.83121189295E+01  0.12330233595E+01  0.95593078739E+02  0.90957515823E+02 0.  0.
         11    1    3    3    0    0  0.31449220388E+02 -0.91741360419E+01  0.58602566147E+01  0.33280036704E+02  0.51100000000E-03 0.  1.
         22    1    1    0    0    0  0.28180762061E+02 -0.83121189295E+01 -0.12330233595E+01  0.29406921261E+02  0.00000000000E+00 0. -1.
</event>
<event>
 5    1  0.1691138E-003  0.9118800E+02  0.7818608E-02  0.1130116E+00
         25   -1    0    0    0    0  0.00000000000E+00  0.00000000000E+00  0.99999998245E-14  0.12500000000E+03  0.12500000000E+03 0.  0.
        -11    1    3    3    0    0  0.43227782973E+02  0.34208869027E+02  0.25914432600E+02  0.60913428389E+02  0.51100000000E-03 0. -1.
         23    2    1    0    0    0  0.19835419265E+02  0.19590239855E+02  0.26554024346E+01  0.96995134046E+02  0.92864328521E+02 0.  0.
         11    1    3    3    0    0 -0.23392363708E+02 -0.14618629172E+02 -0.23259030165E+02  0.36081705658E+02  0.51100000000E-03 0.  1.
         22    1    1    0    0    0 -0.19835419265E+02 -0.19590239855E+02 -0.26554024346E+01  0.28004865954E+02  0.00000000000E+00 0. -1.
</event>
<event>
 5    1  0.1691138E-003  0.9118800E+02  0.7818608E-02  0.1130116E+00
         25   -1    0    0    0    0  0.00000000000E+00  0.00000000000E+00  0.99999998245E-14  0.12500000000E+03  0.12500000000E+03 0.  0.
        -11    1    3    3    0    0  0.53734089147E+02  0.18408359748E+02  0.74536766237E+01  0.57286799008E+02  0.51100000000E-03 0.  1.
         23    2    1    0    0    0  0.32026834832E+02  0.15635492428E+02 -0.12826320989E+02  0.87122549149E+02  0.78457869505E+02 0.  0.
         11    1    3    3    0    0 -0.21707254315E+02 -0.27728673199E+01 -0.20279997613E+02  0.29835750142E+02  0.51100000000E-03 0. -1.
         22    1    1    0    0    0 -0.32026834832E+02 -0.15635492428E+02  0.12826320989E+02  0.37877450851E+02  0.00000000000E+00 0.  1.
</event>
<event>
 5    1  0.1691138E-003  0.9118800E+02  0.7818608E-02  0.1130116E+00
         25   -1    0    0    0    0  0.00000000000E+00  0.00000000000E+00  0.99999998245E-14  0.12500000000E+03  0.12500000000E+03 0.  0.
        -11    1    3    3    0    0  0.59435396398E+01 -0.52488766736E+02  0.32029629105E+02  0.61776155900E+02  0.51100000000E-03 0. -1.
         23    2    1    0    0    0 -0.76683490311E+00 -0.21901994017E+02  0.20028065620E+02  0.95311470394E+02  0.90569683661E+02 0.  0.
         11    1    3    3    0    0 -0.67103745429E+01  0.30586772719E+02 -0.12001563484E+02  0.33535314494E+02  0.51100000000E-03 0.  1.
         22    1    1    0    0    0  0.76683490311E+00  0.21901994017E+02 -0.20028065620E+02  0.29688529606E+02  0.00000000000E+00 0. -1.
</event>
<event>
 5    1  0.1691138E-003  0.9118800E+02  0.7818608E-02  0.1130116E+00
         25   -1    0    0    0    0  0.00000000000E+00  0.00000000000E+00  0.99999998245E-14  0.12500000000E+03  0.12500000000E+03 0.  0.
        -11    1    3    3    0    0 -0.28209564767E+02  0.37015261608E+02  0.96536343128E+01  0.47530009383E+02  0.51100000000E-03 0.  1.
         23    2    1    0    0    0 -0.23572818456E+02 -0.10709420013E+02  0.13803768363E+02  0.95658673036E+02  0.91047615340E+02 0.  0.
         11    1    3    3    0    0  0.46367463115E+01 -0.47724681621E+02  0.41501340504E+01  0.48128663653E+02  0.51100000000E-03 0. -1.
         22    1    1    0    0    0  0.23572818456E+02  0.10709420013E+02 -0.13803768363E+02  0.29341326964E+02  0.00000000000E+00 0. -1.
</event>
<event>
 5    1  0.1691138E-003  0.9118800E+02  0.7818608E-02  0.1130116E+00
         25   -1    0    0    0    0  0.00000000000E+00  0.00000000000E+00  0.99999998245E-14  0.12500000000E+03  0.12500000000E+03 0.  0.
        -11    1    3    3    0    0  0.65832060259E+01  0.30902686662E+02  0.11353609510E+02  0.33574083661E+02  0.51100000000E-03 0. -1.
         23    2    1    0    0    0 -0.89989981186E+01 -0.28182528794E+02  0.47779239469E+01  0.95032259785E+02  0.90183507063E+02 0.  0.
         11    1    3    3    0    0 -0.15582204144E+02 -0.59085215457E+02 -0.65756855626E+01  0.61458176123E+02  0.51100000000E-03 0.  1.
         22    1    1    0    0    0  0.89989981186E+01  0.28182528794E+02 -0.47779239469E+01  0.29967740215E+02  0.00000000000E+00 0.  1.
</event>
<event>
 5    1  0.1691138E-003  0.9118800E+02  0.7818608E-02  0.1130116E+00
         25   -1    0    0    0    0  0.00000000000E+00  0.00000000000E+00  0.99999998245E-14  0.12500000000E+03  0.12500000000E+03 0.  0.
        -11    1    3    3    0    0 -0.44096850428E+02 -0.15756791530E+02  0.83727105458E+01  0.47570063896E+02  0.51100000000E-03 0.  1.
         23    2    1    0    0    0 -0.15354306298E+01 -0.29652476685E+02 -0.62253852113E+01  0.94662196160E+02  0.89669108617E+02 0.  0.
         11    1    3    3    0    0  0.42561419798E+02 -0.13895685156E+02 -0.14598095757E+02  0.47092132264E+02  0.51100000000E-03 0. -1.
         22    1    1    0    0    0  0.15354306298E+01  0.29652476685E+02  0.62253852113E+01  0.30337803840E+02  0.00000000000E+00 0.  1.
</event>
<event>
 5    1  0.1691138E-003  0.9118800E+02  0.7818608E-02  0.1130116E+00
         25   -1    0    0    0    0  0.00000000000E+00  0.00000000000E+00  0.99999998245E-14  0.12500000000E+03  0.12500000000E+03 0.  0.
        -11    1    3    3    0    0  0.39848116793E+02 -0.31594186239E+02  0.25777808595E+02  0.57013686359E+02  0.51100000000E-03 0.  1.
         23    2    1    0    0    0  0.20937574710E+02  0.19192325032E+01  0.20103111199E+02  0.95910473225E+02  0.91392660024E+02 0.  0.
         11    1    3    3    0    0 -0.18910542083E+02  0.33513418742E+02 -0.56746973963E+01  0.38896786866E+02  0.51100000000E-03 0. -1.
         22    1    1    0    0    0 -0.20937574710E+02 -0.19192325032E+01 -0.20103111199E+02  0.29089526775E+02  0.00000000000E+00 0.  1.
</event>
<event>
 5    1  0.1691138E-003  0.9118800E+02  0.7818608E-02  0.1130116E+00
         25   -1    0    0    0    0  0.00000000000E+00  0.00000000000E+00  0.99999998245E-14  0.12500000000E+03  0.12500000000E+03 0.  0.
        -11    1    3    3    0    0 -0.75641010145E+01  0.24906476010E+02 -0.54002737369E+02  0.59948676507E+02  0.51100000000E-03 0.  1.
         23    2    1    0    0    0 -0.15691913821E+02  0.14355374885E+02 -0.23093085785E+02  0.93605676333E+02  0.88184006958E+02 0.  0.
         11    1    3    3    0    0 -0.81278128065E+01 -0.10551101125E+02  0.30909651584E+02  0.33656999826E+02  0.51100000000E-03 0. -1.
         22    1    1    0    0    0  0.15691913821E+02 -0.14355374885E+02  0.23093085785E+02  0.31394323667E+02  0.00000000000E+00 0.  1.
</event>
<event>
 5    1  0.1691138E-003  0.9118800E+02  0.7818608E-02  0.1130116E+00
         25   -1    0    0    0    0  0.00000000000E+00  0.00000000000E+00  0.99999998245E-14  0.12500000000E+03  0.12500000000E+03 0.  0.
        -11    1    3    3    0    0  0.11767920943E+02  0.26532548933E+02 -0.21787260204E+02  0.36292489907E+02  0.51100000000E-03 0.  1.
         23    2    1    0    0    0 -0.30028308127E+02 -0.18761839551E+01  0.65164242903E+01  0.94215537348E+02  0.89044283012E+02 0.  0.
         11    1    3    3    0    0 -0.41796229070E+02 -0.28408732888E+02  0.28303684494E+02  0.57923047442E+02  0.51100000000E-03 0. -1.
         22    1    1    0    0    0  0.30028308127E+02  0.18761839551E+01 -0.65164242903E+01  0.30784462652E+02  0.00000000000E+00 0. -1.
</event>
<event>
 5    1  0.1691138E-003  0.9118800E+02  0.7818608E-02  0.1130116E+00
         25   -1    0    0    0    0  0.00000000000E+00  0.00000000000E+00  0.99999998245E-14  0.12500000000E+03  0.12500000000E+03 0.  0.
        -11    1    3    3    0    0 -0.21214117868E+02 -0.11889119049E+02 -0.45882494807E+02  0.51928732689E+02  0.51100000000E-03 0. -1.
         23    2    1    0    0    0 -0.27623294120E+02 -0.10062715848E+02 -0.28624404915E+01  0.95461919598E+02  0.90777089068E+02 0.  0.
         11    1    3    3    0    0 -0.64091762514E+01  0.18264032016E+01  0.43020054316E+02  0.43533186909E+02  0.51100000000E-03 0.  1.
         22    1    1    0    0    0  0.27623294120E+02  0.10062715848E+02  0.28624404915E+01  0.29538080402E+02  0.00000000000E+00 0.  1.
</event>
<event>
 5    1  0.1691138E-003  0.9118800E+02  0.7818608E-02  0.1130116E+00
         25   -1    0    0    0    0  0.00000000000E+00  0.00000000000E+00  0.99999998245E-14  0.12500000000E+03  0.12500000000E+03 0.  0.
        -11    1    3    3    0    0 -0.32690354261E+02 -0.16643025320E+01  0.72640505224E+01  0.33529026155E+02  0.51100000000E-03 0.  1.
         23    2    1    0    0    0  0.28688581726E+02 -0.70976195079E+01  0.29765188972E+01  0.95296959939E+02  0.90549654802E+02 0.  0.
         11    1    3    3    0    0  0.61378935987E+02 -0.54333169759E+01 -0.42875316252E+01  0.61767933784E+02  0.51100000000E-03 0. -1.
         22    1    1    0    0    0 -0.28688581726E+02  0.70976195079E+01 -0.29765188972E+01  0.29703040061E+02  0.00000000000E+00 0. -1.
</event>
<event>
 5    1  0.1691138E-003  0.9118800E+02  0.7818608E-02  0.1130116E+00
         25   -1    0    0    0    0  0.00000000000E+00  0.00000000000E+00  0.99999998245E-14  0.12500000000E+03  0.12500000000E+03 0.  0.
        -11    1    3    3    0    0  0.13686244795E+02  0.16145888786E+02  0.41470339668E+02  0.46559554269E+02  0.51100000000E-03 0.  1.
         23    2    1    0    0    0 -0.19038425565E+02 -0.12544038041E+02  0.17610270334E+02  0.96191387405E+02  0.91776069056E+02 0.  0.
         11    1    3    3    0    0 -0.32724670360E+02 -0.28689926828E+02 -0.23860069334E+02  0.49631833136E+02  0.51100000000E-03 0. -1.
         22    1    1    0    0    0  0.19038425565E+02  0.12544038041E+02 -0.17610270334E+02  0.28808612595E+02  0.00000000000E+00 0. -1.
</event>
<event>
 5    1  0.1691138E-003  0.9118800E+02  0.7818608E-02  0.1130116E+00
         25   -1    0    0    0    0  0.00000000000E+00  0.00000000000E+00  0.99999998245E-14  0.12500000000E+03  0.12500000000E+03 0.  0.
        -11    1    3    3    0    0 -0.46149728846E+02  0.29332813912E+02 -0.10436475114E+02  0.55669843341E+02  0.51100000000E-03 0. -1.
         23    2    1    0    0    0 -0.11166114987E+02 -0.14401754367E+01 -0.18877146631E+02  0.10302039823E+03  0.10064839570E+03 0.  0.
         11    1    3    3    0    0  0.34983613859E+02 -0.30772989348E+02 -0.84406715175E+01  0.47350554886E+02  0.51100000000E-03 0.  1.
         22    1    1    0    0    0  0.11166114987E+02  0.14401754367E+01  0.18877146631E+02  0.21979601774E+02  0.00000000000E+00 0. -1.
</event>
<event>
 5    1  0.1691138E-003  0.9118800E+02  0.7818608E-02  0.1130116E+00
         25   -1    0    0    0    0  0.00000000000E+00  0.00000000000E+00  0.99999998245E-14  0.12500000000E+03  0.12500000000E+03 0.  0.
        -11    1    3    3    0    0  0.98577473023E+00 -0.53215043950E+01  0.45806741793E+02  0.46125348289E+02  0.51100000000E-03 0. -1.
         23    2    1    0    0    0  0.99144039309E+01 -0.24438198319E+02 -0.21715777094E+01  0.98538014207E+02  0.94918404705E+02 0.  0.
         11    1    3    3    0    0  0.89286292007E+01 -0.19116693924E+02 -0.47978319503E+02  0.52412665917E+02  0.51100000000E-03 0.  1.
         22    1    1    0    0    0 -0.99144039309E+01  0.24438198319E+02  0.21715777094E+01  0.26461985793E+02  0.00000000000E+00 0. -1.
</event>
<event>
 5    1  0.1691138E-003  0.9118800E+02  0.7818608E-02  0.1130116E+00
         25   -1    0    0    0    0  0.00000000000E+00  0.00000000000E+00  0.99999998245E-14  0.12500000000E+03  0.12500000000E+03 0.  0.
        -11    1    3    3    0    0 -0.51862775085E+01  0.28214983339E+02 -0.43508815017E+02  0.52115254424E+02  0.51100000000E-03 0. -1.
         23    2    1    0    0    0  0.47978822626E+01  0.35619855668E+02 -0.10243405317E+02  0.87627267367E+02  0.79257913432E+02 0.  0.
         11    1    3    3    0    0  0.99841597711E+01  0.74048723281E+01  0.33265409699E+02  0.35512012943E+02  0.51100000000E-03 0.  1.
         22    1    1    0    0    0 -0.47978822626E+01 -0.35619855668E+02  0.10243405317E+02  0.37372732633E+02  0.00000000000E+00 0.  1.
</event>
<event>
 5    1  0.1691138E-003  0.9118800E+02  0.7818608E-02  0.1130116E+00
         25   -1    0    0    0    0  0.00000000000E+00  0.00000000000E+00  0.99999998245E-14  0.12500000000E+03  0.12500000000E+03 0.  0.
        -11    1    3    3    0    0  0.21080103604E+02 -0.32067037806E+02 -0.10414913301E+02  0.39763502121E+02  0.51100000000E-03 0.  1.
         23    2    1    0    0    0 -0.21444421663E+02  0.64476176352E+01 -0.16103322418E+02  0.97418267158E+02  0.93432150728E+02 0.  0.
         11    1    3    3    0    0 -0.42524525267E+02  0.38514655441E+02 -0.56884091172E+01  0.57654765037E+02  0.51100000000E-03 0. -1.
         22    1    1    0    0    0  0.21444421663E+02 -0.64476176352E+01  0.16103322418E+02  0.27581732842E+02  0.00000000000E+00 0. -1.
</event>
<event>
 5    1  0.1691138E-003  0.9118800E+02  0.7818608E-02  0.1130116E+00
         25   -1    0    0    0    0  0.00000000000E+00  0.00000000000E+00  0.99999998245E-14  0.12500000000E+03  0.12500000000E+03 0.  0.
        -11    1    3    3    0    0  0.21654174456E+02 -0.55949845507E+02  0.12786960063E+02  0.61341623972E+02  0.51100000000E-03 0. -1.
         23    2    1    0    0    0  0.16612389648E+02 -0.22524610465E+02  0.10075935499E+02  0.95253503692E+02  0.90489645391E+02 0.  0.
         11    1    3    3    0    0 -0.50417848084E+01  0.33425235042E+02 -0.27110245641E+01  0.33911879720E+02  0.51100000000E-03 0.  1.
         22    1    1    0    0    0 -0.16612389648E+02  0.22524610465E+02 -0.10075935499E+02  0.29746496308E+02  0.00000000000E+00 0. -1.
</event>
<event>
 5    1  0.1691138E-003  0.9118800E+02  0.7818608E-02  0.1130116E+00
         25   -1    0    0    0    0  0.00000000000E+00  0.00000000000E+00  0.99999998245E-14  0.12500000000E+03  0.12500000000E+03 0.  0.
        -11    1    3    3    0    0  0.48908673376E+01 -0.10815720709E+01 -0.38771940421E+02  0.39094165111E+02  0.51100000000E-03 0. -1.
         23    2    1    0    0    0  0.21902605164E+02 -0.18158558542E+02  0.11079895105E+02  0.94467698468E+02  0.89397564939E+02 0.  0.
         11    1    3    3    0    0  0.17011737827E+02 -0.17076986471E+02  0.49851835526E+02  0.55373533357E+02  0.51100000000E-03 0.  1.
         22    1    1    0    0    0 -0.21902605164E+02  0.18158558542E+02 -0.11079895105E+02  0.30532301532E+02  0.00000000000E+00 0.  1.
</event>
<event>
 5    1  0.1691138E-003  0.9118800E+02  0.7818608E-02  0.1130116E+00
         25   -1    0    0    0    0  0.00000000000E+00  0.00000000000E+00  0.99999998245E-14  0.12500000000E+03  0.12500000000E+03 0.  0.
        -11    1    3    3    0    0 -0.14805049835E+02 -0.36370275464E+02  0.43054549108E+02  0.58272468946E+02  0.51100000000E-03 0.  1.
         23    2    1    0    0    0 -0.21181761342E+02 -0.94259308161E+01  0.17486153395E+02  0.95960703420E+02  0.91461335301E+02 0.  0.
         11    1    3    3    0    0 -0.63767115068E+01  0.26944344648E+02 -0.25568395713E+02  0.37688234474E+02  0.51100000000E-03 0. -1.
         22    1    1    0    0    0  0.21181761342E+02  0.94259308161E+01 -0.17486153395E+02  0.29039296580E+02  0.00000000000E+00 0.  1.
</event>
<event>
 5    1  0.1691138E-003  0.9118800E+02  0.7818608E-02  0.1130116E+00
         25   -1    0    0    0    0  0.00000000000E+00  0.00000000000E+00  0.99999998245E-14  0.12500000000E+03  0.12500000000E+03 0.  0.
        -11    1    3    3    0    0 -0.39504626997E+02  0.32019831837E+02  0.15889208506E+02  0.53276187291E+02  0.51100000000E-03 0. -1.
         23    2    1    0    0    0 -0.15832614376E+02 -0.24884238640E+01  0.24232524127E+02  0.95946959594E+02  0.91442549715E+02 0.  0.
         11    1    3    3    0    0  0.23672012621E+02 -0.34508255701E+02  0.83433156207E+01  0.42670772302E+02  0.51100000000E-03 0.  1.
         22    1    1    0    0    0  0.15832614376E+02  0.24884238640E+01 -0.24232524127E+02  0.29053040406E+02  0.00000000000E+00 0. -1.
</event>
<event>
 5    1  0.1691138E-003  0.9118800E+02  0.7818608E-02  0.1130116E+00
         25   -1    0    0    0    0  0.00000000000E+00  0.00000000000E+00  0.99999998245E-14  0.12500000000E+03  0.12500000000E+03 0.  0.
        -11    1    3    3    0    0 -0.61111281553E+01 -0.23938449572E+02  0.34190552031E+02  0.42182805783E+02  0.51100000000E-03 0. -1.
         23    2    1    0    0    0 -0.19042461510E+02 -0.16404995056E+02 -0.16431764541E+02  0.94970979219E+02  0.90098528316E+02 0.  0.
         11    1    3    3    0    0 -0.12931333355E+02  0.75334545159E+01 -0.50622316572E+02  0.52788173436E+02  0.51100000000E-03 0.  1.
         22    1    1    0    0    0  0.19042461510E+02  0.16404995056E+02  0.16431764541E+02  0.30029020781E+02  0.00000000000E+00 0.  1.
</event>
<event>
 5    1  0.1691138E-003  0.9118800E+02  0.7818608E-02  0.1130116E+00
         25   -1    0    0    0    0  0.00000000000E+00  0.00000000000E+00  0.99999998245E-14  0.12500000000E+03  0.12500000000E+03 0.  0.
        -11    1    3    3    0    0 -0.98316064654E+01 -0.48891191214E+02 -0.29688440515E+02  0.58038026883E+02  0.51100000000E-03 0.  1.
         23    2    1    0    0    0  0.87489261563E+01 -0.15858223880E+02 -0.21635870574E+02  0.96784084828E+02  0.92579809931E+02 0.  0.
         11    1    3    3    0    0  0.18580532622E+02  0.33032967333E+02  0.80525699408E+01  0.38746057945E+02  0.51100000000E-03 0. -1.
         22    1    1    0    0    0 -0.87489261563E+01  0.15858223880E+02  0.21635870574E+02  0.28215915172E+02  0.00000000000E+00 0.  1.
</event>
<event>
 5    1  0.1691138E-003  0.9118800E+02  0.7818608E-02  0.1130116E+00
         25   -1    0    0    0    0  0.00000000000E+00  0.00000000000E+00  0.99999998245E-14  0.12500000000E+03  0.12500000000E+03 0.  0.
        -11    1    3    3    0    0  0.18100938314E+01 -0.47429246107E+02 -0.30573232536E+02  0.56458235661E+02  0.51100000000E-03 0.  1.
         23    2    1    0    0    0  0.99910026100E+01 -0.30531541428E+02  0.62455782562E+00  0.92869247945E+02  0.87133873931E+02 0.  0.
         11    1    3    3    0    0  0.81809087787E+01  0.16897704679E+02  0.31197790362E+02  0.36411012285E+02  0.51100000000E-03 0. -1.
         22    1    1    0    0    0 -0.99910026100E+01  0.30531541428E+02 -0.62455782562E+00  0.32130752055E+02  0.00000000000E+00 0.  1.
</event>
<event>
 5    1  0.1691138E-003  0.9118800E+02  0.7818608E-02  0.1130116E+00
         25   -1    0    0    0    0  0.00000000000E+00  0.00000000000E+00  0.99999998245E-14  0.12500000000E+03  0.12500000000E+03 0.  0.
        -11    1    3    3    0    0 -0.15589523785E+02 -0.45918703179E+01  0.94945236417E+01  0.18821915532E+02  0.51100000000E-03 0. -1.
         23    2    1    0    0    0  0.30175587492E+02 -0.34298972237E+02 -0.12480269704E+02  0.77642395448E+02  0.61527220496E+02 0.  0.
         11    1    3    3    0    0  0.45765111277E+02 -0.29707101919E+02 -0.21974793346E+02  0.58820479916E+02  0.51100000000E-03 0.  1.
         22    1    1    0    0    0 -0.30175587492E+02  0.34298972237E+02  0.12480269704E+02  0.47357604552E+02  0.00000000000E+00 0.  1.
</event>
<event>
 5    1  0.1691138E-003  0.9118800E+02  0.7818608E-02  0.1130116E+00
         25   -1    0    0    0    0  0.00000000000E+00  0.00000000000E+00  0.99999998245E-14  0.12500000000E+03  0.12500000000E+03 0.  0.
        -11    1    3    3    0    0 -0.46467470162E+02 -0.28192854546E+00 -0.23284132505E+02  0.51975533607E+02  0.51100000000E-03 0. -1.
         23    2    1    0    0    0 -0.85719696157E+01 -0.22469972056E+02 -0.14978663927E+02  0.96667356630E+02  0.92422070727E+02 0.  0.
         11    1    3    3    0    0  0.37895500547E+02 -0.22188043511E+02  0.83054685780E+01  0.44691823023E+02  0.51100000000E-03 0.  1.
         22    1    1    0    0    0  0.85719696157E+01  0.22469972056E+02  0.14978663927E+02  0.28332643370E+02  0.00000000000E+00 0.  1.
</event>
<event>
 5    1  0.1691138E-003  0.9118800E+02  0.7818608E-02  0.1130116E+00
         25   -1    0    0    0    0  0.00000000000E+00  0.00000000000E+00  0.99999998245E-14  0.12500000000E+03  0.12500000000E+03 0.  0.
        -11    1    3    3    0    0 -0.15016246178E+02  0.57560962905E+02 -0.14606646450E+02  0.61254438375E+02  0.51100000000E-03 0.  1.
         23    2    1    0    0    0 -0.48222043616E+01  0.24475696171E+02 -0.15027587445E+02  0.95877126818E+02  0.91347039932E+02 0.  0.
         11    1    3    3    0    0  0.10194041817E+02 -0.33085266734E+02 -0.42094099540E+00  0.34622688443E+02  0.51100000000E-03 0. -1.
         22    1    1    0    0    0  0.48222043616E+01 -0.24475696171E+02  0.15027587445E+02  0.29122873182E+02  0.00000000000E+00 0.  1.
</event>
<event>
 5    1  0.1691138E-003  0.9118800E+02  0.7818608E-02  0.1130116E+00
         25   -1    0    0    0    0  0.00000000000E+00  0.00000000000E+00  0.99999998245E-14  0.12500000000E+03  0.12500000000E+03 0.  0.
        -11    1    3    3    0    0  0.25251121360E+02 -0.22510384741E+02 -0.77736740159E+01  0.34709747321E+02  0.51100000000E-03 0.  1.
         23    2    1    0    0    0 -0.18303978422E+02  0.90884166885E+01 -0.26365995995E+02  0.91641332629E+02  0.85354163092E+02 0.  0.
         11    1    3    3    0    0 -0.43555099782E+02  0.31598801429E+02 -0.18592321979E+02  0.56931585308E+02  0.51100000000E-03 0. -1.
         22    1    1    0    0    0  0.18303978422E+02 -0.90884166885E+01  0.26365995995E+02  0.33358667371E+02  0.00000000000E+00 0. -1.
</event>
<event>
 5    1  0.1691138E-003  0.9118800E+02  0.7818608E-02  0.1130116E+00
         25   -1    0    0    0    0  0.00000000000E+00  0.00000000000E+00  0.99999998245E-14  0.12500000000E+03  0.12500000000E+03 0.  0.
        -11    1    3    3    0    0  0.40671630445E+02  0.13477565585E+02  0.25217374815E+02  0.49716619857E+02  0.51100000000E-03 0. -1.
         23    2    1    0    0    0  0.21181519406E+02 -0.13480819443E+02 -0.98290049997E+01  0.98037088501E+02  0.94256416891E+02 0.  0.
         11    1    3    3    0    0 -0.19490111038E+02 -0.26958385029E+02 -0.35046379814E+02  0.48320468644E+02  0.51100000000E-03 0.  1.
         22    1    1    0    0    0 -0.21181519406E+02  0.13480819443E+02  0.98290049997E+01  0.26962911499E+02  0.00000000000E+00 0.  1.
</event>
<event>
 5    1  0.1691138E-003  0.9118800E+02  0.7818608E-02  0.1130116E+00
         25   -1    0    0    0    0  0.00000000000E+00  0.00000000000E+00  0.99999998245E-14  0.12500000000E+03  0.12500000000E+03 0.  0.
        -11    1    3    3    0    0  0.38415256149E+02 -0.15328759829E+02  0.49147931424E+01  0.41651626316E+02  0.51100000000E-03 0. -1.
         23    2    1    0    0    0  0.38925528205E+01  0.25873067793E+02 -0.92652017783E+01  0.97243711190E+02  0.93198325079E+02 0.  0.
         11    1    3    3    0    0 -0.34522703328E+02  0.41201827622E+02 -0.14179994921E+02  0.55592084874E+02  0.51100000000E-03 0.  1.
         22    1    1    0    0    0 -0.38925528205E+01 -0.25873067793E+02  0.92652017783E+01  0.27756288810E+02  0.00000000000E+00 0.  1.
</event>
<event>
 5    1  0.1691138E-003  0.9118800E+02  0.7818608E-02  0.1130116E+00
         25   -1    0    0    0    0  0.00000000000E+00  0.00000000000E+00  0.99999998245E-14  0.12500000000E+03  0.12500000000E+03 0.  0.
        -11    1    3    3    0    0  0.47200271105E+02  0.28917920300E+02  0.13567946203E+02  0.56992989669E+02  0.51100000000E-03 0.  1.
         23    2    1    0    0    0  0.28437882084E+02 -0.17489411323E+01 -0.25552826630E+01  0.96394032057E+02  0.92051659486E+02 0.  0.
         11    1    3    3    0    0 -0.18762389022E+02 -0.30666861433E+02 -0.16123228866E+02  0.39401042388E+02  0.51100000000E-03 0. -1.
         22    1    1    0    0    0 -0.28437882084E+02  0.17489411323E+01  0.25552826630E+01  0.28605967943E+02  0.00000000000E+00 0.  1.
</event>
<event>
 5    1  0.1691138E-003  0.9118800E+02  0.7818608E-02  0.1130116E+00
         25   -1    0    0    0    0  0.00000000000E+00  0.00000000000E+00  0.99999998245E-14  0.12500000000E+03  0.12500000000E+03 0.  0.
        -11    1    3    3    0    0 -0.23937726072E+02 -0.82116037819E+01 -0.32747378139E+02  0.41386422186E+02  0.51100000000E-03 0. -1.
         23    2    1    0    0    0 -0.12475622430E+02  0.54442357121E+01  0.22092066762E+02  0.99051199039E+02  0.95591839399E+02 0.  0.
         11    1    3    3    0    0  0.11462103642E+02  0.13655839494E+02  0.54839444900E+02  0.57664776852E+02  0.51100000000E-03 0.  1.
         22    1    1    0    0    0  0.12475622430E+02 -0.54442357121E+01 -0.22092066762E+02  0.25948800961E+02  0.00000000000E+00 0.  1.
</event>
<event>
 5    1  0.1691138E-003  0.9118800E+02  0.7818608E-02  0.1130116E+00
         25   -1    0    0    0    0  0.00000000000E+00  0.00000000000E+00  0.99999998245E-14  0.12500000000E+03  0.12500000000E+03 0.  0.
        -11    1    3    3    0    0 -0.39355549172E+02  0.50734977459E+01 -0.18334385283E+02  0.43712118617E+02  0.51100000000E-03 0.  1.
         23    2    1    0    0    0  0.11136372391E+02  0.13786952064E+02 -0.23893526209E+02  0.95251059986E+02  0.90486269657E+02 0.  0.
         11    1    3    3    0    0  0.50491921564E+02  0.87134543178E+01 -0.55591409257E+01  0.51538941369E+02  0.51100000000E-03 0. -1.
         22    1    1    0    0    0 -0.11136372391E+02 -0.13786952064E+02  0.23893526209E+02  0.29748940014E+02  0.00000000000E+00 0. -1.
</event>
<event>
 5    1  0.1691138E-003  0.9118800E+02  0.7818608E-02  0.1130116E+00
         25   -1    0    0    0    0  0.00000000000E+00  0.00000000000E+00  0.99999998245E-14  0.12500000000E+03  0.12500000000E+03 0.  0.
        -11    1    3    3    0    0 -0.17968866803E+02  0.22003766223E+02 -0.38301899867E+02  0.47687329930E+02  0.51100000000E-03 0.  1.
         23    2    1    0    0    0  0.22343016141E+02  0.13011212107E+02 -0.14730490025E+02  0.95242826964E+02  0.90474895639E+02 0.  0.
         11    1    3    3    0    0  0.40311882943E+02 -0.89925541161E+01  0.23571409842E+02  0.47555497034E+02  0.51100000000E-03 0. -1.
         22    1    1    0    0    0 -0.22343016141E+02 -0.13011212107E+02  0.14730490025E+02  0.29757173036E+02  0.00000000000E+00 0. -1.
</event>
<event>
 5    1  0.1691138E-003  0.9118800E+02  0.7818608E-02  0.1130116E+00
         25   -1    0    0    0    0  0.00000000000E+00  0.00000000000E+00  0.99999998245E-14  0.12500000000E+03  0.12500000000E+03 0.  0.
        -11    1    3    3    0    0 -0.18284995176E+02 -0.26263117547E+02  0.51267253038E+02  0.60435284612E+02  0.51100000000E-03 0.  1.
         23    2    1    0    0    0  0.15906435401E+01 -0.15669930761E+02  0.14281947763E+02  0.10373851113E+03  0.10153633726E+03 0.  0.
         11    1    3    3    0    0  0.19875638716E+02  0.10593186786E+02 -0.36985305274E+02  0.43303226521E+02  0.51100000000E-03 0. -1.
         22    1    1    0    0    0 -0.15906435401E+01  0.15669930761E+02 -0.14281947763E+02  0.21261488867E+02  0.00000000000E+00 0.  1.
</event>
<event>
 5    1  0.1691138E-003  0.9118800E+02  0.7818608E-02  0.1130116E+00
         25   -1    0    0    0    0  0.00000000000E+00  0.00000000000E+00  0.99999998245E-14  0.12500000000E+03  0.12500000000E+03 0.  0.
        -11    1    3    3    0    0 -0.22505183324E+02  0.43191712817E+02  0.84565933647E+01  0.49431986649E+02  0.51100000000E-03 0.  1.
         23    2    1    0    0    0 -0.22096244335E+02 -0.52241764216E+01  0.14247441099E+02  0.98194671968E+02  0.94465168142E+02 0.  0.
         11    1    3    3    0    0  0.40893898839E+00 -0.48415889238E+02  0.57908477342E+01  0.48762685319E+02  0.51100000000E-03 0. -1.
         22    1    1    0    0    0  0.22096244335E+02  0.52241764216E+01 -0.14247441099E+02  0.26805328032E+02  0.00000000000E+00 0. -1.
</event>
<event>
 5    1  0.1691138E-003  0.9118800E+02  0.7818608E-02  0.1130116E+00
         25   -1    0    0    0    0  0.00000000000E+00  0.00000000000E+00  0.99999998245E-14  0.12500000000E+03  0.12500000000E+03 0.  0.
        -11    1    3    3    0    0  0.21643971124E+02  0.29338504841E+02 -0.55476834621E+01  0.36877989972E+02  0.51100000000E-03 0.  1.
         23    2    1    0    0    0 -0.11498247455E+02 -0.18795807868E+02 -0.17902039012E+02  0.96610299601E+02  0.92344869377E+02 0.  0.
         11    1    3    3    0    0 -0.33142218578E+02 -0.48134312710E+02 -0.12354355550E+02  0.59732309629E+02  0.51100000000E-03 0. -1.
         22    1    1    0    0    0  0.11498247455E+02  0.18795807868E+02  0.17902039012E+02  0.28389700399E+02  0.00000000000E+00 0. -1.
</event>
<event>
 5    1  0.1691138E-003  0.9118800E+02  0.7818608E-02  0.1130116E+00
         25   -1    0    0    0    0  0.00000000000E+00  0.00000000000E+00  0.99999998245E-14  0.12500000000E+03  0.12500000000E+03 0.  0.
        -11    1    3    3    0    0  0.23767019082E+02 -0.74553874774E+01  0.24141913147E+02  0.34688412606E+02  0.51100000000E-03 0.  1.
         23    2    1    0    0    0 -0.37329438342E+01 -0.66201086728E+01 -0.29264379264E+02  0.94764844928E+02  0.89812088451E+02 0.  0.
         11    1    3    3    0    0 -0.27499962916E+02  0.83527880457E+00 -0.53406292412E+02  0.60076432322E+02  0.51100000000E-03 0. -1.
         22    1    1    0    0    0  0.37329438342E+01  0.66201086728E+01  0.29264379264E+02  0.30235155072E+02  0.00000000000E+00 0. -1.
</event>
<event>
 5    1  0.1691138E-003  0.9118800E+02  0.7818608E-02  0.1130116E+00
         25   -1    0    0    0    0  0.00000000000E+00  0.00000000000E+00  0.99999998245E-14  0.12500000000E+03  0.12500000000E+03 0.  0.
        -11    1    3    3    0    0  0.11279607477E+02  0.25813996847E+02 -0.14758431619E+02  0.31802567226E+02  0.51100000000E-03 0. -1.
         23    2    1    0    0    0 -0.19516562470E+02 -0.15065592659E+02  0.19647808835E+02  0.93473746102E+02  0.87996798383E+02 0.  0.
         11    1    3    3    0    0 -0.30796169947E+02 -0.40879589506E+02  0.34406240453E+02  0.61671178876E+02  0.51100000000E-03 0.  1.
         22    1    1    0    0    0  0.19516562470E+02  0.15065592659E+02 -0.19647808835E+02  0.31526253898E+02  0.00000000000E+00 0.  1.
</event>
<event>
 5    1  0.1691138E-003  0.9118800E+02  0.7818608E-02  0.1130116E+00
         25   -1    0    0    0    0  0.00000000000E+00  0.00000000000E+00  0.99999998245E-14  0.12500000000E+03  0.12500000000E+03 0.  0.
        -11    1    3    3    0    0 -0.36000616151E+01 -0.44510864023E+02 -0.40626551715E+02  0.60371302489E+02  0.51100000000E-03 0.  1.
         23    2    1    0    0    0  0.97873709428E+01 -0.17588071586E+02 -0.17940543627E+02  0.98037136693E+02  0.94256480802E+02 0.  0.
         11    1    3    3    0    0  0.13387432558E+02  0.26922792437E+02  0.22686008087E+02  0.37665834204E+02  0.51100000000E-03 0. -1.
         22    1    1    0    0    0 -0.97873709428E+01  0.17588071586E+02  0.17940543627E+02  0.26962863307E+02  0.00000000000E+00 0.  1.
</event>
<event>
 5    1  0.1691138E-003  0.9118800E+02  0.7818608E-02  0.1130116E+00
         25   -1    0    0    0    0  0.00000000000E+00  0.00000000000E+00  0.99999998245E-14  0.12500000000E+03  0.12500000000E+03 0.  0.
        -11    1    3    3    0    0  0.25279529621E+02 -0.72925177604E+01  0.52213182721E+02  0.58467528452E+02  0.51100000000E-03 0.  1.
         23    2    1    0    0    0  0.15419343416E+02  0.11884332678E+02  0.21483321399E+02  0.96008162995E+02  0.91526175210E+02 0.  0.
         11    1    3    3    0    0 -0.98601862048E+01  0.19176850438E+02 -0.30729861322E+02  0.37540634542E+02  0.51100000000E-03 0. -1.
         22    1    1    0    0    0 -0.15419343416E+02 -0.11884332678E+02 -0.21483321399E+02  0.28991837005E+02  0.00000000000E+00 0.  1.
</event>
<event>
 5    1  0.1691138E-003  0.9118800E+02  0.7818608E-02  0.1130116E+00
         25   -1    0    0    0    0  0.00000000000E+00  0.00000000000E+00  0.99999998245E-14  0.12500000000E+03  0.12500000000E+03 0.  0.
        -11    1    3    3    0    0 -0.58674306930E+02  0.12894614890E+02 -0.14479209986E+02  0.61794764414E+02  0.51100000000E-03 0. -1.
         23    2    1    0    0    0 -0.26085516406E+02  0.50643019528E+01  0.30198156334E+00  0.98425717069E+02  0.94770402908E+02 0.  0.
         11    1    3    3    0    0  0.32588790525E+02 -0.78303129371E+01  0.14781191549E+02  0.36630952655E+02  0.51100000000E-03 0.  1.
         22    1    1    0    0    0  0.26085516406E+02 -0.50643019528E+01 -0.30198156334E+00  0.26574282931E+02  0.00000000000E+00 0. -1.
</event>
<event>
 5    1  0.1691138E-003  0.9118800E+02  0.7818608E-02  0.1130116E+00
         25   -1    0    0    0    0  0.00000000000E+00  0.00000000000E+00  0.99999998245E-14  0.12500000000E+03  0.12500000000E+03 0.  0.
        -11    1    3    3    0    0 -0.17501064599E+02 -0.18941559571E+01  0.33787355062E+02  0.38098037368E+02  0.51100000000E-03 0. -1.
         23    2    1    0    0    0  0.20752584243E+02  0.25301359000E+02  0.96104695121E+01  0.90894433823E+02  0.84253240032E+02 0.  0.
         11    1    3    3    0    0  0.38253648842E+02  0.27195514957E+02 -0.24176885550E+02  0.52796396455E+02  0.51100000000E-03 0.  1.
         22    1    1    0    0    0 -0.20752584243E+02 -0.25301359000E+02 -0.96104695121E+01  0.34105566177E+02  0.00000000000E+00 0.  1.
</event>
<event>
 5    1  0.1691138E-003  0.9118800E+02  0.7818608E-02  0.1130116E+00
         25   -1    0    0    0    0  0.00000000000E+00  0.00000000000E+00  0.99999998245E-14  0.12500000000E+03  0.12500000000E+03 0.  0.
        -11    1    3    3    0    0  0.25734838883E+02 -0.47523834777E+02  0.92845781004E+01  0.54836121262E+02  0.51100000000E-03 0. -1.
         23    2    1    0    0    0 -0.56759751440E+01 -0.21906833520E+02  0.17745214754E+02  0.96242067262E+02  0.91845069631E+02 0.  0.
         11    1    3    3    0    0 -0.31410814027E+02  0.25617001257E+02  0.84606366535E+01  0.41405946000E+02  0.51100000000E-03 0.  1.
         22    1    1    0    0    0  0.56759751440E+01  0.21906833520E+02 -0.17745214754E+02  0.28757932738E+02  0.00000000000E+00 0. -1.
</event>
<event>
 5    1  0.1691138E-003  0.9118800E+02  0.7818608E-02  0.1130116E+00
         25   -1    0    0    0    0  0.00000000000E+00  0.00000000000E+00  0.99999998245E-14  0.12500000000E+03  0.12500000000E+03 0.  0.
        -11    1    3    3    0    0 -0.11996735260E+02  0.35940583772E+02 -0.23516813247E+02  0.44594705115E+02  0.51100000000E-03 0.  1.
         23    2    1    0    0    0 -0.19538605877E+01 -0.14762765081E+02 -0.24542213361E+02  0.96293257922E+02  0.91914713080E+02 0.  0.
         11    1    3    3    0    0  0.10042874673E+02 -0.50703348854E+02 -0.10254001145E+01  0.51698552807E+02  0.51100000000E-03 0. -1.
         22    1    1    0    0    0  0.19538605877E+01  0.14762765081E+02  0.24542213361E+02  0.28706742078E+02  0.00000000000E+00 0.  1.
</event>
<event>
 5    1  0.1691138E-003  0.9118800E+02  0.7818608E-02  0.1130116E+00
         25   -1    0    0    0    0  0.00000000000E+00  0.00000000000E+00  0.99999998245E-14  0.12500000000E+03  0.12500000000E+03 0.  0.
        -11    1    3    3    0    0 -0.35363931504E+02  0.51549228794E+01  0.24365848100E+02  0.43253617597E+02  0.51100000000E-03 0. -1.
         23    2    1    0    0    0 -0.73952058200E+01 -0.46373512650E+01 -0.23713147301E+02  0.99731295031E+02  0.96477063377E+02 0.  0.
         11    1    3    3    0    0  0.27968725684E+02 -0.97922741444E+01 -0.48078995401E+02  0.56477677434E+02  0.51100000000E-03 0.  1.
         22    1    1    0    0    0  0.73952058200E+01  0.46373512650E+01  0.23713147301E+02  0.25268704969E+02  0.00000000000E+00 0.  1.
</event>
<event>
 5    1  0.1691138E-003  0.9118800E+02  0.7818608E-02  0.1130116E+00
         25   -1    0    0    0    0  0.00000000000E+00  0.00000000000E+00  0.99999998245E-14  0.12500000000E+03  0.12500000000E+03 0.  0.
        -11    1    3    3    0    0 -0.35123978556E+01  0.33892276985E+02 -0.50528739982E+01  0.34446406400E+02  0.51100000000E-03 0. -1.
         23    2    1    0    0    0 -0.21527420159E+02 -0.21891260378E+02  0.49094143647E+01  0.93907244428E+02  0.88610445812E+02 0.  0.
         11    1    3    3    0    0 -0.18015022304E+02 -0.55783537363E+02  0.99622883630E+01  0.59460838029E+02  0.51100000000E-03 0.  1.
         22    1    1    0    0    0  0.21527420159E+02  0.21891260378E+02 -0.49094143647E+01  0.31092755572E+02  0.00000000000E+00 0.  1.
</event>
<event>
 5    1  0.1691138E-003  0.9118800E+02  0.7818608E-02  0.1130116E+00
         25   -1    0    0    0    0  0.00000000000E+00  0.00000000000E+00  0.99999998245E-14  0.12500000000E+03  0.12500000000E+03 0.  0.
        -11    1    3    3    0    0  0.80714706928E+01  0.30287654122E+02  0.91185021556E+01  0.32644106867E+02  0.51100000000E-03 0. -1.
         23    2    1    0    0    0 -0.37585247125E+02  0.10366283894E+01  0.18186468168E+01  0.87356502871E+02  0.78829726105E+02 0.  0.
         11    1    3    3    0    0 -0.45656717818E+02 -0.29251025732E+02 -0.72998553387E+01  0.54712396004E+02  0.51100000000E-03 0.  1.
         22    1    1    0    0    0  0.37585247125E+02 -0.10366283894E+01 -0.18186468168E+01  0.37643497129E+02  0.00000000000E+00 0.  1.
</event>
<event>
 5    1  0.1691138E-003  0.9118800E+02  0.7818608E-02  0.1130116E+00
         25   -1    0    0    0    0  0.00000000000E+00  0.00000000000E+00  0.99999998245E-14  0.12500000000E+03  0.12500000000E+03 0.  0.
        -11    1    3    3    0    0  0.40816489430E+02 -0.44482229022E+01  0.46780891207E+02  0.62243266935E+02  0.51100000000E-03 0.  1.
         23    2    1    0    0    0  0.27676596232E+02 -0.62077397279E+01  0.28859269796E+02  0.84535355374E+02  0.74221552420E+02 0.  0.
         11    1    3    3    0    0 -0.13139893198E+02 -0.17595168257E+01 -0.17921621411E+02  0.22292088439E+02  0.51100000000E-03 0. -1.
         22    1    1    0    0    0 -0.27676596232E+02  0.62077397279E+01 -0.28859269796E+02  0.40464644626E+02  0.00000000000E+00 0.  1.
</event>
<event>
 5    1  0.1691138E-003  0.9118800E+02  0.7818608E-02  0.1130116E+00
         25   -1    0    0    0    0  0.00000000000E+00  0.00000000000E+00  0.99999998245E-14  0.12500000000E+03  0.12500000000E+03 0.  0.
        -11    1    3    3    0    0 -0.10800487944E+02 -0.12303538576E+02 -0.36412433067E+02  0.39923588058E+02  0.51100000000E-03 0. -1.
         23    2    1    0    0    0  0.12770601492E+02  0.26259829609E+02 -0.40316935801E+01  0.95522526114E+02  0.90860505879E+02 0.  0.
         11    1    3    3    0    0  0.23571089436E+02  0.38563368185E+02  0.32380739487E+02  0.55598938056E+02  0.51100000000E-03 0.  1.
         22    1    1    0    0    0 -0.12770601492E+02 -0.26259829609E+02  0.40316935801E+01  0.29477473886E+02  0.00000000000E+00 0. -1.
</event>
<event>
 5    1  0.1691138E-003  0.9118800E+02  0.7818608E-02  0.1130116E+00
         25   -1    0    0    0    0  0.00000000000E+00  0.00000000000E+00  0.99999998245E-14  0.12500000000E+03  0.12500000000E+03 0.  0.
        -11    1    3    3    0    0  0.36779935938E+02  0.18958944231E+02 -0.67566089912E+00  0.41384317946E+02  0.51100000000E-03 0. -1.
         23    2    1    0    0    0 -0.85247415046E+01  0.54661251287E+01  0.27001489239E+02  0.96162001409E+02  0.91736036279E+02 0.  0.
         11    1    3    3    0    0 -0.45304677443E+02 -0.13492819102E+02  0.27677150138E+02  0.54777683463E+02  0.51100000000E-03 0.  1.
         22    1    1    0    0    0  0.85247415046E+01 -0.54661251287E+01 -0.27001489239E+02  0.28837998591E+02  0.00000000000E+00 0.  1.
</event>
<event>
 5    1  0.1691138E-003  0.9118800E+02  0.7818608E-02  0.1130116E+00
         25   -1    0    0    0    0  0.00000000000E+00  0.00000000000E+00  0.99999998245E-14  0.12500000000E+03  0.12500000000E+03 0.  0.
        -11    1    3    3    0    0 -0.47331391154E+02  0.31043116481E+02  0.17618715491E+02  0.59281993938E+02  0.51100000000E-03 0. -1.
         23    2    1    0    0    0 -0.20581555012E+02  0.23116753759E+02 -0.28982224509E+01  0.93913276074E+02  0.88618954060E+02 0.  0.
         11    1    3    3    0    0  0.26749836143E+02 -0.79263627218E+01 -0.20516937942E+02  0.34631282137E+02  0.51100000000E-03 0.  1.
         22    1    1    0    0    0  0.20581555012E+02 -0.23116753759E+02  0.28982224509E+01  0.31086723926E+02  0.00000000000E+00 0. -1.
</event>
<event>
 5    1  0.1691138E-003  0.9118800E+02  0.7818608E-02  0.1130116E+00
         25   -1    0    0    0    0  0.00000000000E+00  0.00000000000E+00  0.99999998245E-14  0.12500000000E+03  0.12500000000E+03 0.  0.
        -11    1    3    3    0    0 -0.31122348388E+02 -0.12143612347E+02  0.52057979137E+02  0.61855485465E+02  0.51100000000E-03 0.  1.
         23    2    1    0    0    0 -0.12412353427E+02 -0.11640249547E+02  0.24284705772E+02  0.95346857476E+02  0.90618510079E+02 0.  0.
         11    1    3    3    0    0  0.18709994961E+02  0.50336279975E+00 -0.27773273364E+02  0.33491372011E+02  0.51100000000E-03 0. -1.
         22    1    1    0    0    0  0.12412353427E+02  0.11640249547E+02 -0.24284705772E+02  0.29653142524E+02  0.00000000000E+00 0.  1.
</event>
<event>
 5    1  0.1691138E-003  0.9118800E+02  0.7818608E-02  0.1130116E+00
         25   -1    0    0    0    0  0.00000000000E+00  0.00000000000E+00  0.99999998245E-14  0.12500000000E+03  0.12500000000E+03 0.  0.
        -11    1    3    3    0    0  0.82720436099E+01  0.27321987046E+02  0.42215736475E+02  0.50961613868E+02  0.51100000000E-03 0.  1.
         23    2    1    0    0    0 -0.10218989936E+02 -0.96425836149E+01  0.26166768609E+02  0.95299714589E+02  0.90553457401E+02 0.  0.
         11    1    3    3    0    0 -0.18491033546E+02 -0.36964570661E+02 -0.16048967866E+02  0.44338100721E+02  0.51100000000E-03 0. -1.
         22    1    1    0    0    0  0.10218989936E+02  0.96425836149E+01 -0.26166768609E+02  0.29700285411E+02  0.00000000000E+00 0.  1.
</event>
<event>
 5    1  0.1691138E-003  0.9118800E+02  0.7818608E-02  0.1130116E+00
         25   -1    0    0    0    0  0.00000000000E+00  0.00000000000E+00  0.99999998245E-14  0.12500000000E+03  0.12500000000E+03 0.  0.
        -11    1    3    3    0    0 -0.61532237349E+02  0.26115599454E+01 -0.53181363474E+01  0.61816818529E+02  0.51100000000E-03 0. -1.
         23    2    1    0    0    0 -0.30605132073E+02 -0.42045936227E+01 -0.61685773906E+01  0.93497554639E+02  0.88030612060E+02 0.  0.
         11    1    3    3    0    0  0.30927105276E+02 -0.68161535681E+01 -0.85044104315E+00  0.31680736110E+02  0.51100000000E-03 0.  1.
         22    1    1    0    0    0  0.30605132073E+02  0.42045936227E+01  0.61685773906E+01  0.31502445361E+02  0.00000000000E+00 0. -1.
</event>
<event>
 5    1  0.1691138E-003  0.9118800E+02  0.7818608E-02  0.1130116E+00
         25   -1    0    0    0    0  0.00000000000E+00  0.00000000000E+00  0.99999998245E-14  0.12500000000E+03  0.12500000000E+03 0.  0.
        -11    1    3    3    0    0  0.29140385323E+02 -0.13903498929E+02  0.86160667325E+01  0.33417150468E+02  0.51100000000E-03 0. -1.
         23    2    1    0    0    0 -0.26386284321E+02  0.12463559273E+02  0.73842399571E+01  0.94898450044E+02  0.89997847257E+02 0.  0.
         11    1    3    3    0    0 -0.55526669644E+02  0.26367058201E+02 -0.12318267755E+01  0.61481299575E+02  0.51100000000E-03 0.  1.
         22    1    1    0    0    0  0.26386284321E+02 -0.12463559273E+02 -0.73842399571E+01  0.30101549956E+02  0.00000000000E+00 0.  1.
</event>
<event>
 5    1  0.1691138E-003  0.9118800E+02  0.7818608E-02  0.1130116E+00
         25   -1    0    0    0    0  0.00000000000E+00  0.00000000000E+00  0.99999998245E-14  0.12500000000E+03  0.12500000000E+03 0.  0.
        -11    1    3    3    0    0 -0.11760575694E+02 -0.19225215992E+02  0.57063847377E+02  0.61353098930E+02  0.51100000000E-03 0.  1.
         23    2    1    0    0    0 -0.13265005426E+02 -0.70501941054E+01  0.23293474607E+02  0.97282648663E+02  0.93250534399E+02 0.  0.
         11    1    3    3    0    0 -0.15044297328E+01  0.12175021887E+02 -0.33770372769E+02  0.35929549733E+02  0.51100000000E-03 0. -1.
         22    1    1    0    0    0  0.13265005426E+02  0.70501941054E+01 -0.23293474607E+02  0.27717351337E+02  0.00000000000E+00 0.  1.
</event>
<event>
 5    1  0.1691138E-003  0.9118800E+02  0.7818608E-02  0.1130116E+00
         25   -1    0    0    0    0  0.00000000000E+00  0.00000000000E+00  0.99999998245E-14  0.12500000000E+03  0.12500000000E+03 0.  0.
        -11    1    3    3    0    0  0.64084965402E+01  0.36553862887E+02 -0.23907732906E+02  0.44145593357E+02  0.51100000000E-03 0.  1.
         23    2    1    0    0    0  0.24457355994E+02 -0.10471262219E+02 -0.11468423783E+02  0.96028732531E+02  0.91554263324E+02 0.  0.
         11    1    3    3    0    0  0.18048859454E+02 -0.47025125106E+02  0.12439309123E+02  0.51883139174E+02  0.51100000000E-03 0. -1.
         22    1    1    0    0    0 -0.24457355994E+02  0.10471262219E+02  0.11468423783E+02  0.28971267469E+02  0.00000000000E+00 0. -1.
</event>
<event>
 5    1  0.1691138E-003  0.9118800E+02  0.7818608E-02  0.1130116E+00
         25   -1    0    0    0    0  0.00000000000E+00  0.00000000000E+00  0.99999998245E-14  0.12500000000E+03  0.12500000000E+03 0.  0.
        -11    1    3    3    0    0  0.35311319455E+02 -0.30185287771E+02  0.27990966358E+02  0.54235920545E+02  0.51100000000E-03 0.  1.
         23    2    1    0    0    0  0.80832352698E+01 -0.26193407686E+02 -0.49342723178E+01  0.97147166358E+02  0.93068746577E+02 0.  0.
         11    1    3    3    0    0 -0.27228084185E+02  0.39918800858E+01 -0.32925238676E+02  0.42911245812E+02  0.51100000000E-03 0. -1.
         22    1    1    0    0    0 -0.80832352698E+01  0.26193407686E+02  0.49342723178E+01  0.27852833642E+02  0.00000000000E+00 0.  1.
</event>
<event>
 5    1  0.1691138E-003  0.9118800E+02  0.7818608E-02  0.1130116E+00
         25   -1    0    0    0    0  0.00000000000E+00  0.00000000000E+00  0.99999998245E-14  0.12500000000E+03  0.12500000000E+03 0.  0.
        -11    1    3    3    0    0 -0.25150230131E+02  0.31408021748E+02  0.56051636104E+01  0.40625309416E+02  0.51100000000E-03 0. -1.
         23    2    1    0    0    0  0.13080662210E+02 -0.15720576047E+01  0.26607217276E+02  0.95309612665E+02  0.90567119675E+02 0.  0.
         11    1    3    3    0    0  0.38230892341E+02 -0.32980079353E+02  0.21002053665E+02  0.54684303248E+02  0.51100000000E-03 0.  1.
         22    1    1    0    0    0 -0.13080662210E+02  0.15720576047E+01 -0.26607217276E+02  0.29690387335E+02  0.00000000000E+00 0.  1.
</event>
<event>
 5    1  0.1691138E-003  0.9118800E+02  0.7818608E-02  0.1130116E+00
         25   -1    0    0    0    0  0.00000000000E+00  0.00000000000E+00  0.99999998245E-14  0.12500000000E+03  0.12500000000E+03 0.  0.
        -11    1    3    3    0    0 -0.75924995944E+01 -0.10428034452E+02 -0.31343649745E+02  0.33894163690E+02  0.51100000000E-03 0. -1.
         23    2    1    0    0    0 -0.82102470595E+01  0.92788729175E+01  0.26899633780E+02  0.95384194475E+02  0.90669998450E+02 0.  0.
         11    1    3    3    0    0 -0.61774746502E+00  0.19706907369E+02  0.58243283525E+02  0.61490030786E+02  0.51100000000E-03 0.  1.
         22    1    1    0    0    0  0.82102470595E+01 -0.92788729175E+01 -0.26899633780E+02  0.29615805525E+02  0.00000000000E+00 0.  1.
</event>
<event>
 5    1  0.1691138E-003  0.9118800E+02  0.7818608E-02  0.1130116E+00
         25   -1    0    0    0    0  0.00000000000E+00  0.00000000000E+00  0.99999998245E-14  0.12500000000E+03  0.12500000000E+03 0.  0.
        -11    1    3    3    0    0  0.74765575564E+01 -0.32158903476E+02 -0.87046712965E+01  0.34144769560E+02  0.51100000000E-03 0. -1.
         23    2    1    0    0    0 -0.41212145638E+01  0.15509557058E+02  0.26145597687E+02  0.94322271139E+02  0.89193989623E+02 0.  0.
         11    1    3    3    0    0 -0.11597772120E+02  0.47668460534E+02  0.34850268984E+02  0.60177501579E+02  0.51100000000E-03 0.  1.
         22    1    1    0    0    0  0.41212145638E+01 -0.15509557058E+02 -0.26145597687E+02  0.30677728861E+02  0.00000000000E+00 0.  1.
</event>
<event>
 5    1  0.1691138E-003  0.9118800E+02  0.7818608E-02  0.1130116E+00
         25   -1    0    0    0    0  0.00000000000E+00  0.00000000000E+00  0.99999998245E-14  0.12500000000E+03  0.12500000000E+03 0.  0.
        -11    1    3    3    0    0 -0.19840249392E+02 -0.11968611266E+02 -0.35982904116E+02  0.42797809996E+02  0.51100000000E-03 0. -1.
         23    2    1    0    0    0  0.97051821209E+01 -0.20823962651E+02  0.11413492362E+02  0.99346622281E+02  0.95977370095E+02 0.  0.
         11    1    3    3    0    0  0.29545431513E+02 -0.88553513849E+01  0.47396396479E+02  0.56548812285E+02  0.51100000000E-03 0.  1.
         22    1    1    0    0    0 -0.97051821209E+01  0.20823962651E+02 -0.11413492362E+02  0.25653377719E+02  0.00000000000E+00 0.  1.
</event>
<event>
 5    1  0.1691138E-003  0.9118800E+02  0.7818608E-02  0.1130116E+00
         25   -1    0    0    0    0  0.00000000000E+00  0.00000000000E+00  0.99999998245E-14  0.12500000000E+03  0.12500000000E+03 0.  0.
        -11    1    3    3    0    0 -0.37444533703E+02  0.14070204029E+01  0.75934584296E+01  0.38232622481E+02  0.51100000000E-03 0.  1.
         23    2    1    0    0    0  0.18699456979E+02  0.69708759482E+01 -0.16034858221E+02  0.99399619515E+02  0.96046368379E+02 0.  0.
         11    1    3    3    0    0  0.56143990681E+02  0.55638555453E+01 -0.23628316651E+02  0.61166997034E+02  0.51100000000E-03 0. -1.
         22    1    1    0    0    0 -0.18699456979E+02 -0.69708759482E+01  0.16034858221E+02  0.25600380485E+02  0.00000000000E+00 0. -1.
</event>
<event>
 5    1  0.1691138E-003  0.9118800E+02  0.7818608E-02  0.1130116E+00
         25   -1    0    0    0    0  0.00000000000E+00  0.00000000000E+00  0.99999998245E-14  0.12500000000E+03  0.12500000000E+03 0.  0.
        -11    1    3    3    0    0  0.45926467001E+02  0.36900106813E+02  0.18681101794E+02  0.61804868890E+02  0.51100000000E-03 0.  1.
         23    2    1    0    0    0  0.15257190626E+02  0.19361298123E+02  0.11229899634E+02  0.97912135991E+02  0.94090562745E+02 0.  0.
         11    1    3    3    0    0 -0.30669276375E+02 -0.17538808690E+02 -0.74512021599E+01  0.36107267101E+02  0.51100000000E-03 0. -1.
         22    1    1    0    0    0 -0.15257190626E+02 -0.19361298123E+02 -0.11229899634E+02  0.27087864009E+02  0.00000000000E+00 0.  1.
</event>
<event>
 5    1  0.1691138E-003  0.9118800E+02  0.7818608E-02  0.1130116E+00
         25   -1    0    0    0    0  0.00000000000E+00  0.00000000000E+00  0.99999998245E-14  0.12500000000E+03  0.12500000000E+03 0.  0.
        -11    1    3    3    0    0 -0.52869172986E+02 -0.10550922773E+02 -0.23254264642E+02  0.58713135224E+02  0.51100000000E-03 0.  1.
         23    2    1    0    0    0 -0.14186371329E+02 -0.15857358709E+02 -0.15884570539E+02  0.98447626511E+02  0.94799296557E+02 0.  0.
         11    1    3    3    0    0  0.38682801657E+02 -0.53064359362E+01  0.73696941027E+01  0.39734491287E+02  0.51100000000E-03 0. -1.
         22    1    1    0    0    0  0.14186371329E+02  0.15857358709E+02  0.15884570539E+02  0.26552373489E+02  0.00000000000E+00 0.  1.
</event>
<event>
 5    1  0.1691138E-003  0.9118800E+02  0.7818608E-02  0.1130116E+00
         25   -1    0    0    0    0  0.00000000000E+00  0.00000000000E+00  0.99999998245E-14  0.12500000000E+03  0.12500000000E+03 0.  0.
        -11    1    3    3    0    0 -0.44357447065E+02  0.49133674573E+01  0.41761221380E+02  0.61120568562E+02  0.51100000000E-03 0.  1.
         23    2    1    0    0    0 -0.17789816504E+02  0.10423524026E+02  0.23016125712E+02  0.94099037764E+02  0.88880590912E+02 0.  0.
         11    1    3    3    0    0  0.26567630561E+02  0.55101565686E+01 -0.18745095668E+02  0.32978469202E+02  0.51100000000E-03 0. -1.
         22    1    1    0    0    0  0.17789816504E+02 -0.10423524026E+02 -0.23016125712E+02  0.30900962236E+02  0.00000000000E+00 0.  1.
</event>
<event>
 5    1  0.1691138E-003  0.9118800E+02  0.7818608E-02  0.1130116E+00
         25   -1    0    0    0    0  0.00000000000E+00  0.00000000000E+00  0.99999998245E-14  0.12500000000E+03  0.12500000000E+03 0.  0.
        -11    1    3    3    0    0 -0.34295053667E+02 -0.19327903745E+02  0.26046478498E+02  0.47203152560E+02  0.51100000000E-03 0. -1.
         23    2    1    0    0    0 -0.14473880094E+01  0.16731129886E+02  0.23590849563E+02  0.96042206189E+02  0.91572657203E+02 0.  0.
         11    1    3    3    0    0  0.32847665658E+02  0.36059033631E+02 -0.24556289350E+01  0.48839053628E+02  0.51100000000E-03 0.  1.
         22    1    1    0    0    0  0.14473880094E+01 -0.16731129886E+02 -0.23590849563E+02  0.28957793811E+02  0.00000000000E+00 0.  1.
</event>
<event>
 5    1  0.1691138E-003  0.9118800E+02  0.7818608E-02  0.1130116E+00
         25   -1    0    0    0    0  0.00000000000E+00  0.00000000000E+00  0.99999998245E-14  0.12500000000E+03  0.12500000000E+03 0.  0.
        -11    1    3    3    0    0  0.31556707975E+02 -0.26148788787E+02 -0.23949488649E+02  0.47467493930E+02  0.51100000000E-03 0. -1.
         23    2    1    0    0    0 -0.17839808104E+01  0.72386784566E+01 -0.29126412936E+02  0.94934588247E+02  0.90048026418E+02 0.  0.
         11    1    3    3    0    0 -0.33340688785E+02  0.33387467243E+02 -0.51769242877E+01  0.47467094317E+02  0.51100000000E-03 0.  1.
         22    1    1    0    0    0  0.17839808104E+01 -0.72386784566E+01  0.29126412936E+02  0.30065411753E+02  0.00000000000E+00 0. -1.
</event>
<event>
 5    1  0.1691138E-003  0.9118800E+02  0.7818608E-02  0.1130116E+00
         25   -1    0    0    0    0  0.00000000000E+00  0.00000000000E+00  0.99999998245E-14  0.12500000000E+03  0.12500000000E+03 0.  0.
        -11    1    3    3    0    0 -0.34394073617E+02 -0.42331299250E+02 -0.14743857718E+02  0.56500199441E+02  0.51100000000E-03 0.  1.
         23    2    1    0    0    0  0.28739247319E+00 -0.28985168193E+02 -0.14156446516E+01  0.95978859096E+02  0.91486145257E+02 0.  0.
         11    1    3    3    0    0  0.34681466090E+02  0.13346131057E+02  0.13328213067E+02  0.39478659655E+02  0.51100000000E-03 0. -1.
         22    1    1    0    0    0 -0.28739247319E+00  0.28985168193E+02  0.14156446516E+01  0.29021140904E+02  0.00000000000E+00 0.  1.
</event>
<event>
 5    1  0.1691138E-003  0.9118800E+02  0.7818608E-02  0.1130116E+00
         25   -1    0    0    0    0  0.00000000000E+00  0.00000000000E+00  0.99999998245E-14  0.12500000000E+03  0.12500000000E+03 0.  0.
        -11    1    3    3    0    0  0.18937907809E+02  0.49642842572E+02  0.14666167373E+02  0.55119439733E+02  0.51100000000E-03 0.  1.
         23    2    1    0    0    0  0.14583098503E+01  0.29793366542E+02 -0.12156479886E+02  0.92788955919E+02  0.87018612835E+02 0.  0.
         11    1    3    3    0    0 -0.17479597959E+02 -0.19849476029E+02 -0.26822647260E+02  0.37669516186E+02  0.51100000000E-03 0. -1.
         22    1    1    0    0    0 -0.14583098503E+01 -0.29793366542E+02  0.12156479886E+02  0.32211044081E+02  0.00000000000E+00 0.  1.
</event>
<event>
 5    1  0.1691138E-003  0.9118800E+02  0.7818608E-02  0.1130116E+00
         25   -1    0    0    0    0  0.00000000000E+00  0.00000000000E+00  0.99999998245E-14  0.12500000000E+03  0.12500000000E+03 0.  0.
        -11    1    3    3    0    0  0.33115420278E+02  0.19177103591E+02  0.13345484388E+02  0.40527698135E+02  0.51100000000E-03 0. -1.
         23    2    1    0    0    0  0.16718879161E+02  0.16973312428E+02 -0.29864511516E+02  0.86796553777E+02  0.77936759262E+02 0.  0.
         11    1    3    3    0    0 -0.16396541117E+02 -0.22037911627E+01 -0.43209995905E+02  0.46268855642E+02  0.51100000000E-03 0.  1.
         22    1    1    0    0    0 -0.16718879161E+02 -0.16973312428E+02  0.29864511516E+02  0.38203446223E+02  0.00000000000E+00 0.  1.
</event>
<event>
 5    1  0.1691138E-003  0.9118800E+02  0.7818608E-02  0.1130116E+00
         25   -1    0    0    0    0  0.00000000000E+00  0.00000000000E+00  0.99999998245E-14  0.12500000000E+03  0.12500000000E+03 0.  0.
        -11    1    3    3    0    0 -0.18486071831E+02 -0.41511747275E+02 -0.30392220646E+02  0.54668520097E+02  0.51100000000E-03 0. -1.
         23    2    1    0    0    0  0.11664516169E+02 -0.16912899172E+02  0.64792976793E+00  0.10444454066E+03  0.10240183184E+03 0.  0.
         11    1    3    3    0    0  0.30150588000E+02  0.24598848103E+02  0.31040150414E+02  0.49776020559E+02  0.51100000000E-03 0.  1.
         22    1    1    0    0    0 -0.11664516169E+02  0.16912899172E+02 -0.64792976793E+00  0.20555459344E+02  0.00000000000E+00 0. -1.
</event>
<event>
 5    1  0.1691138E-003  0.9118800E+02  0.7818608E-02  0.1130116E+00
         25   -1    0    0    0    0  0.00000000000E+00  0.00000000000E+00  0.99999998245E-14  0.12500000000E+03  0.12500000000E+03 0.  0.
        -11    1    3    3    0    0 -0.24709840723E+02 -0.48749831343E+02  0.11435765120E+02  0.55838150119E+02  0.51100000000E-03 0.  1.
         23    2    1    0    0    0 -0.22239966944E+02 -0.95030479851E+01  0.16836228663E+02  0.95531667060E+02  0.90873080530E+02 0.  0.
         11    1    3    3    0    0  0.24698737785E+01  0.39246783358E+02  0.54004635423E+01  0.39693516941E+02  0.51100000000E-03 0. -1.
         22    1    1    0    0    0  0.22239966944E+02  0.95030479851E+01 -0.16836228663E+02  0.29468332940E+02  0.00000000000E+00 0.  1.
</event>
<event>
 5    1  0.1691138E-003  0.9118800E+02  0.7818608E-02  0.1130116E+00
         25   -1    0    0    0    0  0.00000000000E+00  0.00000000000E+00  0.99999998245E-14  0.12500000000E+03  0.12500000000E+03 0.  0.
        -11    1    3    3    0    0  0.13181074256E+02  0.23596923307E+02 -0.19334590004E+02  0.33232241559E+02  0.51100000000E-03 0.  1.
         23    2    1    0    0    0 -0.11637933024E+02 -0.15821675248E+02  0.21999637281E+02  0.95508459972E+02  0.90841152531E+02 0.  0.
         11    1    3    3    0    0 -0.24819007280E+02 -0.39418598555E+02  0.41334227285E+02  0.62276218414E+02  0.51100000000E-03 0. -1.
         22    1    1    0    0    0  0.11637933024E+02  0.15821675248E+02 -0.21999637281E+02  0.29491540028E+02  0.00000000000E+00 0. -1.
</event>
<event>
 5    1  0.1691138E-003  0.9118800E+02  0.7818608E-02  0.1130116E+00
         25   -1    0    0    0    0  0.00000000000E+00  0.00000000000E+00  0.99999998245E-14  0.12500000000E+03  0.12500000000E+03 0.  0.
        -11    1    3    3    0    0 -0.18174789617E+02 -0.41438487885E+02  0.11310989271E+02  0.46641287872E+02  0.51100000000E-03 0. -1.
         23    2    1    0    0    0  0.20295078546E+02 -0.14851884283E+02  0.18264553393E+02  0.93918452571E+02  0.88626255380E+02 0.  0.
         11    1    3    3    0    0  0.38469868164E+02  0.26586603602E+02  0.69535641221E+01  0.47277164698E+02  0.51100000000E-03 0.  1.
         22    1    1    0    0    0 -0.20295078546E+02  0.14851884283E+02 -0.18264553393E+02  0.31081547429E+02  0.00000000000E+00 0.  1.
</event>
<event>
 5    1  0.1691138E-003  0.9118800E+02  0.7818608E-02  0.1130116E+00
         25   -1    0    0    0    0  0.00000000000E+00  0.00000000000E+00  0.99999998245E-14  0.12500000000E+03  0.12500000000E+03 0.  0.
        -11    1    3    3    0    0 -0.12865154534E+02 -0.48759556021E+02  0.27547782108E+02  0.57462046638E+02  0.51100000000E-03 0. -1.
         23    2    1    0    0    0  0.10349105886E+02 -0.24258917618E+02  0.19609091235E+02  0.92134888777E+02  0.86073934465E+02 0.  0.
         11    1    3    3    0    0  0.23214260420E+02  0.24500638402E+02 -0.79386908731E+01  0.34672842139E+02  0.51100000000E-03 0.  1.
         22    1    1    0    0    0 -0.10349105886E+02  0.24258917618E+02 -0.19609091235E+02  0.32865111223E+02  0.00000000000E+00 0. -1.
</event>
<event>
 5    1  0.1691138E-003  0.9118800E+02  0.7818608E-02  0.1130116E+00
         25   -1    0    0    0    0  0.00000000000E+00  0.00000000000E+00  0.99999998245E-14  0.12500000000E+03  0.12500000000E+03 0.  0.
        -11    1    3    3    0    0 -0.53352638662E+02 -0.16607042907E+02 -0.72274090608E+01  0.56342997509E+02  0.51100000000E-03 0.  1.
         23    2    1    0    0    0 -0.25413116030E+02  0.48306443303E+01  0.12019596636E+02  0.96475759532E+02  0.92162573114E+02 0.  0.
         11    1    3    3    0    0  0.27939522633E+02  0.21437687237E+02  0.19247005697E+02  0.40132762023E+02  0.51100000000E-03 0. -1.
         22    1    1    0    0    0  0.25413116030E+02 -0.48306443303E+01 -0.12019596636E+02  0.28524240468E+02  0.00000000000E+00 0.  1.
</event>
<event>
 5    1  0.1691138E-003  0.9118800E+02  0.7818608E-02  0.1130116E+00
         25   -1    0    0    0    0  0.00000000000E+00  0.00000000000E+00  0.99999998245E-14  0.12500000000E+03  0.12500000000E+03 0.  0.
        -11    1    3    3    0    0 -0.24568700699E+02 -0.34806496527E+02  0.16792823436E+02  0.45794237342E+02  0.51100000000E-03 0.  1.
         23    2    1    0    0    0 -0.29034058430E+02  0.88744564487E+01 -0.40006398778E+01  0.94377497725E+02  0.89271352802E+02 0.  0.
         11    1    3    3    0    0 -0.44653577307E+01  0.43680952976E+02 -0.20793463314E+02  0.48583260382E+02  0.51100000000E-03 0. -1.
         22    1    1    0    0    0  0.29034058430E+02 -0.88744564487E+01  0.40006398778E+01  0.30622502275E+02  0.00000000000E+00 0. -1.
</event>
<event>
 5    1  0.1691138E-003  0.9118800E+02  0.7818608E-02  0.1130116E+00
         25   -1    0    0    0    0  0.00000000000E+00  0.00000000000E+00  0.99999998245E-14  0.12500000000E+03  0.12500000000E+03 0.  0.
        -11    1    3    3    0    0 -0.23051884715E+02 -0.31466113489E+02  0.48538948125E+02  0.62269857655E+02  0.51100000000E-03 0. -1.
         23    2    1    0    0    0 -0.14021510142E+02 -0.14191124457E+02  0.20734785722E+02  0.96226364517E+02  0.91823695902E+02 0.  0.
         11    1    3    3    0    0  0.90303745734E+01  0.17274989033E+02 -0.27804162403E+02  0.33956506861E+02  0.51100000000E-03 0.  1.
         22    1    1    0    0    0  0.14021510142E+02  0.14191124457E+02 -0.20734785722E+02  0.28773635483E+02  0.00000000000E+00 0. -1.
</event>
<event>
 5    1  0.1691138E-003  0.9118800E+02  0.7818608E-02  0.1130116E+00
         25   -1    0    0    0    0  0.00000000000E+00  0.00000000000E+00  0.99999998245E-14  0.12500000000E+03  0.12500000000E+03 0.  0.
        -11    1    3    3    0    0  0.12886298013E+02  0.42710044826E+02 -0.14124268879E+02  0.46794225895E+02  0.51100000000E-03 0.  1.
         23    2    1    0    0    0  0.74907285019E+01 -0.46626262935E+01 -0.27340522287E+02  0.96271003213E+02  0.91884442662E+02 0.  0.
         11    1    3    3    0    0 -0.53955695115E+01 -0.47372671119E+02 -0.13216253408E+02  0.49476777318E+02  0.51100000000E-03 0. -1.
         22    1    1    0    0    0 -0.74907285019E+01  0.46626262935E+01  0.27340522287E+02  0.28728996787E+02  0.00000000000E+00 0.  1.
</event>
<event>
 5    1  0.1691138E-003  0.9118800E+02  0.7818608E-02  0.1130116E+00
         25   -1    0    0    0    0  0.00000000000E+00  0.00000000000E+00  0.99999998245E-14  0.12500000000E+03  0.12500000000E+03 0.  0.
        -11    1    3    3    0    0 -0.11814750864E+02  0.62293512410E+01  0.31848569029E+02  0.34535843761E+02  0.51100000000E-03 0. -1.
         23    2    1    0    0    0  0.46032703205E+01 -0.19555240504E+02 -0.21220074690E+02  0.95778619152E+02  0.91212141670E+02 0.  0.
         11    1    3    3    0    0  0.16418021184E+02 -0.25784591745E+02 -0.53068643719E+02  0.61242775390E+02  0.51100000000E-03 0.  1.
         22    1    1    0    0    0 -0.46032703205E+01  0.19555240504E+02  0.21220074690E+02  0.29221380848E+02  0.00000000000E+00 0.  1.
</event>
<event>
 5    1  0.1691138E-003  0.9118800E+02  0.7818608E-02  0.1130116E+00
         25   -1    0    0    0    0  0.00000000000E+00  0.00000000000E+00  0.99999998245E-14  0.12500000000E+03  0.12500000000E+03 0.  0.
        -11    1    3    3    0    0 -0.36693863079E+02 -0.16206951406E+02  0.12045615217E+02  0.41883191231E+02  0.51100000000E-03 0. -1.
         23    2    1    0    0    0 -0.76203117091E+01  0.27707625601E+02 -0.13680646901E+01  0.96231036376E+02  0.91830055505E+02 0.  0.
         11    1    3    3    0    0  0.29073551370E+02  0.43914577007E+02 -0.13413679907E+02  0.54347845145E+02  0.51100000000E-03 0.  1.
         22    1    1    0    0    0  0.76203117091E+01 -0.27707625601E+02  0.13680646901E+01  0.28768963624E+02  0.00000000000E+00 0. -1.
</event>
<event>
 5    1  0.1691138E-003  0.9118800E+02  0.7818608E-02  0.1130116E+00
         25   -1    0    0    0    0  0.00000000000E+00  0.00000000000E+00  0.99999998245E-14  0.12500000000E+03  0.12500000000E+03 0.  0.
        -11    1    3    3    0    0 -0.38913074873E+02 -0.97066190919E+01 -0.12174213139E+02  0.41912495942E+02  0.51100000000E-03 0.  1.
         23    2    1    0    0    0  0.41181509301E+01 -0.26106759209E+02  0.14216948290E+02  0.94989274214E+02  0.90123906671E+02 0.  0.
         11    1    3    3    0    0  0.43031225803E+02 -0.16400140118E+02  0.26391161429E+02  0.53076778273E+02  0.51100000000E-03 0. -1.
         22    1    1    0    0    0 -0.41181509301E+01  0.26106759209E+02 -0.14216948290E+02  0.30010725786E+02  0.00000000000E+00 0. -1.
</event>
<event>
 5    1  0.1691138E-003  0.9118800E+02  0.7818608E-02  0.1130116E+00
         25   -1    0    0    0    0  0.00000000000E+00  0.00000000000E+00  0.99999998245E-14  0.12500000000E+03  0.12500000000E+03 0.  0.
        -11    1    3    3    0    0 -0.14685450458E+02 -0.34811588366E+02  0.66101708618E+01  0.38356270659E+02  0.51100000000E-03 0.  1.
         23    2    1    0    0    0  0.22743959409E+02 -0.77189848787E+00 -0.19266183708E+02  0.95182734003E+02  0.90391833152E+02 0.  0.
         11    1    3    3    0    0  0.37429409867E+02  0.34039689879E+02 -0.25876354570E+02  0.56826463344E+02  0.51100000000E-03 0. -1.
         22    1    1    0    0    0 -0.22743959409E+02  0.77189848787E+00  0.19266183708E+02  0.29817265997E+02  0.00000000000E+00 0. -1.
</event>
<event>
 5    1  0.1691138E-003  0.9118800E+02  0.7818608E-02  0.1130116E+00
         25   -1    0    0    0    0  0.00000000000E+00  0.00000000000E+00  0.99999998245E-14  0.12500000000E+03  0.12500000000E+03 0.  0.
        -11    1    3    3    0    0 -0.18044850296E+02  0.40294355244E+02 -0.23963805950E+02  0.50234606424E+02  0.51100000000E-03 0. -1.
         23    2    1    0    0    0 -0.24948335543E+02 -0.45767314551E+01 -0.71542323626E+01  0.98645703237E+02  0.95060116817E+02 0.  0.
         11    1    3    3    0    0 -0.69034852474E+01 -0.44871086699E+02  0.16809573587E+02  0.48411096812E+02  0.51100000000E-03 0.  1.
         22    1    1    0    0    0  0.24948335543E+02  0.45767314551E+01  0.71542323626E+01  0.26354296763E+02  0.00000000000E+00 0.  1.
</event>
<event>
 5    1  0.1691138E-003  0.9118800E+02  0.7818608E-02  0.1130116E+00
         25   -1    0    0    0    0  0.00000000000E+00  0.00000000000E+00  0.99999998245E-14  0.12500000000E+03  0.12500000000E+03 0.  0.
        -11    1    3    3    0    0  0.19987462335E+02 -0.38157049567E+02  0.17085249012E+02  0.46339667848E+02  0.51100000000E-03 0.  1.
         23    2    1    0    0    0  0.20406343646E+02 -0.49118441407E+01 -0.19903148354E+02  0.96074571944E+02  0.91616826980E+02 0.  0.
         11    1    3    3    0    0  0.41888131149E+00  0.33245205426E+02 -0.36988397366E+02  0.49734904095E+02  0.51100000000E-03 0. -1.
         22    1    1    0    0    0 -0.20406343646E+02  0.49118441407E+01  0.19903148354E+02  0.28925428056E+02  0.00000000000E+00 0. -1.
</event>
<event>
 5    1  0.1691138E-003  0.9118800E+02  0.7818608E-02  0.1130116E+00
         25   -1    0    0    0    0  0.00000000000E+00  0.00000000000E+00  0.99999998245E-14  0.12500000000E+03  0.12500000000E+03 0.  0.
        -11    1    3    3    0    0  0.23779379838E+02  0.11255094244E+02 -0.31991040598E+02  0.41419352128E+02  0.51100000000E-03 0. -1.
         23    2    1    0    0    0 -0.22514379393E+02 -0.10503435767E+02 -0.17587959383E+02  0.94560621596E+02  0.89527400270E+02 0.  0.
         11    1    3    3    0    0 -0.46293759230E+02 -0.21758530012E+02  0.14403081215E+02  0.53141269468E+02  0.51100000000E-03 0.  1.
         22    1    1    0    0    0  0.22514379393E+02  0.10503435767E+02  0.17587959383E+02  0.30439378404E+02  0.00000000000E+00 0.  1.
</event>
<event>
 5    1  0.1691138E-003  0.9118800E+02  0.7818608E-02  0.1130116E+00
         25   -1    0    0    0    0  0.00000000000E+00  0.00000000000E+00  0.99999998245E-14  0.12500000000E+03  0.12500000000E+03 0.  0.
        -11    1    3    3    0    0  0.17745495565E+01  0.28245379883E+02  0.31053568224E+02  0.42015171195E+02  0.51100000000E-03 0.  1.
         23    2    1    0    0    0 -0.51046588482E+01 -0.23190148478E+02  0.17057736698E+02  0.95762918927E+02  0.91190623048E+02 0.  0.
         11    1    3    3    0    0 -0.68792084047E+01 -0.51435528360E+02 -0.13995831525E+02  0.53747747733E+02  0.51100000000E-03 0. -1.
         22    1    1    0    0    0  0.51046588482E+01  0.23190148478E+02 -0.17057736698E+02  0.29237081073E+02  0.00000000000E+00 0. -1.
</event>
<event>
 5    1  0.1691138E-003  0.9118800E+02  0.7818608E-02  0.1130116E+00
         25   -1    0    0    0    0  0.00000000000E+00  0.00000000000E+00  0.99999998245E-14  0.12500000000E+03  0.12500000000E+03 0.  0.
        -11    1    3    3    0    0 -0.34271101203E+02 -0.32342848732E+02 -0.33222164965E+02  0.57656573666E+02  0.51100000000E-03 0. -1.
         23    2    1    0    0    0 -0.81779279422E+01 -0.35777178183E+01 -0.26456609684E+02  0.97078131041E+02  0.92975979479E+02 0.  0.
         11    1    3    3    0    0  0.26093173260E+02  0.28765130914E+02  0.67655552808E+01  0.39421557374E+02  0.51100000000E-03 0.  1.
         22    1    1    0    0    0  0.81779279422E+01  0.35777178183E+01  0.26456609684E+02  0.27921868959E+02  0.00000000000E+00 0. -1.
</event>
<event>
 5    1  0.1691138E-003  0.9118800E+02  0.7818608E-02  0.1130116E+00
         25   -1    0    0    0    0  0.00000000000E+00  0.00000000000E+00  0.99999998245E-14  0.12500000000E+03  0.12500000000E+03 0.  0.
        -11    1    3    3    0    0  0.31755043415E+02 -0.16193415531E+02 -0.38114124705E+02  0.52185208548E+02  0.51100000000E-03 0. -1.
         23    2    1    0    0    0 -0.30063454950E+01  0.73742861478E+01 -0.28687540926E+02  0.95227643463E+02  0.90453915701E+02 0.  0.
         11    1    3    3    0    0 -0.34761388910E+02  0.23567701679E+02  0.94265837797E+01  0.43042434915E+02  0.51100000000E-03 0.  1.
         22    1    1    0    0    0  0.30063454950E+01 -0.73742861478E+01  0.28687540926E+02  0.29772356537E+02  0.00000000000E+00 0. -1.
</event>
<event>
 5    1  0.1691138E-003  0.9118800E+02  0.7818608E-02  0.1130116E+00
         25   -1    0    0    0    0  0.00000000000E+00  0.00000000000E+00  0.99999998245E-14  0.12500000000E+03  0.12500000000E+03 0.  0.
        -11    1    3    3    0    0  0.22401316652E+02 -0.23000551808E+01  0.39418377028E+02  0.45397331302E+02  0.51100000000E-03 0.  1.
         23    2    1    0    0    0 -0.45699235050E+01  0.28124738192E+02  0.16736501690E+02  0.91954643472E+02  0.85811775813E+02 0.  0.
         11    1    3    3    0    0 -0.26971240157E+02  0.30424793373E+02 -0.22681875338E+02  0.46557312170E+02  0.51100000000E-03 0. -1.
         22    1    1    0    0    0  0.45699235050E+01 -0.28124738192E+02 -0.16736501690E+02  0.33045356528E+02  0.00000000000E+00 0. -1.
</event>
<event>
 5    1  0.1691138E-003  0.9118800E+02  0.7818608E-02  0.1130116E+00
         25   -1    0    0    0    0  0.00000000000E+00  0.00000000000E+00  0.99999998245E-14  0.12500000000E+03  0.12500000000E+03 0.  0.
        -11    1    3    3    0    0 -0.44858280205E+01  0.22944221520E+01 -0.34685493693E+02  0.35049543492E+02  0.51100000000E-03 0.  1.
         23    2    1    0    0    0  0.50548215064E+01  0.19349726553E+02  0.22153764718E+02  0.95154524140E+02  0.90352814206E+02 0.  0.
         11    1    3    3    0    0  0.95406495269E+01  0.17055304401E+02  0.56839258411E+02  0.60104980647E+02  0.51100000000E-03 0. -1.
         22    1    1    0    0    0 -0.50548215064E+01 -0.19349726553E+02 -0.22153764718E+02  0.29845475860E+02  0.00000000000E+00 0. -1.
</event>
<event>
 5    1  0.1691138E-003  0.9118800E+02  0.7818608E-02  0.1130116E+00
         25   -1    0    0    0    0  0.00000000000E+00  0.00000000000E+00  0.99999998245E-14  0.12500000000E+03  0.12500000000E+03 0.  0.
        -11    1    3    3    0    0 -0.20831434158E+02 -0.25420530957E+02 -0.13924751412E+02  0.35693847444E+02  0.51100000000E-03 0.  1.
         23    2    1    0    0    0  0.11019867952E+02  0.44448202269E+00  0.28334336323E+02  0.94594907189E+02  0.89575257730E+02 0.  0.
         11    1    3    3    0    0  0.31851302111E+02  0.25865012980E+02  0.42259087735E+02  0.58901059745E+02  0.51100000000E-03 0. -1.
         22    1    1    0    0    0 -0.11019867952E+02 -0.44448202269E+00 -0.28334336323E+02  0.30405092811E+02  0.00000000000E+00 0. -1.
</event>
<event>
 5    1  0.1691138E-003  0.9118800E+02  0.7818608E-02  0.1130116E+00
         25   -1    0    0    0    0  0.00000000000E+00  0.00000000000E+00  0.99999998245E-14  0.12500000000E+03  0.12500000000E+03 0.  0.
        -11    1    3    3    0    0  0.46610960149E+02  0.30010952019E+02  0.20015485767E+02  0.58939447892E+02  0.51100000000E-03 0.  1.
         23    2    1    0    0    0  0.28840896201E+02  0.13886674073E+01  0.55815669729E+01  0.95591164921E+02  0.90954885686E+02 0.  0.
         11    1    3    3    0    0 -0.17770063948E+02 -0.28622284612E+02 -0.14433918795E+02  0.36651717028E+02  0.51100000000E-03 0. -1.
         22    1    1    0    0    0 -0.28840896201E+02 -0.13886674073E+01 -0.55815669729E+01  0.29408835079E+02  0.00000000000E+00 0.  1.
</event>
<event>
 5    1  0.1691138E-003  0.9118800E+02  0.7818608E-02  0.1130116E+00
         25   -1    0    0    0    0  0.00000000000E+00  0.00000000000E+00  0.99999998245E-14  0.12500000000E+03  0.12500000000E+03 0.  0.
        -11    1    3    3    0    0  0.20939971727E+02 -0.31987544231E+02 -0.67249299985E+01  0.38818939780E+02  0.51100000000E-03 0. -1.
         23    2    1    0    0    0  0.11266899749E+02  0.22130957519E+02 -0.17209485376E+02  0.94785951983E+02  0.89841460338E+02 0.  0.
         11    1    3    3    0    0 -0.96730719779E+01  0.54118501750E+02 -0.10484555378E+02  0.55967012203E+02  0.51100000000E-03 0.  1.
         22    1    1    0    0    0 -0.11266899749E+02 -0.22130957519E+02  0.17209485376E+02  0.30214048017E+02  0.00000000000E+00 0.  1.
</event>
<event>
 5    1  0.1691138E-003  0.9118800E+02  0.7818608E-02  0.1130116E+00
         25   -1    0    0    0    0  0.00000000000E+00  0.00000000000E+00  0.99999998245E-14  0.12500000000E+03  0.12500000000E+03 0.  0.
        -11    1    3    3    0    0 -0.10867837445E+02  0.32773599035E+02 -0.51153827021E+01  0.34905383896E+02  0.51100000000E-03 0.  1.
         23    2    1    0    0    0  0.82802524562E+00 -0.23014806212E+02  0.17342007798E+02  0.96170983970E+02  0.91748275148E+02 0.  0.
         11    1    3    3    0    0  0.11695862691E+02 -0.55788405247E+02  0.22457390500E+02  0.61265600074E+02  0.51100000000E-03 0. -1.
         22    1    1    0    0    0 -0.82802524562E+00  0.23014806212E+02 -0.17342007798E+02  0.28829016030E+02  0.00000000000E+00 0. -1.
</event>
<event>
 5    1  0.1691138E-003  0.9118800E+02  0.7818608E-02  0.1130116E+00
         25   -1    0    0    0    0  0.00000000000E+00  0.00000000000E+00  0.99999998245E-14  0.12500000000E+03  0.12500000000E+03 0.  0.
        -11    1    3    3    0    0 -0.25585950295E+01  0.48038819386E+02 -0.13115319724E+02  0.49862673296E+02  0.51100000000E-03 0. -1.
         23    2    1    0    0    0 -0.93114363758E+01  0.55411524204E+01 -0.27666592463E+02  0.95287249269E+02  0.90536248636E+02 0.  0.
         11    1    3    3    0    0 -0.67528413464E+01 -0.42497666965E+02 -0.14551272738E+02  0.45424575973E+02  0.51100000000E-03 0.  1.
         22    1    1    0    0    0  0.93114363758E+01 -0.55411524204E+01  0.27666592463E+02  0.29712750731E+02  0.00000000000E+00 0.  1.
</event>
<event>
 5    1  0.1691138E-003  0.9118800E+02  0.7818608E-02  0.1130116E+00
         25   -1    0    0    0    0  0.00000000000E+00  0.00000000000E+00  0.99999998245E-14  0.12500000000E+03  0.12500000000E+03 0.  0.
        -11    1    3    3    0    0  0.87564391191E+01  0.22931446459E+02 -0.30801788580E+02  0.39386249411E+02  0.51100000000E-03 0.  1.
         23    2    1    0    0    0 -0.22782203053E+02 -0.62394555187E+01 -0.35240093906E+02  0.82575669721E+02  0.70844318264E+02 0.  0.
         11    1    3    3    0    0 -0.31538642172E+02 -0.29170901977E+02 -0.44383053262E+01  0.43189420310E+02  0.51100000000E-03 0. -1.
         22    1    1    0    0    0  0.22782203053E+02  0.62394555187E+01  0.35240093906E+02  0.42424330279E+02  0.00000000000E+00 0. -1.
</event>
<event>
 5    1  0.1691138E-003  0.9118800E+02  0.7818608E-02  0.1130116E+00
         25   -1    0    0    0    0  0.00000000000E+00  0.00000000000E+00  0.99999998245E-14  0.12500000000E+03  0.12500000000E+03 0.  0.
        -11    1    3    3    0    0  0.18850040216E+02  0.24025918944E+01 -0.24715286728E+02  0.31175982138E+02  0.51100000000E-03 0.  1.
         23    2    1    0    0    0 -0.54740333782E+01 -0.29643374724E+01  0.31620295130E+02  0.92772753730E+02  0.86995335694E+02 0.  0.
         11    1    3    3    0    0 -0.24324073595E+02 -0.53669293668E+01  0.56335581857E+02  0.61596771592E+02  0.51100000000E-03 0. -1.
         22    1    1    0    0    0  0.54740333782E+01  0.29643374724E+01 -0.31620295130E+02  0.32227246270E+02  0.00000000000E+00 0. -1.
</event>
<event>
 5    1  0.1691138E-003  0.9118800E+02  0.7818608E-02  0.1130116E+00
         25   -1    0    0    0    0  0.00000000000E+00  0.00000000000E+00  0.99999998245E-14  0.12500000000E+03  0.12500000000E+03 0.  0.
        -11    1    3    3    0    0  0.35022797354E+01 -0.49602923929E+02  0.11192831212E+02  0.50970535572E+02  0.51100000000E-03 0. -1.
         23    2    1    0    0    0  0.22229916460E+02 -0.14869773717E+02 -0.10813033849E+02  0.96152104804E+02  0.91722550123E+02 0.  0.
         11    1    3    3    0    0  0.18727636724E+02  0.34733150212E+02 -0.22005865061E+02  0.45181569233E+02  0.51100000000E-03 0.  1.
         22    1    1    0    0    0 -0.22229916460E+02  0.14869773717E+02  0.10813033849E+02  0.28847895196E+02  0.00000000000E+00 0. -1.
</event>
<event>
 5    1  0.1691138E-003  0.9118800E+02  0.7818608E-02  0.1130116E+00
         25   -1    0    0    0    0  0.00000000000E+00  0.00000000000E+00  0.99999998245E-14  0.12500000000E+03  0.12500000000E+03 0.  0.
        -11    1    3    3    0    0 -0.10688312235E+02  0.39605391734E+02  0.25956740126E+02  0.48544612792E+02  0.51100000000E-03 0.  1.
         23    2    1    0    0    0 -0.24776407387E+02 -0.36685671809E+01  0.16444424266E+02  0.95037559552E+02  0.90190852573E+02 0.  0.
         11    1    3    3    0    0 -0.14088095152E+02 -0.43273958915E+02 -0.95123158599E+01  0.46492946760E+02  0.51100000000E-03 0. -1.
         22    1    1    0    0    0  0.24776407387E+02  0.36685671809E+01 -0.16444424266E+02  0.29962440448E+02  0.00000000000E+00 0. -1.
</event>
<event>
 5    1  0.1691138E-003  0.9118800E+02  0.7818608E-02  0.1130116E+00
         25   -1    0    0    0    0  0.00000000000E+00  0.00000000000E+00  0.99999998245E-14  0.12500000000E+03  0.12500000000E+03 0.  0.
        -11    1    3    3    0    0 -0.23136800902E+02  0.22463633438E+02  0.51005605542E+02  0.60344827287E+02  0.51100000000E-03 0.  1.
         23    2    1    0    0    0 -0.13183200685E+02 -0.55179239630E+00  0.26451173200E+02  0.95440469916E+02  0.90747548061E+02 0.  0.
         11    1    3    3    0    0  0.99536002175E+01 -0.23015425835E+02 -0.24554432343E+02  0.35095642629E+02  0.51100000000E-03 0. -1.
         22    1    1    0    0    0  0.13183200685E+02  0.55179239630E+00 -0.26451173200E+02  0.29559530084E+02  0.00000000000E+00 0.  1.
</event>
<event>
 5    1  0.1691138E-003  0.9118800E+02  0.7818608E-02  0.1130116E+00
         25   -1    0    0    0    0  0.00000000000E+00  0.00000000000E+00  0.99999998245E-14  0.12500000000E+03  0.12500000000E+03 0.  0.
        -11    1    3    3    0    0  0.24020076336E+02  0.21859942088E+02 -0.24247298035E+02  0.40530884490E+02  0.51100000000E-03 0.  1.
         23    2    1    0    0    0 -0.13650113167E+02  0.17121950106E+02  0.17506057063E+02  0.96965221621E+02  0.92824056177E+02 0.  0.
         11    1    3    3    0    0 -0.37670189503E+02 -0.47379919825E+01  0.41753355097E+02  0.56434337131E+02  0.51100000000E-03 0. -1.
         22    1    1    0    0    0  0.13650113167E+02 -0.17121950106E+02 -0.17506057063E+02  0.28034778379E+02  0.00000000000E+00 0. -1.
</event>
<event>
 5    1  0.1691138E-003  0.9118800E+02  0.7818608E-02  0.1130116E+00
         25   -1    0    0    0    0  0.00000000000E+00  0.00000000000E+00  0.99999998245E-14  0.12500000000E+03  0.12500000000E+03 0.  0.
        -11    1    3    3    0    0 -0.96132138574E+01  0.48091911935E+02  0.36764348077E+02  0.61293255453E+02  0.51100000000E-03 0.  1.
         23    2    1    0    0    0 -0.14712426132E+02  0.37052690504E+02  0.27972678462E+02  0.76298582191E+02  0.58733683248E+02 0.  0.
         11    1    3    3    0    0 -0.50992122743E+01 -0.11039221432E+02 -0.87916696153E+01  0.15005326738E+02  0.51100000000E-03 0. -1.
         22    1    1    0    0    0  0.14712426132E+02 -0.37052690504E+02 -0.27972678462E+02  0.48701417809E+02  0.00000000000E+00 0.  1.
</event>
<event>
 5    1  0.1691138E-003  0.9118800E+02  0.7818608E-02  0.1130116E+00
         25   -1    0    0    0    0  0.00000000000E+00  0.00000000000E+00  0.99999998245E-14  0.12500000000E+03  0.12500000000E+03 0.  0.
        -11    1    3    3    0    0  0.17282760328E+02  0.47307686939E+02 -0.19084254992E+02  0.53860187866E+02  0.51100000000E-03 0. -1.
         23    2    1    0    0    0  0.13834915278E+02  0.22132978944E+02  0.13845645888E+02  0.95453840389E+02  0.90765963320E+02 0.  0.
         11    1    3    3    0    0 -0.34478450500E+01 -0.25174707995E+02  0.32929900879E+02  0.41593652524E+02  0.51100000000E-03 0.  1.
         22    1    1    0    0    0 -0.13834915278E+02 -0.22132978944E+02 -0.13845645888E+02  0.29546159611E+02  0.00000000000E+00 0. -1.
</event>
<event>
 5    1  0.1691138E-003  0.9118800E+02  0.7818608E-02  0.1130116E+00
         25   -1    0    0    0    0  0.00000000000E+00  0.00000000000E+00  0.99999998245E-14  0.12500000000E+03  0.12500000000E+03 0.  0.
        -11    1    3    3    0    0  0.10706011588E+02  0.35317529628E+02 -0.10108507772E+02  0.38263932271E+02  0.51100000000E-03 0. -1.
         23    2    1    0    0    0  0.27772931333E+01 -0.56499057415E+01  0.28922198207E+02  0.95400534783E+02  0.90692522821E+02 0.  0.
         11    1    3    3    0    0 -0.79287184551E+01 -0.40967435370E+02  0.39030705979E+02  0.57136602512E+02  0.51100000000E-03 0.  1.
         22    1    1    0    0    0 -0.27772931333E+01  0.56499057415E+01 -0.28922198207E+02  0.29599465217E+02  0.00000000000E+00 0.  1.
</event>
<event>
 5    1  0.1691138E-003  0.9118800E+02  0.7818608E-02  0.1130116E+00
         25   -1    0    0    0    0  0.00000000000E+00  0.00000000000E+00  0.99999998245E-14  0.12500000000E+03  0.12500000000E+03 0.  0.
        -11    1    3    3    0    0 -0.11646862746E+02 -0.37184946093E+02  0.20991850380E+02  0.44260901600E+02  0.51100000000E-03 0. -1.
         23    2    1    0    0    0  0.23939364787E+02  0.28932767293E+01  0.95408252784E+01  0.99067557315E+02  0.95613227792E+02 0.  0.
         11    1    3    3    0    0  0.35586227532E+02  0.40078222822E+02 -0.11451025102E+02  0.54806655715E+02  0.51100000000E-03 0.  1.
         22    1    1    0    0    0 -0.23939364787E+02 -0.28932767293E+01 -0.95408252784E+01  0.25932442685E+02  0.00000000000E+00 0.  1.
</event>
<event>
 5    1  0.1691138E-003  0.9118800E+02  0.7818608E-02  0.1130116E+00
         25   -1    0    0    0    0  0.00000000000E+00  0.00000000000E+00  0.99999998245E-14  0.12500000000E+03  0.12500000000E+03 0.  0.
        -11    1    3    3    0    0 -0.29514835519E+02  0.36013785224E+02  0.89660724229E+01  0.47418442582E+02  0.51100000000E-03 0. -1.
         23    2    1    0    0    0  0.15568429841E+02  0.19782167699E+02  0.14973495191E+02  0.95709801557E+02  0.91117783057E+02 0.  0.
         11    1    3    3    0    0  0.45083265361E+02 -0.16231617525E+02  0.60074227683E+01  0.48291358975E+02  0.51100000000E-03 0.  1.
         22    1    1    0    0    0 -0.15568429841E+02 -0.19782167699E+02 -0.14973495191E+02  0.29290198443E+02  0.00000000000E+00 0.  1.
</event>
<event>
 5    1  0.1691138E-003  0.9118800E+02  0.7818608E-02  0.1130116E+00
         25   -1    0    0    0    0  0.00000000000E+00  0.00000000000E+00  0.99999998245E-14  0.12500000000E+03  0.12500000000E+03 0.  0.
        -11    1    3    3    0    0 -0.44647669615E+02 -0.15528581780E+02 -0.10205555720E+02  0.48360155313E+02  0.51100000000E-03 0. -1.
         23    2    1    0    0    0 -0.17473496079E+02  0.22906279934E+02 -0.22107198461E+01  0.96105225250E+02  0.91658640141E+02 0.  0.
         11    1    3    3    0    0  0.27174173536E+02  0.38434861714E+02  0.79948358736E+01  0.47745069937E+02  0.51100000000E-03 0.  1.
         22    1    1    0    0    0  0.17473496079E+02 -0.22906279934E+02  0.22107198461E+01  0.28894774750E+02  0.00000000000E+00 0.  1.
</event>
<event>
 5    1  0.1691138E-003  0.9118800E+02  0.7818608E-02  0.1130116E+00
         25   -1    0    0    0    0  0.00000000000E+00  0.00000000000E+00  0.99999998245E-14  0.12500000000E+03  0.12500000000E+03 0.  0.
        -11    1    3    3    0    0 -0.33367990877E+02  0.21591097264E+02  0.18731140624E+02  0.43936931226E+02  0.51100000000E-03 0. -1.
         23    2    1    0    0    0 -0.73138529365E+01 -0.24332822963E+02  0.12288424763E+01  0.99562060383E+02  0.96257545656E+02 0.  0.
         11    1    3    3    0    0  0.26054137941E+02 -0.45923920228E+02 -0.17502298147E+02  0.55625129156E+02  0.51100000000E-03 0.  1.
         22    1    1    0    0    0  0.73138529365E+01  0.24332822963E+02 -0.12288424763E+01  0.25437939617E+02  0.00000000000E+00 0.  1.
</event>
<event>
 5    1  0.1691138E-003  0.9118800E+02  0.7818608E-02  0.1130116E+00
         25   -1    0    0    0    0  0.00000000000E+00  0.00000000000E+00  0.99999998245E-14  0.12500000000E+03  0.12500000000E+03 0.  0.
        -11    1    3    3    0    0 -0.29822768059E+02  0.27670168800E+01  0.29144929303E+02  0.41790917451E+02  0.51100000000E-03 0. -1.
         23    2    1    0    0    0 -0.74838763331E+01 -0.28456099576E+02 -0.72547757867E+01  0.94695053543E+02  0.89714900578E+02 0.  0.
         11    1    3    3    0    0  0.22338891726E+02 -0.31223116456E+02 -0.36399705090E+02  0.52904136092E+02  0.51100000000E-03 0.  1.
         22    1    1    0    0    0  0.74838763331E+01  0.28456099576E+02  0.72547757867E+01  0.30304946457E+02  0.00000000000E+00 0.  1.
</event>
<event>
 5    1  0.1691138E-003  0.9118800E+02  0.7818608E-02  0.1130116E+00
         25   -1    0    0    0    0  0.00000000000E+00  0.00000000000E+00  0.99999998245E-14  0.12500000000E+03  0.12500000000E+03 0.  0.
        -11    1    3    3    0    0  0.36630877056E+02  0.30352172406E+00  0.19684966853E+01  0.36684986831E+02  0.51100000000E-03 0.  1.
         23    2    1    0    0    0 -0.12987508131E+02  0.25533011364E+02 -0.11786724205E+02  0.94023607307E+02  0.88774443545E+02 0.  0.
         11    1    3    3    0    0 -0.49618385187E+02  0.25229489640E+02 -0.13755220891E+02  0.57338620476E+02  0.51100000000E-03 0. -1.
         22    1    1    0    0    0  0.12987508131E+02 -0.25533011364E+02  0.11786724205E+02  0.30976392693E+02  0.00000000000E+00 0. -1.
</event>
<event>
 5    1  0.1691138E-003  0.9118800E+02  0.7818608E-02  0.1130116E+00
         25   -1    0    0    0    0  0.00000000000E+00  0.00000000000E+00  0.99999998245E-14  0.12500000000E+03  0.12500000000E+03 0.  0.
        -11    1    3    3    0    0 -0.87144131692E+01 -0.22794522444E+02 -0.53900411333E+02  0.59167436927E+02  0.51100000000E-03 0.  1.
         23    2    1    0    0    0  0.10284789877E+02 -0.90863616671E+01 -0.26004801741E+02  0.95596112761E+02  0.90961685287E+02 0.  0.
         11    1    3    3    0    0  0.18999203046E+02  0.13708160777E+02  0.27895609592E+02  0.36428675834E+02  0.51100000000E-03 0. -1.
         22    1    1    0    0    0 -0.10284789877E+02  0.90863616671E+01  0.26004801741E+02  0.29403887239E+02  0.00000000000E+00 0.  1.
</event>
<event>
 5    1  0.1691138E-003  0.9118800E+02  0.7818608E-02  0.1130116E+00
         25   -1    0    0    0    0  0.00000000000E+00  0.00000000000E+00  0.99999998245E-14  0.12500000000E+03  0.12500000000E+03 0.  0.
        -11    1    3    3    0    0  0.48171263760E+01  0.30048166489E+02 -0.25065211135E+02  0.39425395691E+02  0.51100000000E-03 0.  1.
         23    2    1    0    0    0  0.21999141263E+02 -0.19005813508E+02 -0.34234322654E+01  0.95727093552E+02  0.91141502007E+02 0.  0.
         11    1    3    3    0    0  0.17182014887E+02 -0.49053979997E+02  0.21641778870E+02  0.56301697861E+02  0.51100000000E-03 0. -1.
         22    1    1    0    0    0 -0.21999141263E+02  0.19005813508E+02  0.34234322654E+01  0.29272906448E+02  0.00000000000E+00 0. -1.
</event>
<event>
 5    1  0.1691138E-003  0.9118800E+02  0.7818608E-02  0.1130116E+00
         25   -1    0    0    0    0  0.00000000000E+00  0.00000000000E+00  0.99999998245E-14  0.12500000000E+03  0.12500000000E+03 0.  0.
        -11    1    3    3    0    0  0.36707954608E+02 -0.60407070527E+01  0.28965750290E+01  0.37314262962E+02  0.51100000000E-03 0. -1.
         23    2    1    0    0    0 -0.19251274598E+01  0.24226532162E+02 -0.21886537686E+02  0.92294472818E+02  0.86305377611E+02 0.  0.
         11    1    3    3    0    0 -0.38633082068E+02  0.30267239215E+02 -0.24783112715E+02  0.54980209857E+02  0.51100000000E-03 0.  1.
         22    1    1    0    0    0  0.19251274598E+01 -0.24226532162E+02  0.21886537686E+02  0.32705527182E+02  0.00000000000E+00 0. -1.
</event>
<event>
 5    1  0.1691138E-003  0.9118800E+02  0.7818608E-02  0.1130116E+00
         25   -1    0    0    0    0  0.00000000000E+00  0.00000000000E+00  0.99999998245E-14  0.12500000000E+03  0.12500000000E+03 0.  0.
        -11    1    3    3    0    0  0.54949160723E+01  0.46300515013E+02  0.15537395481E+01  0.46651322596E+02  0.51100000000E-03 0.  1.
         23    2    1    0    0    0 -0.22911280716E+02  0.51606848562E+01  0.13304880306E+02  0.98007792009E+02  0.94217556763E+02 0.  0.
         11    1    3    3    0    0 -0.28406196789E+02 -0.41139830156E+02  0.11751140758E+02  0.51356469414E+02  0.51100000000E-03 0. -1.
         22    1    1    0    0    0  0.22911280716E+02 -0.51606848562E+01 -0.13304880306E+02  0.26992207991E+02  0.00000000000E+00 0.  1.
</event>
<event>
 5    1  0.1691138E-003  0.9118800E+02  0.7818608E-02  0.1130116E+00
         25   -1    0    0    0    0  0.00000000000E+00  0.00000000000E+00  0.99999998245E-14  0.12500000000E+03  0.12500000000E+03 0.  0.
        -11    1    3    3    0    0 -0.44411005183E+02 -0.31007970275E+02 -0.29606908903E+02  0.61728442852E+02  0.51100000000E-03 0.  1.
         23    2    1    0    0    0 -0.25765057117E+02 -0.18636138913E+02 -0.94980904717E+01  0.91813292353E+02  0.85605625331E+02 0.  0.
         11    1    3    3    0    0  0.18645948066E+02  0.12371831362E+02  0.20108818432E+02  0.30084849501E+02  0.51100000000E-03 0. -1.
         22    1    1    0    0    0  0.25765057117E+02  0.18636138913E+02  0.94980904717E+01  0.33186707647E+02  0.00000000000E+00 0.  1.
</event>
<event>
 5    1  0.1691138E-003  0.9118800E+02  0.7818608E-02  0.1130116E+00
         25   -1    0    0    0    0  0.00000000000E+00  0.00000000000E+00  0.99999998245E-14  0.12500000000E+03  0.12500000000E+03 0.  0.
        -11    1    3    3    0    0 -0.58021722507E+02 -0.17961820231E+02 -0.89060465333E+01  0.61387823987E+02  0.51100000000E-03 0.  1.
         23    2    1    0    0    0 -0.26095287806E+02 -0.35103671536E+01 -0.10930289281E+02  0.96491090042E+02  0.92183363524E+02 0.  0.
         11    1    3    3    0    0  0.31926434701E+02  0.14451453077E+02 -0.20242427473E+01  0.35103266055E+02  0.51100000000E-03 0. -1.
         22    1    1    0    0    0  0.26095287806E+02  0.35103671536E+01  0.10930289281E+02  0.28508909958E+02  0.00000000000E+00 0.  1.
</event>
<event>
 5    1  0.1691138E-003  0.9118800E+02  0.7818608E-02  0.1130116E+00
         25   -1    0    0    0    0  0.00000000000E+00  0.00000000000E+00  0.99999998245E-14  0.12500000000E+03  0.12500000000E+03 0.  0.
        -11    1    3    3    0    0  0.38619719087E+02  0.18579013056E+02 -0.17831538705E+02  0.46417951283E+02  0.51100000000E-03 0.  1.
         23    2    1    0    0    0  0.14578378083E+02  0.56714798087E+01  0.23993808155E+02  0.96357415959E+02  0.92001923837E+02 0.  0.
         11    1    3    3    0    0 -0.24041341004E+02 -0.12907533247E+02  0.41825346861E+02  0.49939464676E+02  0.51100000000E-03 0. -1.
         22    1    1    0    0    0 -0.14578378083E+02 -0.56714798087E+01 -0.23993808155E+02  0.28642584041E+02  0.00000000000E+00 0. -1.
</event>
<event>
 5    1  0.1691138E-003  0.9118800E+02  0.7818608E-02  0.1130116E+00
         25   -1    0    0    0    0  0.00000000000E+00  0.00000000000E+00  0.99999998245E-14  0.12500000000E+03  0.12500000000E+03 0.  0.
        -11    1    3    3    0    0 -0.62580298012E+01  0.19805149508E+02  0.34334591888E+02  0.40128183169E+02  0.51100000000E-03 0. -1.
         23    2    1    0    0    0  0.62359147463E+01 -0.24221224648E+02 -0.38038140990E+01  0.99701317073E+02  0.96438214771E+02 0.  0.
         11    1    3    3    0    0  0.12493944548E+02 -0.44026374155E+02 -0.38138405987E+02  0.59573133904E+02  0.51100000000E-03 0.  1.
         22    1    1    0    0    0 -0.62359147463E+01  0.24221224648E+02  0.38038140990E+01  0.25298682927E+02  0.00000000000E+00 0.  1.
</event>
<event>
 5    1  0.1691138E-003  0.9118800E+02  0.7818608E-02  0.1130116E+00
         25   -1    0    0    0    0  0.00000000000E+00  0.00000000000E+00  0.99999998245E-14  0.12500000000E+03  0.12500000000E+03 0.  0.
        -11    1    3    3    0    0  0.25103336287E+02 -0.55490709861E+02 -0.78533960872E+01  0.61409056368E+02  0.51100000000E-03 0. -1.
         23    2    1    0    0    0  0.13189125477E+02 -0.25869424531E+02  0.44465990992E+01  0.95623948530E+02  0.90999929299E+02 0.  0.
         11    1    3    3    0    0 -0.11914210810E+02  0.29621285330E+02  0.12299995186E+02  0.34214892162E+02  0.51100000000E-03 0.  1.
         22    1    1    0    0    0 -0.13189125477E+02  0.25869424531E+02 -0.44465990992E+01  0.29376051470E+02  0.00000000000E+00 0. -1.
</event>
<event>
 5    1  0.1691138E-003  0.9118800E+02  0.7818608E-02  0.1130116E+00
         25   -1    0    0    0    0  0.00000000000E+00  0.00000000000E+00  0.99999998245E-14  0.12500000000E+03  0.12500000000E+03 0.  0.
        -11    1    3    3    0    0 -0.66579992169E+01 -0.59753308463E+00  0.55126961524E+02  0.55530783234E+02  0.51100000000E-03 0.  1.
         23    2    1    0    0    0 -0.52763149016E+01  0.20434286667E+02  0.29861151867E+02  0.88433786615E+02  0.80519852544E+02 0.  0.
         11    1    3    3    0    0  0.13816843152E+01  0.21031819751E+02 -0.25265809658E+02  0.32903003382E+02  0.51100000000E-03 0. -1.
         22    1    1    0    0    0  0.52763149016E+01 -0.20434286667E+02 -0.29861151867E+02  0.36566213385E+02  0.00000000000E+00 0.  1.
</event>
<event>
 5    1  0.1691138E-003  0.9118800E+02  0.7818608E-02  0.1130116E+00
         25   -1    0    0    0    0  0.00000000000E+00  0.00000000000E+00  0.99999998245E-14  0.12500000000E+03  0.12500000000E+03 0.  0.
        -11    1    3    3    0    0  0.28935177119E+02  0.32779553263E+02 -0.44181485989E+02  0.62159048347E+02  0.51100000000E-03 0.  1.
         23    2    1    0    0    0  0.11706849647E+02  0.12044111995E+02 -0.23390495402E+02  0.96203711393E+02  0.91792852925E+02 0.  0.
         11    1    3    3    0    0 -0.17228327472E+02 -0.20735441267E+02  0.20790990587E+02  0.34044663045E+02  0.51100000000E-03 0. -1.
         22    1    1    0    0    0 -0.11706849647E+02 -0.12044111995E+02  0.23390495402E+02  0.28796288607E+02  0.00000000000E+00 0.  1.
</event>
<event>
 5    1  0.1691138E-003  0.9118800E+02  0.7818608E-02  0.1130116E+00
         25   -1    0    0    0    0  0.00000000000E+00  0.00000000000E+00  0.99999998245E-14  0.12500000000E+03  0.12500000000E+03 0.  0.
        -11    1    3    3    0    0 -0.44689638963E+02  0.78322646881E+01  0.20658591439E+02  0.49852638860E+02  0.51100000000E-03 0. -1.
         23    2    1    0    0    0 -0.20349635268E+02  0.11248914767E+02 -0.17953322818E+02  0.95623690852E+02  0.90999575345E+02 0.  0.
         11    1    3    3    0    0  0.24340003696E+02  0.34166500794E+01 -0.38611914256E+02  0.45771051992E+02  0.51100000000E-03 0.  1.
         22    1    1    0    0    0  0.20349635268E+02 -0.11248914767E+02  0.17953322818E+02  0.29376309148E+02  0.00000000000E+00 0.  1.
</event>
<event>
 5    1  0.1691138E-003  0.9118800E+02  0.7818608E-02  0.1130116E+00
         25   -1    0    0    0    0  0.00000000000E+00  0.00000000000E+00  0.99999998245E-14  0.12500000000E+03  0.12500000000E+03 0.  0.
        -11    1    3    3    0    0 -0.12065031728E+02 -0.22973887278E+02  0.33559062835E+02  0.42421400093E+02  0.51100000000E-03 0.  1.
         23    2    1    0    0    0 -0.73560120770E+00 -0.27418135678E+02 -0.15859833240E+02  0.93316730225E+02  0.87773472965E+02 0.  0.
         11    1    3    3    0    0  0.11329430521E+02 -0.44442484004E+01 -0.49418896074E+02  0.50895330132E+02  0.51100000000E-03 0. -1.
         22    1    1    0    0    0  0.73560120770E+00  0.27418135678E+02  0.15859833240E+02  0.31683269775E+02  0.00000000000E+00 0. -1.
</event>
<event>
 5    1  0.1691138E-003  0.9118800E+02  0.7818608E-02  0.1130116E+00
         25   -1    0    0    0    0  0.00000000000E+00  0.00000000000E+00  0.99999998245E-14  0.12500000000E+03  0.12500000000E+03 0.  0.
        -11    1    3    3    0    0 -0.25113735648E+02  0.30755976508E+02  0.47762557785E+01  0.39993029751E+02  0.51100000000E-03 0.  1.
         23    2    1    0    0    0 -0.84024062524E+01 -0.82248951228E+01 -0.28674113367E+02  0.94008805961E+02  0.88753599871E+02 0.  0.
         11    1    3    3    0    0  0.16711329396E+02 -0.38980871631E+02 -0.33450369145E+02  0.54015776209E+02  0.51100000000E-03 0. -1.
         22    1    1    0    0    0  0.84024062524E+01  0.82248951228E+01  0.28674113367E+02  0.30991194039E+02  0.00000000000E+00 0.  1.
</event>
<event>
 5    1  0.1691138E-003  0.9118800E+02  0.7818608E-02  0.1130116E+00
         25   -1    0    0    0    0  0.00000000000E+00  0.00000000000E+00  0.99999998245E-14  0.12500000000E+03  0.12500000000E+03 0.  0.
        -11    1    3    3    0    0  0.13212972772E+02  0.35991874884E+02 -0.89538066372E+01  0.39372177495E+02  0.51100000000E-03 0.  1.
         23    2    1    0    0    0 -0.27467475593E+02 -0.43638708505E+01 -0.42290461740E+01  0.96868337842E+02  0.92693497401E+02 0.  0.
         11    1    3    3    0    0 -0.40680448365E+02 -0.40355745734E+02  0.47247604632E+01  0.57496160347E+02  0.51100000000E-03 0. -1.
         22    1    1    0    0    0  0.27467475593E+02  0.43638708505E+01  0.42290461740E+01  0.28131662158E+02  0.00000000000E+00 0. -1.
</event>
<event>
 5    1  0.1691138E-003  0.9118800E+02  0.7818608E-02  0.1130116E+00
         25   -1    0    0    0    0  0.00000000000E+00  0.00000000000E+00  0.99999998245E-14  0.12500000000E+03  0.12500000000E+03 0.  0.
        -11    1    3    3    0    0 -0.37767250076E+01 -0.53431249664E+02  0.25476880910E+02  0.59314699305E+02  0.51100000000E-03 0.  1.
         23    2    1    0    0    0 -0.12941543541E+02 -0.19784450592E+02  0.18740225736E+02  0.94832068432E+02  0.89905601094E+02 0.  0.
         11    1    3    3    0    0 -0.91648185334E+01  0.33646799072E+02 -0.67366551742E+01  0.35517369127E+02  0.51100000000E-03 0. -1.
         22    1    1    0    0    0  0.12941543541E+02  0.19784450592E+02 -0.18740225736E+02  0.30167931568E+02  0.00000000000E+00 0.  1.
</event>
<event>
 5    1  0.1691138E-003  0.9118800E+02  0.7818608E-02  0.1130116E+00
         25   -1    0    0    0    0  0.00000000000E+00  0.00000000000E+00  0.99999998245E-14  0.12500000000E+03  0.12500000000E+03 0.  0.
        -11    1    3    3    0    0  0.52155355461E+02  0.71517552015E+01  0.17952050476E+01  0.52674011307E+02  0.51100000000E-03 0. -1.
         23    2    1    0    0    0  0.18088046856E+02 -0.95998666303E+01 -0.19939111906E+02  0.96418483911E+02  0.92084857483E+02 0.  0.
         11    1    3    3    0    0 -0.34067308606E+02 -0.16751621832E+02 -0.21734316954E+02  0.43744472603E+02  0.51100000000E-03 0.  1.
         22    1    1    0    0    0 -0.18088046856E+02  0.95998666303E+01  0.19939111906E+02  0.28581516089E+02  0.00000000000E+00 0. -1.
</event>
<event>
 5    1  0.1691138E-003  0.9118800E+02  0.7818608E-02  0.1130116E+00
         25   -1    0    0    0    0  0.00000000000E+00  0.00000000000E+00  0.99999998245E-14  0.12500000000E+03  0.12500000000E+03 0.  0.
        -11    1    3    3    0    0 -0.12019478831E+02 -0.32817957369E+02 -0.13253744005E+02  0.37378442017E+02  0.51100000000E-03 0. -1.
         23    2    1    0    0    0  0.25002703330E+02  0.11254930756E+02  0.35785565706E+01  0.97348332650E+02  0.93338540606E+02 0.  0.
         11    1    3    3    0    0  0.37022182161E+02  0.44072888124E+02  0.16832300575E+02  0.59969890633E+02  0.51100000000E-03 0.  1.
         22    1    1    0    0    0 -0.25002703330E+02 -0.11254930756E+02 -0.35785565706E+01  0.27651667350E+02  0.00000000000E+00 0.  1.
</event>
<event>
 5    1  0.1691138E-003  0.9118800E+02  0.7818608E-02  0.1130116E+00
         25   -1    0    0    0    0  0.00000000000E+00  0.00000000000E+00  0.99999998245E-14  0.12500000000E+03  0.12500000000E+03 0.  0.
        -11    1    3    3    0    0 -0.18895979977E+01  0.45156953170E+02 -0.40628443850E+02  0.60773279080E+02  0.51100000000E-03 0.  1.
         23    2    1    0    0    0  0.27706088572E+01  0.30009019511E+02 -0.13979404367E+02  0.91778903210E+02  0.85555396104E+02 0.  0.
         11    1    3    3    0    0  0.46602068549E+01 -0.15147933659E+02  0.26649039483E+02  0.31005624130E+02  0.51100000000E-03 0. -1.
         22    1    1    0    0    0 -0.27706088572E+01 -0.30009019511E+02  0.13979404367E+02  0.33221096790E+02  0.00000000000E+00 0.  1.
</event>
<event>
 5    1  0.1691138E-003  0.9118800E+02  0.7818608E-02  0.1130116E+00
         25   -1    0    0    0    0  0.00000000000E+00  0.00000000000E+00  0.99999998245E-14  0.12500000000E+03  0.12500000000E+03 0.  0.
        -11    1    3    3    0    0  0.10828890689E+02 -0.22364792888E+02  0.27332522738E+02  0.36939350752E+02  0.51100000000E-03 0. -1.
         23    2    1    0    0    0 -0.10071475142E+02  0.21595272596E+02 -0.10863409559E+02  0.98812138741E+02  0.95278721052E+02 0.  0.
         11    1    3    3    0    0 -0.20900365831E+02  0.43960065484E+02 -0.38195932297E+02  0.61872787990E+02  0.51100000000E-03 0.  1.
         22    1    1    0    0    0  0.10071475142E+02 -0.21595272596E+02  0.10863409559E+02  0.26187861259E+02  0.00000000000E+00 0.  1.
</event>
<event>
 5    1  0.1691138E-003  0.9118800E+02  0.7818608E-02  0.1130116E+00
         25   -1    0    0    0    0  0.00000000000E+00  0.00000000000E+00  0.99999998245E-14  0.12500000000E+03  0.12500000000E+03 0.  0.
        -11    1    3    3    0    0  0.16626454956E+01 -0.40552036382E+02  0.76799042146E+01  0.41306330917E+02  0.51100000000E-03 0. -1.
         23    2    1    0    0    0 -0.56281739409E+01  0.95453569725E+01  0.27250548231E+02  0.95582614655E+02  0.90943134231E+02 0.  0.
         11    1    3    3    0    0 -0.72908194364E+01  0.50097393355E+02  0.19570644017E+02  0.54276283738E+02  0.51100000000E-03 0.  1.
         22    1    1    0    0    0  0.56281739409E+01 -0.95453569725E+01 -0.27250548231E+02  0.29417385345E+02  0.00000000000E+00 0.  1.
</event>
<event>
 5    1  0.1691138E-003  0.9118800E+02  0.7818608E-02  0.1130116E+00
         25   -1    0    0    0    0  0.00000000000E+00  0.00000000000E+00  0.99999998245E-14  0.12500000000E+03  0.12500000000E+03 0.  0.
        -11    1    3    3    0    0  0.41650649844E+02 -0.30762100162E+02  0.22021164417E+02  0.56267353957E+02  0.51100000000E-03 0.  1.
         23    2    1    0    0    0  0.30354204387E+02  0.18428602739E+01  0.76812380387E+01  0.93634807895E+02  0.88225291010E+02 0.  0.
         11    1    3    3    0    0 -0.11296445457E+02  0.32604960436E+02 -0.14339926378E+02  0.37367453938E+02  0.51100000000E-03 0. -1.
         22    1    1    0    0    0 -0.30354204387E+02 -0.18428602739E+01 -0.76812380387E+01  0.31365192105E+02  0.00000000000E+00 0.  1.
</event>
<event>
 5    1  0.1691138E-003  0.9118800E+02  0.7818608E-02  0.1130116E+00
         25   -1    0    0    0    0  0.00000000000E+00  0.00000000000E+00  0.99999998245E-14  0.12500000000E+03  0.12500000000E+03 0.  0.
        -11    1    3    3    0    0 -0.23251773541E+02 -0.25055786671E+02 -0.16914624277E+02  0.38138457405E+02  0.51100000000E-03 0.  1.
         23    2    1    0    0    0  0.28676944247E+02 -0.81345067827E+01 -0.42842333394E+00  0.95188578053E+02  0.90399914343E+02 0.  0.
         11    1    3    3    0    0  0.51928717788E+02  0.16921279888E+02  0.16486200944E+02  0.57050120648E+02  0.51100000000E-03 0. -1.
         22    1    1    0    0    0 -0.28676944247E+02  0.81345067827E+01  0.42842333394E+00  0.29811421947E+02  0.00000000000E+00 0. -1.
</event>
<event>
 5    1  0.1691138E-003  0.9118800E+02  0.7818608E-02  0.1130116E+00
         25   -1    0    0    0    0  0.00000000000E+00  0.00000000000E+00  0.99999998245E-14  0.12500000000E+03  0.12500000000E+03 0.  0.
        -11    1    3    3    0    0 -0.34545761686E+02 -0.34468225871E+02 -0.37637271235E+02  0.61628178875E+02  0.51100000000E-03 0. -1.
         23    2    1    0    0    0 -0.20239947874E+02 -0.10089963374E+02 -0.18739820127E+02  0.95629203123E+02  0.91007146866E+02 0.  0.
         11    1    3    3    0    0  0.14305813813E+02  0.24378262497E+02  0.18897451108E+02  0.34001024248E+02  0.51100000000E-03 0.  1.
         22    1    1    0    0    0  0.20239947874E+02  0.10089963374E+02  0.18739820127E+02  0.29370796877E+02  0.00000000000E+00 0. -1.
</event>
<event>
 5    1  0.1691138E-003  0.9118800E+02  0.7818608E-02  0.1130116E+00
         25   -1    0    0    0    0  0.00000000000E+00  0.00000000000E+00  0.99999998245E-14  0.12500000000E+03  0.12500000000E+03 0.  0.
        -11    1    3    3    0    0  0.57186138112E+02  0.20464151227E+02  0.13678203979E+01  0.60752833765E+02  0.51100000000E-03 0. -1.
         23    2    1    0    0    0  0.27452287166E+02  0.63614298707E+01  0.10536332720E+02  0.94914951091E+02  0.90020763009E+02 0.  0.
         11    1    3    3    0    0 -0.29733850946E+02 -0.14102721356E+02  0.91685123222E+01  0.34162117326E+02  0.51100000000E-03 0.  1.
         22    1    1    0    0    0 -0.27452287166E+02 -0.63614298707E+01 -0.10536332720E+02  0.30085048909E+02  0.00000000000E+00 0. -1.
</event>
<event>
 5    1  0.1691138E-003  0.9118800E+02  0.7818608E-02  0.1130116E+00
         25   -1    0    0    0    0  0.00000000000E+00  0.00000000000E+00  0.99999998245E-14  0.12500000000E+03  0.12500000000E+03 0.  0.
        -11    1    3    3    0    0  0.16791091987E+02 -0.19499511666E+02 -0.28255444168E+02  0.38217036132E+02  0.51100000000E-03 0. -1.
         23    2    1    0    0    0  0.79546020900E+01 -0.53505440903E+01  0.27217288359E+02  0.96143721618E+02  0.91711124758E+02 0.  0.
         11    1    3    3    0    0 -0.88364898975E+01  0.14148967575E+02  0.55472732526E+02  0.57926685486E+02  0.51100000000E-03 0.  1.
         22    1    1    0    0    0 -0.79546020900E+01  0.53505440903E+01 -0.27217288359E+02  0.28856278382E+02  0.00000000000E+00 0.  1.
</event>
<event>
 5    1  0.1691138E-003  0.9118800E+02  0.7818608E-02  0.1130116E+00
         25   -1    0    0    0    0  0.00000000000E+00  0.00000000000E+00  0.99999998245E-14  0.12500000000E+03  0.12500000000E+03 0.  0.
        -11    1    3    3    0    0 -0.19893770598E+02  0.35775756091E+02  0.46354483051E+02  0.61841773355E+02  0.51100000000E-03 0.  1.
         23    2    1    0    0    0 -0.13521312178E+02  0.18844703843E+02  0.17312106238E+02  0.96057682050E+02  0.91593779879E+02 0.  0.
         11    1    3    3    0    0  0.63724584200E+01 -0.16931052249E+02 -0.29042376813E+02  0.34215908694E+02  0.51100000000E-03 0. -1.
         22    1    1    0    0    0  0.13521312178E+02 -0.18844703843E+02 -0.17312106238E+02  0.28942317950E+02  0.00000000000E+00 0.  1.
</event>
<event>
 5    1  0.1691138E-003  0.9118800E+02  0.7818608E-02  0.1130116E+00
         25   -1    0    0    0    0  0.00000000000E+00  0.00000000000E+00  0.99999998245E-14  0.12500000000E+03  0.12500000000E+03 0.  0.
        -11    1    3    3    0    0  0.41217020371E+02  0.26200560975E+02 -0.37852485922E+02  0.61790960944E+02  0.51100000000E-03 0. -1.
         23    2    1    0    0    0  0.15066147342E+02  0.11165146000E+02 -0.22725686647E+02  0.95536359449E+02  0.90879534892E+02 0.  0.
         11    1    3    3    0    0 -0.26150873029E+02 -0.15035414975E+02  0.15126799275E+02  0.33745398504E+02  0.51100000000E-03 0.  1.
         22    1    1    0    0    0 -0.15066147342E+02 -0.11165146000E+02  0.22725686647E+02  0.29463640551E+02  0.00000000000E+00 0. -1.
</event>
<event>
 5    1  0.1691138E-003  0.9118800E+02  0.7818608E-02  0.1130116E+00
         25   -1    0    0    0    0  0.00000000000E+00  0.00000000000E+00  0.99999998245E-14  0.12500000000E+03  0.12500000000E+03 0.  0.
        -11    1    3    3    0    0  0.21918849479E+02  0.29567055938E+02 -0.76971757945E+01  0.37601772229E+02  0.51100000000E-03 0. -1.
         23    2    1    0    0    0  0.56762321089E+01 -0.26761128603E+02 -0.88842295788E+01  0.96237052476E+02  0.91838244316E+02 0.  0.
         11    1    3    3    0    0 -0.16242617370E+02 -0.56328184541E+02 -0.11870537843E+01  0.58635280247E+02  0.51100000000E-03 0.  1.
         22    1    1    0    0    0 -0.56762321089E+01  0.26761128603E+02  0.88842295788E+01  0.28762947524E+02  0.00000000000E+00 0.  1.
</event>
<event>
 5    1  0.1691138E-003  0.9118800E+02  0.7818608E-02  0.1130116E+00
         25   -1    0    0    0    0  0.00000000000E+00  0.00000000000E+00  0.99999998245E-14  0.12500000000E+03  0.12500000000E+03 0.  0.
        -11    1    3    3    0    0  0.15011825009E+02 -0.13040631446E+02  0.58762465293E+02  0.62035798425E+02  0.51100000000E-03 0. -1.
         23    2    1    0    0    0  0.29930634772E+01 -0.27541264032E+01  0.28762885472E+02  0.95950951446E+02  0.91448006329E+02 0.  0.
         11    1    3    3    0    0 -0.12018761531E+02  0.10286505043E+02 -0.29999579821E+02  0.33915153021E+02  0.51100000000E-03 0.  1.
         22    1    1    0    0    0 -0.29930634772E+01  0.27541264032E+01 -0.28762885472E+02  0.29049048554E+02  0.00000000000E+00 0. -1.
</event>
<event>
 5    1  0.1691138E-003  0.9118800E+02  0.7818608E-02  0.1130116E+00
         25   -1    0    0    0    0  0.00000000000E+00  0.00000000000E+00  0.99999998245E-14  0.12500000000E+03  0.12500000000E+03 0.  0.
        -11    1    3    3    0    0  0.16097221825E+02 -0.10408951325E+02  0.20859956040E+02  0.28330276816E+02  0.51100000000E-03 0. -1.
         23    2    1    0    0    0 -0.30607157945E+02  0.90975445206E+01  0.31605490047E+02  0.80072609303E+02  0.66280859422E+02 0.  0.
         11    1    3    3    0    0 -0.46704379770E+02  0.19506495846E+02  0.10745534007E+02  0.51742332487E+02  0.51100000000E-03 0.  1.
         22    1    1    0    0    0  0.30607157945E+02 -0.90975445206E+01 -0.31605490047E+02  0.44927390697E+02  0.00000000000E+00 0.  1.
</event>
<event>
 5    1  0.1691138E-003  0.9118800E+02  0.7818608E-02  0.1130116E+00
         25   -1    0    0    0    0  0.00000000000E+00  0.00000000000E+00  0.99999998245E-14  0.12500000000E+03  0.12500000000E+03 0.  0.
        -11    1    3    3    0    0  0.30756877333E+02 -0.17545006107E+02  0.55466092879E+01  0.35841004694E+02  0.51100000000E-03 0. -1.
         23    2    1    0    0    0 -0.22806908916E+02 -0.18027341242E+02 -0.13833703212E+02  0.92805101784E+02  0.87041802866E+02 0.  0.
         11    1    3    3    0    0 -0.53563786249E+02 -0.48233513519E+00 -0.19380312499E+02  0.56964097091E+02  0.51100000000E-03 0.  1.
         22    1    1    0    0    0  0.22806908916E+02  0.18027341242E+02  0.13833703212E+02  0.32194898216E+02  0.00000000000E+00 0.  1.
</event>
<event>
 5    1  0.1691138E-003  0.9118800E+02  0.7818608E-02  0.1130116E+00
         25   -1    0    0    0    0  0.00000000000E+00  0.00000000000E+00  0.99999998245E-14  0.12500000000E+03  0.12500000000E+03 0.  0.
        -11    1    3    3    0    0  0.34631532232E+02  0.32324413312E+02 -0.46476552721E+01  0.47600540128E+02  0.51100000000E-03 0. -1.
         23    2    1    0    0    0  0.82806313689E+01  0.64297587161E+01  0.26866630522E+02  0.96160331337E+02  0.91733760602E+02 0.  0.
         11    1    3    3    0    0 -0.26350900863E+02 -0.25894654596E+02  0.31514285794E+02  0.48559791209E+02  0.51100000000E-03 0.  1.
         22    1    1    0    0    0 -0.82806313689E+01 -0.64297587161E+01 -0.26866630522E+02  0.28839668663E+02  0.00000000000E+00 0. -1.
</event>
<event>
 5    1  0.1691138E-003  0.9118800E+02  0.7818608E-02  0.1130116E+00
         25   -1    0    0    0    0  0.00000000000E+00  0.00000000000E+00  0.99999998245E-14  0.12500000000E+03  0.12500000000E+03 0.  0.
        -11    1    3    3    0    0  0.38476563979E+02  0.16240170210E+02 -0.13129292272E+02  0.43778618296E+02  0.51100000000E-03 0. -1.
         23    2    1    0    0    0  0.12029521841E+02  0.29333297628E+01  0.27958870342E+02  0.94422029989E+02  0.89333686240E+02 0.  0.
         11    1    3    3    0    0 -0.26447042139E+02 -0.13306840447E+02  0.41088162614E+02  0.50643411692E+02  0.51100000000E-03 0.  1.
         22    1    1    0    0    0 -0.12029521841E+02 -0.29333297628E+01 -0.27958870342E+02  0.30577970011E+02  0.00000000000E+00 0.  1.
</event>
<event>
 5    1  0.1691138E-003  0.9118800E+02  0.7818608E-02  0.1130116E+00
         25   -1    0    0    0    0  0.00000000000E+00  0.00000000000E+00  0.99999998245E-14  0.12500000000E+03  0.12500000000E+03 0.  0.
        -11    1    3    3    0    0  0.15302486419E+02  0.17388002477E+02  0.15338319187E+02  0.27780798341E+02  0.51100000000E-03 0.  1.
         23    2    1    0    0    0 -0.11309773753E+02 -0.27650184305E+02 -0.18291653784E+02  0.89971036661E+02  0.82871944379E+02 0.  0.
         11    1    3    3    0    0 -0.26612260172E+02 -0.45038186782E+02 -0.33629972971E+02  0.62190238320E+02  0.51100000000E-03 0. -1.
         22    1    1    0    0    0  0.11309773753E+02  0.27650184305E+02  0.18291653784E+02  0.35028963339E+02  0.00000000000E+00 0. -1.
</event>
<event>
 5    1  0.1691138E-003  0.9118800E+02  0.7818608E-02  0.1130116E+00
         25   -1    0    0    0    0  0.00000000000E+00  0.00000000000E+00  0.99999998245E-14  0.12500000000E+03  0.12500000000E+03 0.  0.
        -11    1    3    3    0    0  0.23086232118E+02 -0.21876410361E+02 -0.11842472150E+02  0.33938114128E+02  0.51100000000E-03 0.  1.
         23    2    1    0    0    0 -0.12214382144E+02  0.17410928578E+02  0.20161213985E+02  0.95694606052E+02  0.91096934707E+02 0.  0.
         11    1    3    3    0    0 -0.35300614263E+02  0.39287338939E+02  0.32003686135E+02  0.61756491924E+02  0.51100000000E-03 0. -1.
         22    1    1    0    0    0  0.12214382144E+02 -0.17410928578E+02 -0.20161213985E+02  0.29305393948E+02  0.00000000000E+00 0. -1.
</event>
<event>
 5    1  0.1691138E-003  0.9118800E+02  0.7818608E-02  0.1130116E+00
         25   -1    0    0    0    0  0.00000000000E+00  0.00000000000E+00  0.99999998245E-14  0.12500000000E+03  0.12500000000E+03 0.  0.
        -11    1    3    3    0    0 -0.11180963625E+02 -0.31385712680E+02 -0.26363051117E+02  0.42486319827E+02  0.51100000000E-03 0.  1.
         23    2    1    0    0    0  0.22015739160E+01  0.18018219682E+02 -0.25526327117E+02  0.93677539300E+02  0.88285813272E+02 0.  0.
         11    1    3    3    0    0  0.13382537541E+02  0.49403932362E+02  0.83672400071E+00  0.51191219473E+02  0.51100000000E-03 0. -1.
         22    1    1    0    0    0 -0.22015739160E+01 -0.18018219682E+02  0.25526327117E+02  0.31322460700E+02  0.00000000000E+00 0. -1.
</event>
<event>
 5    1  0.1691138E-003  0.9118800E+02  0.7818608E-02  0.1130116E+00
         25   -1    0    0    0    0  0.00000000000E+00  0.00000000000E+00  0.99999998245E-14  0.12500000000E+03  0.12500000000E+03 0.  0.
        -11    1    3    3    0    0 -0.19983504361E+02  0.53630184837E+02  0.12154981566E+02  0.58508809160E+02  0.51100000000E-03 0.  1.
         23    2    1    0    0    0 -0.22714926501E+01  0.28250357648E+02 -0.81326113892E+01  0.95514719704E+02  0.90849765691E+02 0.  0.
         11    1    3    3    0    0  0.17712011711E+02 -0.25379827189E+02 -0.20287592955E+02  0.37005910544E+02  0.51100000000E-03 0. -1.
         22    1    1    0    0    0  0.22714926501E+01 -0.28250357648E+02  0.81326113892E+01  0.29485280296E+02  0.00000000000E+00 0.  1.
</event>
<event>
 5    1  0.1691138E-003  0.9118800E+02  0.7818608E-02  0.1130116E+00
         25   -1    0    0    0    0  0.00000000000E+00  0.00000000000E+00  0.99999998245E-14  0.12500000000E+03  0.12500000000E+03 0.  0.
        -11    1    3    3    0    0 -0.19808343586E+02 -0.45767652096E+02 -0.16117233612E+02  0.52410053172E+02  0.51100000000E-03 0.  1.
         23    2    1    0    0    0 -0.29295225289E+02 -0.11572174227E+02  0.40746776646E+01  0.93239514501E+02  0.87663439501E+02 0.  0.
         11    1    3    3    0    0 -0.94868817027E+01  0.34195477869E+02  0.20191911276E+02  0.40829461329E+02  0.51100000000E-03 0. -1.
         22    1    1    0    0    0  0.29295225289E+02  0.11572174227E+02 -0.40746776646E+01  0.31760485499E+02  0.00000000000E+00 0.  1.
</event>
<event>
 5    1  0.1691138E-003  0.9118800E+02  0.7818608E-02  0.1130116E+00
         25   -1    0    0    0    0  0.00000000000E+00  0.00000000000E+00  0.99999998245E-14  0.12500000000E+03  0.12500000000E+03 0.  0.
        -11    1    3    3    0    0  0.82117861672E+01  0.37551493113E+02  0.14882349981E+02  0.41219320813E+02  0.51100000000E-03 0. -1.
         23    2    1    0    0    0 -0.28854872711E+02 -0.31706715687E+00  0.10108237290E+02  0.94424181583E+02  0.89336696804E+02 0.  0.
         11    1    3    3    0    0 -0.37066658878E+02 -0.37868560270E+02 -0.47741126909E+01  0.53204860770E+02  0.51100000000E-03 0.  1.
         22    1    1    0    0    0  0.28854872711E+02  0.31706715687E+00 -0.10108237290E+02  0.30575818417E+02  0.00000000000E+00 0.  1.
</event>
<event>
 5    1  0.1691138E-003  0.9118800E+02  0.7818608E-02  0.1130116E+00
         25   -1    0    0    0    0  0.00000000000E+00  0.00000000000E+00  0.99999998245E-14  0.12500000000E+03  0.12500000000E+03 0.  0.
        -11    1    3    3    0    0  0.41264455907E+02 -0.69065252223E+01 -0.40589010851E+02  0.58291707936E+02  0.51100000000E-03 0. -1.
         23    2    1    0    0    0  0.72259610093E+01 -0.11078786885E+02 -0.26531146062E+02  0.95354498777E+02  0.90629049947E+02 0.  0.
         11    1    3    3    0    0 -0.34038494898E+02 -0.41722616631E+01  0.14057864789E+02  0.37062790841E+02  0.51100000000E-03 0.  1.
         22    1    1    0    0    0 -0.72259610093E+01  0.11078786885E+02  0.26531146062E+02  0.29645501223E+02  0.00000000000E+00 0. -1.
</event>
<event>
 5    1  0.1691138E-003  0.9118800E+02  0.7818608E-02  0.1130116E+00
         25   -1    0    0    0    0  0.00000000000E+00  0.00000000000E+00  0.99999998245E-14  0.12500000000E+03  0.12500000000E+03 0.  0.
        -11    1    3    3    0    0 -0.39756458759E+02  0.43176074743E+01 -0.79300577450E+01  0.40768904369E+02  0.51100000000E-03 0. -1.
         23    2    1    0    0    0 -0.11558306485E+02  0.36208349663E+02 -0.15402743186E+02  0.83989226638E+02  0.73296020761E+02 0.  0.
         11    1    3    3    0    0  0.28198152274E+02  0.31890742189E+02 -0.74726854409E+01  0.43220322269E+02  0.51100000000E-03 0.  1.
         22    1    1    0    0    0  0.11558306485E+02 -0.36208349663E+02  0.15402743186E+02  0.41010773362E+02  0.00000000000E+00 0.  1.
</event>
<event>
 5    1  0.1691138E-003  0.9118800E+02  0.7818608E-02  0.1130116E+00
         25   -1    0    0    0    0  0.00000000000E+00  0.00000000000E+00  0.99999998245E-14  0.12500000000E+03  0.12500000000E+03 0.  0.
        -11    1    3    3    0    0 -0.48081772272E+02  0.17561700396E+02  0.29609911736E+02  0.59135581665E+02  0.51100000000E-03 0.  1.
         23    2    1    0    0    0 -0.13236262534E+02  0.13627784800E+02  0.23583304214E+02  0.94716549040E+02  0.89744845311E+02 0.  0.
         11    1    3    3    0    0  0.34845509738E+02 -0.39339155958E+01 -0.60266075222E+01  0.35580967375E+02  0.51100000000E-03 0. -1.
         22    1    1    0    0    0  0.13236262534E+02 -0.13627784800E+02 -0.23583304214E+02  0.30283450960E+02  0.00000000000E+00 0.  1.
</event>
<event>
 5    1  0.1691138E-003  0.9118800E+02  0.7818608E-02  0.1130116E+00
         25   -1    0    0    0    0  0.00000000000E+00  0.00000000000E+00  0.99999998245E-14  0.12500000000E+03  0.12500000000E+03 0.  0.
        -11    1    3    3    0    0 -0.27785673283E+02 -0.22759437418E+02 -0.11896719408E+02  0.37836061691E+02  0.51100000000E-03 0.  1.
         23    2    1    0    0    0  0.25254015879E+02 -0.34852373873E+00 -0.15220386715E+02  0.95511918364E+02  0.90845911251E+02 0.  0.
         11    1    3    3    0    0  0.53039689162E+02  0.22410913680E+02 -0.33236673071E+01  0.57675856673E+02  0.51100000000E-03 0. -1.
         22    1    1    0    0    0 -0.25254015879E+02  0.34852373873E+00  0.15220386715E+02  0.29488081636E+02  0.00000000000E+00 0. -1.
</event>
<event>
 5    1  0.1691138E-003  0.9118800E+02  0.7818608E-02  0.1130116E+00
         25   -1    0    0    0    0  0.00000000000E+00  0.00000000000E+00  0.99999998245E-14  0.12500000000E+03  0.12500000000E+03 0.  0.
        -11    1    3    3    0    0 -0.24339296356E+02 -0.54690207408E+02  0.12090151875E+02  0.61070384853E+02  0.51100000000E-03 0. -1.
         23    2    1    0    0    0 -0.59955469482E+01 -0.28240931151E+02 -0.16817677798E+01  0.96080713730E+02  0.91625206317E+02 0.  0.
         11    1    3    3    0    0  0.18343749408E+02  0.26449276257E+02 -0.13771919655E+02  0.35010328878E+02  0.51100000000E-03 0.  1.
         22    1    1    0    0    0  0.59955469482E+01  0.28240931151E+02  0.16817677798E+01  0.28919286270E+02  0.00000000000E+00 0. -1.
</event>
<event>
 5    1  0.1691138E-003  0.9118800E+02  0.7818608E-02  0.1130116E+00
         25   -1    0    0    0    0  0.00000000000E+00  0.00000000000E+00  0.99999998245E-14  0.12500000000E+03  0.12500000000E+03 0.  0.
        -11    1    3    3    0    0 -0.17525942857E+02 -0.48878567643E+02 -0.25225146060E+02  0.57728511516E+02  0.51100000000E-03 0.  1.
         23    2    1    0    0    0 -0.11603668276E+02 -0.11343253457E+02 -0.24350293832E+02  0.95738227563E+02  0.91156770954E+02 0.  0.
         11    1    3    3    0    0  0.59222745805E+01  0.37535314186E+02  0.87485222866E+00  0.38009716047E+02  0.51100000000E-03 0. -1.
         22    1    1    0    0    0  0.11603668276E+02  0.11343253457E+02  0.24350293832E+02  0.29261772437E+02  0.00000000000E+00 0.  1.
</event>
<event>
 5    1  0.1691138E-003  0.9118800E+02  0.7818608E-02  0.1130116E+00
         25   -1    0    0    0    0  0.00000000000E+00  0.00000000000E+00  0.99999998245E-14  0.12500000000E+03  0.12500000000E+03 0.  0.
        -11    1    3    3    0    0  0.15274244059E+02  0.40860856023E+02 -0.38230488900E+02  0.58004158198E+02  0.51100000000E-03 0.  1.
         23    2    1    0    0    0  0.28225827129E+01  0.30635878024E+02 -0.65521972425E+01  0.93544391849E+02  0.88097093949E+02 0.  0.
         11    1    3    3    0    0 -0.12451661346E+02 -0.10224977999E+02  0.31678291657E+02  0.35540233651E+02  0.51100000000E-03 0. -1.
         22    1    1    0    0    0 -0.28225827129E+01 -0.30635878024E+02  0.65521972425E+01  0.31455608151E+02  0.00000000000E+00 0.  1.
</event>
<event>
 5    1  0.1691138E-003  0.9118800E+02  0.7818608E-02  0.1130116E+00
         25   -1    0    0    0    0  0.00000000000E+00  0.00000000000E+00  0.99999998245E-14  0.12500000000E+03  0.12500000000E+03 0.  0.
        -11    1    3    3    0    0 -0.32738529613E+02 -0.80443809699E+01  0.10079898483E+01  0.33727428455E+02  0.51100000000E-03 0.  1.
         23    2    1    0    0    0  0.28799931945E+02  0.17721397159E+01 -0.16285156007E+01  0.96099677817E+02  0.91651074485E+02 0.  0.
         11    1    3    3    0    0  0.61538461558E+02  0.98165206857E+01 -0.26365054490E+01  0.62372249362E+02  0.51100000000E-03 0. -1.
         22    1    1    0    0    0 -0.28799931945E+02 -0.17721397159E+01  0.16285156007E+01  0.28900322183E+02  0.00000000000E+00 0. -1.
</event>
<event>
 5    1  0.1691138E-003  0.9118800E+02  0.7818608E-02  0.1130116E+00
         25   -1    0    0    0    0  0.00000000000E+00  0.00000000000E+00  0.99999998245E-14  0.12500000000E+03  0.12500000000E+03 0.  0.
        -11    1    3    3    0    0 -0.55876343405E+01 -0.15099798239E+02 -0.44424383703E+02  0.47251999239E+02  0.51100000000E-03 0. -1.
         23    2    1    0    0    0  0.36888138684E+01  0.21593493545E+02 -0.30215329253E+02  0.87679061733E+02  0.79339557809E+02 0.  0.
         11    1    3    3    0    0  0.92764482089E+01  0.36693291784E+02  0.14209054451E+02  0.40427062495E+02  0.51100000000E-03 0.  1.
         22    1    1    0    0    0 -0.36888138684E+01 -0.21593493545E+02  0.30215329253E+02  0.37320938267E+02  0.00000000000E+00 0.  1.
</event>
<event>
 5    1  0.1691138E-003  0.9118800E+02  0.7818608E-02  0.1130116E+00
         25   -1    0    0    0    0  0.00000000000E+00  0.00000000000E+00  0.99999998245E-14  0.12500000000E+03  0.12500000000E+03 0.  0.
        -11    1    3    3    0    0  0.45940140131E+02 -0.23215108014E+02  0.34647447973E+02  0.62047428365E+02  0.51100000000E-03 0.  1.
         23    2    1    0    0    0  0.20500009453E+02 -0.15484932929E+02  0.13782416740E+02  0.95845436951E+02  0.91303664974E+02 0.  0.
         11    1    3    3    0    0 -0.25440130678E+02  0.77301750847E+01 -0.20865031233E+02  0.33798008586E+02  0.51100000000E-03 0. -1.
         22    1    1    0    0    0 -0.20500009453E+02  0.15484932929E+02 -0.13782416740E+02  0.29154563049E+02  0.00000000000E+00 0.  1.
</event>
<event>
 5    1  0.1691138E-003  0.9118800E+02  0.7818608E-02  0.1130116E+00
         25   -1    0    0    0    0  0.00000000000E+00  0.00000000000E+00  0.99999998245E-14  0.12500000000E+03  0.12500000000E+03 0.  0.
        -11    1    3    3    0    0  0.24877540256E+02  0.34254486410E+02 -0.41521325039E+02  0.59298248555E+02  0.51100000000E-03 0.  1.
         23    2    1    0    0    0  0.15642993599E+02  0.28797494481E+01 -0.23450600359E+02  0.96664035876E+02  0.92417579329E+02 0.  0.
         11    1    3    3    0    0 -0.92345466575E+01 -0.31374736962E+02  0.18070724680E+02  0.37365787321E+02  0.51100000000E-03 0. -1.
         22    1    1    0    0    0 -0.15642993599E+02 -0.28797494481E+01  0.23450600359E+02  0.28335964124E+02  0.00000000000E+00 0.  1.
</event>
<event>
 5    1  0.1691138E-003  0.9118800E+02  0.7818608E-02  0.1130116E+00
         25   -1    0    0    0    0  0.00000000000E+00  0.00000000000E+00  0.99999998245E-14  0.12500000000E+03  0.12500000000E+03 0.  0.
        -11    1    3    3    0    0  0.37890050766E+02 -0.15895949431E+02  0.32697061337E+02  0.52511284270E+02  0.51100000000E-03 0. -1.
         23    2    1    0    0    0 -0.20302808262E+01 -0.22152746045E+02  0.20575431407E+02  0.94697944374E+02  0.89718928290E+02 0.  0.
         11    1    3    3    0    0 -0.39920331592E+02 -0.62567966140E+01 -0.12121629930E+02  0.42186660104E+02  0.51100000000E-03 0.  1.
         22    1    1    0    0    0  0.20302808262E+01  0.22152746045E+02 -0.20575431407E+02  0.30302055626E+02  0.00000000000E+00 0. -1.
</event>
<event>
 5    1  0.1691138E-003  0.9118800E+02  0.7818608E-02  0.1130116E+00
         25   -1    0    0    0    0  0.00000000000E+00  0.00000000000E+00  0.99999998245E-14  0.12500000000E+03  0.12500000000E+03 0.  0.
        -11    1    3    3    0    0 -0.23487528610E+02  0.81540405727E+00 -0.20365414321E+02  0.31097893574E+02  0.51100000000E-03 0.  1.
         23    2    1    0    0    0 -0.27175462845E+02  0.42087777731E+02 -0.86407617116E+01  0.74161534463E+02  0.53994292437E+02 0.  0.
         11    1    3    3    0    0 -0.36879342345E+01  0.41272373674E+02  0.11724652609E+02  0.43063640890E+02  0.51100000000E-03 0. -1.
         22    1    1    0    0    0  0.27175462845E+02 -0.42087777731E+02  0.86407617116E+01  0.50838465537E+02  0.00000000000E+00 0.  1.
</event>
<event>
 5    1  0.1691138E-003  0.9118800E+02  0.7818608E-02  0.1130116E+00
         25   -1    0    0    0    0  0.00000000000E+00  0.00000000000E+00  0.99999998245E-14  0.12500000000E+03  0.12500000000E+03 0.  0.
        -11    1    3    3    0    0  0.78206122566E+01  0.41972982076E+02 -0.42072910478E+01  0.42902150279E+02  0.51100000000E-03 0. -1.
         23    2    1    0    0    0  0.56010478221E+01 -0.49686850630E+01 -0.28309882070E+02  0.95716745557E+02  0.91127308690E+02 0.  0.
         11    1    3    3    0    0 -0.22195644345E+01 -0.46941667139E+02 -0.24102591023E+02  0.52814595277E+02  0.51100000000E-03 0.  1.
         22    1    1    0    0    0 -0.56010478221E+01  0.49686850630E+01  0.28309882070E+02  0.29283254443E+02  0.00000000000E+00 0.  1.
</event>
<event>
 5    1  0.1691138E-003  0.9118800E+02  0.7818608E-02  0.1130116E+00
         25   -1    0    0    0    0  0.00000000000E+00  0.00000000000E+00  0.99999998245E-14  0.12500000000E+03  0.12500000000E+03 0.  0.
        -11    1    3    3    0    0 -0.23318198355E+02  0.55294430749E+01  0.27410044045E+02  0.36409114657E+02  0.51100000000E-03 0.  1.
         23    2    1    0    0    0  0.28773287651E+02  0.48402949746E+01 -0.11107125825E+01  0.95801297630E+02  0.91243215679E+02 0.  0.
         11    1    3    3    0    0  0.52091486006E+02 -0.68914810033E+00 -0.28520756628E+02  0.59392182973E+02  0.51100000000E-03 0. -1.
         22    1    1    0    0    0 -0.28773287651E+02 -0.48402949746E+01  0.11107125825E+01  0.29198702370E+02  0.00000000000E+00 0. -1.
</event>
<event>
 5    1  0.1691138E-003  0.9118800E+02  0.7818608E-02  0.1130116E+00
         25   -1    0    0    0    0  0.00000000000E+00  0.00000000000E+00  0.99999998245E-14  0.12500000000E+03  0.12500000000E+03 0.  0.
        -11    1    3    3    0    0  0.75390139186E+01 -0.55021711893E+02  0.27634393113E+01  0.55604515173E+02  0.51100000000E-03 0. -1.
         23    2    1    0    0    0  0.13189176995E+02 -0.20541172015E+02 -0.16531075481E+02  0.95518300692E+02  0.90854692630E+02 0.  0.
         11    1    3    3    0    0  0.56501630763E+01  0.34480539878E+02 -0.19294514793E+02  0.39913785519E+02  0.51100000000E-03 0.  1.
         22    1    1    0    0    0 -0.13189176995E+02  0.20541172015E+02  0.16531075481E+02  0.29481699308E+02  0.00000000000E+00 0. -1.
</event>
<event>
 5    1  0.1691138E-003  0.9118800E+02  0.7818608E-02  0.1130116E+00
         25   -1    0    0    0    0  0.00000000000E+00  0.00000000000E+00  0.99999998245E-14  0.12500000000E+03  0.12500000000E+03 0.  0.
        -11    1    3    3    0    0 -0.47165305182E+02 -0.10075353233E+02  0.23224180187E+02  0.53529816937E+02  0.51100000000E-03 0. -1.
         23    2    1    0    0    0 -0.22588889158E+02  0.18609070596E+02  0.56425805401E+01  0.95194058696E+02  0.90407492356E+02 0.  0.
         11    1    3    3    0    0  0.24576416024E+02  0.28684423829E+02 -0.17581599647E+02  0.41664241760E+02  0.51100000000E-03 0.  1.
         22    1    1    0    0    0  0.22588889158E+02 -0.18609070596E+02 -0.56425805401E+01  0.29805941304E+02  0.00000000000E+00 0. -1.
</event>
<event>
 5    1  0.1691138E-003  0.9118800E+02  0.7818608E-02  0.1130116E+00
         25   -1    0    0    0    0  0.00000000000E+00  0.00000000000E+00  0.99999998245E-14  0.12500000000E+03  0.12500000000E+03 0.  0.
        -11    1    3    3    0    0  0.19201496115E+02 -0.77518562881E+01 -0.33909476325E+02  0.39732119423E+02  0.51100000000E-03 0.  1.
         23    2    1    0    0    0 -0.27838189685E+02 -0.38123596261E+01 -0.17554737713E+01  0.96847192342E+02  0.92664977664E+02 0.  0.
         11    1    3    3    0    0 -0.47039685800E+02  0.39394966620E+01  0.32154002554E+02  0.57115072919E+02  0.51100000000E-03 0. -1.
         22    1    1    0    0    0  0.27838189685E+02  0.38123596261E+01  0.17554737713E+01  0.28152807658E+02  0.00000000000E+00 0. -1.
</event>
<event>
 5    1  0.1691138E-003  0.9118800E+02  0.7818608E-02  0.1130116E+00
         25   -1    0    0    0    0  0.00000000000E+00  0.00000000000E+00  0.99999998245E-14  0.12500000000E+03  0.12500000000E+03 0.  0.
        -11    1    3    3    0    0  0.35253056260E+02 -0.21797072388E+02  0.14381666830E+02  0.43871661484E+02  0.51100000000E-03 0.  1.
         23    2    1    0    0    0  0.41368121449E+01 -0.17829141478E+02 -0.24872160267E+02  0.94119328749E+02  0.88909123195E+02 0.  0.
         11    1    3    3    0    0 -0.31116244115E+02  0.39679309095E+01 -0.39253827097E+02  0.50247667265E+02  0.51100000000E-03 0. -1.
         22    1    1    0    0    0 -0.41368121449E+01  0.17829141478E+02  0.24872160267E+02  0.30880671251E+02  0.00000000000E+00 0.  1.
</event>
<event>
 5    1  0.1691138E-003  0.9118800E+02  0.7818608E-02  0.1130116E+00
         25   -1    0    0    0    0  0.00000000000E+00  0.00000000000E+00  0.99999998245E-14  0.12500000000E+03  0.12500000000E+03 0.  0.
        -11    1    3    3    0    0  0.20425197387E+02 -0.25038547959E+02  0.12443505994E+02  0.34625978887E+02  0.51100000000E-03 0.  1.
         23    2    1    0    0    0 -0.20353380465E+02  0.11309843933E+02 -0.16514353504E+02  0.96453607272E+02  0.92132523128E+02 0.  0.
         11    1    3    3    0    0 -0.40778577851E+02  0.36348391893E+02 -0.28957859498E+02  0.61827628385E+02  0.51100000000E-03 0. -1.
         22    1    1    0    0    0  0.20353380465E+02 -0.11309843933E+02  0.16514353504E+02  0.28546392728E+02  0.00000000000E+00 0. -1.
</event>
<event>
 5    1  0.1691138E-003  0.9118800E+02  0.7818608E-02  0.1130116E+00
         25   -1    0    0    0    0  0.00000000000E+00  0.00000000000E+00  0.99999998245E-14  0.12500000000E+03  0.12500000000E+03 0.  0.
        -11    1    3    3    0    0  0.26920666733E+02  0.15952019314E+02 -0.46656332591E+02  0.56178310660E+02  0.51100000000E-03 0.  1.
         23    2    1    0    0    0 -0.47514003434E+01 -0.27013559042E+01 -0.26183518431E+02  0.98252107254E+02  0.94541138207E+02 0.  0.
         11    1    3    3    0    0 -0.31672067077E+02 -0.18653375218E+02  0.20472814160E+02  0.42073796594E+02  0.51100000000E-03 0. -1.
         22    1    1    0    0    0  0.47514003434E+01  0.27013559042E+01  0.26183518431E+02  0.26747892746E+02  0.00000000000E+00 0.  1.
</event>
<event>
 5    1  0.1691138E-003  0.9118800E+02  0.7818608E-02  0.1130116E+00
         25   -1    0    0    0    0  0.00000000000E+00  0.00000000000E+00  0.99999998245E-14  0.12500000000E+03  0.12500000000E+03 0.  0.
        -11    1    3    3    0    0  0.10503268629E+02 -0.42504854030E+02 -0.18414819368E+02  0.47498282502E+02  0.51100000000E-03 0. -1.
         23    2    1    0    0    0 -0.21024941905E+02 -0.31681217106E+01 -0.16740445821E+02  0.97938446024E+02  0.94125509327E+02 0.  0.
         11    1    3    3    0    0 -0.31528210535E+02  0.39336732320E+02  0.16743735473E+01  0.50440163522E+02  0.51100000000E-03 0.  1.
         22    1    1    0    0    0  0.21024941905E+02  0.31681217106E+01  0.16740445821E+02  0.27061553976E+02  0.00000000000E+00 0.  1.
</event>
<event>
 5    1  0.1691138E-003  0.9118800E+02  0.7818608E-02  0.1130116E+00
         25   -1    0    0    0    0  0.00000000000E+00  0.00000000000E+00  0.99999998245E-14  0.12500000000E+03  0.12500000000E+03 0.  0.
        -11    1    3    3    0    0 -0.46975022116E+02  0.18321416608E+02 -0.83592444716E+01  0.51109724884E+02  0.51100000000E-03 0.  1.
         23    2    1    0    0    0 -0.11266709278E+02 -0.23462878394E+01 -0.26446166199E+02  0.96158302561E+02  0.91730996071E+02 0.  0.
         11    1    3    3    0    0  0.35708312838E+02 -0.20667704447E+02 -0.18086921727E+02  0.45048577677E+02  0.51100000000E-03 0. -1.
         22    1    1    0    0    0  0.11266709278E+02  0.23462878394E+01  0.26446166199E+02  0.28841697439E+02  0.00000000000E+00 0. -1.
</event>
<event>
 5    1  0.1691138E-003  0.9118800E+02  0.7818608E-02  0.1130116E+00
         25   -1    0    0    0    0  0.00000000000E+00  0.00000000000E+00  0.99999998245E-14  0.12500000000E+03  0.12500000000E+03 0.  0.
        -11    1    3    3    0    0 -0.29765470007E+02  0.27922767347E+02  0.44857458334E+02  0.60645327186E+02  0.51100000000E-03 0. -1.
         23    2    1    0    0    0 -0.45439484527E+01  0.18113038436E+02  0.22587821896E+02  0.95692333308E+02  0.91093816075E+02 0.  0.
         11    1    3    3    0    0  0.25221521555E+02 -0.98097289108E+01 -0.22269636438E+02  0.35047006123E+02  0.51100000000E-03 0.  1.
         22    1    1    0    0    0  0.45439484527E+01 -0.18113038436E+02 -0.22587821896E+02  0.29307666692E+02  0.00000000000E+00 0. -1.
</event>
<event>
 5    1  0.1691138E-003  0.9118800E+02  0.7818608E-02  0.1130116E+00
         25   -1    0    0    0    0  0.00000000000E+00  0.00000000000E+00  0.99999998245E-14  0.12500000000E+03  0.12500000000E+03 0.  0.
        -11    1    3    3    0    0 -0.16651298648E+02  0.43487549524E+02 -0.36926334857E+02  0.59430521759E+02  0.51100000000E-03 0.  1.
         23    2    1    0    0    0 -0.16930885275E+02  0.98898838070E+01 -0.19767452762E+02  0.97157283419E+02  0.93082333741E+02 0.  0.
         11    1    3    3    0    0 -0.27958662719E+00 -0.33597665717E+02  0.17158882096E+02  0.37726761660E+02  0.51100000000E-03 0. -1.
         22    1    1    0    0    0  0.16930885275E+02 -0.98898838070E+01  0.19767452762E+02  0.27842716581E+02  0.00000000000E+00 0.  1.
</event>
<event>
 5    1  0.1691138E-003  0.9118800E+02  0.7818608E-02  0.1130116E+00
         25   -1    0    0    0    0  0.00000000000E+00  0.00000000000E+00  0.99999998245E-14  0.12500000000E+03  0.12500000000E+03 0.  0.
        -11    1    3    3    0    0 -0.50765793607E+02  0.10950716052E+02  0.33349637231E+01  0.52040426265E+02  0.51100000000E-03 0. -1.
         23    2    1    0    0    0 -0.10404593012E+02 -0.10734875738E+02  0.19324088506E+02  0.10056818653E+03  0.97555351635E+02 0.  0.
         11    1    3    3    0    0  0.40361200595E+02 -0.21685591790E+02  0.15989124782E+02  0.48527760265E+02  0.51100000000E-03 0.  1.
         22    1    1    0    0    0  0.10404593012E+02  0.10734875738E+02 -0.19324088506E+02  0.24431813470E+02  0.00000000000E+00 0. -1.
</event>
<event>
 5    1  0.1691138E-003  0.9118800E+02  0.7818608E-02  0.1130116E+00
         25   -1    0    0    0    0  0.00000000000E+00  0.00000000000E+00  0.99999998245E-14  0.12500000000E+03  0.12500000000E+03 0.  0.
        -11    1    3    3    0    0 -0.33395254142E+02 -0.29630660621E+02 -0.39120906527E+02  0.59360461384E+02  0.51100000000E-03 0.  1.
         23    2    1    0    0    0 -0.19525921427E+02 -0.10891711803E+01 -0.22521666799E+02  0.95172606939E+02  0.90377827672E+02 0.  0.
         11    1    3    3    0    0  0.13869332715E+02  0.28541489440E+02  0.16599239728E+02  0.35812145555E+02  0.51100000000E-03 0. -1.
         22    1    1    0    0    0  0.19525921427E+02  0.10891711803E+01  0.22521666799E+02  0.29827393061E+02  0.00000000000E+00 0.  1.
</event>
<event>
 5    1  0.1691138E-003  0.9118800E+02  0.7818608E-02  0.1130116E+00
         25   -1    0    0    0    0  0.00000000000E+00  0.00000000000E+00  0.99999998245E-14  0.12500000000E+03  0.12500000000E+03 0.  0.
        -11    1    3    3    0    0  0.48923420732E+02  0.37217708196E+02  0.80547853300E+01  0.61996277844E+02  0.51100000000E-03 0.  1.
         23    2    1    0    0    0  0.24049172117E+02  0.14119706143E+02 -0.88386926287E+00  0.97098207837E+02  0.93002967475E+02 0.  0.
         11    1    3    3    0    0 -0.24874248616E+02 -0.23098002053E+02 -0.89386545929E+01  0.35101929993E+02  0.51100000000E-03 0. -1.
         22    1    1    0    0    0 -0.24049172117E+02 -0.14119706143E+02  0.88386926287E+00  0.27901792163E+02  0.00000000000E+00 0.  1.
</event>
<event>
 5    1  0.1691138E-003  0.9118800E+02  0.7818608E-02  0.1130116E+00
         25   -1    0    0    0    0  0.00000000000E+00  0.00000000000E+00  0.99999998245E-14  0.12500000000E+03  0.12500000000E+03 0.  0.
        -11    1    3    3    0    0 -0.10124125616E+02  0.19354133778E+02  0.31960048227E+02  0.38710787860E+02  0.51100000000E-03 0. -1.
         23    2    1    0    0    0  0.25783909306E+01  0.10554445755E+02 -0.25006071810E+02  0.97735590005E+02  0.93855727056E+02 0.  0.
         11    1    3    3    0    0  0.12702516547E+02 -0.87996880223E+01 -0.56966120037E+02  0.59024802145E+02  0.51100000000E-03 0.  1.
         22    1    1    0    0    0 -0.25783909306E+01 -0.10554445755E+02  0.25006071810E+02  0.27264409995E+02  0.00000000000E+00 0.  1.
</event>
<event>
 5    1  0.1691138E-003  0.9118800E+02  0.7818608E-02  0.1130116E+00
         25   -1    0    0    0    0  0.00000000000E+00  0.00000000000E+00  0.99999998245E-14  0.12500000000E+03  0.12500000000E+03 0.  0.
        -11    1    3    3    0    0  0.27775756748E+02 -0.22198358195E+02 -0.32670877589E+02  0.48287120563E+02  0.51100000000E-03 0.  1.
         23    2    1    0    0    0  0.25552548175E+02  0.50106174949E+01  0.84316875738E+01  0.97629717553E+02  0.93714616726E+02 0.  0.
         11    1    3    3    0    0 -0.22232085735E+01  0.27208975690E+02  0.41102565163E+02  0.49342596990E+02  0.51100000000E-03 0. -1.
         22    1    1    0    0    0 -0.25552548175E+02 -0.50106174949E+01 -0.84316875738E+01  0.27370282447E+02  0.00000000000E+00 0. -1.
</event>
<event>
 5    1  0.1691138E-003  0.9118800E+02  0.7818608E-02  0.1130116E+00
         25   -1    0    0    0    0  0.00000000000E+00  0.00000000000E+00  0.99999998245E-14  0.12500000000E+03  0.12500000000E+03 0.  0.
        -11    1    3    3    0    0 -0.50775441062E+01 -0.68747732393E+01 -0.38542686770E+02  0.39478888851E+02  0.51100000000E-03 0. -1.
         23    2    1    0    0    0 -0.26375258015E+02  0.87384431225E+01  0.10595203926E+02  0.95263272376E+02  0.90503138586E+02 0.  0.
         11    1    3    3    0    0 -0.21297713909E+02  0.15613216362E+02  0.49137890696E+02  0.55784383524E+02  0.51100000000E-03 0.  1.
         22    1    1    0    0    0  0.26375258015E+02 -0.87384431225E+01 -0.10595203926E+02  0.29736727624E+02  0.00000000000E+00 0.  1.
</event>
<event>
 5    1  0.1691138E-003  0.9118800E+02  0.7818608E-02  0.1130116E+00
         25   -1    0    0    0    0  0.00000000000E+00  0.00000000000E+00  0.99999998245E-14  0.12500000000E+03  0.12500000000E+03 0.  0.
        -11    1    3    3    0    0 -0.16875997862E+02 -0.22160451386E+02 -0.20210630514E+02  0.34414451841E+02  0.51100000000E-03 0. -1.
         23    2    1    0    0    0 -0.18167894203E+02  0.30178680883E+02 -0.24917000240E+01  0.89686635269E+02  0.82441851127E+02 0.  0.
         11    1    3    3    0    0 -0.12918963409E+01  0.52339132270E+02  0.17718930490E+02  0.55272183428E+02  0.51100000000E-03 0.  1.
         22    1    1    0    0    0  0.18167894203E+02 -0.30178680883E+02  0.24917000240E+01  0.35313364731E+02  0.00000000000E+00 0.  1.
</event>
<event>
 5    1  0.1691138E-003  0.9118800E+02  0.7818608E-02  0.1130116E+00
         25   -1    0    0    0    0  0.00000000000E+00  0.00000000000E+00  0.99999998245E-14  0.12500000000E+03  0.12500000000E+03 0.  0.
        -11    1    3    3    0    0 -0.10841745833E+02  0.40952636540E+02  0.37515369029E+02  0.56586790030E+02  0.51100000000E-03 0. -1.
         23    2    1    0    0    0 -0.14570988234E+02  0.25861652984E+02  0.21257428890E+01  0.95240000403E+02  0.90470990382E+02 0.  0.
         11    1    3    3    0    0 -0.37292424015E+01 -0.15090983555E+02 -0.35389626140E+02  0.38653210373E+02  0.51100000000E-03 0.  1.
         22    1    1    0    0    0  0.14570988234E+02 -0.25861652984E+02 -0.21257428890E+01  0.29759999597E+02  0.00000000000E+00 0. -1.
</event>
<event>
 5    1  0.1691138E-003  0.9118800E+02  0.7818608E-02  0.1130116E+00
         25   -1    0    0    0    0  0.00000000000E+00  0.00000000000E+00  0.99999998245E-14  0.12500000000E+03  0.12500000000E+03 0.  0.
        -11    1    3    3    0    0 -0.51788252839E+02  0.16151123045E+02  0.27736445282E+02  0.60927763006E+02  0.51100000000E-03 0. -1.
         23    2    1    0    0    0 -0.25046116478E+02  0.15174232118E+02  0.67184636514E+01  0.94954983361E+02  0.90076333408E+02 0.  0.
         11    1    3    3    0    0  0.26742136361E+02 -0.97689092686E+00 -0.21017981630E+02  0.34027220355E+02  0.51100000000E-03 0.  1.
         22    1    1    0    0    0  0.25046116478E+02 -0.15174232118E+02 -0.67184636514E+01  0.30045016639E+02  0.00000000000E+00 0. -1.
</event>
<event>
 5    1  0.1691138E-003  0.9118800E+02  0.7818608E-02  0.1130116E+00
         25   -1    0    0    0    0  0.00000000000E+00  0.00000000000E+00  0.99999998245E-14  0.12500000000E+03  0.12500000000E+03 0.  0.
        -11    1    3    3    0    0 -0.96786826005E+01  0.12926884457E+02 -0.53288694292E+02  0.55681829875E+02  0.51100000000E-03 0. -1.
         23    2    1    0    0    0 -0.13341217517E+02  0.22446709074E+02 -0.15920241318E+02  0.94417375575E+02  0.89327173323E+02 0.  0.
         11    1    3    3    0    0 -0.36625349163E+01  0.95198246172E+01  0.37368452974E+02  0.38735545700E+02  0.51100000000E-03 0.  1.
         22    1    1    0    0    0  0.13341217517E+02 -0.22446709074E+02  0.15920241318E+02  0.30582624425E+02  0.00000000000E+00 0. -1.
</event>
<event>
 5    1  0.1691138E-003  0.9118800E+02  0.7818608E-02  0.1130116E+00
         25   -1    0    0    0    0  0.00000000000E+00  0.00000000000E+00  0.99999998245E-14  0.12500000000E+03  0.12500000000E+03 0.  0.
        -11    1    3    3    0    0 -0.22229603817E+02 -0.62269553334E+01 -0.27279703095E+02  0.35736710254E+02  0.51100000000E-03 0. -1.
         23    2    1    0    0    0  0.20044994280E+02  0.17169246798E+02  0.10012854784E+02  0.96771608401E+02  0.92562962897E+02 0.  0.
         11    1    3    3    0    0  0.42274598097E+02  0.23396202132E+02  0.37292557879E+02  0.61034898148E+02  0.51100000000E-03 0.  1.
         22    1    1    0    0    0 -0.20044994280E+02 -0.17169246798E+02 -0.10012854784E+02  0.28228391599E+02  0.00000000000E+00 0.  1.
</event>
<event>
 5    1  0.1691138E-003  0.9118800E+02  0.7818608E-02  0.1130116E+00
         25   -1    0    0    0    0  0.00000000000E+00  0.00000000000E+00  0.99999998245E-14  0.12500000000E+03  0.12500000000E+03 0.  0.
        -11    1    3    3    0    0  0.44923438699E+01 -0.14966855736E+02  0.31615324187E+02  0.35266367091E+02  0.51100000000E-03 0. -1.
         23    2    1    0    0    0  0.86937903819E+01  0.62265551498E+01 -0.26046850128E+02  0.96843466445E+02  0.92659951496E+02 0.  0.
         11    1    3    3    0    0  0.42014465120E+01  0.21193410886E+02 -0.57662174316E+02  0.61577099354E+02  0.51100000000E-03 0.  1.
         22    1    1    0    0    0 -0.86937903819E+01 -0.62265551498E+01  0.26046850128E+02  0.28156533555E+02  0.00000000000E+00 0.  1.
</event>
<event>
 5    1  0.1691138E-003  0.9118800E+02  0.7818608E-02  0.1130116E+00
         25   -1    0    0    0    0  0.00000000000E+00  0.00000000000E+00  0.99999998245E-14  0.12500000000E+03  0.12500000000E+03 0.  0.
        -11    1    3    3    0    0  0.17475436539E+02  0.20198830881E+02 -0.29707054674E+02  0.39948626370E+02  0.51100000000E-03 0.  1.
         23    2    1    0    0    0 -0.16319706791E+02 -0.20763945210E+02 -0.12585512248E+02  0.95744754847E+02  0.91165721144E+02 0.  0.
         11    1    3    3    0    0 -0.33795143330E+02 -0.40962776090E+02  0.17121542426E+02  0.55796128477E+02  0.51100000000E-03 0. -1.
         22    1    1    0    0    0  0.16319706791E+02  0.20763945210E+02  0.12585512248E+02  0.29255245153E+02  0.00000000000E+00 0. -1.
</event>
<event>
 5    1  0.1691138E-003  0.9118800E+02  0.7818608E-02  0.1130116E+00
         25   -1    0    0    0    0  0.00000000000E+00  0.00000000000E+00  0.99999998245E-14  0.12500000000E+03  0.12500000000E+03 0.  0.
        -11    1    3    3    0    0 -0.45937270888E+01  0.59857938306E+02  0.14776968318E+02  0.61825835213E+02  0.51100000000E-03 0.  1.
         23    2    1    0    0    0  0.42079431808E+01  0.27522293596E+02  0.81799436354E+01  0.95981128408E+02  0.91489245827E+02 0.  0.
         11    1    3    3    0    0  0.88016702696E+01 -0.32335644710E+02 -0.65970246829E+01  0.34155293195E+02  0.51100000000E-03 0. -1.
         22    1    1    0    0    0 -0.42079431808E+01 -0.27522293596E+02 -0.81799436354E+01  0.29018871592E+02  0.00000000000E+00 0.  1.
</event>
<event>
 5    1  0.1691138E-003  0.9118800E+02  0.7818608E-02  0.1130116E+00
         25   -1    0    0    0    0  0.00000000000E+00  0.00000000000E+00  0.99999998245E-14  0.12500000000E+03  0.12500000000E+03 0.  0.
        -11    1    3    3    0    0 -0.19453901133E+02  0.31406622311E+02 -0.90161537908E+01  0.38027900596E+02  0.51100000000E-03 0. -1.
         23    2    1    0    0    0 -0.84806492316E+01 -0.25071084271E+02 -0.12628279072E+02  0.95675025827E+02  0.91070063450E+02 0.  0.
         11    1    3    3    0    0  0.10973251902E+02 -0.56477706582E+02 -0.36121252808E+01  0.57647125231E+02  0.51100000000E-03 0.  1.
         22    1    1    0    0    0  0.84806492316E+01  0.25071084271E+02  0.12628279072E+02  0.29324974173E+02  0.00000000000E+00 0.  1.
</event>
<event>
 5    1  0.1691138E-003  0.9118800E+02  0.7818608E-02  0.1130116E+00
         25   -1    0    0    0    0  0.00000000000E+00  0.00000000000E+00  0.99999998245E-14  0.12500000000E+03  0.12500000000E+03 0.  0.
        -11    1    3    3    0    0 -0.40929676222E+02 -0.28185073088E+01  0.34197130112E+00  0.41028030951E+02  0.51100000000E-03 0. -1.
         23    2    1    0    0    0  0.46498082532E+01 -0.22431403022E+01 -0.29200099707E+02  0.95347036942E+02  0.90618757636E+02 0.  0.
         11    1    3    3    0    0  0.45579484475E+02  0.57536700664E+00 -0.29542071008E+02  0.54319005991E+02  0.51100000000E-03 0.  1.
         22    1    1    0    0    0 -0.46498082532E+01  0.22431403022E+01  0.29200099707E+02  0.29652963058E+02  0.00000000000E+00 0.  1.
</event>
<event>
 5    1  0.1691138E-003  0.9118800E+02  0.7818608E-02  0.1130116E+00
         25   -1    0    0    0    0  0.00000000000E+00  0.00000000000E+00  0.99999998245E-14  0.12500000000E+03  0.12500000000E+03 0.  0.
        -11    1    3    3    0    0 -0.34340903238E+02  0.31288790073E+02 -0.34624603495E+02  0.57940911168E+02  0.51100000000E-03 0.  1.
         23    2    1    0    0    0 -0.80088827890E+01  0.28350307214E+02 -0.10646719311E+02  0.93675333126E+02  0.88282689592E+02 0.  0.
         11    1    3    3    0    0  0.26332020449E+02 -0.29384828586E+01  0.23977884185E+02  0.35734421958E+02  0.51100000000E-03 0. -1.
         22    1    1    0    0    0  0.80088827890E+01 -0.28350307214E+02  0.10646719311E+02  0.31324666874E+02  0.00000000000E+00 0.  1.
</event>
<event>
 5    1  0.1691138E-003  0.9118800E+02  0.7818608E-02  0.1130116E+00
         25   -1    0    0    0    0  0.00000000000E+00  0.00000000000E+00  0.99999998245E-14  0.12500000000E+03  0.12500000000E+03 0.  0.
        -11    1    3    3    0    0  0.33101092437E+02  0.51842978688E+02 -0.89447627399E+00  0.61515663435E+02  0.51100000000E-03 0.  1.
         23    2    1    0    0    0  0.19895313211E+02  0.20210236105E+02 -0.55294014207E+01  0.96106204624E+02  0.91659975758E+02 0.  0.
         11    1    3    3    0    0 -0.13205779226E+02 -0.31632742584E+02 -0.46349251467E+01  0.34590541189E+02  0.51100000000E-03 0. -1.
         22    1    1    0    0    0 -0.19895313211E+02 -0.20210236105E+02  0.55294014207E+01  0.28893795376E+02  0.00000000000E+00 0.  1.
</event>
<event>
 5    1  0.1691138E-003  0.9118800E+02  0.7818608E-02  0.1130116E+00
         25   -1    0    0    0    0  0.00000000000E+00  0.00000000000E+00  0.99999998245E-14  0.12500000000E+03  0.12500000000E+03 0.  0.
        -11    1    3    3    0    0 -0.25614409974E+02  0.32011372425E+02  0.24976641740E+01  0.41073888170E+02  0.51100000000E-03 0.  1.
         23    2    1    0    0    0 -0.13428206345E+02 -0.17973011673E+02  0.19516187179E+02  0.95264037996E+02  0.90504196030E+02 0.  0.
         11    1    3    3    0    0  0.12186203628E+02 -0.49984384099E+02  0.17018523005E+02  0.54190149826E+02  0.51100000000E-03 0. -1.
         22    1    1    0    0    0  0.13428206345E+02  0.17973011673E+02 -0.19516187179E+02  0.29735962004E+02  0.00000000000E+00 0. -1.
</event>
<event>
 5    1  0.1691138E-003  0.9118800E+02  0.7818608E-02  0.1130116E+00
         25   -1    0    0    0    0  0.00000000000E+00  0.00000000000E+00  0.99999998245E-14  0.12500000000E+03  0.12500000000E+03 0.  0.
        -11    1    3    3    0    0 -0.19619076638E+02  0.44775302880E+02  0.23297522658E+02  0.54152659015E+02  0.51100000000E-03 0.  1.
         23    2    1    0    0    0  0.12460454028E+02  0.26929924121E+02  0.14838546837E+02  0.91823710274E+02  0.85620836066E+02 0.  0.
         11    1    3    3    0    0  0.32079530665E+02 -0.17845378759E+02 -0.84589758210E+01  0.37671051259E+02  0.51100000000E-03 0. -1.
         22    1    1    0    0    0 -0.12460454028E+02 -0.26929924121E+02 -0.14838546837E+02  0.33176289726E+02  0.00000000000E+00 0.  1.
</event>
<event>
 5    1  0.1691138E-003  0.9118800E+02  0.7818608E-02  0.1130116E+00
         25   -1    0    0    0    0  0.00000000000E+00  0.00000000000E+00  0.99999998245E-14  0.12500000000E+03  0.12500000000E+03 0.  0.
        -11    1    3    3    0    0  0.53920159367E+02  0.56682805009E+01  0.15477573570E+02  0.56383226884E+02  0.51100000000E-03 0. -1.
         23    2    1    0    0    0  0.23358197942E+02  0.20293379651E+02 -0.96348015316E+00  0.94042691286E+02  0.88801310923E+02 0.  0.
         11    1    3    3    0    0 -0.30561961425E+02  0.14625099150E+02 -0.16441053723E+02  0.37659464402E+02  0.51100000000E-03 0.  1.
         22    1    1    0    0    0 -0.23358197942E+02 -0.20293379651E+02  0.96348015316E+00  0.30957308714E+02  0.00000000000E+00 0. -1.
</event>
<event>
 5    1  0.1691138E-003  0.9118800E+02  0.7818608E-02  0.1130116E+00
         25   -1    0    0    0    0  0.00000000000E+00  0.00000000000E+00  0.99999998245E-14  0.12500000000E+03  0.12500000000E+03 0.  0.
        -11    1    3    3    0    0  0.33137204385E+02 -0.36260619085E+02  0.26091613445E+02  0.55620851336E+02  0.51100000000E-03 0. -1.
         23    2    1    0    0    0  0.15807396705E+02 -0.65387703361E+00  0.25217456925E+02  0.95230527725E+02  0.90457901430E+02 0.  0.
         11    1    3    3    0    0 -0.17329807680E+02  0.35606742052E+02 -0.87415651956E+00  0.39609676389E+02  0.51100000000E-03 0.  1.
         22    1    1    0    0    0 -0.15807396705E+02  0.65387703361E+00 -0.25217456925E+02  0.29769472275E+02  0.00000000000E+00 0. -1.
</event>
<event>
 5    1  0.1691138E-003  0.9118800E+02  0.7818608E-02  0.1130116E+00
         25   -1    0    0    0    0  0.00000000000E+00  0.00000000000E+00  0.99999998245E-14  0.12500000000E+03  0.12500000000E+03 0.  0.
        -11    1    3    3    0    0 -0.17705062360E+01  0.93622170007E+00  0.37619405862E+02  0.37672681097E+02  0.51100000000E-03 0.  1.
         23    2    1    0    0    0  0.29523628559E+02  0.23490493969E+02  0.76925760649E+01  0.86495147362E+02  0.77451835617E+02 0.  0.
         11    1    3    3    0    0  0.31294134795E+02  0.22554272269E+02 -0.29926829797E+02  0.48822466264E+02  0.51100000000E-03 0. -1.
         22    1    1    0    0    0 -0.29523628559E+02 -0.23490493969E+02 -0.76925760649E+01  0.38504852638E+02  0.00000000000E+00 0. -1.
</event>
<event>
 5    1  0.1691138E-003  0.9118800E+02  0.7818608E-02  0.1130116E+00
         25   -1    0    0    0    0  0.00000000000E+00  0.00000000000E+00  0.99999998245E-14  0.12500000000E+03  0.12500000000E+03 0.  0.
        -11    1    3    3    0    0  0.18057678043E+02  0.13761569341E+02  0.26457950337E+02  0.34863787278E+02  0.51100000000E-03 0.  1.
         23    2    1    0    0    0 -0.92288761659E+00 -0.12040748863E+02 -0.26002458978E+02  0.96330168685E+02  0.91964896407E+02 0.  0.
         11    1    3    3    0    0 -0.18980565659E+02 -0.25802318205E+02 -0.52460409315E+02  0.61466381407E+02  0.51100000000E-03 0. -1.
         22    1    1    0    0    0  0.92288761659E+00  0.12040748863E+02  0.26002458978E+02  0.28669831315E+02  0.00000000000E+00 0. -1.
</event>
<event>
 5    1  0.1691138E-003  0.9118800E+02  0.7818608E-02  0.1130116E+00
         25   -1    0    0    0    0  0.00000000000E+00  0.00000000000E+00  0.99999998245E-14  0.12500000000E+03  0.12500000000E+03 0.  0.
        -11    1    3    3    0    0 -0.36136407332E+02  0.88911006174E+01 -0.48098398865E+02  0.60814040966E+02  0.51100000000E-03 0.  1.
         23    2    1    0    0    0 -0.10575482711E+02  0.10720394070E+02 -0.27315747961E+02  0.93808370190E+02  0.88470857052E+02 0.  0.
         11    1    3    3    0    0  0.25560924621E+02  0.18292934525E+01  0.20782650904E+02  0.32994329223E+02  0.51100000000E-03 0. -1.
         22    1    1    0    0    0  0.10575482711E+02 -0.10720394070E+02  0.27315747961E+02  0.31191629810E+02  0.00000000000E+00 0.  1.
</event>
<event>
 5    1  0.1691138E-003  0.9118800E+02  0.7818608E-02  0.1130116E+00
         25   -1    0    0    0    0  0.00000000000E+00  0.00000000000E+00  0.99999998245E-14  0.12500000000E+03  0.12500000000E+03 0.  0.
        -11    1    3    3    0    0  0.40605368983E+01  0.62104560315E+01  0.38869636737E+02  0.39571535027E+02  0.51100000000E-03 0.  1.
         23    2    1    0    0    0 -0.31778477015E+02 -0.57621839340E+01  0.15715066953E+01  0.92665127210E+02  0.86840553905E+02 0.  0.
         11    1    3    3    0    0 -0.35839013913E+02 -0.11972639965E+02 -0.37298130042E+02  0.53093592183E+02  0.51100000000E-03 0. -1.
         22    1    1    0    0    0  0.31778477015E+02  0.57621839340E+01 -0.15715066953E+01  0.32334872790E+02  0.00000000000E+00 0. -1.
</event>
<event>
 5    1  0.1691138E-003  0.9118800E+02  0.7818608E-02  0.1130116E+00
         25   -1    0    0    0    0  0.00000000000E+00  0.00000000000E+00  0.99999998245E-14  0.12500000000E+03  0.12500000000E+03 0.  0.
        -11    1    3    3    0    0  0.17898566098E+00  0.17037738656E+02  0.32874184238E+02  0.37027402879E+02  0.51100000000E-03 0.  1.
         23    2    1    0    0    0 -0.26369801610E+02 -0.98682322114E+01 -0.10850797480E+02  0.94825702165E+02  0.89896749336E+02 0.  0.
         11    1    3    3    0    0 -0.26548787271E+02 -0.26905970868E+02 -0.43724981718E+02  0.57798299286E+02  0.51100000000E-03 0. -1.
         22    1    1    0    0    0  0.26369801610E+02  0.98682322114E+01  0.10850797480E+02  0.30174297835E+02  0.00000000000E+00 0. -1.
</event>
<event>
 5    1  0.1691138E-003  0.9118800E+02  0.7818608E-02  0.1130116E+00
         25   -1    0    0    0    0  0.00000000000E+00  0.00000000000E+00  0.99999998245E-14  0.12500000000E+03  0.12500000000E+03 0.  0.
        -11    1    3    3    0    0  0.18073484872E+02 -0.10435876998E+02  0.56691069165E+02  0.60410559569E+02  0.51100000000E-03 0.  1.
         23    2    1    0    0    0 -0.16578627988E+01  0.91664041016E-02  0.28872944239E+02  0.96079496856E+02  0.91623546177E+02 0.  0.
         11    1    3    3    0    0 -0.19731347670E+02  0.10445043402E+02 -0.27818124926E+02  0.35668937287E+02  0.51100000000E-03 0. -1.
         22    1    1    0    0    0  0.16578627988E+01 -0.91664041016E-02 -0.28872944239E+02  0.28920503144E+02  0.00000000000E+00 0.  1.
</event>
<event>
 5    1  0.1691138E-003  0.9118800E+02  0.7818608E-02  0.1130116E+00
         25   -1    0    0    0    0  0.00000000000E+00  0.00000000000E+00  0.99999998245E-14  0.12500000000E+03  0.12500000000E+03 0.  0.
        -11    1    3    3    0    0 -0.63968892438E+01 -0.28791512342E+02  0.22687281607E+02  0.37210000295E+02  0.51100000000E-03 0. -1.
         23    2    1    0    0    0  0.26581255241E+02  0.13242707504E+02 -0.12265464115E+00  0.95302399485E+02  0.90557163555E+02 0.  0.
         11    1    3    3    0    0  0.32978144484E+02  0.42034219846E+02 -0.22809936249E+02  0.58092399190E+02  0.51100000000E-03 0.  1.
         22    1    1    0    0    0 -0.26581255241E+02 -0.13242707504E+02  0.12265464115E+00  0.29697600515E+02  0.00000000000E+00 0.  1.
</event>
<event>
 5    1  0.1691138E-003  0.9118800E+02  0.7818608E-02  0.1130116E+00
         25   -1    0    0    0    0  0.00000000000E+00  0.00000000000E+00  0.99999998245E-14  0.12500000000E+03  0.12500000000E+03 0.  0.
        -11    1    3    3    0    0  0.45245027596E+02  0.36154607714E+02 -0.64682640143E+01  0.58276123934E+02  0.51100000000E-03 0.  1.
         23    2    1    0    0    0  0.29159929487E+02  0.32362066773E+01  0.89750278814E+00  0.95647316433E+02  0.91032022433E+02 0.  0.
         11    1    3    3    0    0 -0.16085098109E+02 -0.32918401037E+02  0.73657668024E+01  0.37371192500E+02  0.51100000000E-03 0. -1.
         22    1    1    0    0    0 -0.29159929487E+02 -0.32362066773E+01 -0.89750278814E+00  0.29352683567E+02  0.00000000000E+00 0.  1.
</event>
<event>
 5    1  0.1691138E-003  0.9118800E+02  0.7818608E-02  0.1130116E+00
         25   -1    0    0    0    0  0.00000000000E+00  0.00000000000E+00  0.99999998245E-14  0.12500000000E+03  0.12500000000E+03 0.  0.
        -11    1    3    3    0    0 -0.37080179558E+02 -0.24548499562E+02  0.14839937311E+02  0.46880617386E+02  0.51100000000E-03 0. -1.
         23    2    1    0    0    0 -0.20516758818E+02  0.88411287096E+01 -0.17808542688E+02  0.96429960764E+02  0.92100435346E+02 0.  0.
         11    1    3    3    0    0  0.16563420740E+02  0.33389628272E+02 -0.32648479999E+02  0.49549343378E+02  0.51100000000E-03 0.  1.
         22    1    1    0    0    0  0.20516758818E+02 -0.88411287096E+01  0.17808542688E+02  0.28570039236E+02  0.00000000000E+00 0. -1.
</event>
<event>
 5    1  0.1691138E-003  0.9118800E+02  0.7818608E-02  0.1130116E+00
         25   -1    0    0    0    0  0.00000000000E+00  0.00000000000E+00  0.99999998245E-14  0.12500000000E+03  0.12500000000E+03 0.  0.
        -11    1    3    3    0    0  0.21793585512E+01  0.22070561012E+02  0.30021876132E+02  0.37325223560E+02  0.51100000000E-03 0. -1.
         23    2    1    0    0    0 -0.17009384860E+02 -0.23649982248E+02 -0.10661153639E+01  0.95849057724E+02  0.91308621887E+02 0.  0.
         11    1    3    3    0    0 -0.19188743411E+02 -0.45720543260E+02 -0.31087991496E+02  0.58523834163E+02  0.51100000000E-03 0.  1.
         22    1    1    0    0    0  0.17009384860E+02  0.23649982248E+02  0.10661153639E+01  0.29150942276E+02  0.00000000000E+00 0.  1.
</event>
<event>
 5    1  0.1691138E-003  0.9118800E+02  0.7818608E-02  0.1130116E+00
         25   -1    0    0    0    0  0.00000000000E+00  0.00000000000E+00  0.99999998245E-14  0.12500000000E+03  0.12500000000E+03 0.  0.
        -11    1    3    3    0    0  0.22898497181E+02 -0.56296157811E+02  0.13592642866E+01  0.60790181420E+02  0.51100000000E-03 0.  1.
         23    2    1    0    0    0  0.88099254833E+00 -0.27682059054E+02 -0.29334393670E+01  0.97149010648E+02  0.93071223598E+02 0.  0.
         11    1    3    3    0    0 -0.22017504633E+02  0.28614098756E+02 -0.42927036536E+01  0.36358829228E+02  0.51100000000E-03 0. -1.
         22    1    1    0    0    0 -0.88099254833E+00  0.27682059054E+02  0.29334393670E+01  0.27850989352E+02  0.00000000000E+00 0.  1.
</event>
<event>
 5    1  0.1691138E-003  0.9118800E+02  0.7818608E-02  0.1130116E+00
         25   -1    0    0    0    0  0.00000000000E+00  0.00000000000E+00  0.99999998245E-14  0.12500000000E+03  0.12500000000E+03 0.  0.
        -11    1    3    3    0    0 -0.54541195742E+02  0.12967805716E+02  0.25063286330E+02  0.61409073759E+02  0.51100000000E-03 0. -1.
         23    2    1    0    0    0 -0.21606968568E+02  0.99782065643E+01  0.17834406139E+02  0.95259594164E+02  0.90498058217E+02 0.  0.
         11    1    3    3    0    0  0.32934227174E+02 -0.29895991513E+01 -0.72288801907E+01  0.33850520405E+02  0.51100000000E-03 0.  1.
         22    1    1    0    0    0  0.21606968568E+02 -0.99782065643E+01 -0.17834406139E+02  0.29740405836E+02  0.00000000000E+00 0. -1.
</event>
<event>
 5    1  0.1691138E-003  0.9118800E+02  0.7818608E-02  0.1130116E+00
         25   -1    0    0    0    0  0.00000000000E+00  0.00000000000E+00  0.99999998245E-14  0.12500000000E+03  0.12500000000E+03 0.  0.
        -11    1    3    3    0    0  0.79272690888E+01 -0.15164136950E+02 -0.34493660143E+02  0.38504613165E+02  0.51100000000E-03 0. -1.
         23    2    1    0    0    0 -0.31527646194E+02  0.57910963119E+01 -0.37703459702E+01  0.92723928681E+02  0.86925152691E+02 0.  0.
         11    1    3    3    0    0 -0.39454915283E+02  0.20955233262E+02  0.30723314173E+02  0.54219315516E+02  0.51100000000E-03 0.  1.
         22    1    1    0    0    0  0.31527646194E+02 -0.57910963119E+01  0.37703459702E+01  0.32276071319E+02  0.00000000000E+00 0.  1.
</event>
<event>
 5    1  0.1691138E-003  0.9118800E+02  0.7818608E-02  0.1130116E+00
         25   -1    0    0    0    0  0.00000000000E+00  0.00000000000E+00  0.99999998245E-14  0.12500000000E+03  0.12500000000E+03 0.  0.
        -11    1    3    3    0    0  0.37147449269E+02  0.29480061746E-01 -0.35432378624E+02  0.51336023526E+02  0.51100000000E-03 0. -1.
         23    2    1    0    0    0  0.29033817424E+02 -0.11175595789E+01  0.74585046555E+01  0.95002653695E+02  0.90142461825E+02 0.  0.
         11    1    3    3    0    0 -0.81136318445E+01 -0.11470396406E+01  0.42890883279E+02  0.43666630170E+02  0.51100000000E-03 0.  1.
         22    1    1    0    0    0 -0.29033817424E+02  0.11175595789E+01 -0.74585046555E+01  0.29997346305E+02  0.00000000000E+00 0. -1.
</event>
<event>
 5    1  0.1691138E-003  0.9118800E+02  0.7818608E-02  0.1130116E+00
         25   -1    0    0    0    0  0.00000000000E+00  0.00000000000E+00  0.99999998245E-14  0.12500000000E+03  0.12500000000E+03 0.  0.
        -11    1    3    3    0    0  0.66763087435E+01  0.40324030309E+02 -0.29738625972E+02  0.50546873234E+02  0.51100000000E-03 0. -1.
         23    2    1    0    0    0 -0.22451132927E+02  0.18286445461E+02 -0.28451217492E+01  0.95904602166E+02  0.91384629679E+02 0.  0.
         11    1    3    3    0    0 -0.29127441671E+02 -0.22037584848E+02  0.26893504223E+02  0.45357728932E+02  0.51100000000E-03 0.  1.
         22    1    1    0    0    0  0.22451132927E+02 -0.18286445461E+02  0.28451217492E+01  0.29095397834E+02  0.00000000000E+00 0.  1.
</event>
<event>
 5    1  0.1691138E-003  0.9118800E+02  0.7818608E-02  0.1130116E+00
         25   -1    0    0    0    0  0.00000000000E+00  0.00000000000E+00  0.99999998245E-14  0.12500000000E+03  0.12500000000E+03 0.  0.
        -11    1    3    3    0    0  0.32278636645E+02  0.80497536460E+01  0.29054655044E+02  0.44168788725E+02  0.51100000000E-03 0.  1.
         23    2    1    0    0    0  0.20575975541E+02  0.25504246725E+01 -0.20775184025E+02  0.95648957314E+02  0.91034275569E+02 0.  0.
         11    1    3    3    0    0 -0.11702661104E+02 -0.54993289735E+01 -0.49829839069E+02  0.51480168589E+02  0.51100000000E-03 0. -1.
         22    1    1    0    0    0 -0.20575975541E+02 -0.25504246725E+01  0.20775184025E+02  0.29351042686E+02  0.00000000000E+00 0. -1.
</event>
<event>
 5    1  0.1691138E-003  0.9118800E+02  0.7818608E-02  0.1130116E+00
         25   -1    0    0    0    0  0.00000000000E+00  0.00000000000E+00  0.99999998245E-14  0.12500000000E+03  0.12500000000E+03 0.  0.
        -11    1    3    3    0    0  0.78178880207E+00 -0.32166414337E+02  0.30714946719E+02  0.44482551154E+02  0.51100000000E-03 0.  1.
         23    2    1    0    0    0  0.22730440338E+02  0.11560175011E+02  0.10273352457E+02  0.97507231224E+02  0.93551097300E+02 0.  0.
         11    1    3    3    0    0  0.21948651536E+02  0.43726589348E+02 -0.20441594261E+02  0.53024680069E+02  0.51100000000E-03 0. -1.
         22    1    1    0    0    0 -0.22730440338E+02 -0.11560175011E+02 -0.10273352457E+02  0.27492768776E+02  0.00000000000E+00 0. -1.
</event>
<event>
 5    1  0.1691138E-003  0.9118800E+02  0.7818608E-02  0.1130116E+00
         25   -1    0    0    0    0  0.00000000000E+00  0.00000000000E+00  0.99999998245E-14  0.12500000000E+03  0.12500000000E+03 0.  0.
        -11    1    3    3    0    0  0.61198582151E+02 -0.37645279268E+01 -0.10734313122E+02  0.62246795952E+02  0.51100000000E-03 0.  1.
         23    2    1    0    0    0  0.30752670169E+02  0.76396417557E+00 -0.83762755203E+01  0.93117836407E+02  0.87489765697E+02 0.  0.
         11    1    3    3    0    0 -0.30445911982E+02  0.45284921024E+01  0.23580376013E+01  0.30871040455E+02  0.51100000000E-03 0. -1.
         22    1    1    0    0    0 -0.30752670169E+02 -0.76396417557E+00  0.83762755203E+01  0.31882163593E+02  0.00000000000E+00 0.  1.
</event>
<event>
 5    1  0.1691138E-003  0.9118800E+02  0.7818608E-02  0.1130116E+00
         25   -1    0    0    0    0  0.00000000000E+00  0.00000000000E+00  0.99999998245E-14  0.12500000000E+03  0.12500000000E+03 0.  0.
        -11    1    3    3    0    0 -0.20872631789E+02 -0.53951615196E+02  0.15976487825E+02  0.60014095873E+02  0.51100000000E-03 0.  1.
         23    2    1    0    0    0 -0.12315821520E+02 -0.24298147571E+02  0.20092224917E+02  0.91150673017E+02  0.84632548433E+02 0.  0.
         11    1    3    3    0    0  0.85568102697E+01  0.29653467624E+02  0.41157370918E+01  0.31136577143E+02  0.51100000000E-03 0. -1.
         22    1    1    0    0    0  0.12315821520E+02  0.24298147571E+02 -0.20092224917E+02  0.33849326983E+02  0.00000000000E+00 0.  1.
</event>
<event>
 5    1  0.1691138E-003  0.9118800E+02  0.7818608E-02  0.1130116E+00
         25   -1    0    0    0    0  0.00000000000E+00  0.00000000000E+00  0.99999998245E-14  0.12500000000E+03  0.12500000000E+03 0.  0.
        -11    1    3    3    0    0  0.26435215424E+01 -0.18242289257E+02 -0.37318064546E+02  0.41622196785E+02  0.51100000000E-03 0.  1.
         23    2    1    0    0    0 -0.28787059564E+02 -0.35688925603E+01  0.41633809794E+01  0.95695298439E+02  0.91097884771E+02 0.  0.
         11    1    3    3    0    0 -0.31430581106E+02  0.14673396696E+02  0.41481445526E+02  0.54073101654E+02  0.51100000000E-03 0. -1.
         22    1    1    0    0    0  0.28787059564E+02  0.35688925603E+01 -0.41633809794E+01  0.29304701561E+02  0.00000000000E+00 0.  1.
</event>
<event>
 5    1  0.1691138E-003  0.9118800E+02  0.7818608E-02  0.1130116E+00
         25   -1    0    0    0    0  0.00000000000E+00  0.00000000000E+00  0.99999998245E-14  0.12500000000E+03  0.12500000000E+03 0.  0.
        -11    1    3    3    0    0 -0.23301916886E+02  0.18768706958E+02  0.11341873817E+02  0.31998152968E+02  0.51100000000E-03 0. -1.
         23    2    1    0    0    0  0.32627445217E+02 -0.18332059382E+01  0.50655595598E+01  0.91930819196E+02  0.85777064527E+02 0.  0.
         11    1    3    3    0    0  0.55929362103E+02 -0.20601912896E+02 -0.62763142573E+01  0.59932666228E+02  0.51100000000E-03 0.  1.
         22    1    1    0    0    0 -0.32627445217E+02  0.18332059382E+01 -0.50655595598E+01  0.33069180804E+02  0.00000000000E+00 0.  1.
</event>
<event>
 5    1  0.1691138E-003  0.9118800E+02  0.7818608E-02  0.1130116E+00
         25   -1    0    0    0    0  0.00000000000E+00  0.00000000000E+00  0.99999998245E-14  0.12500000000E+03  0.12500000000E+03 0.  0.
        -11    1    3    3    0    0 -0.49597678711E+02  0.12413867072E+02  0.44480130460E+01  0.51320742878E+02  0.51100000000E-03 0. -1.
         23    2    1    0    0    0 -0.15096173119E+02  0.12017660245E+02 -0.22687612024E+02  0.95216676814E+02  0.90438759410E+02 0.  0.
         11    1    3    3    0    0  0.34501505592E+02 -0.39620682621E+00 -0.27135625070E+02  0.43895933937E+02  0.51100000000E-03 0.  1.
         22    1    1    0    0    0  0.15096173119E+02 -0.12017660245E+02  0.22687612024E+02  0.29783323186E+02  0.00000000000E+00 0. -1.
</event>
<event>
 5    1  0.1691138E-003  0.9118800E+02  0.7818608E-02  0.1130116E+00
         25   -1    0    0    0    0  0.00000000000E+00  0.00000000000E+00  0.99999998245E-14  0.12500000000E+03  0.12500000000E+03 0.  0.
        -11    1    3    3    0    0  0.38434016007E+02 -0.23800926810E+02 -0.76671239414E+01  0.45852398991E+02  0.51100000000E-03 0. -1.
         23    2    1    0    0    0  0.15234877097E+02  0.20495420787E+02 -0.13359753463E+02  0.96179056816E+02  0.91759273123E+02 0.  0.
         11    1    3    3    0    0 -0.23199138910E+02  0.44296347598E+02 -0.56926295218E+01  0.50326657825E+02  0.51100000000E-03 0.  1.
         22    1    1    0    0    0 -0.15234877097E+02 -0.20495420787E+02  0.13359753463E+02  0.28820943184E+02  0.00000000000E+00 0.  1.
</event>
<event>
 5    1  0.1691138E-003  0.9118800E+02  0.7818608E-02  0.1130116E+00
         25   -1    0    0    0    0  0.00000000000E+00  0.00000000000E+00  0.99999998245E-14  0.12500000000E+03  0.12500000000E+03 0.  0.
        -11    1    3    3    0    0 -0.13087425803E+02 -0.20250240694E+02  0.22775849108E+02  0.33167638824E+02  0.51100000000E-03 0. -1.
         23    2    1    0    0    0  0.16424424636E+02  0.33466664484E+01 -0.25507054262E+02  0.94478340182E+02  0.89412443460E+02 0.  0.
         11    1    3    3    0    0  0.29511850438E+02  0.23596907142E+02 -0.48282903370E+02  0.61310701358E+02  0.51100000000E-03 0.  1.
         22    1    1    0    0    0 -0.16424424636E+02 -0.33466664484E+01  0.25507054262E+02  0.30521659818E+02  0.00000000000E+00 0.  1.
</event>
<event>
 5    1  0.1691138E-003  0.9118800E+02  0.7818608E-02  0.1130116E+00
         25   -1    0    0    0    0  0.00000000000E+00  0.00000000000E+00  0.99999998245E-14  0.12500000000E+03  0.12500000000E+03 0.  0.
        -11    1    3    3    0    0 -0.20504698072E+02 -0.40711667840E+02 -0.18961312862E+02  0.49370172443E+02  0.51100000000E-03 0.  1.
         23    2    1    0    0    0  0.86398582092E+01 -0.28370363608E+02  0.11399486698E+02  0.93227795511E+02  0.87646727707E+02 0.  0.
         11    1    3    3    0    0  0.29144556282E+02  0.12341304232E+02  0.30360799560E+02  0.43857623068E+02  0.51100000000E-03 0. -1.
         22    1    1    0    0    0 -0.86398582092E+01  0.28370363608E+02 -0.11399486698E+02  0.31772204489E+02  0.00000000000E+00 0.  1.
</event>
<event>
 5    1  0.1691138E-003  0.9118800E+02  0.7818608E-02  0.1130116E+00
         25   -1    0    0    0    0  0.00000000000E+00  0.00000000000E+00  0.99999998245E-14  0.12500000000E+03  0.12500000000E+03 0.  0.
        -11    1    3    3    0    0 -0.11735645327E+02 -0.16526499988E+02 -0.39013885674E+02  0.43965143566E+02  0.51100000000E-03 0.  1.
         23    2    1    0    0    0 -0.17849747144E+02 -0.17915576635E+02  0.13143850757E+02  0.96498382993E+02  0.92193252185E+02 0.  0.
         11    1    3    3    0    0 -0.61141018175E+01 -0.13890766466E+01  0.52157736431E+02  0.52533239428E+02  0.51100000000E-03 0. -1.
         22    1    1    0    0    0  0.17849747144E+02  0.17915576635E+02 -0.13143850757E+02  0.28501617007E+02  0.00000000000E+00 0. -1.
</event>
<event>
 5    1  0.1691138E-003  0.9118800E+02  0.7818608E-02  0.1130116E+00
         25   -1    0    0    0    0  0.00000000000E+00  0.00000000000E+00  0.99999998245E-14  0.12500000000E+03  0.12500000000E+03 0.  0.
        -11    1    3    3    0    0  0.16295621825E+01 -0.23039546223E+02 -0.29840713128E+02  0.37735186806E+02  0.51100000000E-03 0. -1.
         23    2    1    0    0    0 -0.78168922810E+01  0.28349817756E+02 -0.69362596986E+01  0.94785307045E+02  0.89840563006E+02 0.  0.
         11    1    3    3    0    0 -0.94464544635E+01  0.51389363979E+02  0.22904453429E+02  0.57050120239E+02  0.51100000000E-03 0.  1.
         22    1    1    0    0    0  0.78168922810E+01 -0.28349817756E+02  0.69362596986E+01  0.30214692955E+02  0.00000000000E+00 0.  1.
</event>
<event>
 5    1  0.1691138E-003  0.9118800E+02  0.7818608E-02  0.1130116E+00
         25   -1    0    0    0    0  0.00000000000E+00  0.00000000000E+00  0.99999998245E-14  0.12500000000E+03  0.12500000000E+03 0.  0.
        -11    1    3    3    0    0  0.16584835853E+02 -0.12836193448E+02  0.55769947014E+02  0.59582813233E+02  0.51100000000E-03 0.  1.
         23    2    1    0    0    0  0.19599988513E+02 -0.85432926290E+01  0.20040783644E+02  0.95695044656E+02  0.91097536542E+02 0.  0.
         11    1    3    3    0    0  0.30151526599E+01  0.42929008190E+01 -0.35729163370E+02  0.36112231424E+02  0.51100000000E-03 0. -1.
         22    1    1    0    0    0 -0.19599988513E+02  0.85432926290E+01 -0.20040783644E+02  0.29304955344E+02  0.00000000000E+00 0.  1.
</event>
<event>
 5    1  0.1691138E-003  0.9118800E+02  0.7818608E-02  0.1130116E+00
         25   -1    0    0    0    0  0.00000000000E+00  0.00000000000E+00  0.99999998245E-14  0.12500000000E+03  0.12500000000E+03 0.  0.
        -11    1    3    3    0    0  0.23951145706E+02 -0.26640510015E+02 -0.18386754268E+02  0.40267193685E+02  0.51100000000E-03 0.  1.
         23    2    1    0    0    0 -0.94808044400E+01 -0.12854792745E+02  0.24116985695E+02  0.96073189799E+02  0.91614941193E+02 0.  0.
         11    1    3    3    0    0 -0.33431950146E+02  0.13785717270E+02  0.42503739963E+02  0.55805996114E+02  0.51100000000E-03 0. -1.
         22    1    1    0    0    0  0.94808044400E+01  0.12854792745E+02 -0.24116985695E+02  0.28926810201E+02  0.00000000000E+00 0. -1.
</event>
<event>
 5    1  0.1691138E-003  0.9118800E+02  0.7818608E-02  0.1130116E+00
         25   -1    0    0    0    0  0.00000000000E+00  0.00000000000E+00  0.99999998245E-14  0.12500000000E+03  0.12500000000E+03 0.  0.
        -11    1    3    3    0    0  0.74875562531E+01  0.34967883648E+02 -0.25233668666E+02  0.43767047194E+02  0.51100000000E-03 0.  1.
         23    2    1    0    0    0 -0.15238060185E+02  0.18308402571E+02  0.17840844875E+02  0.95239424925E+02  0.90470195265E+02 0.  0.
         11    1    3    3    0    0 -0.22725616438E+02 -0.16659481077E+02  0.43074513541E+02  0.51472377731E+02  0.51100000000E-03 0. -1.
         22    1    1    0    0    0  0.15238060185E+02 -0.18308402571E+02 -0.17840844875E+02  0.29760575075E+02  0.00000000000E+00 0. -1.
</event>
<event>
 5    1  0.1691138E-003  0.9118800E+02  0.7818608E-02  0.1130116E+00
         25   -1    0    0    0    0  0.00000000000E+00  0.00000000000E+00  0.99999998245E-14  0.12500000000E+03  0.12500000000E+03 0.  0.
        -11    1    3    3    0    0  0.13361530768E+02  0.30971859618E+02 -0.20578416891E+02  0.39512755341E+02  0.51100000000E-03 0. -1.
         23    2    1    0    0    0  0.16556545979E+02 -0.23141673499E+02 -0.35915061584E+01  0.96319777135E+02  0.91950770980E+02 0.  0.
         11    1    3    3    0    0  0.31950152113E+01 -0.54113533117E+02  0.16986910733E+02  0.56807021794E+02  0.51100000000E-03 0.  1.
         22    1    1    0    0    0 -0.16556545979E+02  0.23141673499E+02  0.35915061584E+01  0.28680222865E+02  0.00000000000E+00 0.  1.
</event>
<event>
 5    1  0.1691138E-003  0.9118800E+02  0.7818608E-02  0.1130116E+00
         25   -1    0    0    0    0  0.00000000000E+00  0.00000000000E+00  0.99999998245E-14  0.12500000000E+03  0.12500000000E+03 0.  0.
        -11    1    3    3    0    0 -0.11045744986E+02 -0.25132901029E+02  0.53759184814E+02  0.60363243357E+02  0.51100000000E-03 0. -1.
         23    2    1    0    0    0 -0.55187609113E+01 -0.21416128957E+02  0.18734156857E+02  0.96015936540E+02  0.91536791156E+02 0.  0.
         11    1    3    3    0    0  0.55269840750E+01  0.37167720720E+01 -0.35025027957E+02  0.35652693184E+02  0.51100000000E-03 0.  1.
         22    1    1    0    0    0  0.55187609113E+01  0.21416128957E+02 -0.18734156857E+02  0.28984063460E+02  0.00000000000E+00 0. -1.
</event>
<event>
 5    1  0.1691138E-003  0.9118800E+02  0.7818608E-02  0.1130116E+00
         25   -1    0    0    0    0  0.00000000000E+00  0.00000000000E+00  0.99999998245E-14  0.12500000000E+03  0.12500000000E+03 0.  0.
        -11    1    3    3    0    0 -0.33847427737E+02 -0.27497292333E+02  0.92149485512E+01  0.44572017310E+02  0.51100000000E-03 0.  1.
         23    2    1    0    0    0 -0.97914446692E+01  0.17482654438E+02  0.19978684693E+02  0.96704003163E+02  0.92471621543E+02 0.  0.
         11    1    3    3    0    0  0.24055983068E+02  0.44979946772E+02  0.10763736142E+02  0.52131985853E+02  0.51100000000E-03 0. -1.
         22    1    1    0    0    0  0.97914446692E+01 -0.17482654438E+02 -0.19978684693E+02  0.28295996837E+02  0.00000000000E+00 0. -1.
</event>
<event>
 5    1  0.1691138E-003  0.9118800E+02  0.7818608E-02  0.1130116E+00
         25   -1    0    0    0    0  0.00000000000E+00  0.00000000000E+00  0.99999998245E-14  0.12500000000E+03  0.12500000000E+03 0.  0.
        -11    1    3    3    0    0  0.17305459462E+02 -0.48975699279E+02  0.14408272882E+02  0.53904511636E+02  0.51100000000E-03 0.  1.
         23    2    1    0    0    0 -0.15466379823E+02 -0.23342845534E+02  0.64630278521E+01  0.96262079556E+02  0.91872302077E+02 0.  0.
         11    1    3    3    0    0 -0.32771839285E+02  0.25632853745E+02 -0.79452450296E+01  0.42357567920E+02  0.51100000000E-03 0. -1.
         22    1    1    0    0    0  0.15466379823E+02  0.23342845534E+02 -0.64630278521E+01  0.28737920444E+02  0.00000000000E+00 0.  1.
</event>
<event>
 5    1  0.1691138E-003  0.9118800E+02  0.7818608E-02  0.1130116E+00
         25   -1    0    0    0    0  0.00000000000E+00  0.00000000000E+00  0.99999998245E-14  0.12500000000E+03  0.12500000000E+03 0.  0.
        -11    1    3    3    0    0  0.38869828939E+02 -0.14262155356E+02 -0.20416967914E+02  0.46164112211E+02  0.51100000000E-03 0. -1.
         23    2    1    0    0    0  0.43109744343E+02 -0.37609542041E+01  0.11661351824E+02  0.80182793927E+02  0.66488333426E+02 0.  0.
         11    1    3    3    0    0  0.42399154040E+01  0.10501201152E+02  0.32078319738E+02  0.34018681716E+02  0.51100000000E-03 0.  1.
         22    1    1    0    0    0 -0.43109744343E+02  0.37609542041E+01 -0.11661351824E+02  0.44817206073E+02  0.00000000000E+00 0. -1.
</event>
<event>
 5    1  0.1691138E-003  0.9118800E+02  0.7818608E-02  0.1130116E+00
         25   -1    0    0    0    0  0.00000000000E+00  0.00000000000E+00  0.99999998245E-14  0.12500000000E+03  0.12500000000E+03 0.  0.
        -11    1    3    3    0    0  0.36462540206E+02  0.12489379071E+02  0.40510950126E+02  0.55916352780E+02  0.51100000000E-03 0.  1.
         23    2    1    0    0    0  0.39648025583E+01 -0.73141204155E+01  0.27710187292E+02  0.96067829384E+02  0.91607627118E+02 0.  0.
         11    1    3    3    0    0 -0.32497737647E+02 -0.19803499487E+02 -0.12800762834E+02  0.40151476604E+02  0.51100000000E-03 0. -1.
         22    1    1    0    0    0 -0.39648025583E+01  0.73141204155E+01 -0.27710187292E+02  0.28932170616E+02  0.00000000000E+00 0. -1.
</event>
<event>
 5    1  0.1691138E-003  0.9118800E+02  0.7818608E-02  0.1130116E+00
         25   -1    0    0    0    0  0.00000000000E+00  0.00000000000E+00  0.99999998245E-14  0.12500000000E+03  0.12500000000E+03 0.  0.
        -11    1    3    3    0    0 -0.31714279350E+02 -0.16382065781E+02 -0.80492301507E+00  0.35704558467E+02  0.51100000000E-03 0.  1.
         23    2    1    0    0    0  0.23979711892E+02 -0.65384418761E+01  0.16871372890E+02  0.94959676636E+02  0.90082846087E+02 0.  0.
         11    1    3    3    0    0  0.55693991242E+02  0.98436239051E+01  0.17676295905E+02  0.59255118170E+02  0.51100000000E-03 0. -1.
         22    1    1    0    0    0 -0.23979711892E+02  0.65384418761E+01 -0.16871372890E+02  0.30040323364E+02  0.00000000000E+00 0. -1.
</event>
<event>
 5    1  0.1691138E-003  0.9118800E+02  0.7818608E-02  0.1130116E+00
         25   -1    0    0    0    0  0.00000000000E+00  0.00000000000E+00  0.99999998245E-14  0.12500000000E+03  0.12500000000E+03 0.  0.
        -11    1    3    3    0    0 -0.15624706345E+02 -0.22298691505E+02  0.51766272190E+02  0.58490255837E+02  0.51100000000E-03 0. -1.
         23    2    1    0    0    0 -0.21355307038E+02 -0.86340626675E+01  0.16730427967E+02  0.96530658652E+02  0.92237002678E+02 0.  0.
         11    1    3    3    0    0 -0.57306006936E+01  0.13664628837E+02 -0.35035844224E+02  0.38040402815E+02  0.51100000000E-03 0.  1.
         22    1    1    0    0    0  0.21355307038E+02  0.86340626675E+01 -0.16730427967E+02  0.28469341348E+02  0.00000000000E+00 0. -1.
</event>
<event>
 5    1  0.1691138E-003  0.9118800E+02  0.7818608E-02  0.1130116E+00
         25   -1    0    0    0    0  0.00000000000E+00  0.00000000000E+00  0.99999998245E-14  0.12500000000E+03  0.12500000000E+03 0.  0.
        -11    1    3    3    0    0  0.11485919378E+02 -0.21601963998E+02  0.25340032493E+02  0.35223407552E+02  0.51100000000E-03 0.  1.
         23    2    1    0    0    0 -0.95293229101E+01  0.27664862869E+02 -0.25819756493E+01  0.95626215243E+02  0.91003042865E+02 0.  0.
         11    1    3    3    0    0 -0.21015242288E+02  0.49266826867E+02 -0.27922008143E+02  0.60402807691E+02  0.51100000000E-03 0. -1.
         22    1    1    0    0    0  0.95293229101E+01 -0.27664862869E+02  0.25819756493E+01  0.29373784757E+02  0.00000000000E+00 0. -1.
</event>
<event>
 5    1  0.1691138E-003  0.9118800E+02  0.7818608E-02  0.1130116E+00
         25   -1    0    0    0    0  0.00000000000E+00  0.00000000000E+00  0.99999998245E-14  0.12500000000E+03  0.12500000000E+03 0.  0.
        -11    1    3    3    0    0  0.22017395855E+02 -0.25520446528E+02 -0.63363888901E+01  0.34295899691E+02  0.51100000000E-03 0. -1.
         23    2    1    0    0    0  0.56857987877E+01  0.30828246982E+02  0.21687769196E+01  0.93576876139E+02  0.88143173501E+02 0.  0.
         11    1    3    3    0    0 -0.16331597067E+02  0.56348693509E+02  0.85051658097E+01  0.59280976449E+02  0.51100000000E-03 0.  1.
         22    1    1    0    0    0 -0.56857987877E+01 -0.30828246982E+02 -0.21687769196E+01  0.31423123861E+02  0.00000000000E+00 0.  1.
</event>
<event>
 5    1  0.1691138E-003  0.9118800E+02  0.7818608E-02  0.1130116E+00
         25   -1    0    0    0    0  0.00000000000E+00  0.00000000000E+00  0.99999998245E-14  0.12500000000E+03  0.12500000000E+03 0.  0.
        -11    1    3    3    0    0 -0.10467433758E+02 -0.39573659422E+02 -0.54076138842E+01  0.41290240708E+02  0.51100000000E-03 0.  1.
         23    2    1    0    0    0  0.18978075095E+02 -0.36265478938E+01  0.22380711452E+02  0.95432865728E+02  0.90737073085E+02 0.  0.
         11    1    3    3    0    0  0.29445508853E+02  0.35947111529E+02  0.27788325336E+02  0.54142625020E+02  0.51100000000E-03 0. -1.
         22    1    1    0    0    0 -0.18978075095E+02  0.36265478938E+01 -0.22380711452E+02  0.29567134272E+02  0.00000000000E+00 0.  1.
</event>
<event>
 5    1  0.1691138E-003  0.9118800E+02  0.7818608E-02  0.1130116E+00
         25   -1    0    0    0    0  0.00000000000E+00  0.00000000000E+00  0.99999998245E-14  0.12500000000E+03  0.12500000000E+03 0.  0.
        -11    1    3    3    0    0 -0.13475382800E+02  0.28649550409E+00 -0.44116977787E+02  0.46129987542E+02  0.51100000000E-03 0.  1.
         23    2    1    0    0    0 -0.27427778767E+02 -0.17584529645E+02 -0.40478530754E+01  0.92168858602E+02  0.86123252671E+02 0.  0.
         11    1    3    3    0    0 -0.13952395967E+02 -0.17871025149E+02  0.40069124712E+02  0.46038871061E+02  0.51100000000E-03 0. -1.
         22    1    1    0    0    0  0.27427778767E+02  0.17584529645E+02  0.40478530754E+01  0.32831141398E+02  0.00000000000E+00 0. -1.
</event>
<event>
 5    1  0.1691138E-003  0.9118800E+02  0.7818608E-02  0.1130116E+00
         25   -1    0    0    0    0  0.00000000000E+00  0.00000000000E+00  0.99999998245E-14  0.12500000000E+03  0.12500000000E+03 0.  0.
        -11    1    3    3    0    0 -0.22996552473E+02 -0.12947533220E+02  0.32683534834E+02  0.42008255041E+02  0.51100000000E-03 0. -1.
         23    2    1    0    0    0  0.48316481976E+00 -0.25396216612E+02 -0.14199518929E+02  0.95899697523E+02  0.91377920641E+02 0.  0.
         11    1    3    3    0    0  0.23479717292E+02 -0.12448683392E+02 -0.46883053763E+02  0.53891442481E+02  0.51100000000E-03 0.  1.
         22    1    1    0    0    0 -0.48316481976E+00  0.25396216612E+02  0.14199518929E+02  0.29100302477E+02  0.00000000000E+00 0. -1.
</event>
<event>
 5    1  0.1691138E-003  0.9118800E+02  0.7818608E-02  0.1130116E+00
         25   -1    0    0    0    0  0.00000000000E+00  0.00000000000E+00  0.99999998245E-14  0.12500000000E+03  0.12500000000E+03 0.  0.
        -11    1    3    3    0    0 -0.32325107780E+02 -0.11025384953E+02 -0.37362249572E+02  0.50620246934E+02  0.51100000000E-03 0.  1.
         23    2    1    0    0    0  0.10231209339E+02 -0.90612415399E+01 -0.27414206737E+02  0.94367950219E+02  0.89257983142E+02 0.  0.
         11    1    3    3    0    0  0.42556317120E+02  0.19641434133E+01  0.99480428347E+01  0.43747703284E+02  0.51100000000E-03 0. -1.
         22    1    1    0    0    0 -0.10231209339E+02  0.90612415399E+01  0.27414206737E+02  0.30632049781E+02  0.00000000000E+00 0.  1.
</event>
<event>
 5    1  0.1691138E-003  0.9118800E+02  0.7818608E-02  0.1130116E+00
         25   -1    0    0    0    0  0.00000000000E+00  0.00000000000E+00  0.99999998245E-14  0.12500000000E+03  0.12500000000E+03 0.  0.
        -11    1    3    3    0    0 -0.16660257461E+02  0.44512106777E+02  0.17509193126E+02  0.50650406441E+02  0.51100000000E-03 0.  1.
         23    2    1    0    0    0 -0.19322922574E+02 -0.63379656288E+00  0.21542489839E+02  0.96054259322E+02  0.91589108690E+02 0.  0.
         11    1    3    3    0    0 -0.26626651130E+01 -0.45145903340E+02  0.40332967135E+01  0.45403852882E+02  0.51100000000E-03 0. -1.
         22    1    1    0    0    0  0.19322922574E+02  0.63379656288E+00 -0.21542489839E+02  0.28945740678E+02  0.00000000000E+00 0. -1.
</event>
<event>
 5    1  0.1691138E-003  0.9118800E+02  0.7818608E-02  0.1130116E+00
         25   -1    0    0    0    0  0.00000000000E+00  0.00000000000E+00  0.99999998245E-14  0.12500000000E+03  0.12500000000E+03 0.  0.
        -11    1    3    3    0    0 -0.40121978768E+02  0.38174376637E+01 -0.17997263716E+02  0.44138956853E+02  0.51100000000E-03 0.  1.
         23    2    1    0    0    0 -0.18935520153E+01 -0.28451216289E+02 -0.98958610429E+01  0.94817466751E+02  0.89885297395E+02 0.  0.
         11    1    3    3    0    0  0.38228426753E+02 -0.32268653953E+02  0.81014026736E+01  0.50678509898E+02  0.51100000000E-03 0. -1.
         22    1    1    0    0    0  0.18935520153E+01  0.28451216289E+02  0.98958610429E+01  0.30182533249E+02  0.00000000000E+00 0.  1.
</event>
<event>
 5    1  0.1691138E-003  0.9118800E+02  0.7818608E-02  0.1130116E+00
         25   -1    0    0    0    0  0.00000000000E+00  0.00000000000E+00  0.99999998245E-14  0.12500000000E+03  0.12500000000E+03 0.  0.
        -11    1    3    3    0    0  0.35886707258E+02  0.20038785717E+01 -0.25142997594E+02  0.43863898771E+02  0.51100000000E-03 0.  1.
         23    2    1    0    0    0 -0.16125327248E+02  0.83385597828E+01 -0.22171660056E+02  0.96344454851E+02  0.91984312319E+02 0.  0.
         11    1    3    3    0    0 -0.52012034506E+02  0.63346812111E+01  0.29713375376E+01  0.52480556080E+02  0.51100000000E-03 0. -1.
         22    1    1    0    0    0  0.16125327248E+02 -0.83385597828E+01  0.22171660056E+02  0.28655545149E+02  0.00000000000E+00 0.  1.
</event>
<event>
 5    1  0.1691138E-003  0.9118800E+02  0.7818608E-02  0.1130116E+00
         25   -1    0    0    0    0  0.00000000000E+00  0.00000000000E+00  0.99999998245E-14  0.12500000000E+03  0.12500000000E+03 0.  0.
        -11    1    3    3    0    0 -0.44404304943E+01  0.43463667596E+02 -0.16547398147E+02  0.46718563864E+02  0.51100000000E-03 0. -1.
         23    2    1    0    0    0  0.27817230331E+02  0.16589721153E+02 -0.16381955227E+02  0.88704192965E+02  0.80938546078E+02 0.  0.
         11    1    3    3    0    0  0.32257660826E+02 -0.26873946443E+02  0.16544291946E+00  0.41985629101E+02  0.51100000000E-03 0.  1.
         22    1    1    0    0    0 -0.27817230331E+02 -0.16589721153E+02  0.16381955227E+02  0.36295807035E+02  0.00000000000E+00 0.  1.
</event>
<event>
 5    1  0.1691138E-003  0.9118800E+02  0.7818608E-02  0.1130116E+00
         25   -1    0    0    0    0  0.00000000000E+00  0.00000000000E+00  0.99999998245E-14  0.12500000000E+03  0.12500000000E+03 0.  0.
        -11    1    3    3    0    0 -0.57500528563E+02 -0.83613175185E+00 -0.24295141696E+02  0.62428069101E+02  0.51100000000E-03 0. -1.
         23    2    1    0    0    0 -0.28670777245E+02  0.16834768978E+01 -0.12417560881E+02  0.93710331089E+02  0.88332229522E+02 0.  0.
         11    1    3    3    0    0  0.28829751318E+02  0.25196086497E+01  0.11877580815E+02  0.31282261988E+02  0.51100000000E-03 0.  1.
         22    1    1    0    0    0  0.28670777245E+02 -0.16834768978E+01  0.12417560881E+02  0.31289668911E+02  0.00000000000E+00 0. -1.
</event>
<event>
 5    1  0.1691138E-003  0.9118800E+02  0.7818608E-02  0.1130116E+00
         25   -1    0    0    0    0  0.00000000000E+00  0.00000000000E+00  0.99999998245E-14  0.12500000000E+03  0.12500000000E+03 0.  0.
        -11    1    3    3    0    0 -0.26621863995E+01  0.50706648721E+02  0.40108996109E+00  0.50778069423E+02  0.51100000000E-03 0.  1.
         23    2    1    0    0    0  0.25081933610E+02  0.15849618851E+02  0.25380484812E+00  0.95328831701E+02  0.90593641748E+02 0.  0.
         11    1    3    3    0    0  0.27744120009E+02 -0.34857029869E+02 -0.14728511297E+00  0.44550762278E+02  0.51100000000E-03 0. -1.
         22    1    1    0    0    0 -0.25081933610E+02 -0.15849618851E+02 -0.25380484812E+00  0.29671168299E+02  0.00000000000E+00 0. -1.
</event>
<event>
 5    1  0.1691138E-003  0.9118800E+02  0.7818608E-02  0.1130116E+00
         25   -1    0    0    0    0  0.00000000000E+00  0.00000000000E+00  0.99999998245E-14  0.12500000000E+03  0.12500000000E+03 0.  0.
        -11    1    3    3    0    0 -0.24049196138E+02  0.24449532044E+02 -0.39960156007E+02  0.52658878838E+02  0.51100000000E-03 0.  1.
         23    2    1    0    0    0 -0.13555610671E+02  0.24987421509E+02  0.25593869370E+01  0.96457465498E+02  0.92137757594E+02 0.  0.
         11    1    3    3    0    0  0.10493585468E+02  0.53788946470E+00  0.42519542944E+02  0.43798586660E+02  0.51100000000E-03 0. -1.
         22    1    1    0    0    0  0.13555610671E+02 -0.24987421509E+02 -0.25593869370E+01  0.28542534502E+02  0.00000000000E+00 0.  1.
</event>
<event>
 5    1  0.1691138E-003  0.9118800E+02  0.7818608E-02  0.1130116E+00
         25   -1    0    0    0    0  0.00000000000E+00  0.00000000000E+00  0.99999998245E-14  0.12500000000E+03  0.12500000000E+03 0.  0.
        -11    1    3    3    0    0  0.34127308937E+02 -0.16515825503E+02 -0.23652278011E+01  0.37987366454E+02  0.51100000000E-03 0.  1.
         23    2    1    0    0    0 -0.20018752019E+00  0.24852202695E+02  0.16737400407E+02  0.95036478408E+02  0.90189354150E+02 0.  0.
         11    1    3    3    0    0 -0.34327496457E+02  0.41368028198E+02  0.19102628208E+02  0.57049111954E+02  0.51100000000E-03 0. -1.
         22    1    1    0    0    0  0.20018752019E+00 -0.24852202695E+02 -0.16737400407E+02  0.29963521592E+02  0.00000000000E+00 0. -1.
</event>
<event>
 5    1  0.1691138E-003  0.9118800E+02  0.7818608E-02  0.1130116E+00
         25   -1    0    0    0    0  0.00000000000E+00  0.00000000000E+00  0.99999998245E-14  0.12500000000E+03  0.12500000000E+03 0.  0.
        -11    1    3    3    0    0 -0.18969418278E+02  0.65339045053E+01  0.16615208757E+02  0.26049873324E+02  0.51100000000E-03 0. -1.
         23    2    1    0    0    0  0.20094380808E+02 -0.22335816135E+02  0.35789451569E+02  0.78271446994E+02  0.62792210889E+02 0.  0.
         11    1    3    3    0    0  0.39063799086E+02 -0.28869720640E+02  0.19174242812E+02  0.52221573670E+02  0.51100000000E-03 0.  1.
         22    1    1    0    0    0 -0.20094380808E+02  0.22335816135E+02 -0.35789451569E+02  0.46728553006E+02  0.00000000000E+00 0.  1.
</event>
<event>
 5    1  0.1691138E-003  0.9118800E+02  0.7818608E-02  0.1130116E+00
         25   -1    0    0    0    0  0.00000000000E+00  0.00000000000E+00  0.99999998245E-14  0.12500000000E+03  0.12500000000E+03 0.  0.
        -11    1    3    3    0    0 -0.50952390965E+02  0.19718172507E+02  0.17955266230E+02  0.57509512759E+02  0.51100000000E-03 0.  1.
         23    2    1    0    0    0 -0.23313134942E+02 -0.81861921813E+01  0.12951633948E+02  0.97102673512E+02  0.93008969342E+02 0.  0.
         11    1    3    3    0    0  0.27639256023E+02 -0.27904364688E+02 -0.50036322823E+01  0.39593160754E+02  0.51100000000E-03 0. -1.
         22    1    1    0    0    0  0.23313134942E+02  0.81861921813E+01 -0.12951633948E+02  0.27897326488E+02  0.00000000000E+00 0.  1.
</event>
<event>
 5    1  0.1691138E-003  0.9118800E+02  0.7818608E-02  0.1130116E+00
         25   -1    0    0    0    0  0.00000000000E+00  0.00000000000E+00  0.99999998245E-14  0.12500000000E+03  0.12500000000E+03 0.  0.
        -11    1    3    3    0    0 -0.11256663369E+02 -0.25161907907E+02 -0.34646395167E+02  0.44274222501E+02  0.51100000000E-03 0.  1.
         23    2    1    0    0    0  0.12369360042E+02 -0.26380421805E+02  0.94950178738E+01  0.94355537419E+02  0.89240598131E+02 0.  0.
         11    1    3    3    0    0  0.23626023411E+02 -0.12185138975E+01  0.44141413041E+02  0.50081314918E+02  0.51100000000E-03 0. -1.
         22    1    1    0    0    0 -0.12369360042E+02  0.26380421805E+02 -0.94950178738E+01  0.30644462581E+02  0.00000000000E+00 0. -1.
</event>
<event>
 5    1  0.1691138E-003  0.9118800E+02  0.7818608E-02  0.1130116E+00
         25   -1    0    0    0    0  0.00000000000E+00  0.00000000000E+00  0.99999998245E-14  0.12500000000E+03  0.12500000000E+03 0.  0.
        -11    1    3    3    0    0 -0.46414341443E+02  0.34898768743E+02  0.78132471953E+01  0.58594043924E+02  0.51100000000E-03 0. -1.
         23    2    1    0    0    0 -0.28429781214E+02  0.32997899152E+01  0.90769100207E+01  0.94974488033E+02  0.90103396208E+02 0.  0.
         11    1    3    3    0    0  0.17984560229E+02 -0.31598978828E+02  0.12636628254E+01  0.36380444109E+02  0.51100000000E-03 0.  1.
         22    1    1    0    0    0  0.28429781214E+02 -0.32997899152E+01 -0.90769100207E+01  0.30025511967E+02  0.00000000000E+00 0. -1.
</event>
<event>
 5    1  0.1691138E-003  0.9118800E+02  0.7818608E-02  0.1130116E+00
         25   -1    0    0    0    0  0.00000000000E+00  0.00000000000E+00  0.99999998245E-14  0.12500000000E+03  0.12500000000E+03 0.  0.
        -11    1    3    3    0    0 -0.31284888478E+02  0.59085332016E+01  0.22726938992E+02  0.39117371689E+02  0.51100000000E-03 0.  1.
         23    2    1    0    0    0  0.87188873914E+01 -0.28074417742E+02  0.20538418932E+01  0.95531199627E+02  0.90872437552E+02 0.  0.
         11    1    3    3    0    0  0.40003775869E+02 -0.33982950944E+02 -0.20673097099E+02  0.56413827938E+02  0.51100000000E-03 0. -1.
         22    1    1    0    0    0 -0.87188873914E+01  0.28074417742E+02 -0.20538418932E+01  0.29468800373E+02  0.00000000000E+00 0. -1.
</event>
<event>
 5    1  0.1691138E-003  0.9118800E+02  0.7818608E-02  0.1130116E+00
         25   -1    0    0    0    0  0.00000000000E+00  0.00000000000E+00  0.99999998245E-14  0.12500000000E+03  0.12500000000E+03 0.  0.
        -11    1    3    3    0    0 -0.80686351021E+01  0.17660745859E+02  0.30396782140E+02  0.36068950379E+02  0.51100000000E-03 0.  1.
         23    2    1    0    0    0  0.23930158626E+02 -0.12636160565E+02 -0.10292143185E+02  0.96047396369E+02  0.91579741713E+02 0.  0.
         11    1    3    3    0    0  0.31998793728E+02 -0.30296906424E+02 -0.40688925326E+02  0.59978445990E+02  0.51100000000E-03 0. -1.
         22    1    1    0    0    0 -0.23930158626E+02  0.12636160565E+02  0.10292143185E+02  0.28952603631E+02  0.00000000000E+00 0. -1.
</event>
<event>
 5    1  0.1691138E-003  0.9118800E+02  0.7818608E-02  0.1130116E+00
         25   -1    0    0    0    0  0.00000000000E+00  0.00000000000E+00  0.99999998245E-14  0.12500000000E+03  0.12500000000E+03 0.  0.
        -11    1    3    3    0    0  0.24653486051E+02 -0.38455223816E+02  0.13478540415E+02  0.47626354734E+02  0.51100000000E-03 0.  1.
         23    2    1    0    0    0  0.10662665411E+02  0.47354789715E+01  0.27487671430E+02  0.95138833321E+02  0.90331103892E+02 0.  0.
         11    1    3    3    0    0 -0.13990820640E+02  0.43190702788E+02  0.14009131015E+02  0.47512478588E+02  0.51100000000E-03 0. -1.
         22    1    1    0    0    0 -0.10662665411E+02 -0.47354789715E+01 -0.27487671430E+02  0.29861166679E+02  0.00000000000E+00 0.  1.
</event>
<event>
 5    1  0.1691138E-003  0.9118800E+02  0.7818608E-02  0.1130116E+00
         25   -1    0    0    0    0  0.00000000000E+00  0.00000000000E+00  0.99999998245E-14  0.12500000000E+03  0.12500000000E+03 0.  0.
        -11    1    3    3    0    0 -0.52658005918E+01  0.37963106089E+02  0.96557914982E+01  0.39524174748E+02  0.51100000000E-03 0. -1.
         23    2    1    0    0    0  0.32325323618E+02  0.12149374257E+01  0.30000910464E+01  0.92513030824E+02  0.86621346711E+02 0.  0.
         11    1    3    3    0    0  0.37591124210E+02 -0.36748168663E+02 -0.66557004518E+01  0.52988856076E+02  0.51100000000E-03 0.  1.
         22    1    1    0    0    0 -0.32325323618E+02 -0.12149374257E+01 -0.30000910464E+01  0.32486969176E+02  0.00000000000E+00 0.  1.
</event>
<event>
 5    1  0.1691138E-003  0.9118800E+02  0.7818608E-02  0.1130116E+00
         25   -1    0    0    0    0  0.00000000000E+00  0.00000000000E+00  0.99999998245E-14  0.12500000000E+03  0.12500000000E+03 0.  0.
        -11    1    3    3    0    0 -0.16708743222E+02  0.29241838645E+02 -0.86694601219E+01  0.34776813633E+02  0.51100000000E-03 0.  1.
         23    2    1    0    0    0 -0.39315855126E+00 -0.99125986603E+01  0.30753714533E+02  0.92685836798E+02  0.86870358579E+02 0.  0.
         11    1    3    3    0    0  0.16315584670E+02 -0.39154437305E+02  0.39423174655E+02  0.57909023165E+02  0.51100000000E-03 0. -1.
         22    1    1    0    0    0  0.39315855126E+00  0.99125986603E+01 -0.30753714533E+02  0.32314163202E+02  0.00000000000E+00 0. -1.
</event>
<event>
 5    1  0.1691138E-003  0.9118800E+02  0.7818608E-02  0.1130116E+00
         25   -1    0    0    0    0  0.00000000000E+00  0.00000000000E+00  0.99999998245E-14  0.12500000000E+03  0.12500000000E+03 0.  0.
        -11    1    3    3    0    0 -0.23979960527E+02 -0.39136427280E+02 -0.19535082395E+02  0.49883042124E+02  0.51100000000E-03 0.  1.
         23    2    1    0    0    0  0.99309988694E+01 -0.83409713600E+01 -0.25806753038E+02  0.96117738244E+02  0.91675703221E+02 0.  0.
         11    1    3    3    0    0  0.33910959396E+02  0.30795455920E+02 -0.62716706426E+01  0.46234696121E+02  0.51100000000E-03 0. -1.
         22    1    1    0    0    0 -0.99309988694E+01  0.83409713600E+01  0.25806753038E+02  0.28882261756E+02  0.00000000000E+00 0.  1.
</event>
<event>
 5    1  0.1691138E-003  0.9118800E+02  0.7818608E-02  0.1130116E+00
         25   -1    0    0    0    0  0.00000000000E+00  0.00000000000E+00  0.99999998245E-14  0.12500000000E+03  0.12500000000E+03 0.  0.
        -11    1    3    3    0    0  0.21681364104E+01  0.17414934948E+02  0.29807608884E+02  0.34590089944E+02  0.51100000000E-03 0. -1.
         23    2    1    0    0    0  0.11305643788E+02 -0.23268056372E+02 -0.14427569253E+02  0.95379487119E+02  0.90663508534E+02 0.  0.
         11    1    3    3    0    0  0.91375073779E+01 -0.40682991320E+02 -0.44235178137E+02  0.60789397175E+02  0.51100000000E-03 0.  1.
         22    1    1    0    0    0 -0.11305643788E+02  0.23268056372E+02  0.14427569253E+02  0.29620512881E+02  0.00000000000E+00 0.  1.
</event>
<event>
 5    1  0.1691138E-003  0.9118800E+02  0.7818608E-02  0.1130116E+00
         25   -1    0    0    0    0  0.00000000000E+00  0.00000000000E+00  0.99999998245E-14  0.12500000000E+03  0.12500000000E+03 0.  0.
        -11    1    3    3    0    0 -0.96305785756E+01 -0.56426712555E+02 -0.16170426724E+01  0.57265493630E+02  0.51100000000E-03 0. -1.
         23    2    1    0    0    0  0.13643068469E+02 -0.26252166833E+02  0.15492324721E+00  0.95413963059E+02  0.90711028904E+02 0.  0.
         11    1    3    3    0    0  0.23273647044E+02  0.30174545722E+02  0.17719659196E+01  0.38148469429E+02  0.51100000000E-03 0.  1.
         22    1    1    0    0    0 -0.13643068469E+02  0.26252166833E+02 -0.15492324721E+00  0.29586036941E+02  0.00000000000E+00 0. -1.
</event>
<event>
 5    1  0.1691138E-003  0.9118800E+02  0.7818608E-02  0.1130116E+00
         25   -1    0    0    0    0  0.00000000000E+00  0.00000000000E+00  0.99999998245E-14  0.12500000000E+03  0.12500000000E+03 0.  0.
        -11    1    3    3    0    0  0.34090281420E+02 -0.13348789034E+02  0.55351884654E+01  0.37026689936E+02  0.51100000000E-03 0.  1.
         23    2    1    0    0    0 -0.25607074100E+02 -0.78914489395E+01  0.80370728883E+01  0.97025158607E+02  0.92904734281E+02 0.  0.
         11    1    3    3    0    0 -0.59697355520E+02  0.54573400948E+01  0.25018844229E+01  0.59998468672E+02  0.51100000000E-03 0. -1.
         22    1    1    0    0    0  0.25607074100E+02  0.78914489395E+01 -0.80370728883E+01  0.27974841393E+02  0.00000000000E+00 0. -1.
</event>
<event>
 5    1  0.1691138E-003  0.9118800E+02  0.7818608E-02  0.1130116E+00
         25   -1    0    0    0    0  0.00000000000E+00  0.00000000000E+00  0.99999998245E-14  0.12500000000E+03  0.12500000000E+03 0.  0.
        -11    1    3    3    0    0  0.37094041393E+02  0.18377557529E+01  0.60382325259E+01  0.37627191038E+02  0.51100000000E-03 0. -1.
         23    2    1    0    0    0 -0.15634233272E+02  0.14077608514E+02 -0.18430122996E+02  0.97030771460E+02  0.92912285867E+02 0.  0.
         11    1    3    3    0    0 -0.52728274665E+02  0.12239852761E+02 -0.24468355522E+02  0.59403580422E+02  0.51100000000E-03 0.  1.
         22    1    1    0    0    0  0.15634233272E+02 -0.14077608514E+02  0.18430122996E+02  0.27969228540E+02  0.00000000000E+00 0.  1.
</event>
<event>
 5    1  0.1691138E-003  0.9118800E+02  0.7818608E-02  0.1130116E+00
         25   -1    0    0    0    0  0.00000000000E+00  0.00000000000E+00  0.99999998245E-14  0.12500000000E+03  0.12500000000E+03 0.  0.
        -11    1    3    3    0    0  0.25125291471E+02 -0.24609500194E+02 -0.87976433449E+01  0.36253362602E+02  0.51100000000E-03 0. -1.
         23    2    1    0    0    0  0.29165503294E+01  0.26510294441E+02  0.12015213912E+02  0.95748207875E+02  0.91170455569E+02 0.  0.
         11    1    3    3    0    0 -0.22208741141E+02  0.51119794635E+02  0.20812857257E+02  0.59494845273E+02  0.51100000000E-03 0.  1.
         22    1    1    0    0    0 -0.29165503294E+01 -0.26510294441E+02 -0.12015213912E+02  0.29251792125E+02  0.00000000000E+00 0.  1.
</event>
<event>
 5    1  0.1691138E-003  0.9118800E+02  0.7818608E-02  0.1130116E+00
         25   -1    0    0    0    0  0.00000000000E+00  0.00000000000E+00  0.99999998245E-14  0.12500000000E+03  0.12500000000E+03 0.  0.
        -11    1    3    3    0    0 -0.13298604279E+02  0.48905665138E+02 -0.31264712669E+02  0.59549132797E+02  0.51100000000E-03 0.  1.
         23    2    1    0    0    0 -0.15571033896E+02  0.13088474704E+02 -0.18084755627E+02  0.97781924154E+02  0.93917416055E+02 0.  0.
         11    1    3    3    0    0 -0.22724296176E+01 -0.35817190435E+02  0.13179957041E+02  0.38232791356E+02  0.51100000000E-03 0. -1.
         22    1    1    0    0    0  0.15571033896E+02 -0.13088474704E+02  0.18084755627E+02  0.27218075846E+02  0.00000000000E+00 0.  1.
</event>
<event>
 5    1  0.1691138E-003  0.9118800E+02  0.7818608E-02  0.1130116E+00
         25   -1    0    0    0    0  0.00000000000E+00  0.00000000000E+00  0.99999998245E-14  0.12500000000E+03  0.12500000000E+03 0.  0.
        -11    1    3    3    0    0 -0.19079135760E+00  0.27071258574E+02  0.56114201462E+02  0.62303234652E+02  0.51100000000E-03 0. -1.
         23    2    1    0    0    0  0.12829403436E+01  0.91536620872E+01  0.26352488749E+02  0.97073504896E+02  0.92969759729E+02 0.  0.
         11    1    3    3    0    0  0.14737317012E+01 -0.17917596487E+02 -0.29761712713E+02  0.34770270244E+02  0.51100000000E-03 0.  1.
         22    1    1    0    0    0 -0.12829403436E+01 -0.91536620872E+01 -0.26352488749E+02  0.27926495104E+02  0.00000000000E+00 0. -1.
</event>
<event>
 5    1  0.1691138E-003  0.9118800E+02  0.7818608E-02  0.1130116E+00
         25   -1    0    0    0    0  0.00000000000E+00  0.00000000000E+00  0.99999998245E-14  0.12500000000E+03  0.12500000000E+03 0.  0.
        -11    1    3    3    0    0 -0.52632951748E+01 -0.38888847267E+02 -0.15871256077E+02  0.42331329858E+02  0.51100000000E-03 0.  1.
         23    2    1    0    0    0 -0.52486081370E+01  0.60729568334E+01 -0.33444797012E+02  0.90605478063E+02  0.83823442520E+02 0.  0.
         11    1    3    3    0    0  0.14687037866E-01  0.44961804100E+02 -0.17573540935E+02  0.48274148205E+02  0.51100000000E-03 0. -1.
         22    1    1    0    0    0  0.52486081370E+01 -0.60729568334E+01  0.33444797012E+02  0.34394521937E+02  0.00000000000E+00 0.  1.
</event>
<event>
 5    1  0.1691138E-003  0.9118800E+02  0.7818608E-02  0.1130116E+00
         25   -1    0    0    0    0  0.00000000000E+00  0.00000000000E+00  0.99999998245E-14  0.12500000000E+03  0.12500000000E+03 0.  0.
        -11    1    3    3    0    0  0.34312812514E+02 -0.23900671899E+02 -0.46105733619E+02  0.62244275983E+02  0.51100000000E-03 0.  1.
         23    2    1    0    0    0  0.16605092441E+02 -0.14270546465E+02 -0.19086338780E+02  0.95954072241E+02  0.91452272034E+02 0.  0.
         11    1    3    3    0    0 -0.17707720073E+02  0.96301254338E+01  0.27019394839E+02  0.33709796258E+02  0.51100000000E-03 0. -1.
         22    1    1    0    0    0 -0.16605092441E+02  0.14270546465E+02  0.19086338780E+02  0.29045927759E+02  0.00000000000E+00 0.  1.
</event>
<event>
 5    1  0.1691138E-003  0.9118800E+02  0.7818608E-02  0.1130116E+00
         25   -1    0    0    0    0  0.00000000000E+00  0.00000000000E+00  0.99999998245E-14  0.12500000000E+03  0.12500000000E+03 0.  0.
        -11    1    3    3    0    0  0.67952386734E+01 -0.62301103900E+01 -0.27093462179E+02  0.28618966390E+02  0.51100000000E-03 0. -1.
         23    2    1    0    0    0  0.46909221781E+01  0.36320689577E+02  0.12021786719E+02  0.86454953650E+02  0.77386939547E+02 0.  0.
         11    1    3    3    0    0 -0.21043164953E+01  0.42550799967E+02  0.39115248899E+02  0.57835987260E+02  0.51100000000E-03 0.  1.
         22    1    1    0    0    0 -0.46909221781E+01 -0.36320689577E+02 -0.12021786719E+02  0.38545046350E+02  0.00000000000E+00 0.  1.
</event>
<event>
 5    1  0.1691138E-003  0.9118800E+02  0.7818608E-02  0.1130116E+00
         25   -1    0    0    0    0  0.00000000000E+00  0.00000000000E+00  0.99999998245E-14  0.12500000000E+03  0.12500000000E+03 0.  0.
        -11    1    3    3    0    0 -0.75266291079E+01  0.20864324606E+02  0.29155367839E+02  0.36633395435E+02  0.51100000000E-03 0. -1.
         23    2    1    0    0    0 -0.13996393330E+02 -0.24691560293E+02 -0.77051514701E+01  0.95590111609E+02  0.90953438101E+02 0.  0.
         11    1    3    3    0    0 -0.64697642222E+01 -0.45555884899E+02 -0.36860519309E+02  0.58956716174E+02  0.51100000000E-03 0.  1.
         22    1    1    0    0    0  0.13996393330E+02  0.24691560293E+02  0.77051514701E+01  0.29409888391E+02  0.00000000000E+00 0.  1.
</event>
<event>
 5    1  0.1691138E-003  0.9118800E+02  0.7818608E-02  0.1130116E+00
         25   -1    0    0    0    0  0.00000000000E+00  0.00000000000E+00  0.99999998245E-14  0.12500000000E+03  0.12500000000E+03 0.  0.
        -11    1    3    3    0    0  0.48800887339E+02  0.11760071309E+02 -0.50463621411E+01  0.50450883574E+02  0.51100000000E-03 0.  1.
         23    2    1    0    0    0  0.17923631978E+02  0.30894336510E+02 -0.11770654613E+02  0.87393286216E+02  0.78888031753E+02 0.  0.
         11    1    3    3    0    0 -0.30877255361E+02  0.19134265201E+02 -0.67242924717E+01  0.36942402642E+02  0.51100000000E-03 0. -1.
         22    1    1    0    0    0 -0.17923631978E+02 -0.30894336510E+02  0.11770654613E+02  0.37606713784E+02  0.00000000000E+00 0. -1.
</event>
<event>
 5    1  0.1691138E-003  0.9118800E+02  0.7818608E-02  0.1130116E+00
         25   -1    0    0    0    0  0.00000000000E+00  0.00000000000E+00  0.99999998245E-14  0.12500000000E+03  0.12500000000E+03 0.  0.
        -11    1    3    3    0    0  0.11099163327E+02  0.13704436681E+02 -0.55578831258E+02  0.58309600372E+02  0.51100000000E-03 0.  1.
         23    2    1    0    0    0 -0.67320349488E+01 -0.44861058696E+01 -0.28011720333E+02  0.95843492726E+02  0.91301003179E+02 0.  0.
         11    1    3    3    0    0 -0.17831198275E+02 -0.18190542550E+02  0.27567110925E+02  0.37533892354E+02  0.51100000000E-03 0. -1.
         22    1    1    0    0    0  0.67320349488E+01  0.44861058696E+01  0.28011720333E+02  0.29156507274E+02  0.00000000000E+00 0.  1.
</event>
<event>
 5    1  0.1691138E-003  0.9118800E+02  0.7818608E-02  0.1130116E+00
         25   -1    0    0    0    0  0.00000000000E+00  0.00000000000E+00  0.99999998245E-14  0.12500000000E+03  0.12500000000E+03 0.  0.
        -11    1    3    3    0    0 -0.62990521795E+01  0.39913792130E+02  0.63471489441E+01  0.40903241443E+02  0.51100000000E-03 0.  1.
         23    2    1    0    0    0  0.26793064147E+02 -0.42530154773E+01  0.96893136561E+01  0.96193069824E+02  0.91778360500E+02 0.  0.
         11    1    3    3    0    0  0.33092116326E+02 -0.44166807608E+02  0.33421647121E+01  0.55289828381E+02  0.51100000000E-03 0. -1.
         22    1    1    0    0    0 -0.26793064147E+02  0.42530154773E+01 -0.96893136561E+01  0.28806930176E+02  0.00000000000E+00 0. -1.
</event>
<event>
 5    1  0.1691138E-003  0.9118800E+02  0.7818608E-02  0.1130116E+00
         25   -1    0    0    0    0  0.00000000000E+00  0.00000000000E+00  0.99999998245E-14  0.12500000000E+03  0.12500000000E+03 0.  0.
        -11    1    3    3    0    0  0.91656815069E+01  0.47885993637E+01  0.31102257374E+02  0.32776375873E+02  0.51100000000E-03 0.  1.
         23    2    1    0    0    0 -0.21124630551E+02  0.95986476198E+00 -0.22285947973E+02  0.94278104984E+02  0.89132071927E+02 0.  0.
         11    1    3    3    0    0 -0.30290312058E+02 -0.38287346017E+01 -0.53388205347E+02  0.61501729111E+02  0.51100000000E-03 0. -1.
         22    1    1    0    0    0  0.21124630551E+02 -0.95986476198E+00  0.22285947973E+02  0.30721895016E+02  0.00000000000E+00 0. -1.
</event>
<event>
 5    1  0.1691138E-003  0.9118800E+02  0.7818608E-02  0.1130116E+00
         25   -1    0    0    0    0  0.00000000000E+00  0.00000000000E+00  0.99999998245E-14  0.12500000000E+03  0.12500000000E+03 0.  0.
        -11    1    3    3    0    0 -0.35611947997E+02  0.28273741766E+02  0.14272764217E+02  0.47658442193E+02  0.51100000000E-03 0. -1.
         23    2    1    0    0    0 -0.81439815958E+01  0.30987482000E+02 -0.16470773639E+02  0.88974524830E+02  0.81354970393E+02 0.  0.
         11    1    3    3    0    0  0.27467966402E+02  0.27137402339E+01 -0.30743537856E+02  0.41316082637E+02  0.51100000000E-03 0.  1.
         22    1    1    0    0    0  0.81439815958E+01 -0.30987482000E+02  0.16470773639E+02  0.36025475170E+02  0.00000000000E+00 0.  1.
</event>
<event>
 5    1  0.1691138E-003  0.9118800E+02  0.7818608E-02  0.1130116E+00
         25   -1    0    0    0    0  0.00000000000E+00  0.00000000000E+00  0.99999998245E-14  0.12500000000E+03  0.12500000000E+03 0.  0.
        -11    1    3    3    0    0 -0.13271720820E+02 -0.89436475591E+01  0.56176457267E+02  0.58411657711E+02  0.51100000000E-03 0.  1.
         23    2    1    0    0    0  0.62911128551E+01 -0.14168789041E+02  0.24136391730E+02  0.96313799667E+02  0.91942644712E+02 0.  0.
         11    1    3    3    0    0  0.19562833675E+02 -0.52251414815E+01 -0.32040065538E+02  0.37902141956E+02  0.51100000000E-03 0. -1.
         22    1    1    0    0    0 -0.62911128551E+01  0.14168789041E+02 -0.24136391730E+02  0.28686200333E+02  0.00000000000E+00 0.  1.
</event>
<event>
 5    1  0.1691138E-003  0.9118800E+02  0.7818608E-02  0.1130116E+00
         25   -1    0    0    0    0  0.00000000000E+00  0.00000000000E+00  0.99999998245E-14  0.12500000000E+03  0.12500000000E+03 0.  0.
        -11    1    3    3    0    0  0.15124409621E+02 -0.15594799703E+02  0.44946225844E+02  0.49921025250E+02  0.51100000000E-03 0. -1.
         23    2    1    0    0    0  0.26766980317E+02 -0.82659498329E+01 -0.62905715270E-01  0.96985697955E+02  0.92851626204E+02 0.  0.
         11    1    3    3    0    0  0.11642570696E+02  0.73288498697E+01 -0.45009131559E+02  0.47064672705E+02  0.51100000000E-03 0.  1.
         22    1    1    0    0    0 -0.26766980317E+02  0.82659498329E+01  0.62905715270E-01  0.28014302045E+02  0.00000000000E+00 0. -1.
</event>
<event>
 5    1  0.1691138E-003  0.9118800E+02  0.7818608E-02  0.1130116E+00
         25   -1    0    0    0    0  0.00000000000E+00  0.00000000000E+00  0.99999998245E-14  0.12500000000E+03  0.12500000000E+03 0.  0.
        -11    1    3    3    0    0 -0.26434132791E+02  0.53524985323E+02 -0.16840901589E+02  0.62026634576E+02  0.51100000000E-03 0.  1.
         23    2    1    0    0    0 -0.87795311346E+01  0.28065568063E+02 -0.51226155561E+01  0.95150419303E+02  0.90347135127E+02 0.  0.
         11    1    3    3    0    0  0.17654601656E+02 -0.25459417260E+02  0.11718286033E+02  0.33123784727E+02  0.51100000000E-03 0. -1.
         22    1    1    0    0    0  0.87795311346E+01 -0.28065568063E+02  0.51226155561E+01  0.29849580697E+02  0.00000000000E+00 0.  1.
</event>
<event>
 5    1  0.1691138E-003  0.9118800E+02  0.7818608E-02  0.1130116E+00
         25   -1    0    0    0    0  0.00000000000E+00  0.00000000000E+00  0.99999998245E-14  0.12500000000E+03  0.12500000000E+03 0.  0.
        -11    1    3    3    0    0 -0.38968147288E+02  0.24367733175E+02 -0.23322661578E+02  0.51538815145E+02  0.51100000000E-03 0. -1.
         23    2    1    0    0    0 -0.33882719931E+02 -0.49234539777E+01  0.21578186689E+01  0.90693509500E+02  0.83954614971E+02 0.  0.
         11    1    3    3    0    0  0.50854273570E+01 -0.29291187152E+02  0.25480480247E+02  0.39154694355E+02  0.51100000000E-03 0.  1.
         22    1    1    0    0    0  0.33882719931E+02  0.49234539777E+01 -0.21578186689E+01  0.34306490500E+02  0.00000000000E+00 0. -1.
</event>
<event>
 5    1  0.1691138E-003  0.9118800E+02  0.7818608E-02  0.1130116E+00
         25   -1    0    0    0    0  0.00000000000E+00  0.00000000000E+00  0.99999998245E-14  0.12500000000E+03  0.12500000000E+03 0.  0.
        -11    1    3    3    0    0 -0.57892592946E+01  0.22378500524E+02  0.33684516191E+02  0.40852900021E+02  0.51100000000E-03 0. -1.
         23    2    1    0    0    0 -0.11894902583E+02  0.18472142107E+02 -0.20159127829E+02  0.95182233881E+02  0.90391141547E+02 0.  0.
         11    1    3    3    0    0 -0.61056432889E+01 -0.39063584168E+01 -0.53843644020E+02  0.54329333860E+02  0.51100000000E-03 0.  1.
         22    1    1    0    0    0  0.11894902583E+02 -0.18472142107E+02  0.20159127829E+02  0.29817766119E+02  0.00000000000E+00 0.  1.
</event>
<event>
 5    1  0.1691138E-003  0.9118800E+02  0.7818608E-02  0.1130116E+00
         25   -1    0    0    0    0  0.00000000000E+00  0.00000000000E+00  0.99999998245E-14  0.12500000000E+03  0.12500000000E+03 0.  0.
        -11    1    3    3    0    0 -0.81645094808E+01  0.15776822061E+02 -0.51272631578E+02  0.54262787236E+02  0.51100000000E-03 0. -1.
         23    2    1    0    0    0 -0.78192309510E+00 -0.15723169162E+02 -0.22368556780E+02  0.97647088187E+02  0.93737783453E+02 0.  0.
         11    1    3    3    0    0  0.73825863857E+01 -0.31499991223E+02  0.28904074798E+02  0.43384300951E+02  0.51100000000E-03 0.  1.
         22    1    1    0    0    0  0.78192309510E+00  0.15723169162E+02  0.22368556780E+02  0.27352911813E+02  0.00000000000E+00 0. -1.
</event>
<event>
 5    1  0.1691138E-003  0.9118800E+02  0.7818608E-02  0.1130116E+00
         25   -1    0    0    0    0  0.00000000000E+00  0.00000000000E+00  0.99999998245E-14  0.12500000000E+03  0.12500000000E+03 0.  0.
        -11    1    3    3    0    0 -0.16052416006E+02  0.27742419915E+02  0.21592075359E+02  0.38646340589E+02  0.51100000000E-03 0. -1.
         23    2    1    0    0    0 -0.11474861957E+02 -0.25628276039E+02 -0.12783555339E+01  0.96891012425E+02  0.92724069724E+02 0.  0.
         11    1    3    3    0    0  0.45775540494E+01 -0.53370695954E+02 -0.22870430893E+02  0.58244671835E+02  0.51100000000E-03 0.  1.
         22    1    1    0    0    0  0.11474861957E+02  0.25628276039E+02  0.12783555339E+01  0.28108987575E+02  0.00000000000E+00 0.  1.
</event>
<event>
 5    1  0.1691138E-003  0.9118800E+02  0.7818608E-02  0.1130116E+00
         25   -1    0    0    0    0  0.00000000000E+00  0.00000000000E+00  0.99999998245E-14  0.12500000000E+03  0.12500000000E+03 0.  0.
        -11    1    3    3    0    0  0.20479174732E+02  0.73825553995E+01  0.32448134239E+02  0.39074034061E+02  0.51100000000E-03 0. -1.
         23    2    1    0    0    0 -0.84148468257E+01  0.27589129572E+02 -0.10196418844E+02  0.94406917859E+02  0.89312538117E+02 0.  0.
         11    1    3    3    0    0 -0.28894021558E+02  0.20206574172E+02 -0.42644553083E+02  0.55332883799E+02  0.51100000000E-03 0.  1.
         22    1    1    0    0    0  0.84148468257E+01 -0.27589129572E+02  0.10196418844E+02  0.30593082141E+02  0.00000000000E+00 0.  1.
</event>
<event>
 5    1  0.1691138E-003  0.9118800E+02  0.7818608E-02  0.1130116E+00
         25   -1    0    0    0    0  0.00000000000E+00  0.00000000000E+00  0.99999998245E-14  0.12500000000E+03  0.12500000000E+03 0.  0.
        -11    1    3    3    0    0  0.55163527075E+02 -0.40893677835E+01 -0.98540040302E+01  0.56185754813E+02  0.51100000000E-03 0. -1.
         23    2    1    0    0    0  0.16920400539E+02 -0.15560847150E+02  0.89659475416E+01  0.10032555707E+03  0.97243967774E+02 0.  0.
         11    1    3    3    0    0 -0.38243126536E+02 -0.11471479366E+02  0.18819951572E+02  0.44139802260E+02  0.51100000000E-03 0.  1.
         22    1    1    0    0    0 -0.16920400539E+02  0.15560847150E+02 -0.89659475416E+01  0.24674442926E+02  0.00000000000E+00 0. -1.
</event>
<event>
 5    1  0.1691138E-003  0.9118800E+02  0.7818608E-02  0.1130116E+00
         25   -1    0    0    0    0  0.00000000000E+00  0.00000000000E+00  0.99999998245E-14  0.12500000000E+03  0.12500000000E+03 0.  0.
        -11    1    3    3    0    0 -0.47804858253E+02  0.19020812156E+02 -0.30573102172E+02  0.59848227579E+02  0.51100000000E-03 0.  1.
         23    2    1    0    0    0 -0.17975617162E+02  0.20396478579E+02 -0.10366273548E+02  0.95903629469E+02  0.91383299171E+02 0.  0.
         11    1    3    3    0    0  0.29829241091E+02  0.13756664228E+01  0.20206828624E+02  0.36055401890E+02  0.51100000000E-03 0. -1.
         22    1    1    0    0    0  0.17975617162E+02 -0.20396478579E+02  0.10366273548E+02  0.29096370531E+02  0.00000000000E+00 0.  1.
</event>
<event>
 5    1  0.1691138E-003  0.9118800E+02  0.7818608E-02  0.1130116E+00
         25   -1    0    0    0    0  0.00000000000E+00  0.00000000000E+00  0.99999998245E-14  0.12500000000E+03  0.12500000000E+03 0.  0.
        -11    1    3    3    0    0 -0.84361942367E+01 -0.35022198426E+01  0.31096240299E+02  0.32410045943E+02  0.51100000000E-03 0. -1.
         23    2    1    0    0    0  0.62032724550E+01 -0.52916800558E+01 -0.29302937945E+02  0.94583809588E+02  0.89559769969E+02 0.  0.
         11    1    3    3    0    0  0.14639466692E+02 -0.17894602132E+01 -0.60399178245E+02  0.62173763645E+02  0.51100000000E-03 0.  1.
         22    1    1    0    0    0 -0.62032724550E+01  0.52916800558E+01  0.29302937945E+02  0.30416190412E+02  0.00000000000E+00 0.  1.
</event>
<event>
 5    1  0.1691138E-003  0.9118800E+02  0.7818608E-02  0.1130116E+00
         25   -1    0    0    0    0  0.00000000000E+00  0.00000000000E+00  0.99999998245E-14  0.12500000000E+03  0.12500000000E+03 0.  0.
        -11    1    3    3    0    0 -0.52754367496E+02 -0.17809186076E+02  0.19767667280E+02  0.59084270906E+02  0.51100000000E-03 0.  1.
         23    2    1    0    0    0 -0.22616134234E+02  0.32376123498E+01  0.18048755965E+02  0.95884209554E+02  0.91356731489E+02 0.  0.
         11    1    3    3    0    0  0.30138233261E+02  0.21046798426E+02 -0.17189113151E+01  0.36799938647E+02  0.51100000000E-03 0. -1.
         22    1    1    0    0    0  0.22616134234E+02 -0.32376123498E+01 -0.18048755965E+02  0.29115790446E+02  0.00000000000E+00 0.  1.
</event>
<event>
 5    1  0.1691138E-003  0.9118800E+02  0.7818608E-02  0.1130116E+00
         25   -1    0    0    0    0  0.00000000000E+00  0.00000000000E+00  0.99999998245E-14  0.12500000000E+03  0.12500000000E+03 0.  0.
        -11    1    3    3    0    0 -0.44787060662E+02 -0.21112803726E+02 -0.34164049491E+02  0.60156575383E+02  0.51100000000E-03 0.  1.
         23    2    1    0    0    0 -0.32385546627E+02 -0.14047066272E+02 -0.98494831143E+01  0.88350906986E+02  0.80391086237E+02 0.  0.
         11    1    3    3    0    0  0.12401514036E+02  0.70657374538E+01  0.24314566377E+02  0.28194331602E+02  0.51100000000E-03 0. -1.
         22    1    1    0    0    0  0.32385546627E+02  0.14047066272E+02  0.98494831143E+01  0.36649093014E+02  0.00000000000E+00 0.  1.
</event>
<event>
 5    1  0.1691138E-003  0.9118800E+02  0.7818608E-02  0.1130116E+00
         25   -1    0    0    0    0  0.00000000000E+00  0.00000000000E+00  0.99999998245E-14  0.12500000000E+03  0.12500000000E+03 0.  0.
        -11    1    3    3    0    0  0.40554322480E+02 -0.18786316880E+02 -0.34053181662E+02  0.56188948694E+02  0.51100000000E-03 0. -1.
         23    2    1    0    0    0  0.12638369998E+02 -0.26390094962E+02 -0.92094534299E+01  0.94324610177E+02  0.89197267584E+02 0.  0.
         11    1    3    3    0    0 -0.27915952482E+02 -0.76037780812E+01  0.24843728232E+02  0.38135661484E+02  0.51100000000E-03 0.  1.
         22    1    1    0    0    0 -0.12638369998E+02  0.26390094962E+02  0.92094534299E+01  0.30675389823E+02  0.00000000000E+00 0. -1.
</event>
<event>
 5    1  0.1691138E-003  0.9118800E+02  0.7818608E-02  0.1130116E+00
         25   -1    0    0    0    0  0.00000000000E+00  0.00000000000E+00  0.99999998245E-14  0.12500000000E+03  0.12500000000E+03 0.  0.
        -11    1    3    3    0    0  0.19462566741E+02 -0.94846776303E+01  0.22725130513E+02  0.31387611744E+02  0.51100000000E-03 0.  1.
         23    2    1    0    0    0 -0.24932142132E+02 -0.65009584369E+01 -0.19467618768E+02  0.92706620611E+02  0.86900259796E+02 0.  0.
         11    1    3    3    0    0 -0.44394708873E+02  0.29837191934E+01 -0.42192749281E+02  0.61319008866E+02  0.51100000000E-03 0. -1.
         22    1    1    0    0    0  0.24932142132E+02  0.65009584369E+01  0.19467618768E+02  0.32293379389E+02  0.00000000000E+00 0. -1.
</event>
<event>
 5    1  0.1691138E-003  0.9118800E+02  0.7818608E-02  0.1130116E+00
         25   -1    0    0    0    0  0.00000000000E+00  0.00000000000E+00  0.99999998245E-14  0.12500000000E+03  0.12500000000E+03 0.  0.
        -11    1    3    3    0    0 -0.49134475292E+02 -0.22551057575E+02  0.31346043335E+02  0.62492569903E+02  0.51100000000E-03 0. -1.
         23    2    1    0    0    0 -0.25555986472E+02 -0.12208629947E+02  0.17023808052E+02  0.91955043799E+02  0.85812358957E+02 0.  0.
         11    1    3    3    0    0  0.23578488821E+02  0.10342427628E+02 -0.14322235284E+02  0.29462473896E+02  0.51100000000E-03 0.  1.
         22    1    1    0    0    0  0.25555986472E+02  0.12208629947E+02 -0.17023808052E+02  0.33044956201E+02  0.00000000000E+00 0. -1.
</event>
<event>
 5    1  0.1691138E-003  0.9118800E+02  0.7818608E-02  0.1130116E+00
         25   -1    0    0    0    0  0.00000000000E+00  0.00000000000E+00  0.99999998245E-14  0.12500000000E+03  0.12500000000E+03 0.  0.
        -11    1    3    3    0    0 -0.57961235950E+01  0.22395862848E+02  0.41655215502E+02  0.47647945394E+02  0.51100000000E-03 0. -1.
         23    2    1    0    0    0  0.10872643352E+02  0.26337819095E+02 -0.38287062284E+01  0.96250146443E+02  0.91856064638E+02 0.  0.
         11    1    3    3    0    0  0.16668766947E+02  0.39419562470E+01 -0.45483921731E+02  0.48602201049E+02  0.51100000000E-03 0.  1.
         22    1    1    0    0    0 -0.10872643352E+02 -0.26337819095E+02  0.38287062284E+01  0.28749853557E+02  0.00000000000E+00 0.  1.
</event>
<event>
 5    1  0.1691138E-003  0.9118800E+02  0.7818608E-02  0.1130116E+00
         25   -1    0    0    0    0  0.00000000000E+00  0.00000000000E+00  0.99999998245E-14  0.12500000000E+03  0.12500000000E+03 0.  0.
        -11    1    3    3    0    0 -0.40503104861E+02 -0.32614870122E+01 -0.14305691053E+02  0.43078899681E+02  0.51100000000E-03 0. -1.
         23    2    1    0    0    0 -0.77985339350E+01 -0.15958987993E+02  0.24077402396E+02  0.95079643461E+02  0.90249159914E+02 0.  0.
         11    1    3    3    0    0  0.32704570926E+02 -0.12697500980E+02  0.38383093450E+02  0.52000743780E+02  0.51100000000E-03 0.  1.
         22    1    1    0    0    0  0.77985339350E+01  0.15958987993E+02 -0.24077402396E+02  0.29920356539E+02  0.00000000000E+00 0.  1.
</event>
<event>
 5    1  0.1691138E-003  0.9118800E+02  0.7818608E-02  0.1130116E+00
         25   -1    0    0    0    0  0.00000000000E+00  0.00000000000E+00  0.99999998245E-14  0.12500000000E+03  0.12500000000E+03 0.  0.
        -11    1    3    3    0    0  0.38300033021E+02 -0.35570211484E+02  0.13969625365E+02  0.54104370503E+02  0.51100000000E-03 0.  1.
         23    2    1    0    0    0  0.16639954032E+02  0.73892465289E+01  0.13697168944E+02  0.10221620156E+03  0.99644620473E+02 0.  0.
         11    1    3    3    0    0 -0.21660078989E+02  0.42959458013E+02 -0.27245642162E+00  0.48111831054E+02  0.51100000000E-03 0. -1.
         22    1    1    0    0    0 -0.16639954032E+02 -0.73892465289E+01 -0.13697168944E+02  0.22783798443E+02  0.00000000000E+00 0.  1.
</event>
<event>
 5    1  0.1691138E-003  0.9118800E+02  0.7818608E-02  0.1130116E+00
         25   -1    0    0    0    0  0.00000000000E+00  0.00000000000E+00  0.99999998245E-14  0.12500000000E+03  0.12500000000E+03 0.  0.
        -11    1    3    3    0    0  0.42956801346E+02  0.95269290814E+01  0.23727082359E+02  0.49990235017E+02  0.51100000000E-03 0.  1.
         23    2    1    0    0    0  0.10410541096E+02 -0.20502230508E+02  0.20164973393E+02  0.94416557197E+02  0.89326028118E+02 0.  0.
         11    1    3    3    0    0 -0.32546260250E+02 -0.30029159589E+02 -0.35621089656E+01  0.44426322180E+02  0.51100000000E-03 0. -1.
         22    1    1    0    0    0 -0.10410541096E+02  0.20502230508E+02 -0.20164973393E+02  0.30583442803E+02  0.00000000000E+00 0.  1.
</event>
<event>
 5    1  0.1691138E-003  0.9118800E+02  0.7818608E-02  0.1130116E+00
         25   -1    0    0    0    0  0.00000000000E+00  0.00000000000E+00  0.99999998245E-14  0.12500000000E+03  0.12500000000E+03 0.  0.
        -11    1    3    3    0    0 -0.34770846223E+02  0.46742686018E+02 -0.79136902767E+01  0.58792150303E+02  0.51100000000E-03 0. -1.
         23    2    1    0    0    0 -0.20517141009E+02  0.12555267528E+02 -0.15205794273E+02  0.96542944683E+02  0.92253651259E+02 0.  0.
         11    1    3    3    0    0  0.14253705214E+02 -0.34187418490E+02 -0.72921039962E+01  0.37750794379E+02  0.51100000000E-03 0.  1.
         22    1    1    0    0    0  0.20517141009E+02 -0.12555267528E+02  0.15205794273E+02  0.28457055317E+02  0.00000000000E+00 0. -1.
</event>
<event>
 5    1  0.1691138E-003  0.9118800E+02  0.7818608E-02  0.1130116E+00
         25   -1    0    0    0    0  0.00000000000E+00  0.00000000000E+00  0.99999998245E-14  0.12500000000E+03  0.12500000000E+03 0.  0.
        -11    1    3    3    0    0 -0.14434264659E+02  0.39131927594E+02 -0.12180579121E+02  0.43451378131E+02  0.51100000000E-03 0.  1.
         23    2    1    0    0    0  0.93899645320E+00  0.91867144199E+01  0.27794882855E+02  0.95711214619E+02  0.91119721546E+02 0.  0.
         11    1    3    3    0    0  0.15373261112E+02 -0.29945213174E+02  0.39975461977E+02  0.52259836488E+02  0.51100000000E-03 0. -1.
         22    1    1    0    0    0 -0.93899645320E+00 -0.91867144199E+01 -0.27794882855E+02  0.29288785381E+02  0.00000000000E+00 0. -1.
</event>
<event>
 5    1  0.1691138E-003  0.9118800E+02  0.7818608E-02  0.1130116E+00
         25   -1    0    0    0    0  0.00000000000E+00  0.00000000000E+00  0.99999998245E-14  0.12500000000E+03  0.12500000000E+03 0.  0.
        -11    1    3    3    0    0 -0.31846403078E+01  0.24107795367E+02 -0.55072139972E+02  0.60201896422E+02  0.51100000000E-03 0.  1.
         23    2    1    0    0    0 -0.13287390402E+02  0.13283079424E+02 -0.24944581070E+02  0.93771374231E+02  0.88418570208E+02 0.  0.
         11    1    3    3    0    0 -0.10102750094E+02 -0.10824715944E+02  0.30127558902E+02  0.33569477809E+02  0.51100000000E-03 0. -1.
         22    1    1    0    0    0  0.13287390402E+02 -0.13283079424E+02  0.24944581070E+02  0.31228625769E+02  0.00000000000E+00 0.  1.
</event>
<event>
 5    1  0.1691138E-003  0.9118800E+02  0.7818608E-02  0.1130116E+00
         25   -1    0    0    0    0  0.00000000000E+00  0.00000000000E+00  0.99999998245E-14  0.12500000000E+03  0.12500000000E+03 0.  0.
        -11    1    3    3    0    0  0.45968236333E+02  0.55042880325E+01  0.63597858890E+01  0.46731390040E+02  0.51100000000E-03 0. -1.
         23    2    1    0    0    0  0.10610946782E+02  0.19450576218E+02 -0.21709019870E+02  0.93980672951E+02  0.88713968674E+02 0.  0.
         11    1    3    3    0    0 -0.35357289551E+02  0.13946288186E+02 -0.28068805759E+02  0.47249282911E+02  0.51100000000E-03 0.  1.
         22    1    1    0    0    0 -0.10610946782E+02 -0.19450576218E+02  0.21709019870E+02  0.31019327049E+02  0.00000000000E+00 0.  1.
</event>
<event>
 5    1  0.1691138E-003  0.9118800E+02  0.7818608E-02  0.1130116E+00
         25   -1    0    0    0    0  0.00000000000E+00  0.00000000000E+00  0.99999998245E-14  0.12500000000E+03  0.12500000000E+03 0.  0.
        -11    1    3    3    0    0  0.28868401857E+02  0.43487091665E-01  0.21436948842E+02  0.35957325997E+02  0.51100000000E-03 0.  1.
         23    2    1    0    0    0 -0.11499702956E+02 -0.22037451795E+02 -0.16138387805E+02  0.95363198373E+02  0.90641048059E+02 0.  0.
         11    1    3    3    0    0 -0.40368104813E+02 -0.22080938887E+02 -0.37575336648E+02  0.59405872376E+02  0.51100000000E-03 0. -1.
         22    1    1    0    0    0  0.11499702956E+02  0.22037451795E+02  0.16138387805E+02  0.29636801627E+02  0.00000000000E+00 0. -1.
</event>
<event>
 5    1  0.1691138E-003  0.9118800E+02  0.7818608E-02  0.1130116E+00
         25   -1    0    0    0    0  0.00000000000E+00  0.00000000000E+00  0.99999998245E-14  0.12500000000E+03  0.12500000000E+03 0.  0.
        -11    1    3    3    0    0 -0.82806290921E+00  0.24681205136E+02 -0.35372312358E+02  0.43139866214E+02  0.51100000000E-03 0. -1.
         23    2    1    0    0    0 -0.27731352188E+02 -0.58463249332E+01 -0.61790339418E+00  0.96652350821E+02  0.92401773279E+02 0.  0.
         11    1    3    3    0    0 -0.26903289279E+02 -0.30527530069E+02  0.34754408964E+02  0.53512484607E+02  0.51100000000E-03 0.  1.
         22    1    1    0    0    0  0.27731352188E+02  0.58463249332E+01  0.61790339418E+00  0.28347649179E+02  0.00000000000E+00 0.  1.
</event>
<event>
 5    1  0.1691138E-003  0.9118800E+02  0.7818608E-02  0.1130116E+00
         25   -1    0    0    0    0  0.00000000000E+00  0.00000000000E+00  0.99999998245E-14  0.12500000000E+03  0.12500000000E+03 0.  0.
        -11    1    3    3    0    0  0.18936054752E+02  0.34120239146E+02  0.11185998928E+02  0.40594229408E+02  0.51100000000E-03 0.  1.
         23    2    1    0    0    0  0.20939281011E+02 -0.20251530011E+02  0.17315134223E+01  0.95818223225E+02  0.91266400204E+02 0.  0.
         11    1    3    3    0    0  0.20032262589E+01 -0.54371769157E+02 -0.94544855054E+01  0.55223993817E+02  0.51100000000E-03 0. -1.
         22    1    1    0    0    0 -0.20939281011E+02  0.20251530011E+02 -0.17315134223E+01  0.29181776775E+02  0.00000000000E+00 0.  1.
</event>
<event>
 5    1  0.1691138E-003  0.9118800E+02  0.7818608E-02  0.1130116E+00
         25   -1    0    0    0    0  0.00000000000E+00  0.00000000000E+00  0.99999998245E-14  0.12500000000E+03  0.12500000000E+03 0.  0.
        -11    1    3    3    0    0  0.49225706410E+02  0.18716316682E+02 -0.49891614697E+01  0.52899550226E+02  0.51100000000E-03 0. -1.
         23    2    1    0    0    0  0.81322586460E+01  0.28456770538E+02 -0.39237943965E+01  0.95145057652E+02  0.90339716698E+02 0.  0.
         11    1    3    3    0    0 -0.41093447764E+02  0.97404538563E+01  0.10653670733E+01  0.42245507426E+02  0.51100000000E-03 0.  1.
         22    1    1    0    0    0 -0.81322586460E+01 -0.28456770538E+02  0.39237943965E+01  0.29854942348E+02  0.00000000000E+00 0. -1.
</event>
<event>
 5    1  0.1691138E-003  0.9118800E+02  0.7818608E-02  0.1130116E+00
         25   -1    0    0    0    0  0.00000000000E+00  0.00000000000E+00  0.99999998245E-14  0.12500000000E+03  0.12500000000E+03 0.  0.
        -11    1    3    3    0    0  0.32185057459E+02 -0.25367821372E+02  0.38217356911E+02  0.56035441056E+02  0.51100000000E-03 0. -1.
         23    2    1    0    0    0  0.25784911092E+02 -0.16681934213E+02  0.15576995877E+01  0.94249796796E+02  0.89092363304E+02 0.  0.
         11    1    3    3    0    0 -0.64001463671E+01  0.86858871595E+01 -0.36659657324E+02  0.38214355740E+02  0.51100000000E-03 0.  1.
         22    1    1    0    0    0 -0.25784911092E+02  0.16681934213E+02 -0.15576995877E+01  0.30750203204E+02  0.00000000000E+00 0. -1.
</event>
<event>
 5    1  0.1691138E-003  0.9118800E+02  0.7818608E-02  0.1130116E+00
         25   -1    0    0    0    0  0.00000000000E+00  0.00000000000E+00  0.99999998245E-14  0.12500000000E+03  0.12500000000E+03 0.  0.
        -11    1    3    3    0    0 -0.22580355824E+02  0.18616757488E+02 -0.28163054437E+02  0.40615437508E+02  0.51100000000E-03 0.  1.
         23    2    1    0    0    0 -0.14214610239E+02 -0.24255015889E+02  0.62224638068E+01  0.96206250750E+02  0.91796310860E+02 0.  0.
         11    1    3    3    0    0  0.83657455848E+01 -0.42871773378E+02  0.34385518244E+02  0.55590813242E+02  0.51100000000E-03 0. -1.
         22    1    1    0    0    0  0.14214610239E+02  0.24255015889E+02 -0.62224638068E+01  0.28793749250E+02  0.00000000000E+00 0. -1.
</event>
<event>
 5    1  0.1691138E-003  0.9118800E+02  0.7818608E-02  0.1130116E+00
         25   -1    0    0    0    0  0.00000000000E+00  0.00000000000E+00  0.99999998245E-14  0.12500000000E+03  0.12500000000E+03 0.  0.
        -11    1    3    3    0    0  0.32714069681E+02  0.20273157102E+02  0.65864636738E+01  0.39046033832E+02  0.51100000000E-03 0. -1.
         23    2    1    0    0    0 -0.15746835244E+02 -0.18005401288E+02  0.27934246610E+01  0.10091763058E+03  0.98002079795E+02 0.  0.
         11    1    3    3    0    0 -0.48460904925E+02 -0.38278558389E+02 -0.37930390128E+01  0.61871596745E+02  0.51100000000E-03 0.  1.
         22    1    1    0    0    0  0.15746835244E+02  0.18005401288E+02 -0.27934246610E+01  0.24082369424E+02  0.00000000000E+00 0.  1.
</event>
<event>
 5    1  0.1691138E-003  0.9118800E+02  0.7818608E-02  0.1130116E+00
         25   -1    0    0    0    0  0.00000000000E+00  0.00000000000E+00  0.99999998245E-14  0.12500000000E+03  0.12500000000E+03 0.  0.
        -11    1    3    3    0    0  0.71255923083E+01 -0.25990860876E+02 -0.23463810871E+02  0.35733028639E+02  0.51100000000E-03 0.  1.
         23    2    1    0    0    0 -0.18309952003E+02  0.32043528203E+01  0.22488228240E+02  0.95823937402E+02  0.91274226102E+02 0.  0.
         11    1    3    3    0    0 -0.25435544312E+02  0.29195213697E+02  0.45952039111E+02  0.60090908763E+02  0.51100000000E-03 0. -1.
         22    1    1    0    0    0  0.18309952003E+02 -0.32043528203E+01 -0.22488228240E+02  0.29176062598E+02  0.00000000000E+00 0. -1.
</event>
<event>
 5    1  0.1691138E-003  0.9118800E+02  0.7818608E-02  0.1130116E+00
         25   -1    0    0    0    0  0.00000000000E+00  0.00000000000E+00  0.99999998245E-14  0.12500000000E+03  0.12500000000E+03 0.  0.
        -11    1    3    3    0    0  0.96136790044E+01 -0.26651702781E+02  0.26186844799E+02  0.38580914011E+02  0.51100000000E-03 0.  1.
         23    2    1    0    0    0 -0.21498799580E+02  0.17919551180E+02  0.81957667810E+01  0.95837021911E+02  0.91292143571E+02 0.  0.
         11    1    3    3    0    0 -0.31112478585E+02  0.44571253961E+02 -0.17991078018E+02  0.57256107900E+02  0.51100000000E-03 0. -1.
         22    1    1    0    0    0  0.21498799580E+02 -0.17919551180E+02 -0.81957667810E+01  0.29162978089E+02  0.00000000000E+00 0. -1.
</event>
<event>
 5    1  0.1691138E-003  0.9118800E+02  0.7818608E-02  0.1130116E+00
         25   -1    0    0    0    0  0.00000000000E+00  0.00000000000E+00  0.99999998245E-14  0.12500000000E+03  0.12500000000E+03 0.  0.
        -11    1    3    3    0    0 -0.65269294590E+01  0.30135769672E+01  0.45574543572E+02  0.46138069707E+02  0.51100000000E-03 0. -1.
         23    2    1    0    0    0 -0.79855781517E+01  0.29482485069E+02  0.58429496183E+01  0.93901343365E+02  0.88602120975E+02 0.  0.
         11    1    3    3    0    0 -0.14586486927E+01  0.26468908102E+02 -0.39731593953E+02  0.47763273657E+02  0.51100000000E-03 0.  1.
         22    1    1    0    0    0  0.79855781517E+01 -0.29482485069E+02 -0.58429496183E+01  0.31098656635E+02  0.00000000000E+00 0. -1.
</event>
<event>
 5    1  0.1691138E-003  0.9118800E+02  0.7818608E-02  0.1130116E+00
         25   -1    0    0    0    0  0.00000000000E+00  0.00000000000E+00  0.99999998245E-14  0.12500000000E+03  0.12500000000E+03 0.  0.
        -11    1    3    3    0    0  0.45343475530E+02 -0.26333292835E+02  0.21872056359E+02  0.56814258195E+02  0.51100000000E-03 0.  1.
         23    2    1    0    0    0  0.27328285480E+02 -0.93819911813E+01 -0.74346223323E+01  0.95164944192E+02  0.90367228839E+02 0.  0.
         11    1    3    3    0    0 -0.18015190050E+02  0.16951301654E+02 -0.29306678691E+02  0.38350685997E+02  0.51100000000E-03 0. -1.
         22    1    1    0    0    0 -0.27328285480E+02  0.93819911813E+01  0.74346223323E+01  0.29835055808E+02  0.00000000000E+00 0.  1.
</event>
<event>
 5    1  0.1691138E-003  0.9118800E+02  0.7818608E-02  0.1130116E+00
         25   -1    0    0    0    0  0.00000000000E+00  0.00000000000E+00  0.99999998245E-14  0.12500000000E+03  0.12500000000E+03 0.  0.
        -11    1    3    3    0    0 -0.75186585342E+01 -0.46864209116E+02 -0.16972006113E+02  0.50406679259E+02  0.51100000000E-03 0.  1.
         23    2    1    0    0    0  0.18881628603E+02 -0.17104324326E+02  0.90723204956E+01  0.97955946892E+02  0.94148747856E+02 0.  0.
         11    1    3    3    0    0  0.26400287137E+02  0.29759884790E+02  0.26044326608E+02  0.47549267632E+02  0.51100000000E-03 0. -1.
         22    1    1    0    0    0 -0.18881628603E+02  0.17104324326E+02 -0.90723204956E+01  0.27044053108E+02  0.00000000000E+00 0.  1.
</event>
<event>
 5    1  0.1691138E-003  0.9118800E+02  0.7818608E-02  0.1130116E+00
         25   -1    0    0    0    0  0.00000000000E+00  0.00000000000E+00  0.99999998245E-14  0.12500000000E+03  0.12500000000E+03 0.  0.
        -11    1    3    3    0    0  0.25054176390E+02  0.22028587291E+02  0.28935951326E+02  0.44161744667E+02  0.51100000000E-03 0.  1.
         23    2    1    0    0    0  0.88432244286E+01  0.26368470195E+02 -0.16544256334E+02  0.92639356367E+02  0.86803450920E+02 0.  0.
         11    1    3    3    0    0 -0.16210951961E+02  0.43398829041E+01 -0.45480207660E+02  0.48477611700E+02  0.51100000000E-03 0. -1.
         22    1    1    0    0    0 -0.88432244286E+01 -0.26368470195E+02  0.16544256334E+02  0.32360643633E+02  0.00000000000E+00 0. -1.
</event>
<event>
 5    1  0.1691138E-003  0.9118800E+02  0.7818608E-02  0.1130116E+00
         25   -1    0    0    0    0  0.00000000000E+00  0.00000000000E+00  0.99999998245E-14  0.12500000000E+03  0.12500000000E+03 0.  0.
        -11    1    3    3    0    0  0.83892810146E+01 -0.16485041745E+02  0.49736822710E+02  0.53064942955E+02  0.51100000000E-03 0. -1.
         23    2    1    0    0    0  0.27848704583E+02 -0.32248579040E+01  0.22631618306E+02  0.88970287225E+02  0.81348459151E+02 0.  0.
         11    1    3    3    0    0  0.19459423569E+02  0.13260183841E+02 -0.27105204404E+02  0.35905344270E+02  0.51100000000E-03 0.  1.
         22    1    1    0    0    0 -0.27848704583E+02  0.32248579040E+01 -0.22631618306E+02  0.36029712775E+02  0.00000000000E+00 0.  1.
</event>
<event>
 5    1  0.1691138E-003  0.9118800E+02  0.7818608E-02  0.1130116E+00
         25   -1    0    0    0    0  0.00000000000E+00  0.00000000000E+00  0.99999998245E-14  0.12500000000E+03  0.12500000000E+03 0.  0.
        -11    1    3    3    0    0  0.20302310008E+02  0.27666676912E+02 -0.15021481368E+02  0.37460295057E+02  0.51100000000E-03 0. -1.
         23    2    1    0    0    0 -0.31131818871E+01 -0.27022971480E+01  0.28923284958E+02  0.95784409571E+02  0.91220076698E+02 0.  0.
         11    1    3    3    0    0 -0.23415491896E+02 -0.30368974060E+02  0.43944766326E+02  0.58324114514E+02  0.51100000000E-03 0.  1.
         22    1    1    0    0    0  0.31131818871E+01  0.27022971480E+01 -0.28923284958E+02  0.29215590429E+02  0.00000000000E+00 0.  1.
</event>
<event>
 5    1  0.1691138E-003  0.9118800E+02  0.7818608E-02  0.1130116E+00
         25   -1    0    0    0    0  0.00000000000E+00  0.00000000000E+00  0.99999998245E-14  0.12500000000E+03  0.12500000000E+03 0.  0.
        -11    1    3    3    0    0  0.27939331499E+02  0.14286488748E+02 -0.26031148045E+02  0.40771689616E+02  0.51100000000E-03 0.  1.
         23    2    1    0    0    0 -0.99826798601E+01 -0.23563620293E+02 -0.14532118187E+02  0.95570753365E+02  0.90926829601E+02 0.  0.
         11    1    3    3    0    0 -0.37922011359E+02 -0.37850109041E+02  0.11499029857E+02  0.54799063749E+02  0.51100000000E-03 0. -1.
         22    1    1    0    0    0  0.99826798601E+01  0.23563620293E+02  0.14532118187E+02  0.29429246635E+02  0.00000000000E+00 0. -1.
</event>
<event>
 5    1  0.1691138E-003  0.9118800E+02  0.7818608E-02  0.1130116E+00
         25   -1    0    0    0    0  0.00000000000E+00  0.00000000000E+00  0.99999998245E-14  0.12500000000E+03  0.12500000000E+03 0.  0.
        -11    1    3    3    0    0 -0.25518853039E+02  0.28092070383E+02 -0.19074077677E+02  0.42475836876E+02  0.51100000000E-03 0.  1.
         23    2    1    0    0    0  0.23556563366E+01 -0.15817536308E+02  0.13692606114E+02  0.10394694716E+03  0.10179261658E+03 0.  0.
         11    1    3    3    0    0  0.27874509376E+02 -0.43909606691E+02  0.32766683791E+02  0.61471110285E+02  0.51100000000E-03 0. -1.
         22    1    1    0    0    0 -0.23556563366E+01  0.15817536308E+02 -0.13692606114E+02  0.21053052839E+02  0.00000000000E+00 0. -1.
</event>
<event>
 5    1  0.1691138E-003  0.9118800E+02  0.7818608E-02  0.1130116E+00
         25   -1    0    0    0    0  0.00000000000E+00  0.00000000000E+00  0.99999998245E-14  0.12500000000E+03  0.12500000000E+03 0.  0.
        -11    1    3    3    0    0 -0.15055774635E+01  0.52872496530E+02 -0.15669368922E+02  0.55166083561E+02  0.51100000000E-03 0. -1.
         23    2    1    0    0    0 -0.11160787287E+02  0.13307241276E+02 -0.22620151537E+02  0.96481285113E+02  0.92170067149E+02 0.  0.
         11    1    3    3    0    0 -0.96552098232E+01 -0.39565255254E+02 -0.69507826148E+01  0.41315201552E+02  0.51100000000E-03 0.  1.
         22    1    1    0    0    0  0.11160787287E+02 -0.13307241276E+02  0.22620151537E+02  0.28518714887E+02  0.00000000000E+00 0. -1.
</event>
<event>
 5    1  0.1691138E-003  0.9118800E+02  0.7818608E-02  0.1130116E+00
         25   -1    0    0    0    0  0.00000000000E+00  0.00000000000E+00  0.99999998245E-14  0.12500000000E+03  0.12500000000E+03 0.  0.
        -11    1    3    3    0    0  0.19300774707E+02  0.22539512257E+02  0.46788954865E+02  0.55405377128E+02  0.51100000000E-03 0. -1.
         23    2    1    0    0    0 -0.41618445776E+01 -0.46837714887E+01  0.28669971282E+02  0.95653349102E+02  0.91040305774E+02 0.  0.
         11    1    3    3    0    0 -0.23462619285E+02 -0.27223283746E+02 -0.18118983584E+02  0.40247971974E+02  0.51100000000E-03 0.  1.
         22    1    1    0    0    0  0.41618445776E+01  0.46837714887E+01 -0.28669971282E+02  0.29346650898E+02  0.00000000000E+00 0.  1.
</event>
<event>
 5    1  0.1691138E-003  0.9118800E+02  0.7818608E-02  0.1130116E+00
         25   -1    0    0    0    0  0.00000000000E+00  0.00000000000E+00  0.99999998245E-14  0.12500000000E+03  0.12500000000E+03 0.  0.
        -11    1    3    3    0    0  0.54278294464E+02  0.27138646254E+02 -0.68241216436E+01  0.61067241684E+02  0.51100000000E-03 0. -1.
         23    2    1    0    0    0  0.13916324702E+02  0.16940367905E+02 -0.29823957534E+01  0.10287456571E+03  0.10046711615E+03 0.  0.
         11    1    3    3    0    0 -0.40361969762E+02 -0.10198278349E+02  0.38417258902E+01  0.41807324029E+02  0.51100000000E-03 0.  1.
         22    1    1    0    0    0 -0.13916324702E+02 -0.16940367905E+02  0.29823957534E+01  0.22125434287E+02  0.00000000000E+00 0. -1.
</event>
<event>
 5    1  0.1691138E-003  0.9118800E+02  0.7818608E-02  0.1130116E+00
         25   -1    0    0    0    0  0.00000000000E+00  0.00000000000E+00  0.99999998245E-14  0.12500000000E+03  0.12500000000E+03 0.  0.
        -11    1    3    3    0    0 -0.97738017886E+01  0.24709244584E+02 -0.44323280369E+02  0.51678110959E+02  0.51100000000E-03 0. -1.
         23    2    1    0    0    0  0.14012106487E+02 -0.68651182744E+01 -0.24631130600E+02  0.95842469724E+02  0.91299602579E+02 0.  0.
         11    1    3    3    0    0  0.23785908276E+02 -0.31574362859E+02  0.19692149769E+02  0.44164358766E+02  0.51100000000E-03 0.  1.
         22    1    1    0    0    0 -0.14012106487E+02  0.68651182744E+01  0.24631130600E+02  0.29157530276E+02  0.00000000000E+00 0. -1.
</event>
<event>
 5    1  0.1691138E-003  0.9118800E+02  0.7818608E-02  0.1130116E+00
         25   -1    0    0    0    0  0.00000000000E+00  0.00000000000E+00  0.99999998245E-14  0.12500000000E+03  0.12500000000E+03 0.  0.
        -11    1    3    3    0    0 -0.45133323508E+02 -0.38268026549E+02 -0.88429168820E+01  0.59830225857E+02  0.51100000000E-03 0.  1.
         23    2    1    0    0    0 -0.25206035021E+02 -0.10598122524E+02 -0.13940685047E+02  0.94307865795E+02  0.89173799116E+02 0.  0.
         11    1    3    3    0    0  0.19927288487E+02  0.27669904025E+02 -0.50977681645E+01  0.34477639938E+02  0.51100000000E-03 0. -1.
         22    1    1    0    0    0  0.25206035021E+02  0.10598122524E+02  0.13940685047E+02  0.30692134205E+02  0.00000000000E+00 0.  1.
</event>
<event>
 5    1  0.1691138E-003  0.9118800E+02  0.7818608E-02  0.1130116E+00
         25   -1    0    0    0    0  0.00000000000E+00  0.00000000000E+00  0.99999998245E-14  0.12500000000E+03  0.12500000000E+03 0.  0.
        -11    1    3    3    0    0  0.31042878989E+02 -0.69482454464E+01  0.32117372919E+02  0.45204691064E+02  0.51100000000E-03 0. -1.
         23    2    1    0    0    0 -0.17033348929E+02 -0.43507857744E-01  0.25659286591E+02  0.94201690679E+02  0.89024842992E+02 0.  0.
         11    1    3    3    0    0 -0.48076227918E+02  0.69047375886E+01 -0.64580863275E+01  0.48996999615E+02  0.51100000000E-03 0.  1.
         22    1    1    0    0    0  0.17033348929E+02  0.43507857744E-01 -0.25659286591E+02  0.30798309321E+02  0.00000000000E+00 0.  1.
</event>
<event>
 5    1  0.1691138E-003  0.9118800E+02  0.7818608E-02  0.1130116E+00
         25   -1    0    0    0    0  0.00000000000E+00  0.00000000000E+00  0.99999998245E-14  0.12500000000E+03  0.12500000000E+03 0.  0.
        -11    1    3    3    0    0 -0.37685575940E+01  0.24500635828E+02 -0.22460030377E+02  0.33450502943E+02  0.51100000000E-03 0.  1.
         23    2    1    0    0    0  0.83529968571E+01 -0.15379768585E+02  0.23631040002E+02  0.95593608011E+02  0.90958243182E+02 0.  0.
         11    1    3    3    0    0  0.12121554451E+02 -0.39880404413E+02  0.46091070380E+02  0.62143105068E+02  0.51100000000E-03 0. -1.
         22    1    1    0    0    0 -0.83529968571E+01  0.15379768585E+02 -0.23631040002E+02  0.29406391989E+02  0.00000000000E+00 0. -1.
</event>
<event>
 5    1  0.1691138E-003  0.9118800E+02  0.7818608E-02  0.1130116E+00
         25   -1    0    0    0    0  0.00000000000E+00  0.00000000000E+00  0.99999998245E-14  0.12500000000E+03  0.12500000000E+03 0.  0.
        -11    1    3    3    0    0 -0.43911567597E+02 -0.93914838480E+01  0.33052730444E+02  0.55757588970E+02  0.51100000000E-03 0. -1.
         23    2    1    0    0    0 -0.26325033431E+02  0.11798752646E+02  0.38503446264E+01  0.95895995071E+02  0.91372855749E+02 0.  0.
         11    1    3    3    0    0  0.17586534166E+02  0.21190236494E+02 -0.29202385817E+02  0.40138406101E+02  0.51100000000E-03 0.  1.
         22    1    1    0    0    0  0.26325033431E+02 -0.11798752646E+02 -0.38503446264E+01  0.29104004929E+02  0.00000000000E+00 0. -1.
</event>
<event>
 5    1  0.1691138E-003  0.9118800E+02  0.7818608E-02  0.1130116E+00
         25   -1    0    0    0    0  0.00000000000E+00  0.00000000000E+00  0.99999998245E-14  0.12500000000E+03  0.12500000000E+03 0.  0.
        -11    1    3    3    0    0  0.36995841210E+02 -0.66340527761E+01  0.36805649389E+02  0.52605691235E+02  0.51100000000E-03 0. -1.
         23    2    1    0    0    0  0.58713939238E+01  0.12620016150E+02  0.32733531845E+02  0.89430038216E+02  0.82051871119E+02 0.  0.
         11    1    3    3    0    0 -0.31124447286E+02  0.19254068926E+02 -0.40721175434E+01  0.36824346982E+02  0.51100000000E-03 0.  1.
         22    1    1    0    0    0 -0.58713939238E+01 -0.12620016150E+02 -0.32733531845E+02  0.35569961784E+02  0.00000000000E+00 0. -1.
</event>
<event>
 5    1  0.1691138E-003  0.9118800E+02  0.7818608E-02  0.1130116E+00
         25   -1    0    0    0    0  0.00000000000E+00  0.00000000000E+00  0.99999998245E-14  0.12500000000E+03  0.12500000000E+03 0.  0.
        -11    1    3    3    0    0  0.17248010101E+02 -0.32846521134E+02 -0.11793095858E+02  0.38928972671E+02  0.51100000000E-03 0.  1.
         23    2    1    0    0    0  0.10634846276E+02  0.24916084419E+02 -0.47869408825E+01  0.97489528883E+02  0.93527441004E+02 0.  0.
         11    1    3    3    0    0 -0.66131638255E+01  0.57762605553E+02  0.70061549756E+01  0.58560556212E+02  0.51100000000E-03 0. -1.
         22    1    1    0    0    0 -0.10634846276E+02 -0.24916084419E+02  0.47869408825E+01  0.27510471117E+02  0.00000000000E+00 0. -1.
</event>
<event>
 5    1  0.1691138E-003  0.9118800E+02  0.7818608E-02  0.1130116E+00
         25   -1    0    0    0    0  0.00000000000E+00  0.00000000000E+00  0.99999998245E-14  0.12500000000E+03  0.12500000000E+03 0.  0.
        -11    1    3    3    0    0  0.21849640691E+02 -0.24475959397E+02  0.30615079234E+02  0.44874964774E+02  0.51100000000E-03 0. -1.
         23    2    1    0    0    0  0.50106726570E+01  0.21952656385E+02  0.18824002570E+02  0.95650910822E+02  0.91036957910E+02 0.  0.
         11    1    3    3    0    0 -0.16838968035E+02  0.46428615782E+02 -0.11791076664E+02  0.50775946048E+02  0.51100000000E-03 0.  1.
         22    1    1    0    0    0 -0.50106726570E+01 -0.21952656385E+02 -0.18824002570E+02  0.29349089178E+02  0.00000000000E+00 0. -1.
</event>
<event>
 5    1  0.1691138E-003  0.9118800E+02  0.7818608E-02  0.1130116E+00
         25   -1    0    0    0    0  0.00000000000E+00  0.00000000000E+00  0.99999998245E-14  0.12500000000E+03  0.12500000000E+03 0.  0.
        -11    1    3    3    0    0 -0.74028220260E+01  0.20061446586E+02 -0.30316475590E+02  0.37099219742E+02  0.51100000000E-03 0.  1.
         23    2    1    0    0    0  0.16553866275E+02  0.15729357809E+02  0.21049973246E+02  0.93942882307E+02  0.88660704806E+02 0.  0.
         11    1    3    3    0    0  0.23956688301E+02 -0.43320887769E+01  0.51366448835E+02  0.56843662565E+02  0.51100000000E-03 0. -1.
         22    1    1    0    0    0 -0.16553866275E+02 -0.15729357809E+02 -0.21049973246E+02  0.31057117693E+02  0.00000000000E+00 0. -1.
</event>
<event>
 5    1  0.1691138E-003  0.9118800E+02  0.7818608E-02  0.1130116E+00
         25   -1    0    0    0    0  0.00000000000E+00  0.00000000000E+00  0.99999998245E-14  0.12500000000E+03  0.12500000000E+03 0.  0.
        -11    1    3    3    0    0  0.19640592278E+02  0.46855367914E+02 -0.33153679542E+02  0.60665845703E+02  0.51100000000E-03 0.  1.
         23    2    1    0    0    0 -0.23281360240E+00  0.25995774572E+02 -0.12248489103E+02  0.96262220283E+02  0.91872493548E+02 0.  0.
         11    1    3    3    0    0 -0.19873405880E+02 -0.20859593343E+02  0.20905190439E+02  0.35596374580E+02  0.51100000000E-03 0. -1.
         22    1    1    0    0    0  0.23281360240E+00 -0.25995774572E+02  0.12248489103E+02  0.28737779717E+02  0.00000000000E+00 0.  1.
</event>
<event>
 5    1  0.1691138E-003  0.9118800E+02  0.7818608E-02  0.1130116E+00
         25   -1    0    0    0    0  0.00000000000E+00  0.00000000000E+00  0.99999998245E-14  0.12500000000E+03  0.12500000000E+03 0.  0.
        -11    1    3    3    0    0  0.22767511679E+02 -0.27898682373E+02 -0.66570553844E-01  0.36009727826E+02  0.51100000000E-03 0.  1.
         23    2    1    0    0    0 -0.62610323087E+01  0.10828665685E+02 -0.29709250641E+02  0.92764924387E+02  0.86984085308E+02 0.  0.
         11    1    3    3    0    0 -0.29028543988E+02  0.38727348058E+02 -0.29642680087E+02  0.56755196561E+02  0.51100000000E-03 0. -1.
         22    1    1    0    0    0  0.62610323087E+01 -0.10828665685E+02  0.29709250641E+02  0.32235075613E+02  0.00000000000E+00 0. -1.
</event>
<event>
 5    1  0.1691138E-003  0.9118800E+02  0.7818608E-02  0.1130116E+00
         25   -1    0    0    0    0  0.00000000000E+00  0.00000000000E+00  0.99999998245E-14  0.12500000000E+03  0.12500000000E+03 0.  0.
        -11    1    3    3    0    0 -0.20437288785E+02  0.11619002758E+00  0.30138093699E+02  0.36414296163E+02  0.51100000000E-03 0.  1.
         23    2    1    0    0    0  0.67580664313E+00 -0.20619600412E+02 -0.21040448429E+02  0.95532643385E+02  0.90874423500E+02 0.  0.
         11    1    3    3    0    0  0.21113095428E+02 -0.20735790439E+02 -0.51178542128E+02  0.59118347222E+02  0.51100000000E-03 0. -1.
         22    1    1    0    0    0 -0.67580664313E+00  0.20619600412E+02  0.21040448429E+02  0.29467356615E+02  0.00000000000E+00 0. -1.
</event>
<event>
 5    1  0.1691138E-003  0.9118800E+02  0.7818608E-02  0.1130116E+00
         25   -1    0    0    0    0  0.00000000000E+00  0.00000000000E+00  0.99999998245E-14  0.12500000000E+03  0.12500000000E+03 0.  0.
        -11    1    3    3    0    0 -0.46073033267E+00 -0.19149863795E+02  0.28607807919E+02  0.34428712291E+02  0.51100000000E-03 0.  1.
         23    2    1    0    0    0 -0.10888655637E+02  0.27015523848E+02 -0.85976126291E+01  0.94630273407E+02  0.89624596802E+02 0.  0.
         11    1    3    3    0    0 -0.10427925305E+02  0.46165387644E+02 -0.37205420548E+02  0.60201561117E+02  0.51100000000E-03 0. -1.
         22    1    1    0    0    0  0.10888655637E+02 -0.27015523848E+02  0.85976126291E+01  0.30369726593E+02  0.00000000000E+00 0.  1.
</event>
<event>
 5    1  0.1691138E-003  0.9118800E+02  0.7818608E-02  0.1130116E+00
         25   -1    0    0    0    0  0.00000000000E+00  0.00000000000E+00  0.99999998245E-14  0.12500000000E+03  0.12500000000E+03 0.  0.
        -11    1    3    3    0    0  0.18475452408E+02 -0.36017416489E+02 -0.30241915127E+02  0.50528903244E+02  0.51100000000E-03 0.  1.
         23    2    1    0    0    0 -0.19496473982E+02 -0.13930930912E+02 -0.13164660539E+02  0.97659707008E+02  0.93754609231E+02 0.  0.
         11    1    3    3    0    0 -0.37971926390E+02  0.22086485578E+02  0.17077254588E+02  0.47130803764E+02  0.51100000000E-03 0. -1.
         22    1    1    0    0    0  0.19496473982E+02  0.13930930912E+02  0.13164660539E+02  0.27340292992E+02  0.00000000000E+00 0.  1.
</event>
<event>
 5    1  0.1691138E-003  0.9118800E+02  0.7818608E-02  0.1130116E+00
         25   -1    0    0    0    0  0.00000000000E+00  0.00000000000E+00  0.99999998245E-14  0.12500000000E+03  0.12500000000E+03 0.  0.
        -11    1    3    3    0    0 -0.14553606502E+02  0.47361990246E+02 -0.67045530531E+01  0.49999166135E+02  0.51100000000E-03 0. -1.
         23    2    1    0    0    0 -0.11894786810E+02  0.97109324049E+01 -0.27801483483E+02  0.93239794628E+02  0.87663838936E+02 0.  0.
         11    1    3    3    0    0  0.26588196916E+01 -0.37651057841E+02 -0.21096930429E+02  0.43240628493E+02  0.51100000000E-03 0.  1.
         22    1    1    0    0    0  0.11894786810E+02 -0.97109324049E+01  0.27801483483E+02  0.31760205372E+02  0.00000000000E+00 0. -1.
</event>
<event>
 5    1  0.1691138E-003  0.9118800E+02  0.7818608E-02  0.1130116E+00
         25   -1    0    0    0    0  0.00000000000E+00  0.00000000000E+00  0.99999998245E-14  0.12500000000E+03  0.12500000000E+03 0.  0.
        -11    1    3    3    0    0  0.48164634499E+02  0.30736721333E+02 -0.16540694354E+02  0.59482540503E+02  0.51100000000E-03 0.  1.
         23    2    1    0    0    0  0.22038440408E+02  0.19732452543E+02  0.48855530911E+01  0.95017819159E+02  0.90163489228E+02 0.  0.
         11    1    3    3    0    0 -0.26126194091E+02 -0.11004268790E+02  0.21426247445E+02  0.35535278656E+02  0.51100000000E-03 0. -1.
         22    1    1    0    0    0 -0.22038440408E+02 -0.19732452543E+02 -0.48855530911E+01  0.29982180841E+02  0.00000000000E+00 0.  1.
</event>
<event>
 5    1  0.1691138E-003  0.9118800E+02  0.7818608E-02  0.1130116E+00
         25   -1    0    0    0    0  0.00000000000E+00  0.00000000000E+00  0.99999998245E-14  0.12500000000E+03  0.12500000000E+03 0.  0.
        -11    1    3    3    0    0  0.50247687076E+01  0.88394272134E+01 -0.33380328043E+02  0.34894556517E+02  0.51100000000E-03 0. -1.
         23    2    1    0    0    0  0.12969298352E+02 -0.16704976546E+02  0.20811069338E+02  0.95329146489E+02  0.90594076087E+02 0.  0.
         11    1    3    3    0    0  0.79445296439E+01 -0.25544403759E+02  0.54191397381E+02  0.60434589971E+02  0.51100000000E-03 0.  1.
         22    1    1    0    0    0 -0.12969298352E+02  0.16704976546E+02 -0.20811069338E+02  0.29670853511E+02  0.00000000000E+00 0.  1.
</event>
<event>
 5    1  0.1691138E-003  0.9118800E+02  0.7818608E-02  0.1130116E+00
         25   -1    0    0    0    0  0.00000000000E+00  0.00000000000E+00  0.99999998245E-14  0.12500000000E+03  0.12500000000E+03 0.  0.
        -11    1    3    3    0    0  0.11264647135E+02  0.61454626935E+01 -0.30750329368E+02  0.33320290264E+02  0.51100000000E-03 0.  1.
         23    2    1    0    0    0 -0.10160762506E+02 -0.63216060998E+01  0.26618343458E+02  0.95815414911E+02  0.91262553809E+02 0.  0.
         11    1    3    3    0    0 -0.21425409641E+02 -0.12467068793E+02  0.57368672826E+02  0.62495124647E+02  0.51100000000E-03 0. -1.
         22    1    1    0    0    0  0.10160762506E+02  0.63216060998E+01 -0.26618343458E+02  0.29184585089E+02  0.00000000000E+00 0. -1.
</event>
<event>
 5    1  0.1691138E-003  0.9118800E+02  0.7818608E-02  0.1130116E+00
         25   -1    0    0    0    0  0.00000000000E+00  0.00000000000E+00  0.99999998245E-14  0.12500000000E+03  0.12500000000E+03 0.  0.
        -11    1    3    3    0    0  0.70149710265E+01 -0.49998547844E+02  0.28577783258E+02  0.58015121315E+02  0.51100000000E-03 0.  1.
         23    2    1    0    0    0 -0.11939227183E+02 -0.26073933323E+02  0.67525905325E+01  0.95538285462E+02  0.90882183982E+02 0.  0.
         11    1    3    3    0    0 -0.18954198210E+02  0.23924614521E+02 -0.21825192726E+02  0.37523164146E+02  0.51100000000E-03 0. -1.
         22    1    1    0    0    0  0.11939227183E+02  0.26073933323E+02 -0.67525905325E+01  0.29461714538E+02  0.00000000000E+00 0.  1.
</event>
<event>
 5    1  0.1691138E-003  0.9118800E+02  0.7818608E-02  0.1130116E+00
         25   -1    0    0    0    0  0.00000000000E+00  0.00000000000E+00  0.99999998245E-14  0.12500000000E+03  0.12500000000E+03 0.  0.
        -11    1    3    3    0    0 -0.85849590308E+01 -0.13261139579E+02 -0.32357189051E+02  0.36007596810E+02  0.51100000000E-03 0. -1.
         23    2    1    0    0    0  0.18743261163E+02  0.11204320361E+02  0.16875904842E+02  0.97402123306E+02  0.93410549867E+02 0.  0.
         11    1    3    3    0    0  0.27328220194E+02  0.24465459941E+02  0.49233093893E+02  0.61394526496E+02  0.51100000000E-03 0.  1.
         22    1    1    0    0    0 -0.18743261163E+02 -0.11204320361E+02 -0.16875904842E+02  0.27597876694E+02  0.00000000000E+00 0.  1.
</event>
<event>
 5    1  0.1691138E-003  0.9118800E+02  0.7818608E-02  0.1130116E+00
         25   -1    0    0    0    0  0.00000000000E+00  0.00000000000E+00  0.99999998245E-14  0.12500000000E+03  0.12500000000E+03 0.  0.
        -11    1    3    3    0    0  0.10481380941E+02 -0.15312105981E+02 -0.32957999848E+02  0.37822608189E+02  0.51100000000E-03 0.  1.
         23    2    1    0    0    0 -0.31575282794E+02  0.17645922400E+01 -0.95585841534E+00  0.93361006106E+02  0.87836504522E+02 0.  0.
         11    1    3    3    0    0 -0.42056663735E+02  0.17076698221E+02  0.32002141433E+02  0.55538397917E+02  0.51100000000E-03 0. -1.
         22    1    1    0    0    0  0.31575282794E+02 -0.17645922400E+01  0.95585841534E+00  0.31638993894E+02  0.00000000000E+00 0. -1.
</event>
<event>
 5    1  0.1691138E-003  0.9118800E+02  0.7818608E-02  0.1130116E+00
         25   -1    0    0    0    0  0.00000000000E+00  0.00000000000E+00  0.99999998245E-14  0.12500000000E+03  0.12500000000E+03 0.  0.
        -11    1    3    3    0    0 -0.19487120868E+02  0.24858606727E+02 -0.14809301672E+02  0.34885722357E+02  0.51100000000E-03 0. -1.
         23    2    1    0    0    0 -0.11201176855E+02 -0.28843434529E+02  0.67263729016E+01  0.93335285083E+02  0.87799893341E+02 0.  0.
         11    1    3    3    0    0  0.82859440123E+01 -0.53702041256E+02  0.21535674573E+02  0.58449562726E+02  0.51100000000E-03 0.  1.
         22    1    1    0    0    0  0.11201176855E+02  0.28843434529E+02 -0.67263729016E+01  0.31664714917E+02  0.00000000000E+00 0. -1.
</event>
<event>
 5    1  0.1691138E-003  0.9118800E+02  0.7818608E-02  0.1130116E+00
         25   -1    0    0    0    0  0.00000000000E+00  0.00000000000E+00  0.99999998245E-14  0.12500000000E+03  0.12500000000E+03 0.  0.
        -11    1    3    3    0    0 -0.26718563942E+02 -0.29138206785E+02  0.56591496211E+01  0.39936734074E+02  0.51100000000E-03 0. -1.
         23    2    1    0    0    0 -0.22284275521E+02  0.20943437404E+02 -0.10371081404E+02  0.92707960187E+02  0.86902186662E+02 0.  0.
         11    1    3    3    0    0  0.44342884207E+01  0.50081644189E+02 -0.16030231026E+02  0.52771226113E+02  0.51100000000E-03 0.  1.
         22    1    1    0    0    0  0.22284275521E+02 -0.20943437404E+02  0.10371081404E+02  0.32292039813E+02  0.00000000000E+00 0.  1.
</event>
<event>
 5    1  0.1691138E-003  0.9118800E+02  0.7818608E-02  0.1130116E+00
         25   -1    0    0    0    0  0.00000000000E+00  0.00000000000E+00  0.99999998245E-14  0.12500000000E+03  0.12500000000E+03 0.  0.
        -11    1    3    3    0    0 -0.25517573159E+02 -0.41448331896E+02 -0.12383821760E+02  0.50224195350E+02  0.51100000000E-03 0.  1.
         23    2    1    0    0    0  0.15694736954E+02 -0.24680097284E+02 -0.46146338742E+01  0.95390426957E+02  0.90678590302E+02 0.  0.
         11    1    3    3    0    0  0.41212310113E+02  0.16768234612E+02  0.77691878856E+01  0.45166231607E+02  0.51100000000E-03 0. -1.
         22    1    1    0    0    0 -0.15694736954E+02  0.24680097284E+02  0.46146338742E+01  0.29609573043E+02  0.00000000000E+00 0.  1.
</event>
<event>
 5    1  0.1691138E-003  0.9118800E+02  0.7818608E-02  0.1130116E+00
         25   -1    0    0    0    0  0.00000000000E+00  0.00000000000E+00  0.99999998245E-14  0.12500000000E+03  0.12500000000E+03 0.  0.
        -11    1    3    3    0    0  0.35307844188E+01  0.35730392480E+02  0.47468811841E+02  0.59518194556E+02  0.51100000000E-03 0.  1.
         23    2    1    0    0    0 -0.11986402406E+02  0.15145062792E+02  0.21118880196E+02  0.96380882782E+02  0.92033801918E+02 0.  0.
         11    1    3    3    0    0 -0.15517186825E+02 -0.20585329688E+02 -0.26349931645E+02  0.36862688226E+02  0.51100000000E-03 0. -1.
         22    1    1    0    0    0  0.11986402406E+02 -0.15145062792E+02 -0.21118880196E+02  0.28619117218E+02  0.00000000000E+00 0.  1.
</event>
<event>
 5    1  0.1691138E-003  0.9118800E+02  0.7818608E-02  0.1130116E+00
         25   -1    0    0    0    0  0.00000000000E+00  0.00000000000E+00  0.99999998245E-14  0.12500000000E+03  0.12500000000E+03 0.  0.
        -11    1    3    3    0    0 -0.21527822949E+02 -0.42062753368E+02 -0.29658940414E+02  0.55788664875E+02  0.51100000000E-03 0.  1.
         23    2    1    0    0    0 -0.19472884372E+02 -0.29185885874E+01 -0.21535642999E+02  0.95819607534E+02  0.91268296157E+02 0.  0.
         11    1    3    3    0    0  0.20549385770E+01  0.39144164781E+02  0.81232974144E+01  0.40030942658E+02  0.51100000000E-03 0. -1.
         22    1    1    0    0    0  0.19472884372E+02  0.29185885874E+01  0.21535642999E+02  0.29180392466E+02  0.00000000000E+00 0.  1.
</event>
<event>
 5    1  0.1691138E-003  0.9118800E+02  0.7818608E-02  0.1130116E+00
         25   -1    0    0    0    0  0.00000000000E+00  0.00000000000E+00  0.99999998245E-14  0.12500000000E+03  0.12500000000E+03 0.  0.
        -11    1    3    3    0    0  0.24565337382E+02  0.32286287290E+01 -0.49010250012E+02  0.54917068846E+02  0.51100000000E-03 0. -1.
         23    2    1    0    0    0  0.42402801549E+00 -0.17541677784E+02 -0.23213119554E+02  0.95901216887E+02  0.91379999025E+02 0.  0.
         11    1    3    3    0    0 -0.24141309367E+02 -0.20770306512E+02  0.25797130458E+02  0.40984148041E+02  0.51100000000E-03 0.  1.
         22    1    1    0    0    0 -0.42402801549E+00  0.17541677784E+02  0.23213119554E+02  0.29098783113E+02  0.00000000000E+00 0. -1.
</event>
<event>
 5    1  0.1691138E-003  0.9118800E+02  0.7818608E-02  0.1130116E+00
         25   -1    0    0    0    0  0.00000000000E+00  0.00000000000E+00  0.99999998245E-14  0.12500000000E+03  0.12500000000E+03 0.  0.
        -11    1    3    3    0    0  0.23001300986E+02 -0.36569925880E+02 -0.44388612234E+02  0.61941651756E+02  0.51100000000E-03 0.  1.
         23    2    1    0    0    0  0.11838326631E+02 -0.11108323600E+02 -0.22121869536E+02  0.97560649745E+02  0.93622446221E+02 0.  0.
         11    1    3    3    0    0 -0.11162974355E+02  0.25461602280E+02  0.22266742698E+02  0.35618997989E+02  0.51100000000E-03 0. -1.
         22    1    1    0    0    0 -0.11838326631E+02  0.11108323600E+02  0.22121869536E+02  0.27439350255E+02  0.00000000000E+00 0.  1.
</event>
<event>
 5    1  0.1691138E-003  0.9118800E+02  0.7818608E-02  0.1130116E+00
         25   -1    0    0    0    0  0.00000000000E+00  0.00000000000E+00  0.99999998245E-14  0.12500000000E+03  0.12500000000E+03 0.  0.
        -11    1    3    3    0    0 -0.15201602741E+02  0.46906874545E+02 -0.12678537849E+02  0.50912561591E+02  0.51100000000E-03 0.  1.
         23    2    1    0    0    0 -0.27777825055E+02  0.84486416632E+01  0.57958965602E+01  0.95392914232E+02  0.90682018935E+02 0.  0.
         11    1    3    3    0    0 -0.12576222314E+02 -0.38458232882E+02  0.18474434409E+02  0.44480352641E+02  0.51100000000E-03 0. -1.
         22    1    1    0    0    0  0.27777825055E+02 -0.84486416632E+01 -0.57958965602E+01  0.29607085768E+02  0.00000000000E+00 0. -1.
</event>
<event>
 5    1  0.1691138E-003  0.9118800E+02  0.7818608E-02  0.1130116E+00
         25   -1    0    0    0    0  0.00000000000E+00  0.00000000000E+00  0.99999998245E-14  0.12500000000E+03  0.12500000000E+03 0.  0.
        -11    1    3    3    0    0 -0.98005429872E+01  0.33553252337E+02 -0.40385446852E+02  0.53412130672E+02  0.51100000000E-03 0. -1.
         23    2    1    0    0    0  0.15956744630E+02  0.21493204272E+02 -0.32438741849E+02  0.82942331237E+02  0.71488340373E+02 0.  0.
         11    1    3    3    0    0  0.25757287617E+02 -0.12060048066E+02  0.79467050034E+01  0.29530200565E+02  0.51100000000E-03 0.  1.
         22    1    1    0    0    0 -0.15956744630E+02 -0.21493204272E+02  0.32438741849E+02  0.42057668763E+02  0.00000000000E+00 0. -1.
</event>
<event>
 5    1  0.1691138E-003  0.9118800E+02  0.7818608E-02  0.1130116E+00
         25   -1    0    0    0    0  0.00000000000E+00  0.00000000000E+00  0.99999998245E-14  0.12500000000E+03  0.12500000000E+03 0.  0.
        -11    1    3    3    0    0  0.22555630965E+02  0.88427428111E+01 -0.52137316365E+02  0.57491306705E+02  0.51100000000E-03 0.  1.
         23    2    1    0    0    0  0.43614201317E+01  0.20387331376E+02 -0.20568423640E+02  0.95713052101E+02  0.91122242210E+02 0.  0.
         11    1    3    3    0    0 -0.18194210834E+02  0.11544588565E+02  0.31568892725E+02  0.38221745396E+02  0.51100000000E-03 0. -1.
         22    1    1    0    0    0 -0.43614201317E+01 -0.20387331376E+02  0.20568423640E+02  0.29286947899E+02  0.00000000000E+00 0.  1.
</event>
<event>
 5    1  0.1691138E-003  0.9118800E+02  0.7818608E-02  0.1130116E+00
         25   -1    0    0    0    0  0.00000000000E+00  0.00000000000E+00  0.99999998245E-14  0.12500000000E+03  0.12500000000E+03 0.  0.
        -11    1    3    3    0    0 -0.55491771257E+01  0.33765843960E+02  0.31459969379E+01  0.34363103499E+02  0.51100000000E-03 0. -1.
         23    2    1    0    0    0 -0.84778534142E+01 -0.25685960927E+02 -0.11413389773E+02  0.95641729387E+02  0.91024350296E+02 0.  0.
         11    1    3    3    0    0 -0.29286762885E+01 -0.59451804887E+02 -0.14559386710E+02  0.61278625888E+02  0.51100000000E-03 0.  1.
         22    1    1    0    0    0  0.84778534142E+01  0.25685960927E+02  0.11413389773E+02  0.29358270613E+02  0.00000000000E+00 0.  1.
</event>
<event>
 5    1  0.1691138E-003  0.9118800E+02  0.7818608E-02  0.1130116E+00
         25   -1    0    0    0    0  0.00000000000E+00  0.00000000000E+00  0.99999998245E-14  0.12500000000E+03  0.12500000000E+03 0.  0.
        -11    1    3    3    0    0 -0.38081389413E+02  0.14112896970E+02  0.12970582594E+02  0.42633344856E+02  0.51100000000E-03 0. -1.
         23    2    1    0    0    0 -0.30033358203E+01 -0.26452729043E+02  0.10692233213E+02  0.96310441778E+02  0.91938079404E+02 0.  0.
         11    1    3    3    0    0  0.35078053593E+02 -0.40565626014E+02 -0.22783493810E+01  0.53677096922E+02  0.51100000000E-03 0.  1.
         22    1    1    0    0    0  0.30033358203E+01  0.26452729043E+02 -0.10692233213E+02  0.28689558222E+02  0.00000000000E+00 0.  1.
</event>
<event>
 5    1  0.1691138E-003  0.9118800E+02  0.7818608E-02  0.1130116E+00
         25   -1    0    0    0    0  0.00000000000E+00  0.00000000000E+00  0.99999998245E-14  0.12500000000E+03  0.12500000000E+03 0.  0.
        -11    1    3    3    0    0 -0.13051876180E+01 -0.52527861897E+02 -0.19876033038E+02  0.56177722273E+02  0.51100000000E-03 0. -1.
         23    2    1    0    0    0 -0.15953800754E+02 -0.15923284539E+02 -0.18847484033E+02  0.95617991842E+02  0.90991746661E+02 0.  0.
         11    1    3    3    0    0 -0.14648613136E+02  0.36604577358E+02  0.10285490052E+01  0.39440269569E+02  0.51100000000E-03 0.  1.
         22    1    1    0    0    0  0.15953800754E+02  0.15923284539E+02  0.18847484033E+02  0.29382008158E+02  0.00000000000E+00 0. -1.
</event>
<event>
 5    1  0.1691138E-003  0.9118800E+02  0.7818608E-02  0.1130116E+00
         25   -1    0    0    0    0  0.00000000000E+00  0.00000000000E+00  0.99999998245E-14  0.12500000000E+03  0.12500000000E+03 0.  0.
        -11    1    3    3    0    0  0.10695988870E+02  0.10256786614E+02 -0.51003056077E+02  0.53112310993E+02  0.51100000000E-03 0. -1.
         23    2    1    0    0    0 -0.81279282940E+01 -0.16138964579E+02 -0.21128016435E+02  0.97198516685E+02  0.93137689317E+02 0.  0.
         11    1    3    3    0    0 -0.18823917164E+02 -0.26395751192E+02  0.29875039643E+02  0.44086205692E+02  0.51100000000E-03 0.  1.
         22    1    1    0    0    0  0.81279282940E+01  0.16138964579E+02  0.21128016435E+02  0.27801483315E+02  0.00000000000E+00 0.  1.
</event>
<event>
 5    1  0.1691138E-003  0.9118800E+02  0.7818608E-02  0.1130116E+00
         25   -1    0    0    0    0  0.00000000000E+00  0.00000000000E+00  0.99999998245E-14  0.12500000000E+03  0.12500000000E+03 0.  0.
        -11    1    3    3    0    0  0.24621373097E+02  0.97388680252E+00 -0.23514310682E+02  0.34059995241E+02  0.51100000000E-03 0. -1.
         23    2    1    0    0    0 -0.27135055279E+02  0.58375418379E+01  0.95249775181E+01  0.95655267655E+02  0.91042939944E+02 0.  0.
         11    1    3    3    0    0 -0.51756428377E+02  0.48636550354E+01  0.33039288201E+02  0.61595272413E+02  0.51100000000E-03 0.  1.
         22    1    1    0    0    0  0.27135055279E+02 -0.58375418379E+01 -0.95249775181E+01  0.29344732345E+02  0.00000000000E+00 0.  1.
</event>
<event>
 5    1  0.1691138E-003  0.9118800E+02  0.7818608E-02  0.1130116E+00
         25   -1    0    0    0    0  0.00000000000E+00  0.00000000000E+00  0.99999998245E-14  0.12500000000E+03  0.12500000000E+03 0.  0.
        -11    1    3    3    0    0 -0.75232707708E+01 -0.49470398556E+02 -0.35140579204E+02  0.61145566016E+02  0.51100000000E-03 0.  1.
         23    2    1    0    0    0 -0.55944957061E+01 -0.17058672765E+02 -0.23029306922E+02  0.95799902808E+02  0.91241304802E+02 0.  0.
         11    1    3    3    0    0  0.19287750647E+01  0.32411725790E+02  0.12111272282E+02  0.34654336792E+02  0.51100000000E-03 0. -1.
         22    1    1    0    0    0  0.55944957061E+01  0.17058672765E+02  0.23029306922E+02  0.29200097192E+02  0.00000000000E+00 0.  1.
</event>
<event>
 5    1  0.1691138E-003  0.9118800E+02  0.7818608E-02  0.1130116E+00
         25   -1    0    0    0    0  0.00000000000E+00  0.00000000000E+00  0.99999998245E-14  0.12500000000E+03  0.12500000000E+03 0.  0.
        -11    1    3    3    0    0  0.16013069588E+02 -0.28438387881E+02 -0.23285945104E+02  0.40092337704E+02  0.51100000000E-03 0. -1.
         23    2    1    0    0    0 -0.60725713212E+01 -0.72013459258E+01  0.25563781901E+02  0.97755873097E+02  0.93882736828E+02 0.  0.
         11    1    3    3    0    0 -0.22085640910E+02  0.21237041955E+02  0.48849727005E+02  0.57663535394E+02  0.51100000000E-03 0.  1.
         22    1    1    0    0    0  0.60725713212E+01  0.72013459258E+01 -0.25563781901E+02  0.27244126903E+02  0.00000000000E+00 0.  1.
</event>
<event>
 5    1  0.1691138E-003  0.9118800E+02  0.7818608E-02  0.1130116E+00
         25   -1    0    0    0    0  0.00000000000E+00  0.00000000000E+00  0.99999998245E-14  0.12500000000E+03  0.12500000000E+03 0.  0.
        -11    1    3    3    0    0 -0.31450221427E+01  0.39950102021E+02 -0.21519837603E+01  0.40131444656E+02  0.51100000000E-03 0. -1.
         23    2    1    0    0    0  0.12520296692E+02 -0.72357028325E+01  0.24505985011E+02  0.96545535920E+02  0.92257162215E+02 0.  0.
         11    1    3    3    0    0  0.15665318834E+02 -0.47185804854E+02  0.26657968772E+02  0.56414091264E+02  0.51100000000E-03 0.  1.
         22    1    1    0    0    0 -0.12520296692E+02  0.72357028325E+01 -0.24505985011E+02  0.28454464080E+02  0.00000000000E+00 0.  1.
</event>
<event>
 5    1  0.1691138E-003  0.9118800E+02  0.7818608E-02  0.1130116E+00
         25   -1    0    0    0    0  0.00000000000E+00  0.00000000000E+00  0.99999998245E-14  0.12500000000E+03  0.12500000000E+03 0.  0.
        -11    1    3    3    0    0  0.40087062918E+02  0.43484527965E+02 -0.18255994734E+02  0.61896349890E+02  0.51100000000E-03 0.  1.
         23    2    1    0    0    0  0.14037349924E+02  0.24178022660E+02 -0.93303692902E+01  0.95526626190E+02  0.90866146323E+02 0.  0.
         11    1    3    3    0    0 -0.26049712994E+02 -0.19306505306E+02  0.89256254434E+01  0.33630276300E+02  0.51100000000E-03 0. -1.
         22    1    1    0    0    0 -0.14037349924E+02 -0.24178022660E+02  0.93303692902E+01  0.29473373810E+02  0.00000000000E+00 0.  1.
</event>
<event>
 5    1  0.1691138E-003  0.9118800E+02  0.7818608E-02  0.1130116E+00
         25   -1    0    0    0    0  0.00000000000E+00  0.00000000000E+00  0.99999998245E-14  0.12500000000E+03  0.12500000000E+03 0.  0.
        -11    1    3    3    0    0  0.32666011784E+02 -0.19579772471E+01 -0.37020652475E+02  0.49410835965E+02  0.51100000000E-03 0.  1.
         23    2    1    0    0    0 -0.11664971091E+02  0.45256769888E+01 -0.26885618323E+02  0.95345493170E+02  0.90616628123E+02 0.  0.
         11    1    3    3    0    0 -0.44330982876E+02  0.64836542359E+01  0.10135034153E+02  0.45934657205E+02  0.51100000000E-03 0. -1.
         22    1    1    0    0    0  0.11664971091E+02 -0.45256769888E+01  0.26885618323E+02  0.29654506830E+02  0.00000000000E+00 0. -1.
</event>
<event>
 5    1  0.1691138E-003  0.9118800E+02  0.7818608E-02  0.1130116E+00
         25   -1    0    0    0    0  0.00000000000E+00  0.00000000000E+00  0.99999998245E-14  0.12500000000E+03  0.12500000000E+03 0.  0.
        -11    1    3    3    0    0 -0.30400594447E+02  0.16295383798E+02 -0.32625458205E+02  0.47477954876E+02  0.51100000000E-03 0.  1.
         23    2    1    0    0    0  0.14740109648E+02 -0.50753965622E+00 -0.24612804783E+02  0.96306471318E+02  0.91932680965E+02 0.  0.
         11    1    3    3    0    0  0.45140704095E+02 -0.16802923454E+02  0.80126534222E+01  0.48828516442E+02  0.51100000000E-03 0. -1.
         22    1    1    0    0    0 -0.14740109648E+02  0.50753965622E+00  0.24612804783E+02  0.28693528682E+02  0.00000000000E+00 0. -1.
</event>
<event>
 5    1  0.1691138E-003  0.9118800E+02  0.7818608E-02  0.1130116E+00
         25   -1    0    0    0    0  0.00000000000E+00  0.00000000000E+00  0.99999998245E-14  0.12500000000E+03  0.12500000000E+03 0.  0.
        -11    1    3    3    0    0  0.54033231307E+02  0.25657070139E+02 -0.49068963629E+01  0.60016272508E+02  0.51100000000E-03 0.  1.
         23    2    1    0    0    0  0.20761603757E+02  0.16427203148E+02  0.87057314759E+01  0.97130896061E+02  0.93046891487E+02 0.  0.
         11    1    3    3    0    0 -0.33271627551E+02 -0.92298669908E+01  0.13612627839E+02  0.37114623553E+02  0.51100000000E-03 0. -1.
         22    1    1    0    0    0 -0.20761603757E+02 -0.16427203148E+02 -0.87057314759E+01  0.27869103939E+02  0.00000000000E+00 0.  1.
</event>
<event>
 5    1  0.1691138E-003  0.9118800E+02  0.7818608E-02  0.1130116E+00
         25   -1    0    0    0    0  0.00000000000E+00  0.00000000000E+00  0.99999998245E-14  0.12500000000E+03  0.12500000000E+03 0.  0.
        -11    1    3    3    0    0  0.39618656369E+02  0.41602252968E+02 -0.74187574165E+01  0.57926016144E+02  0.51100000000E-03 0. -1.
         23    2    1    0    0    0  0.17002304076E+02  0.13356610565E+02 -0.19306778961E+02  0.96013294366E+02  0.91533183008E+02 0.  0.
         11    1    3    3    0    0 -0.22616352293E+02 -0.28245642403E+02 -0.11888021544E+02  0.38087278222E+02  0.51100000000E-03 0.  1.
         22    1    1    0    0    0 -0.17002304076E+02 -0.13356610565E+02  0.19306778961E+02  0.28986705634E+02  0.00000000000E+00 0. -1.
</event>
<event>
 5    1  0.1691138E-003  0.9118800E+02  0.7818608E-02  0.1130116E+00
         25   -1    0    0    0    0  0.00000000000E+00  0.00000000000E+00  0.99999998245E-14  0.12500000000E+03  0.12500000000E+03 0.  0.
        -11    1    3    3    0    0 -0.22474299022E+02  0.93569053052E+01 -0.38292266811E+02  0.45375582544E+02  0.51100000000E-03 0. -1.
         23    2    1    0    0    0  0.21985132894E+02 -0.39527637760E+01 -0.19150063379E+02  0.95577298947E+02  0.90935827575E+02 0.  0.
         11    1    3    3    0    0  0.44459431916E+02 -0.13309669081E+02  0.19142203432E+02  0.50201716403E+02  0.51100000000E-03 0.  1.
         22    1    1    0    0    0 -0.21985132894E+02  0.39527637760E+01  0.19150063379E+02  0.29422701053E+02  0.00000000000E+00 0.  1.
</event>
<event>
 5    1  0.1691138E-003  0.9118800E+02  0.7818608E-02  0.1130116E+00
         25   -1    0    0    0    0  0.00000000000E+00  0.00000000000E+00  0.99999998245E-14  0.12500000000E+03  0.12500000000E+03 0.  0.
        -11    1    3    3    0    0  0.37561508710E+02  0.48726724121E+01  0.30146232793E+02  0.48408730875E+02  0.51100000000E-03 0.  1.
         23    2    1    0    0    0  0.82964519053E+01  0.29775098182E+02  0.68649470957E+01  0.93337481392E+02  0.87803020153E+02 0.  0.
         11    1    3    3    0    0 -0.29265056805E+02  0.24902425770E+02 -0.23281285698E+02  0.44928750517E+02  0.51100000000E-03 0. -1.
         22    1    1    0    0    0 -0.82964519053E+01 -0.29775098182E+02 -0.68649470957E+01  0.31662518608E+02  0.00000000000E+00 0.  1.
</event>
<event>
 5    1  0.1691138E-003  0.9118800E+02  0.7818608E-02  0.1130116E+00
         25   -1    0    0    0    0  0.00000000000E+00  0.00000000000E+00  0.99999998245E-14  0.12500000000E+03  0.12500000000E+03 0.  0.
        -11    1    3    3    0    0 -0.36827918078E+02 -0.93174065141E+01  0.38280088709E+02  0.53930277265E+02  0.51100000000E-03 0. -1.
         23    2    1    0    0    0 -0.20208427820E+02 -0.28039699271E+02  0.25570415218E+02  0.82006379257E+02  0.69832619987E+02 0.  0.
         11    1    3    3    0    0  0.16619490258E+02 -0.18722292757E+02 -0.12709673491E+02  0.28076101991E+02  0.51100000000E-03 0.  1.
         22    1    1    0    0    0  0.20208427820E+02  0.28039699271E+02 -0.25570415218E+02  0.42993620743E+02  0.00000000000E+00 0. -1.
</event>
<event>
 5    1  0.1691138E-003  0.9118800E+02  0.7818608E-02  0.1130116E+00
         25   -1    0    0    0    0  0.00000000000E+00  0.00000000000E+00  0.99999998245E-14  0.12500000000E+03  0.12500000000E+03 0.  0.
        -11    1    3    3    0    0  0.17142609234E+02  0.23048087173E+02 -0.28751369377E+02  0.40641415022E+02  0.51100000000E-03 0. -1.
         23    2    1    0    0    0 -0.15705314882E+02  0.17819929632E+02  0.15971253927E+02  0.96376796832E+02  0.92028252227E+02 0.  0.
         11    1    3    3    0    0 -0.32847924116E+02 -0.52281575416E+01  0.44722623304E+02  0.55735381809E+02  0.51100000000E-03 0.  1.
         22    1    1    0    0    0  0.15705314882E+02 -0.17819929632E+02 -0.15971253927E+02  0.28623203168E+02  0.00000000000E+00 0.  1.
</event>
<event>
 5    1  0.1691138E-003  0.9118800E+02  0.7818608E-02  0.1130116E+00
         25   -1    0    0    0    0  0.00000000000E+00  0.00000000000E+00  0.99999998245E-14  0.12500000000E+03  0.12500000000E+03 0.  0.
        -11    1    3    3    0    0 -0.95035870355E+00 -0.25954287846E+02  0.20130159302E+02  0.32859573233E+02  0.51100000000E-03 0. -1.
         23    2    1    0    0    0 -0.16021325003E+02  0.10275794627E+02 -0.25588634647E+02  0.93108731083E+02  0.87476755602E+02 0.  0.
         11    1    3    3    0    0 -0.15070966299E+02  0.36230082473E+02 -0.45718793949E+02  0.60249157850E+02  0.51100000000E-03 0.  1.
         22    1    1    0    0    0  0.16021325003E+02 -0.10275794627E+02  0.25588634647E+02  0.31891268917E+02  0.00000000000E+00 0.  1.
</event>
<event>
 5    1  0.1691138E-003  0.9118800E+02  0.7818608E-02  0.1130116E+00
         25   -1    0    0    0    0  0.00000000000E+00  0.00000000000E+00  0.99999998245E-14  0.12500000000E+03  0.12500000000E+03 0.  0.
        -11    1    3    3    0    0  0.68079405343E+01 -0.51528730614E+02  0.22918938687E+02  0.56805245214E+02  0.51100000000E-03 0. -1.
         23    2    1    0    0    0 -0.15606126000E+02 -0.22290489134E+02  0.72491260111E+01  0.96840331989E+02  0.92655722960E+02 0.  0.
         11    1    3    3    0    0 -0.22414066535E+02  0.29238241481E+02 -0.15669812676E+02  0.40035086775E+02  0.51100000000E-03 0.  1.
         22    1    1    0    0    0  0.15606126000E+02  0.22290489134E+02 -0.72491260111E+01  0.28159668011E+02  0.00000000000E+00 0. -1.
</event>
<event>
 5    1  0.1691138E-003  0.9118800E+02  0.7818608E-02  0.1130116E+00
         25   -1    0    0    0    0  0.00000000000E+00  0.00000000000E+00  0.99999998245E-14  0.12500000000E+03  0.12500000000E+03 0.  0.
        -11    1    3    3    0    0  0.62363180391E+00 -0.46734849483E+02  0.43288564255E+01  0.46939046337E+02  0.51100000000E-03 0.  1.
         23    2    1    0    0    0  0.29451897671E+02 -0.19158897851E+02  0.12586700565E+02  0.87678388641E+02  0.79338497341E+02 0.  0.
         11    1    3    3    0    0  0.28828265867E+02  0.27575951631E+02  0.82578441396E+01  0.40739342304E+02  0.51100000000E-03 0. -1.
         22    1    1    0    0    0 -0.29451897671E+02  0.19158897851E+02 -0.12586700565E+02  0.37321611359E+02  0.00000000000E+00 0.  1.
</event>
<event>
 5    1  0.1691138E-003  0.9118800E+02  0.7818608E-02  0.1130116E+00
         25   -1    0    0    0    0  0.00000000000E+00  0.00000000000E+00  0.99999998245E-14  0.12500000000E+03  0.12500000000E+03 0.  0.
        -11    1    3    3    0    0 -0.88489670572E+01  0.31939695111E+02 -0.10141415296E+02  0.34659726575E+02  0.51100000000E-03 0.  1.
         23    2    1    0    0    0  0.15183769266E+02 -0.14961172783E+02  0.20337230109E+02  0.95538389917E+02  0.90882327651E+02 0.  0.
         11    1    3    3    0    0  0.24032736323E+02 -0.46900867894E+02  0.30478645405E+02  0.60878663342E+02  0.51100000000E-03 0. -1.
         22    1    1    0    0    0 -0.15183769266E+02  0.14961172783E+02 -0.20337230109E+02  0.29461610083E+02  0.00000000000E+00 0. -1.
</event>
<event>
 5    1  0.1691138E-003  0.9118800E+02  0.7818608E-02  0.1130116E+00
         25   -1    0    0    0    0  0.00000000000E+00  0.00000000000E+00  0.99999998245E-14  0.12500000000E+03  0.12500000000E+03 0.  0.
        -11    1    3    3    0    0  0.24196675585E+02  0.27633798378E+02 -0.51002908955E+01  0.37082595509E+02  0.51100000000E-03 0.  1.
         23    2    1    0    0    0 -0.18288029702E+00 -0.24829669417E+02 -0.15311634586E+02  0.95828231417E+02  0.91280106564E+02 0.  0.
         11    1    3    3    0    0 -0.24379555882E+02 -0.52463467795E+02 -0.10211343691E+02  0.58745635909E+02  0.51100000000E-03 0. -1.
         22    1    1    0    0    0  0.18288029702E+00  0.24829669417E+02  0.15311634586E+02  0.29171768583E+02  0.00000000000E+00 0. -1.
</event>
<event>
 5    1  0.1691138E-003  0.9118800E+02  0.7818608E-02  0.1130116E+00
         25   -1    0    0    0    0  0.00000000000E+00  0.00000000000E+00  0.99999998245E-14  0.12500000000E+03  0.12500000000E+03 0.  0.
        -11    1    3    3    0    0 -0.47659618118E+01  0.43865524773E+02 -0.10231432052E+01  0.44135535319E+02  0.51100000000E-03 0.  1.
         23    2    1    0    0    0  0.67493949002E+01  0.16200469185E+01 -0.28391814221E+02  0.95772033969E+02  0.91203116681E+02 0.  0.
         11    1    3    3    0    0  0.11515356712E+02 -0.42245477855E+02 -0.27368671016E+02  0.51636498650E+02  0.51100000000E-03 0. -1.
         22    1    1    0    0    0 -0.67493949002E+01 -0.16200469185E+01  0.28391814221E+02  0.29227966031E+02  0.00000000000E+00 0. -1.
</event>
<event>
 5    1  0.1691138E-003  0.9118800E+02  0.7818608E-02  0.1130116E+00
         25   -1    0    0    0    0  0.00000000000E+00  0.00000000000E+00  0.99999998245E-14  0.12500000000E+03  0.12500000000E+03 0.  0.
        -11    1    3    3    0    0  0.12061987557E+02 -0.32294534021E+02 -0.13540116944E+02  0.37037322238E+02  0.51100000000E-03 0.  1.
         23    2    1    0    0    0 -0.29402111158E+02  0.64000367078E+01 -0.26012845287E+01  0.94797164179E+02  0.89857058959E+02 0.  0.
         11    1    3    3    0    0 -0.41464098716E+02  0.38694570729E+02  0.10938832415E+02  0.57759841941E+02  0.51100000000E-03 0. -1.
         22    1    1    0    0    0  0.29402111158E+02 -0.64000367078E+01  0.26012845287E+01  0.30202835821E+02  0.00000000000E+00 0. -1.
</event>
<event>
 5    1  0.1691138E-003  0.9118800E+02  0.7818608E-02  0.1130116E+00
         25   -1    0    0    0    0  0.00000000000E+00  0.00000000000E+00  0.99999998245E-14  0.12500000000E+03  0.12500000000E+03 0.  0.
        -11    1    3    3    0    0  0.25323118376E+02 -0.21263361273E+02 -0.28259607486E+01  0.33186999131E+02  0.51100000000E-03 0.  1.
         23    2    1    0    0    0 -0.25011099282E+02  0.13993969532E+02  0.71900416182E+01  0.95452022590E+02  0.90763459869E+02 0.  0.
         11    1    3    3    0    0 -0.50334217658E+02  0.35257330805E+02  0.10016002367E+02  0.62265023459E+02  0.51100000000E-03 0. -1.
         22    1    1    0    0    0  0.25011099282E+02 -0.13993969532E+02 -0.71900416182E+01  0.29547977410E+02  0.00000000000E+00 0. -1.
</event>
<event>
 5    1  0.1691138E-003  0.9118800E+02  0.7818608E-02  0.1130116E+00
         25   -1    0    0    0    0  0.00000000000E+00  0.00000000000E+00  0.99999998245E-14  0.12500000000E+03  0.12500000000E+03 0.  0.
        -11    1    3    3    0    0  0.46456120229E+02  0.22626040489E+02  0.31809623163E+02  0.60679163977E+02  0.51100000000E-03 0.  1.
         23    2    1    0    0    0  0.20097022170E+02  0.19454601928E+02  0.91887285585E+01  0.95558455054E+02  0.90909921150E+02 0.  0.
         11    1    3    3    0    0 -0.26359098059E+02 -0.31714385609E+01 -0.22620894604E+02  0.34879291077E+02  0.51100000000E-03 0. -1.
         22    1    1    0    0    0 -0.20097022170E+02 -0.19454601928E+02 -0.91887285585E+01  0.29441544946E+02  0.00000000000E+00 0.  1.
</event>
<event>
 5    1  0.1691138E-003  0.9118800E+02  0.7818608E-02  0.1130116E+00
         25   -1    0    0    0    0  0.00000000000E+00  0.00000000000E+00  0.99999998245E-14  0.12500000000E+03  0.12500000000E+03 0.  0.
        -11    1    3    3    0    0  0.22621827613E+02  0.33588315262E+02  0.40783556235E+02  0.57473650190E+02  0.51100000000E-03 0.  1.
         23    2    1    0    0    0 -0.25427323707E+01  0.26014462715E+02  0.12685662794E+02  0.95945847134E+02  0.91441028994E+02 0.  0.
         11    1    3    3    0    0 -0.25164559984E+02 -0.75738525472E+01 -0.28097893441E+02  0.38472196944E+02  0.51100000000E-03 0. -1.
         22    1    1    0    0    0  0.25427323707E+01 -0.26014462715E+02 -0.12685662794E+02  0.29054152866E+02  0.00000000000E+00 0.  1.
</event>
<event>
 5    1  0.1691138E-003  0.9118800E+02  0.7818608E-02  0.1130116E+00
         25   -1    0    0    0    0  0.00000000000E+00  0.00000000000E+00  0.99999998245E-14  0.12500000000E+03  0.12500000000E+03 0.  0.
        -11    1    3    3    0    0  0.56835703968E+02 -0.16980921840E+02 -0.27707156043E+01  0.59382874781E+02  0.51100000000E-03 0. -1.
         23    2    1    0    0    0  0.26303376568E+02  0.13735230679E+01 -0.11806839361E+02  0.96135564440E+02  0.91700006053E+02 0.  0.
         11    1    3    3    0    0 -0.30532327400E+02  0.18354444908E+02 -0.90361237571E+01  0.36752689659E+02  0.51100000000E-03 0.  1.
         22    1    1    0    0    0 -0.26303376568E+02 -0.13735230679E+01  0.11806839361E+02  0.28864435560E+02  0.00000000000E+00 0. -1.
</event>
<event>
 5    1  0.1691138E-003  0.9118800E+02  0.7818608E-02  0.1130116E+00
         25   -1    0    0    0    0  0.00000000000E+00  0.00000000000E+00  0.99999998245E-14  0.12500000000E+03  0.12500000000E+03 0.  0.
        -11    1    3    3    0    0 -0.30505448314E+02  0.11522412383E+02  0.16953917994E+02  0.36753009395E+02  0.51100000000E-03 0. -1.
         23    2    1    0    0    0  0.10624093619E+02  0.80743123775E+01 -0.25659685520E+02  0.96077943596E+02  0.91621427074E+02 0.  0.
         11    1    3    3    0    0  0.41129541933E+02 -0.34481000058E+01 -0.42613603515E+02  0.59324934202E+02  0.51100000000E-03 0.  1.
         22    1    1    0    0    0 -0.10624093619E+02 -0.80743123775E+01  0.25659685520E+02  0.28922056404E+02  0.00000000000E+00 0.  1.
</event>
<event>
 5    1  0.1691138E-003  0.9118800E+02  0.7818608E-02  0.1130116E+00
         25   -1    0    0    0    0  0.00000000000E+00  0.00000000000E+00  0.99999998245E-14  0.12500000000E+03  0.12500000000E+03 0.  0.
        -11    1    3    3    0    0  0.49560669365E+02  0.64411030758E+01 -0.14211579697E+02  0.51958798625E+02  0.51100000000E-03 0.  1.
         23    2    1    0    0    0  0.74852034862E+01  0.22894260375E+02  0.38386591013E+01  0.10060920803E+03  0.97607899305E+02 0.  0.
         11    1    3    3    0    0 -0.42075465879E+02  0.16453157299E+02  0.18050238799E+02  0.48650409402E+02  0.51100000000E-03 0. -1.
         22    1    1    0    0    0 -0.74852034862E+01 -0.22894260375E+02 -0.38386591013E+01  0.24390791973E+02  0.00000000000E+00 0.  1.
</event>
<event>
 5    1  0.1691138E-003  0.9118800E+02  0.7818608E-02  0.1130116E+00
         25   -1    0    0    0    0  0.00000000000E+00  0.00000000000E+00  0.99999998245E-14  0.12500000000E+03  0.12500000000E+03 0.  0.
        -11    1    3    3    0    0  0.21258843988E+01 -0.31115776276E+02 -0.20918961423E+02  0.37554145776E+02  0.51100000000E-03 0. -1.
         23    2    1    0    0    0  0.40083051075E+00  0.26207084498E+02 -0.13903604222E+02  0.95330450739E+02  0.90595875649E+02 0.  0.
         11    1    3    3    0    0 -0.17250538880E+01  0.57322860774E+02  0.70153572003E+01  0.57776304962E+02  0.51100000000E-03 0.  1.
         22    1    1    0    0    0 -0.40083051075E+00 -0.26207084498E+02  0.13903604222E+02  0.29669549261E+02  0.00000000000E+00 0.  1.
</event>
<event>
 5    1  0.1691138E-003  0.9118800E+02  0.7818608E-02  0.1130116E+00
         25   -1    0    0    0    0  0.00000000000E+00  0.00000000000E+00  0.99999998245E-14  0.12500000000E+03  0.12500000000E+03 0.  0.
        -11    1    3    3    0    0  0.31628965683E+02  0.32690277566E+02  0.84504892877E+01  0.46265067675E+02  0.51100000000E-03 0.  1.
         23    2    1    0    0    0 -0.15536643796E+02  0.26078781561E+02 -0.46895773881E-01  0.94643907574E+02  0.89643610445E+02 0.  0.
         11    1    3    3    0    0 -0.47165609478E+02 -0.66114960049E+01 -0.84973850616E+01  0.48378839900E+02  0.51100000000E-03 0. -1.
         22    1    1    0    0    0  0.15536643796E+02 -0.26078781561E+02  0.46895773881E-01  0.30356092426E+02  0.00000000000E+00 0. -1.
</event>
<event>
 5    1  0.1691138E-003  0.9118800E+02  0.7818608E-02  0.1130116E+00
         25   -1    0    0    0    0  0.00000000000E+00  0.00000000000E+00  0.99999998245E-14  0.12500000000E+03  0.12500000000E+03 0.  0.
        -11    1    3    3    0    0 -0.40150367555E+02  0.40744559780E+02  0.88173800994E+01  0.57878470596E+02  0.51100000000E-03 0. -1.
         23    2    1    0    0    0 -0.12066234916E+02  0.29152489453E+02 -0.77872226693E+01  0.92502269260E+02  0.86605815712E+02 0.  0.
         11    1    3    3    0    0  0.28084132640E+02 -0.11592070327E+02 -0.16604602769E+02  0.34623798664E+02  0.51100000000E-03 0.  1.
         22    1    1    0    0    0  0.12066234916E+02 -0.29152489453E+02  0.77872226693E+01  0.32497730740E+02  0.00000000000E+00 0. -1.
</event>
<event>
 5    1  0.1691138E-003  0.9118800E+02  0.7818608E-02  0.1130116E+00
         25   -1    0    0    0    0  0.00000000000E+00  0.00000000000E+00  0.99999998245E-14  0.12500000000E+03  0.12500000000E+03 0.  0.
        -11    1    3    3    0    0 -0.26914259006E+02  0.14856794078E+02 -0.73321084778E+00  0.30751248211E+02  0.51100000000E-03 0. -1.
         23    2    1    0    0    0  0.20331310699E+02  0.22136014345E+02 -0.26388373369E+02  0.85003605476E+02  0.75006008886E+02 0.  0.
         11    1    3    3    0    0  0.47245569706E+02  0.72792202679E+01 -0.25655162521E+02  0.54252357265E+02  0.51100000000E-03 0.  1.
         22    1    1    0    0    0 -0.20331310699E+02 -0.22136014345E+02  0.26388373369E+02  0.39996394524E+02  0.00000000000E+00 0.  1.
</event>
<event>
 5    1  0.1691138E-003  0.9118800E+02  0.7818608E-02  0.1130116E+00
         25   -1    0    0    0    0  0.00000000000E+00  0.00000000000E+00  0.99999998245E-14  0.12500000000E+03  0.12500000000E+03 0.  0.
        -11    1    3    3    0    0 -0.22238600317E+02 -0.31002041092E+02  0.27339482131E+01  0.38251227026E+02  0.51100000000E-03 0.  1.
         23    2    1    0    0    0  0.24843107148E+02 -0.15779424361E+01  0.16095730061E+02  0.95356410451E+02  0.90631686583E+02 0.  0.
         11    1    3    3    0    0  0.47081707465E+02  0.29424098656E+02  0.13361781848E+02  0.57105183425E+02  0.51100000000E-03 0. -1.
         22    1    1    0    0    0 -0.24843107148E+02  0.15779424361E+01 -0.16095730061E+02  0.29643589549E+02  0.00000000000E+00 0. -1.
</event>
<event>
 5    1  0.1691138E-003  0.9118800E+02  0.7818608E-02  0.1130116E+00
         25   -1    0    0    0    0  0.00000000000E+00  0.00000000000E+00  0.99999998245E-14  0.12500000000E+03  0.12500000000E+03 0.  0.
        -11    1    3    3    0    0 -0.40748889983E+02 -0.46456935358E+02  0.74107531151E+01  0.62238558303E+02  0.51100000000E-03 0. -1.
         23    2    1    0    0    0 -0.16652777665E+02 -0.22789912736E+02  0.65483285741E+01  0.96024566723E+02  0.91548575526E+02 0.  0.
         11    1    3    3    0    0  0.24096112317E+02  0.23667022622E+02 -0.86242454105E+00  0.33786008420E+02  0.51100000000E-03 0.  1.
         22    1    1    0    0    0  0.16652777665E+02  0.22789912736E+02 -0.65483285741E+01  0.28975433277E+02  0.00000000000E+00 0. -1.
</event>
<event>
 5    1  0.1691138E-003  0.9118800E+02  0.7818608E-02  0.1130116E+00
         25   -1    0    0    0    0  0.00000000000E+00  0.00000000000E+00  0.99999998245E-14  0.12500000000E+03  0.12500000000E+03 0.  0.
        -11    1    3    3    0    0 -0.29807747773E+02  0.18703004068E+02 -0.13762259859E+02  0.37784970360E+02  0.51100000000E-03 0.  1.
         23    2    1    0    0    0  0.14985670327E+02 -0.18638510306E+02 -0.16135685884E+02  0.96149961169E+02  0.91719628719E+02 0.  0.
         11    1    3    3    0    0  0.44793418100E+02 -0.37341514374E+02 -0.23734260252E+01  0.58364990809E+02  0.51100000000E-03 0. -1.
         22    1    1    0    0    0 -0.14985670327E+02  0.18638510306E+02  0.16135685884E+02  0.28850038831E+02  0.00000000000E+00 0. -1.
</event>
<event>
 5    1  0.1691138E-003  0.9118800E+02  0.7818608E-02  0.1130116E+00
         25   -1    0    0    0    0  0.00000000000E+00  0.00000000000E+00  0.99999998245E-14  0.12500000000E+03  0.12500000000E+03 0.  0.
        -11    1    3    3    0    0 -0.51311745626E+01  0.23630141482E+02  0.28552909540E+02  0.37416322405E+02  0.51100000000E-03 0. -1.
         23    2    1    0    0    0 -0.11525380720E+02  0.12639354436E+01 -0.25896330182E+02  0.96626564352E+02  0.92366883070E+02 0.  0.
         11    1    3    3    0    0 -0.63942061575E+01 -0.22366206039E+02 -0.54449239722E+02  0.59210241948E+02  0.51100000000E-03 0.  1.
         22    1    1    0    0    0  0.11525380720E+02 -0.12639354436E+01  0.25896330182E+02  0.28373435648E+02  0.00000000000E+00 0.  1.
</event>
<event>
 5    1  0.1691138E-003  0.9118800E+02  0.7818608E-02  0.1130116E+00
         25   -1    0    0    0    0  0.00000000000E+00  0.00000000000E+00  0.99999998245E-14  0.12500000000E+03  0.12500000000E+03 0.  0.
        -11    1    3    3    0    0  0.15275734806E+02  0.85038410224E+01  0.38272018465E+02  0.42076249639E+02  0.51100000000E-03 0. -1.
         23    2    1    0    0    0  0.11488130049E+02 -0.26106282302E+02 -0.32835197255E+01  0.96289433837E+02  0.91909512343E+02 0.  0.
         11    1    3    3    0    0 -0.37876047576E+01 -0.34610123324E+02 -0.41555538191E+02  0.54213184198E+02  0.51100000000E-03 0.  1.
         22    1    1    0    0    0 -0.11488130049E+02  0.26106282302E+02  0.32835197255E+01  0.28710566163E+02  0.00000000000E+00 0.  1.
</event>
<event>
 5    1  0.1691138E-003  0.9118800E+02  0.7818608E-02  0.1130116E+00
         25   -1    0    0    0    0  0.00000000000E+00  0.00000000000E+00  0.99999998245E-14  0.12500000000E+03  0.12500000000E+03 0.  0.
        -11    1    3    3    0    0  0.31529673486E+02 -0.24858983267E+02 -0.23492654159E+02  0.46518750616E+02  0.51100000000E-03 0.  1.
         23    2    1    0    0    0  0.76960348967E+01  0.20199291014E+02 -0.16147910588E+02  0.98018611471E+02  0.94231910029E+02 0.  0.
         11    1    3    3    0    0 -0.23833638589E+02  0.45058274282E+02  0.73447435714E+01  0.51499860854E+02  0.51100000000E-03 0. -1.
         22    1    1    0    0    0 -0.76960348967E+01 -0.20199291014E+02  0.16147910588E+02  0.26981388529E+02  0.00000000000E+00 0. -1.
</event>
<event>
 5    1  0.1691138E-003  0.9118800E+02  0.7818608E-02  0.1130116E+00
         25   -1    0    0    0    0  0.00000000000E+00  0.00000000000E+00  0.99999998245E-14  0.12500000000E+03  0.12500000000E+03 0.  0.
        -11    1    3    3    0    0 -0.27738131392E+02  0.59163640526E+01  0.13780390537E+02  0.31532625332E+02  0.51100000000E-03 0. -1.
         23    2    1    0    0    0  0.23899809909E+02 -0.90878612437E+01 -0.17754681489E+02  0.93870932387E+02  0.88559206731E+02 0.  0.
         11    1    3    3    0    0  0.51637941301E+02 -0.15004225296E+02 -0.31535072026E+02  0.62338307055E+02  0.51100000000E-03 0.  1.
         22    1    1    0    0    0 -0.23899809909E+02  0.90878612437E+01  0.17754681489E+02  0.31129067613E+02  0.00000000000E+00 0.  1.
</event>
<event>
 5    1  0.1691138E-003  0.9118800E+02  0.7818608E-02  0.1130116E+00
         25   -1    0    0    0    0  0.00000000000E+00  0.00000000000E+00  0.99999998245E-14  0.12500000000E+03  0.12500000000E+03 0.  0.
        -11    1    3    3    0    0 -0.30621347835E+02 -0.17040310587E+02 -0.25036738910E+02  0.43068287912E+02  0.51100000000E-03 0.  1.
         23    2    1    0    0    0  0.18007922675E+02 -0.69187012739E+01 -0.25848461372E+02  0.92746369790E+02  0.86957417439E+02 0.  0.
         11    1    3    3    0    0  0.48629270511E+02  0.10121609313E+02 -0.81172246181E+00  0.49678081878E+02  0.51100000000E-03 0. -1.
         22    1    1    0    0    0 -0.18007922675E+02  0.69187012739E+01  0.25848461372E+02  0.32253630210E+02  0.00000000000E+00 0. -1.
</event>
<event>
 5    1  0.1691138E-003  0.9118800E+02  0.7818608E-02  0.1130116E+00
         25   -1    0    0    0    0  0.00000000000E+00  0.00000000000E+00  0.99999998245E-14  0.12500000000E+03  0.12500000000E+03 0.  0.
        -11    1    3    3    0    0 -0.49873772121E+02  0.15985645230E+02 -0.93813194744E+01  0.53206608183E+02  0.51100000000E-03 0.  1.
         23    2    1    0    0    0 -0.10965703231E+02  0.26514407254E+02  0.47449697356E+01  0.95917785896E+02  0.91402661198E+02 0.  0.
         11    1    3    3    0    0  0.38908068890E+02  0.10528762024E+02  0.14126289210E+02  0.42711177713E+02  0.51100000000E-03 0. -1.
         22    1    1    0    0    0  0.10965703231E+02 -0.26514407254E+02 -0.47449697356E+01  0.29082214104E+02  0.00000000000E+00 0.  1.
</event>
<event>
 5    1  0.1691138E-003  0.9118800E+02  0.7818608E-02  0.1130116E+00
         25   -1    0    0    0    0  0.00000000000E+00  0.00000000000E+00  0.99999998245E-14  0.12500000000E+03  0.12500000000E+03 0.  0.
        -11    1    3    3    0    0 -0.18323331291E+02  0.33050104916E+02  0.17056763863E+02  0.41460669294E+02  0.51100000000E-03 0.  1.
         23    2    1    0    0    0  0.20922430660E+02 -0.42402761679E+01  0.20094183674E+02  0.95682696846E+02  0.91080591849E+02 0.  0.
         11    1    3    3    0    0  0.39245761951E+02 -0.37290381084E+02  0.30374198114E+01  0.54222027552E+02  0.51100000000E-03 0. -1.
         22    1    1    0    0    0 -0.20922430660E+02  0.42402761679E+01 -0.20094183674E+02  0.29317303154E+02  0.00000000000E+00 0.  1.
</event>
<event>
 5    1  0.1691138E-003  0.9118800E+02  0.7818608E-02  0.1130116E+00
         25   -1    0    0    0    0  0.00000000000E+00  0.00000000000E+00  0.99999998245E-14  0.12500000000E+03  0.12500000000E+03 0.  0.
        -11    1    3    3    0    0  0.86584858755E+01 -0.21894760328E+01  0.35347072766E+02  0.36457903620E+02  0.51100000000E-03 0.  1.
         23    2    1    0    0    0  0.10715573887E+02 -0.22711181975E+02 -0.18296305973E+02  0.93929497547E+02  0.88641832037E+02 0.  0.
         11    1    3    3    0    0  0.20570880117E+01 -0.20521705942E+02 -0.53643378739E+02  0.57471593928E+02  0.51100000000E-03 0. -1.
         22    1    1    0    0    0 -0.10715573887E+02  0.22711181975E+02  0.18296305973E+02  0.31070502453E+02  0.00000000000E+00 0. -1.
</event>
<event>
 5    1  0.1691138E-003  0.9118800E+02  0.7818608E-02  0.1130116E+00
         25   -1    0    0    0    0  0.00000000000E+00  0.00000000000E+00  0.99999998245E-14  0.12500000000E+03  0.12500000000E+03 0.  0.
        -11    1    3    3    0    0  0.46491287206E+02  0.17801978313E+00  0.11236974224E+02  0.47830336264E+02  0.51100000000E-03 0.  1.
         23    2    1    0    0    0  0.16023831468E+02  0.53720365976E+01 -0.24599997025E+02  0.95154032002E+02  0.90352133348E+02 0.  0.
         11    1    3    3    0    0 -0.30467455738E+02  0.51940168145E+01 -0.35836971249E+02  0.47323695738E+02  0.51100000000E-03 0. -1.
         22    1    1    0    0    0 -0.16023831468E+02 -0.53720365976E+01  0.24599997025E+02  0.29845967998E+02  0.00000000000E+00 0.  1.
</event>
<event>
 5    1  0.1691138E-003  0.9118800E+02  0.7818608E-02  0.1130116E+00
         25   -1    0    0    0    0  0.00000000000E+00  0.00000000000E+00  0.99999998245E-14  0.12500000000E+03  0.12500000000E+03 0.  0.
        -11    1    3    3    0    0  0.27848427076E+02 -0.30835162374E+02 -0.26079157875E+02  0.49055729583E+02  0.51100000000E-03 0. -1.
         23    2    1    0    0    0  0.25342422608E+02  0.11741173542E+02 -0.50173943032E+01  0.96622759377E+02  0.92361733657E+02 0.  0.
         11    1    3    3    0    0 -0.25060044678E+01  0.42576335916E+02  0.21061763572E+02  0.47567029794E+02  0.51100000000E-03 0.  1.
         22    1    1    0    0    0 -0.25342422608E+02 -0.11741173542E+02  0.50173943032E+01  0.28377240623E+02  0.00000000000E+00 0. -1.
</event>
<event>
 5    1  0.1691138E-003  0.9118800E+02  0.7818608E-02  0.1130116E+00
         25   -1    0    0    0    0  0.00000000000E+00  0.00000000000E+00  0.99999998245E-14  0.12500000000E+03  0.12500000000E+03 0.  0.
        -11    1    3    3    0    0 -0.42544423115E+00  0.36359201475E+02 -0.64861162871E+01  0.36935649980E+02  0.51100000000E-03 0.  1.
         23    2    1    0    0    0 -0.26945198014E+02 -0.12926200284E+02  0.65594165832E+01  0.94403328683E+02  0.89307514637E+02 0.  0.
         11    1    3    3    0    0 -0.26519753783E+02 -0.49285401759E+02  0.13045532870E+02  0.57467678702E+02  0.51100000000E-03 0. -1.
         22    1    1    0    0    0  0.26945198014E+02  0.12926200284E+02 -0.65594165832E+01  0.30596671317E+02  0.00000000000E+00 0. -1.
</event>
<event>
 5    1  0.1691138E-003  0.9118800E+02  0.7818608E-02  0.1130116E+00
         25   -1    0    0    0    0  0.00000000000E+00  0.00000000000E+00  0.99999998245E-14  0.12500000000E+03  0.12500000000E+03 0.  0.
        -11    1    3    3    0    0 -0.11370969184E+02  0.52688737640E+02  0.14171237348E+02  0.55733526558E+02  0.51100000000E-03 0.  1.
         23    2    1    0    0    0 -0.17208744280E+02  0.17335972515E+02  0.21675728465E+02  0.92342473651E+02  0.86374871420E+02 0.  0.
         11    1    3    3    0    0 -0.58377750963E+01 -0.35352765126E+02  0.75044911166E+01  0.36608947094E+02  0.51100000000E-03 0. -1.
         22    1    1    0    0    0  0.17208744280E+02 -0.17335972515E+02 -0.21675728465E+02  0.32657526349E+02  0.00000000000E+00 0.  1.
</event>
<event>
 5    1  0.1691138E-003  0.9118800E+02  0.7818608E-02  0.1130116E+00
         25   -1    0    0    0    0  0.00000000000E+00  0.00000000000E+00  0.99999998245E-14  0.12500000000E+03  0.12500000000E+03 0.  0.
        -11    1    3    3    0    0  0.11069429500E+02 -0.23068253789E+02 -0.23252354540E+02  0.34573813707E+02  0.51100000000E-03 0.  1.
         23    2    1    0    0    0 -0.41943631364E+01  0.28190638908E+02  0.64881664171E+01  0.95769859603E+02  0.91200136517E+02 0.  0.
         11    1    3    3    0    0 -0.15263792636E+02  0.51258892698E+02  0.29740520957E+02  0.61196045896E+02  0.51100000000E-03 0. -1.
         22    1    1    0    0    0  0.41943631364E+01 -0.28190638908E+02 -0.64881664171E+01  0.29230140397E+02  0.00000000000E+00 0. -1.
</event>
<event>
 5    1  0.1691138E-003  0.9118800E+02  0.7818608E-02  0.1130116E+00
         25   -1    0    0    0    0  0.00000000000E+00  0.00000000000E+00  0.99999998245E-14  0.12500000000E+03  0.12500000000E+03 0.  0.
        -11    1    3    3    0    0 -0.21156261817E+02  0.18361809268E+02  0.30398626674E+02  0.41337875582E+02  0.51100000000E-03 0.  1.
         23    2    1    0    0    0 -0.20779364930E+02 -0.18069996725E+02 -0.99670105951E+01  0.95714370610E+02  0.91124050901E+02 0.  0.
         11    1    3    3    0    0  0.37689688748E+00 -0.36431805994E+02 -0.40365637269E+02  0.54376495029E+02  0.51100000000E-03 0. -1.
         22    1    1    0    0    0  0.20779364930E+02  0.18069996725E+02  0.99670105951E+01  0.29285629390E+02  0.00000000000E+00 0. -1.
</event>
<event>
 5    1  0.1691138E-003  0.9118800E+02  0.7818608E-02  0.1130116E+00
         25   -1    0    0    0    0  0.00000000000E+00  0.00000000000E+00  0.99999998245E-14  0.12500000000E+03  0.12500000000E+03 0.  0.
        -11    1    3    3    0    0 -0.42066336084E+02 -0.72645567336E+01  0.26764181640E+02  0.50385234297E+02  0.51100000000E-03 0.  1.
         23    2    1    0    0    0 -0.12422309677E+02  0.23707088918E+02  0.95903102094E+01  0.96569138377E+02  0.92289135841E+02 0.  0.
         11    1    3    3    0    0  0.29644026406E+02  0.30971645652E+02 -0.17173871430E+02  0.46183904081E+02  0.51100000000E-03 0. -1.
         22    1    1    0    0    0  0.12422309677E+02 -0.23707088918E+02 -0.95903102094E+01  0.28430861623E+02  0.00000000000E+00 0. -1.
</event>
<event>
 5    1  0.1691138E-003  0.9118800E+02  0.7818608E-02  0.1130116E+00
         25   -1    0    0    0    0  0.00000000000E+00  0.00000000000E+00  0.99999998245E-14  0.12500000000E+03  0.12500000000E+03 0.  0.
        -11    1    3    3    0    0  0.31356032228E+02 -0.39261747361E+02 -0.29112446265E+02  0.58070819615E+02  0.51100000000E-03 0.  1.
         23    2    1    0    0    0  0.60935807701E+01 -0.25781259397E+02 -0.27597813177E+02  0.86745008759E+02  0.77854044145E+02 0.  0.
         11    1    3    3    0    0 -0.25262451458E+02  0.13480487964E+02  0.15146330873E+01  0.28674189144E+02  0.51100000000E-03 0. -1.
         22    1    1    0    0    0 -0.60935807701E+01  0.25781259397E+02  0.27597813177E+02  0.38254991241E+02  0.00000000000E+00 0.  1.
</event>
<event>
 5    1  0.1691138E-003  0.9118800E+02  0.7818608E-02  0.1130116E+00
         25   -1    0    0    0    0  0.00000000000E+00  0.00000000000E+00  0.99999998245E-14  0.12500000000E+03  0.12500000000E+03 0.  0.
        -11    1    3    3    0    0 -0.58516839439E+01  0.39481131797E+02  0.69731138933E+01  0.40516987679E+02  0.51100000000E-03 0.  1.
         23    2    1    0    0    0  0.21562560399E+02  0.28593162903E+00 -0.20135895525E+02  0.95496100996E+02  0.90824144636E+02 0.  0.
         11    1    3    3    0    0  0.27414244343E+02 -0.39195200168E+02 -0.27109009419E+02  0.54979113316E+02  0.51100000000E-03 0. -1.
         22    1    1    0    0    0 -0.21562560399E+02 -0.28593162903E+00  0.20135895525E+02  0.29503899004E+02  0.00000000000E+00 0. -1.
</event>
<event>
 5    1  0.1691138E-003  0.9118800E+02  0.7818608E-02  0.1130116E+00
         25   -1    0    0    0    0  0.00000000000E+00  0.00000000000E+00  0.99999998245E-14  0.12500000000E+03  0.12500000000E+03 0.  0.
        -11    1    3    3    0    0  0.11169261194E+01  0.24606634550E+02  0.17648375345E+02  0.30301800943E+02  0.51100000000E-03 0. -1.
         23    2    1    0    0    0 -0.31416160259E+02 -0.18943481062E+02 -0.23878544931E+01  0.88236805780E+02  0.80213474211E+02 0.  0.
         11    1    3    3    0    0 -0.32533086379E+02 -0.43550115612E+02 -0.20036229838E+02  0.57935004837E+02  0.51100000000E-03 0.  1.
         22    1    1    0    0    0  0.31416160259E+02  0.18943481062E+02  0.23878544931E+01  0.36763194220E+02  0.00000000000E+00 0.  1.
</event>
<event>
 5    1  0.1691138E-003  0.9118800E+02  0.7818608E-02  0.1130116E+00
         25   -1    0    0    0    0  0.00000000000E+00  0.00000000000E+00  0.99999998245E-14  0.12500000000E+03  0.12500000000E+03 0.  0.
        -11    1    3    3    0    0 -0.18162930966E+02  0.18174908107E+02 -0.46079549428E+02  0.52759304598E+02  0.51100000000E-03 0. -1.
         23    2    1    0    0    0 -0.67948609004E+01  0.28421854211E+02 -0.66850129414E+01  0.95022319478E+02  0.90169728121E+02 0.  0.
         11    1    3    3    0    0  0.11368070066E+02  0.10246946104E+02  0.39394536486E+02  0.42263014880E+02  0.51100000000E-03 0.  1.
         22    1    1    0    0    0  0.67948609004E+01 -0.28421854211E+02  0.66850129414E+01  0.29977680522E+02  0.00000000000E+00 0. -1.
</event>
<event>
 5    1  0.1691138E-003  0.9118800E+02  0.7818608E-02  0.1130116E+00
         25   -1    0    0    0    0  0.00000000000E+00  0.00000000000E+00  0.99999998245E-14  0.12500000000E+03  0.12500000000E+03 0.  0.
        -11    1    3    3    0    0  0.41706528700E+02 -0.43955549085E+02 -0.14393048948E+02  0.62279087099E+02  0.51100000000E-03 0.  1.
         23    2    1    0    0    0  0.16884589536E+02 -0.22048167298E+02 -0.42419873562E+01  0.96907198400E+02  0.92745887241E+02 0.  0.
         11    1    3    3    0    0 -0.24821939164E+02  0.21907381787E+02  0.10151061591E+02  0.34628111302E+02  0.51100000000E-03 0. -1.
         22    1    1    0    0    0 -0.16884589536E+02  0.22048167298E+02  0.42419873562E+01  0.28092801600E+02  0.00000000000E+00 0.  1.
</event>
<event>
 5    1  0.1691138E-003  0.9118800E+02  0.7818608E-02  0.1130116E+00
         25   -1    0    0    0    0  0.00000000000E+00  0.00000000000E+00  0.99999998245E-14  0.12500000000E+03  0.12500000000E+03 0.  0.
        -11    1    3    3    0    0 -0.91350709731E+01 -0.60838652495E+02  0.25010804758E+01  0.61571475237E+02  0.51100000000E-03 0.  1.
         23    2    1    0    0    0  0.32051084145E+01 -0.29809041396E+02  0.78641365269E+00  0.95008832712E+02  0.90151029822E+02 0.  0.
         11    1    3    3    0    0  0.12340179388E+02  0.31029611099E+02 -0.17146668231E+01  0.33437357474E+02  0.51100000000E-03 0. -1.
         22    1    1    0    0    0 -0.32051084145E+01  0.29809041396E+02 -0.78641365269E+00  0.29991167288E+02  0.00000000000E+00 0.  1.
</event>
<event>
 5    1  0.1691138E-003  0.9118800E+02  0.7818608E-02  0.1130116E+00
         25   -1    0    0    0    0  0.00000000000E+00  0.00000000000E+00  0.99999998245E-14  0.12500000000E+03  0.12500000000E+03 0.  0.
        -11    1    3    3    0    0 -0.14763687154E+02  0.34957611574E+02  0.27931783509E+01  0.38050005399E+02  0.51100000000E-03 0.  1.
         23    2    1    0    0    0 -0.10409208839E+02 -0.20537867368E+02  0.18020769737E+02  0.95761262569E+02  0.91188352558E+02 0.  0.
         11    1    3    3    0    0  0.43544783149E+01 -0.55495478942E+02  0.15227591386E+02  0.57711257169E+02  0.51100000000E-03 0. -1.
         22    1    1    0    0    0  0.10409208839E+02  0.20537867368E+02 -0.18020769737E+02  0.29238737431E+02  0.00000000000E+00 0. -1.
</event>
<event>
 5    1  0.1691138E-003  0.9118800E+02  0.7818608E-02  0.1130116E+00
         25   -1    0    0    0    0  0.00000000000E+00  0.00000000000E+00  0.99999998245E-14  0.12500000000E+03  0.12500000000E+03 0.  0.
        -11    1    3    3    0    0  0.10474595767E+01  0.57929250665E+02  0.24034096557E+01  0.57988547424E+02  0.51100000000E-03 0.  1.
         23    2    1    0    0    0  0.16872062174E+02  0.24005995309E+02 -0.14705442460E+01  0.95621150581E+02  0.90996085879E+02 0.  0.
         11    1    3    3    0    0  0.15824602597E+02 -0.33923255356E+02 -0.38739539017E+01  0.37632603157E+02  0.51100000000E-03 0. -1.
         22    1    1    0    0    0 -0.16872062174E+02 -0.24005995309E+02  0.14705442460E+01  0.29378849419E+02  0.00000000000E+00 0.  1.
</event>
<event>
 5    1  0.1691138E-003  0.9118800E+02  0.7818608E-02  0.1130116E+00
         25   -1    0    0    0    0  0.00000000000E+00  0.00000000000E+00  0.99999998245E-14  0.12500000000E+03  0.12500000000E+03 0.  0.
        -11    1    3    3    0    0  0.43350024711E+02  0.93226887123E+01  0.42220844475E+02  0.61226929335E+02  0.51100000000E-03 0. -1.
         23    2    1    0    0    0  0.25698312654E+02 -0.99885169754E+00  0.15153070901E+02  0.95150099905E+02  0.90346693222E+02 0.  0.
         11    1    3    3    0    0 -0.17651712057E+02 -0.10321540410E+02 -0.27067773574E+02  0.33923170570E+02  0.51100000000E-03 0.  1.
         22    1    1    0    0    0 -0.25698312654E+02  0.99885169754E+00 -0.15153070901E+02  0.29849900095E+02  0.00000000000E+00 0. -1.
</event>
<event>
 5    1  0.1691138E-003  0.9118800E+02  0.7818608E-02  0.1130116E+00
         25   -1    0    0    0    0  0.00000000000E+00  0.00000000000E+00  0.99999998245E-14  0.12500000000E+03  0.12500000000E+03 0.  0.
        -11    1    3    3    0    0  0.19739716537E+02 -0.22897714099E+02 -0.20276292340E+02  0.36401782254E+02  0.51100000000E-03 0.  1.
         23    2    1    0    0    0 -0.20614852961E+02  0.11354018183E+02  0.12189283039E+02  0.98495952903E+02  0.94862997137E+02 0.  0.
         11    1    3    3    0    0 -0.40354569499E+02  0.34251732282E+02  0.32465575379E+02  0.62094170650E+02  0.51100000000E-03 0. -1.
         22    1    1    0    0    0  0.20614852961E+02 -0.11354018183E+02 -0.12189283039E+02  0.26504047097E+02  0.00000000000E+00 0. -1.
</event>
<event>
 5    1  0.1691138E-003  0.9118800E+02  0.7818608E-02  0.1130116E+00
         25   -1    0    0    0    0  0.00000000000E+00  0.00000000000E+00  0.99999998245E-14  0.12500000000E+03  0.12500000000E+03 0.  0.
        -11    1    3    3    0    0 -0.19420064386E+02 -0.16860175453E+02 -0.23658226656E+02  0.34944471749E+02  0.51100000000E-03 0. -1.
         23    2    1    0    0    0 -0.30400963944E+01  0.17993706310E+02  0.23126474512E+02  0.95540714941E+02  0.90885525444E+02 0.  0.
         11    1    3    3    0    0  0.16379967992E+02  0.34853881763E+02  0.46784701167E+02  0.60596243192E+02  0.51100000000E-03 0.  1.
         22    1    1    0    0    0  0.30400963944E+01 -0.17993706310E+02 -0.23126474512E+02  0.29459285059E+02  0.00000000000E+00 0.  1.
</event>
<event>
 5    1  0.1691138E-003  0.9118800E+02  0.7818608E-02  0.1130116E+00
         25   -1    0    0    0    0  0.00000000000E+00  0.00000000000E+00  0.99999998245E-14  0.12500000000E+03  0.12500000000E+03 0.  0.
        -11    1    3    3    0    0  0.23976261882E+02 -0.10662592256E+02 -0.27858901779E+02  0.38271012738E+02  0.51100000000E-03 0.  1.
         23    2    1    0    0    0 -0.11735325195E+02  0.25633507130E+02  0.98270923520E+00  0.96790776993E+02  0.92588845160E+02 0.  0.
         11    1    3    3    0    0 -0.35711587077E+02  0.36296099386E+02  0.28841611014E+02  0.58519764254E+02  0.51100000000E-03 0. -1.
         22    1    1    0    0    0  0.11735325195E+02 -0.25633507130E+02 -0.98270923520E+00  0.28209223007E+02  0.00000000000E+00 0. -1.
</event>
<event>
 5    1  0.1691138E-003  0.9118800E+02  0.7818608E-02  0.1130116E+00
         25   -1    0    0    0    0  0.00000000000E+00  0.00000000000E+00  0.99999998245E-14  0.12500000000E+03  0.12500000000E+03 0.  0.
        -11    1    3    3    0    0  0.34429191627E+02  0.17692149521E+02 -0.48308851360E+01  0.39009214837E+02  0.51100000000E-03 0.  1.
         23    2    1    0    0    0  0.10637559354E+02 -0.29388105592E+02 -0.10419772853E+02  0.92054741075E+02  0.85957461973E+02 0.  0.
         11    1    3    3    0    0 -0.23791632273E+02 -0.47080255113E+02 -0.55888877172E+01  0.53045526238E+02  0.51100000000E-03 0. -1.
         22    1    1    0    0    0 -0.10637559354E+02  0.29388105592E+02  0.10419772853E+02  0.32945258925E+02  0.00000000000E+00 0. -1.
</event>
<event>
 5    1  0.1691138E-003  0.9118800E+02  0.7818608E-02  0.1130116E+00
         25   -1    0    0    0    0  0.00000000000E+00  0.00000000000E+00  0.99999998245E-14  0.12500000000E+03  0.12500000000E+03 0.  0.
        -11    1    3    3    0    0  0.78404065227E+01 -0.31904947160E+02  0.11964084045E+02  0.34964795652E+02  0.51100000000E-03 0.  1.
         23    2    1    0    0    0 -0.28675310692E+02  0.81902031158E+01 -0.10102163480E+02  0.93513390507E+02  0.88053095498E+02 0.  0.
         11    1    3    3    0    0 -0.36515717215E+02  0.40095150276E+02 -0.22066247525E+02  0.58548594855E+02  0.51100000000E-03 0. -1.
         22    1    1    0    0    0  0.28675310692E+02 -0.81902031158E+01  0.10102163480E+02  0.31486609493E+02  0.00000000000E+00 0. -1.
</event>
<event>
 5    1  0.1691138E-003  0.9118800E+02  0.7818608E-02  0.1130116E+00
         25   -1    0    0    0    0  0.00000000000E+00  0.00000000000E+00  0.99999998245E-14  0.12500000000E+03  0.12500000000E+03 0.  0.
        -11    1    3    3    0    0  0.46828126151E+01  0.45428382246E+02 -0.22831463389E+01  0.45726134813E+02  0.51100000000E-03 0. -1.
         23    2    1    0    0    0  0.21676083982E+02  0.47592682698E+01  0.20008865796E+02  0.95119271064E+02  0.90304029623E+02 0.  0.
         11    1    3    3    0    0  0.16993271367E+02 -0.40669113977E+02  0.22292012135E+02  0.49393136251E+02  0.51100000000E-03 0.  1.
         22    1    1    0    0    0 -0.21676083982E+02 -0.47592682698E+01 -0.20008865796E+02  0.29880728936E+02  0.00000000000E+00 0.  1.
</event>
<event>
 5    1  0.1691138E-003  0.9118800E+02  0.7818608E-02  0.1130116E+00
         25   -1    0    0    0    0  0.00000000000E+00  0.00000000000E+00  0.99999998245E-14  0.12500000000E+03  0.12500000000E+03 0.  0.
        -11    1    3    3    0    0  0.42278736432E+02 -0.13080317801E+02 -0.14550194485E+02  0.46586418921E+02  0.51100000000E-03 0. -1.
         23    2    1    0    0    0 -0.50534599250E+01 -0.26155934247E+02 -0.12068488349E+02  0.95754166714E+02  0.91178625119E+02 0.  0.
         11    1    3    3    0    0 -0.47332196357E+02 -0.13075616445E+02  0.24817061361E+01  0.49167747793E+02  0.51100000000E-03 0.  1.
         22    1    1    0    0    0  0.50534599250E+01  0.26155934247E+02  0.12068488349E+02  0.29245833286E+02  0.00000000000E+00 0. -1.
</event>
<event>
 5    1  0.1691138E-003  0.9118800E+02  0.7818608E-02  0.1130116E+00
         25   -1    0    0    0    0  0.00000000000E+00  0.00000000000E+00  0.99999998245E-14  0.12500000000E+03  0.12500000000E+03 0.  0.
        -11    1    3    3    0    0 -0.35033344409E+02  0.13516701194E+02 -0.27504587558E+01  0.37651048529E+02  0.51100000000E-03 0. -1.
         23    2    1    0    0    0  0.26504221401E+01 -0.29182941261E+02  0.54678385346E+01  0.95191174857E+02  0.90403504988E+02 0.  0.
         11    1    3    3    0    0  0.37683766550E+02 -0.42699642456E+02  0.82182972904E+01  0.57540126328E+02  0.51100000000E-03 0.  1.
         22    1    1    0    0    0 -0.26504221401E+01  0.29182941261E+02 -0.54678385346E+01  0.29808825143E+02  0.00000000000E+00 0.  1.
</event>
<event>
 5    1  0.1691138E-003  0.9118800E+02  0.7818608E-02  0.1130116E+00
         25   -1    0    0    0    0  0.00000000000E+00  0.00000000000E+00  0.99999998245E-14  0.12500000000E+03  0.12500000000E+03 0.  0.
        -11    1    3    3    0    0 -0.23070496846E+02  0.51221875386E+00 -0.33816972624E+02  0.40940173796E+02  0.51100000000E-03 0. -1.
         23    2    1    0    0    0  0.26845888010E+02 -0.21731583664E+01 -0.10631034745E+02  0.96044115968E+02  0.91575264084E+02 0.  0.
         11    1    3    3    0    0  0.49916384856E+02 -0.26853771202E+01  0.23185937879E+02  0.55103942172E+02  0.51100000000E-03 0.  1.
         22    1    1    0    0    0 -0.26845888010E+02  0.21731583664E+01  0.10631034745E+02  0.28955884032E+02  0.00000000000E+00 0.  1.
</event>
<event>
 5    1  0.1691138E-003  0.9118800E+02  0.7818608E-02  0.1130116E+00
         25   -1    0    0    0    0  0.00000000000E+00  0.00000000000E+00  0.99999998245E-14  0.12500000000E+03  0.12500000000E+03 0.  0.
        -11    1    3    3    0    0  0.46338370172E+01 -0.29368799467E+02  0.36129929241E+01  0.29950835477E+02  0.51100000000E-03 0.  1.
         23    2    1    0    0    0  0.36218844131E+02  0.74628512079E+01  0.22153268511E+02  0.81892389024E+02  0.69628279140E+02 0.  0.
         11    1    3    3    0    0  0.31585007114E+02  0.36831650675E+02  0.18540275587E+02  0.51941553547E+02  0.51100000000E-03 0. -1.
         22    1    1    0    0    0 -0.36218844131E+02 -0.74628512079E+01 -0.22153268511E+02  0.43107610976E+02  0.00000000000E+00 0. -1.
</event>
<event>
 5    1  0.1691138E-003  0.9118800E+02  0.7818608E-02  0.1130116E+00
         25   -1    0    0    0    0  0.00000000000E+00  0.00000000000E+00  0.99999998245E-14  0.12500000000E+03  0.12500000000E+03 0.  0.
        -11    1    3    3    0    0  0.96693791030E+01 -0.20774998915E+02 -0.58126580808E+02  0.62480371869E+02  0.51100000000E-03 0.  1.
         23    2    1    0    0    0  0.37728799758E+01 -0.10522263235E+02 -0.27071979217E+02  0.95711013919E+02  0.91119446222E+02 0.  0.
         11    1    3    3    0    0 -0.58964991272E+01  0.10252735680E+02  0.31054601591E+02  0.33230642051E+02  0.51100000000E-03 0. -1.
         22    1    1    0    0    0 -0.37728799758E+01  0.10522263235E+02  0.27071979217E+02  0.29288986081E+02  0.00000000000E+00 0.  1.
</event>
<event>
 5    1  0.1691138E-003  0.9118800E+02  0.7818608E-02  0.1130116E+00
         25   -1    0    0    0    0  0.00000000000E+00  0.00000000000E+00  0.99999998245E-14  0.12500000000E+03  0.12500000000E+03 0.  0.
        -11    1    3    3    0    0 -0.22885387661E+02  0.16313372571E+02  0.16594301369E+02  0.32637982952E+02  0.51100000000E-03 0. -1.
         23    2    1    0    0    0 -0.77974920847E+01 -0.31093318957E+02 -0.12868355278E+02  0.90457418537E+02  0.83602360220E+02 0.  0.
         11    1    3    3    0    0  0.15087895576E+02 -0.47406691527E+02 -0.29462656646E+02  0.57819435585E+02  0.51100000000E-03 0.  1.
         22    1    1    0    0    0  0.77974920847E+01  0.31093318957E+02  0.12868355278E+02  0.34542581463E+02  0.00000000000E+00 0.  1.
</event>
<event>
 5    1  0.1691138E-003  0.9118800E+02  0.7818608E-02  0.1130116E+00
         25   -1    0    0    0    0  0.00000000000E+00  0.00000000000E+00  0.99999998245E-14  0.12500000000E+03  0.12500000000E+03 0.  0.
        -11    1    3    3    0    0 -0.18174963720E+02  0.25905945849E+02  0.47596496959E+02  0.57156573197E+02  0.51100000000E-03 0. -1.
         23    2    1    0    0    0  0.21473945079E+01  0.25346648848E+02  0.15309944058E+02  0.95310636618E+02  0.90568532915E+02 0.  0.
         11    1    3    3    0    0  0.20322358227E+02 -0.55929700172E+00 -0.32286552901E+02  0.38154063421E+02  0.51100000000E-03 0.  1.
         22    1    1    0    0    0 -0.21473945079E+01 -0.25346648848E+02 -0.15309944058E+02  0.29689363382E+02  0.00000000000E+00 0. -1.
</event>
<event>
 5    1  0.1691138E-003  0.9118800E+02  0.7818608E-02  0.1130116E+00
         25   -1    0    0    0    0  0.00000000000E+00  0.00000000000E+00  0.99999998245E-14  0.12500000000E+03  0.12500000000E+03 0.  0.
        -11    1    3    3    0    0  0.38434576758E+02 -0.21516031292E+02 -0.23777660051E+02  0.50055303524E+02  0.51100000000E-03 0.  1.
         23    2    1    0    0    0 -0.40116864239E+01 -0.27535199571E+02 -0.13147079550E+02  0.94224578897E+02  0.89056974596E+02 0.  0.
         11    1    3    3    0    0 -0.42446263182E+02 -0.60191682796E+01  0.10630580502E+02  0.44169275373E+02  0.51100000000E-03 0. -1.
         22    1    1    0    0    0  0.40116864239E+01  0.27535199571E+02  0.13147079550E+02  0.30775421103E+02  0.00000000000E+00 0. -1.
</event>
<event>
 5    1  0.1691138E-003  0.9118800E+02  0.7818608E-02  0.1130116E+00
         25   -1    0    0    0    0  0.00000000000E+00  0.00000000000E+00  0.99999998245E-14  0.12500000000E+03  0.12500000000E+03 0.  0.
        -11    1    3    3    0    0  0.92955119210E+01  0.37068773995E+02 -0.14089359784E+02  0.40730953913E+02  0.51100000000E-03 0.  1.
         23    2    1    0    0    0 -0.30842746889E+02  0.43824976076E+01 -0.27162444736E+01  0.93729258004E+02  0.88359009167E+02 0.  0.
         11    1    3    3    0    0 -0.40138258810E+02 -0.32686276387E+02  0.11373115310E+02  0.52998304090E+02  0.51100000000E-03 0. -1.
         22    1    1    0    0    0  0.30842746889E+02 -0.43824976076E+01  0.27162444736E+01  0.31270741996E+02  0.00000000000E+00 0. -1.
</event>
<event>
 5    1  0.1691138E-003  0.9118800E+02  0.7818608E-02  0.1130116E+00
         25   -1    0    0    0    0  0.00000000000E+00  0.00000000000E+00  0.99999998245E-14  0.12500000000E+03  0.12500000000E+03 0.  0.
        -11    1    3    3    0    0  0.48754788026E+02  0.31659804865E+02 -0.16189268976E+02  0.60344552611E+02  0.51100000000E-03 0. -1.
         23    2    1    0    0    0  0.27837195950E+02  0.13503283586E+02  0.28105003211E+01  0.93933183974E+02  0.88647030371E+02 0.  0.
         11    1    3    3    0    0 -0.20917592077E+02 -0.18156521279E+02  0.18999769298E+02  0.33588631363E+02  0.51100000000E-03 0.  1.
         22    1    1    0    0    0 -0.27837195950E+02 -0.13503283586E+02 -0.28105003211E+01  0.31066816026E+02  0.00000000000E+00 0. -1.
</event>
<event>
 4    1  0.1691138E-003  0.9118800E+02  0.7818608E-02  0.1130116E+00
         25   -1    0    0    0    0  0.00000000000E+00  0.00000000000E+00  0.99999998245E-14  0.12500000000E+03  0.12500000000E+03 0.  0.
        -11    1    1    0    0    0 -0.49707508696E+01  0.11726685005E+01  0.14034328323E+01  0.52965214618E+01  0.51100000000E-03 0. -1.
         11    1    1    0    0    0 -0.29118271717E+02 -0.43474939613E+02 -0.27855421952E+02  0.59277893472E+02  0.51100000000E-03 0.  1.
         22    1    1    0    0    0  0.34089022586E+02  0.42302271113E+02  0.26451989119E+02  0.60425585066E+02  0.00000000000E+00 0.  1.
</event>
<event>
 5    1  0.1691138E-003  0.9118800E+02  0.7818608E-02  0.1130116E+00
         25   -1    0    0    0    0  0.00000000000E+00  0.00000000000E+00  0.99999998245E-14  0.12500000000E+03  0.12500000000E+03 0.  0.
        -11    1    3    3    0    0 -0.25583434659E+02  0.12220377596E+02  0.18774118675E+02  0.34004665707E+02  0.51100000000E-03 0.  1.
         23    2    1    0    0    0  0.22110001417E+02 -0.18689634869E+02 -0.50176518469E+01  0.95617497651E+02  0.90991067764E+02 0.  0.
         11    1    3    3    0    0  0.47693436076E+02 -0.30910012466E+02 -0.23791770522E+02  0.61612831944E+02  0.51100000000E-03 0. -1.
         22    1    1    0    0    0 -0.22110001417E+02  0.18689634869E+02  0.50176518469E+01  0.29382502349E+02  0.00000000000E+00 0. -1.
</event>
<event>
 5    1  0.1691138E-003  0.9118800E+02  0.7818608E-02  0.1130116E+00
         25   -1    0    0    0    0  0.00000000000E+00  0.00000000000E+00  0.99999998245E-14  0.12500000000E+03  0.12500000000E+03 0.  0.
        -11    1    3    3    0    0 -0.28692080320E+02 -0.44393868884E+02  0.29064792527E+02  0.60322576475E+02  0.51100000000E-03 0.  1.
         23    2    1    0    0    0 -0.22822577794E+02 -0.16126454386E+02  0.84234545532E+01  0.95812893688E+02  0.91259100489E+02 0.  0.
         11    1    3    3    0    0  0.58695025260E+01  0.28267414498E+02 -0.20641337974E+02  0.35490317214E+02  0.51100000000E-03 0. -1.
         22    1    1    0    0    0  0.22822577794E+02  0.16126454386E+02 -0.84234545532E+01  0.29187106312E+02  0.00000000000E+00 0.  1.
</event>
<event>
 5    1  0.1691138E-003  0.9118800E+02  0.7818608E-02  0.1130116E+00
         25   -1    0    0    0    0  0.00000000000E+00  0.00000000000E+00  0.99999998245E-14  0.12500000000E+03  0.12500000000E+03 0.  0.
        -11    1    3    3    0    0  0.17570279869E+02  0.27122726516E+02  0.24507791098E+02  0.40558462164E+02  0.51100000000E-03 0.  1.
         23    2    1    0    0    0  0.15039720440E+02  0.72158300157E+01 -0.25548843942E+02  0.94487628402E+02  0.89425427595E+02 0.  0.
         11    1    3    3    0    0 -0.25305594284E+01 -0.19906896501E+02 -0.50056635040E+02  0.53929166238E+02  0.51100000000E-03 0. -1.
         22    1    1    0    0    0 -0.15039720440E+02 -0.72158300157E+01  0.25548843942E+02  0.30512371598E+02  0.00000000000E+00 0. -1.
</event>
<event>
 5    1  0.1691138E-003  0.9118800E+02  0.7818608E-02  0.1130116E+00
         25   -1    0    0    0    0  0.00000000000E+00  0.00000000000E+00  0.99999998245E-14  0.12500000000E+03  0.12500000000E+03 0.  0.
        -11    1    3    3    0    0  0.79197288505E+01 -0.46105253673E+02 -0.18040950510E+02  0.50138731703E+02  0.51100000000E-03 0.  1.
         23    2    1    0    0    0  0.27597747899E+01  0.12633856502E+02 -0.75364479097E+01  0.11003241054E+03  0.10900964469E+03 0.  0.
         11    1    3    3    0    0 -0.51599540605E+01  0.58739110175E+02  0.10504502600E+02  0.59893678841E+02  0.51100000000E-03 0. -1.
         22    1    1    0    0    0 -0.27597747899E+01 -0.12633856502E+02  0.75364479097E+01  0.14967589455E+02  0.00000000000E+00 0. -1.
</event>
<event>
 5    1  0.1691138E-003  0.9118800E+02  0.7818608E-02  0.1130116E+00
         25   -1    0    0    0    0  0.00000000000E+00  0.00000000000E+00  0.99999998245E-14  0.12500000000E+03  0.12500000000E+03 0.  0.
        -11    1    3    3    0    0 -0.22849789194E+02  0.86827808663E+00  0.39431620311E+02  0.45582008004E+02  0.51100000000E-03 0. -1.
         23    2    1    0    0    0 -0.10776933369E+02 -0.27724944184E+02  0.65958897951E+00  0.95246850915E+02  0.90480454955E+02 0.  0.
         11    1    3    3    0    0  0.12072855824E+02 -0.28593222270E+02 -0.38772031332E+02  0.49664842911E+02  0.51100000000E-03 0.  1.
         22    1    1    0    0    0  0.10776933369E+02  0.27724944184E+02 -0.65958897951E+00  0.29753149085E+02  0.00000000000E+00 0.  1.
</event>
<event>
 5    1  0.1691138E-003  0.9118800E+02  0.7818608E-02  0.1130116E+00
         25   -1    0    0    0    0  0.00000000000E+00  0.00000000000E+00  0.99999998245E-14  0.12500000000E+03  0.12500000000E+03 0.  0.
        -11    1    3    3    0    0  0.15519068510E+02 -0.28583945686E+02 -0.25444848149E+02  0.41295565573E+02  0.51100000000E-03 0. -1.
         23    2    1    0    0    0 -0.26573406563E+02 -0.93393875261E+01  0.45780921240E+01  0.96463549218E+02  0.92146010790E+02 0.  0.
         11    1    3    3    0    0 -0.42092475073E+02  0.19244558160E+02  0.30022940273E+02  0.55167983645E+02  0.51100000000E-03 0.  1.
         22    1    1    0    0    0  0.26573406563E+02  0.93393875261E+01 -0.45780921240E+01  0.28536450782E+02  0.00000000000E+00 0.  1.
</event>
<event>
 5    1  0.1691138E-003  0.9118800E+02  0.7818608E-02  0.1130116E+00
         25   -1    0    0    0    0  0.00000000000E+00  0.00000000000E+00  0.99999998245E-14  0.12500000000E+03  0.12500000000E+03 0.  0.
        -11    1    3    3    0    0 -0.34745895496E+02  0.12425936953E+02  0.44199405518E+02  0.57578369301E+02  0.51100000000E-03 0.  1.
         23    2    1    0    0    0 -0.45748196720E+01  0.18942263427E+02  0.22069679791E+02  0.95558378359E+02  0.90909815695E+02 0.  0.
         11    1    3    3    0    0  0.30171075824E+02  0.65163264735E+01 -0.22129725726E+02  0.37980009058E+02  0.51100000000E-03 0. -1.
         22    1    1    0    0    0  0.45748196720E+01 -0.18942263427E+02 -0.22069679791E+02  0.29441621641E+02  0.00000000000E+00 0.  1.
</event>
<event>
 5    1  0.1691138E-003  0.9118800E+02  0.7818608E-02  0.1130116E+00
         25   -1    0    0    0    0  0.00000000000E+00  0.00000000000E+00  0.99999998245E-14  0.12500000000E+03  0.12500000000E+03 0.  0.
        -11    1    3    3    0    0  0.39924472928E+02 -0.45526169727E+01  0.21611860217E+02  0.45626334087E+02  0.51100000000E-03 0. -1.
         23    2    1    0    0    0  0.12982440018E+02 -0.19088109615E+02 -0.18027247374E+02  0.95710388780E+02  0.91118588636E+02 0.  0.
         11    1    3    3    0    0 -0.26942032909E+02 -0.14535492642E+02 -0.39639107592E+02  0.50084054694E+02  0.51100000000E-03 0.  1.
         22    1    1    0    0    0 -0.12982440018E+02  0.19088109615E+02  0.18027247374E+02  0.29289611220E+02  0.00000000000E+00 0.  1.
</event>
<event>
 5    1  0.1691138E-003  0.9118800E+02  0.7818608E-02  0.1130116E+00
         25   -1    0    0    0    0  0.00000000000E+00  0.00000000000E+00  0.99999998245E-14  0.12500000000E+03  0.12500000000E+03 0.  0.
        -11    1    3    3    0    0 -0.15224736145E+02  0.20733425940E+02  0.30884952031E+02  0.40193877695E+02  0.51100000000E-03 0.  1.
         23    2    1    0    0    0  0.19778916037E+02 -0.18012168482E+02  0.11248804016E+02  0.95979673937E+02  0.91487258590E+02 0.  0.
         11    1    3    3    0    0  0.35003652182E+02 -0.38745594422E+02 -0.19636148016E+02  0.55785796242E+02  0.51100000000E-03 0. -1.
         22    1    1    0    0    0 -0.19778916037E+02  0.18012168482E+02 -0.11248804016E+02  0.29020326063E+02  0.00000000000E+00 0. -1.
</event>
<event>
 5    1  0.1691138E-003  0.9118800E+02  0.7818608E-02  0.1130116E+00
         25   -1    0    0    0    0  0.00000000000E+00  0.00000000000E+00  0.99999998245E-14  0.12500000000E+03  0.12500000000E+03 0.  0.
        -11    1    3    3    0    0  0.14098424503E+02  0.48422088553E+02  0.67877066235E+00  0.50437336995E+02  0.51100000000E-03 0.  1.
         23    2    1    0    0    0  0.21106911362E+02  0.74787638777E+01  0.18804773727E+02  0.95758708454E+02  0.91184851338E+02 0.  0.
         11    1    3    3    0    0  0.70084868588E+01 -0.40943324675E+02  0.18126003064E+02  0.45321371459E+02  0.51100000000E-03 0. -1.
         22    1    1    0    0    0 -0.21106911362E+02 -0.74787638777E+01 -0.18804773727E+02  0.29241291546E+02  0.00000000000E+00 0.  1.
</event>
<event>
 5    1  0.1691138E-003  0.9118800E+02  0.7818608E-02  0.1130116E+00
         25   -1    0    0    0    0  0.00000000000E+00  0.00000000000E+00  0.99999998245E-14  0.12500000000E+03  0.12500000000E+03 0.  0.
        -11    1    3    3    0    0 -0.39278984381E+02 -0.26929350879E+02 -0.63821510694E+01  0.48049561968E+02  0.51100000000E-03 0. -1.
         23    2    1    0    0    0 -0.74503349352E+01 -0.12194439474E+02  0.25707105111E+02  0.95587976983E+02  0.90950504374E+02 0.  0.
         11    1    3    3    0    0  0.31828649446E+02  0.14734911405E+02  0.32089256180E+02  0.47538415015E+02  0.51100000000E-03 0.  1.
         22    1    1    0    0    0  0.74503349352E+01  0.12194439474E+02 -0.25707105111E+02  0.29412023017E+02  0.00000000000E+00 0.  1.
</event>
<event>
 5    1  0.1691138E-003  0.9118800E+02  0.7818608E-02  0.1130116E+00
         25   -1    0    0    0    0  0.00000000000E+00  0.00000000000E+00  0.99999998245E-14  0.12500000000E+03  0.12500000000E+03 0.  0.
        -11    1    3    3    0    0  0.15363623070E+02 -0.31489858249E+02 -0.26691027930E+02  0.44046146921E+02  0.51100000000E-03 0. -1.
         23    2    1    0    0    0 -0.14820785651E+02 -0.21327997669E+02  0.13821862963E+02  0.95579206883E+02  0.90938450177E+02 0.  0.
         11    1    3    3    0    0 -0.30184408721E+02  0.10161860580E+02  0.40512890893E+02  0.51533059962E+02  0.51100000000E-03 0.  1.
         22    1    1    0    0    0  0.14820785651E+02  0.21327997669E+02 -0.13821862963E+02  0.29420793117E+02  0.00000000000E+00 0.  1.
</event>
<event>
 5    1  0.1691138E-003  0.9118800E+02  0.7818608E-02  0.1130116E+00
         25   -1    0    0    0    0  0.00000000000E+00  0.00000000000E+00  0.99999998245E-14  0.12500000000E+03  0.12500000000E+03 0.  0.
        -11    1    3    3    0    0  0.24658405524E+02  0.14405873411E+02 -0.24411235352E+02  0.37569596264E+02  0.51100000000E-03 0. -1.
         23    2    1    0    0    0 -0.21716205705E+00  0.61751572671E+01  0.28085965184E+02  0.96242372021E+02  0.91845484404E+02 0.  0.
         11    1    3    3    0    0 -0.24875567581E+02 -0.82307161440E+01  0.52497200536E+02  0.58672775758E+02  0.51100000000E-03 0.  1.
         22    1    1    0    0    0  0.21716205705E+00 -0.61751572671E+01 -0.28085965184E+02  0.28757627979E+02  0.00000000000E+00 0.  1.
</event>
<event>
 5    1  0.1691138E-003  0.9118800E+02  0.7818608E-02  0.1130116E+00
         25   -1    0    0    0    0  0.00000000000E+00  0.00000000000E+00  0.99999998245E-14  0.12500000000E+03  0.12500000000E+03 0.  0.
        -11    1    3    3    0    0  0.55748213731E+02 -0.14251969000E+01 -0.23096848858E+02  0.60360243106E+02  0.51100000000E-03 0. -1.
         23    2    1    0    0    0  0.23048597160E+02 -0.11937183815E+02 -0.84226964985E+01  0.97711247650E+02  0.93823301544E+02 0.  0.
         11    1    3    3    0    0 -0.32699616570E+02 -0.10511986915E+02  0.14674152360E+02  0.37351004544E+02  0.51100000000E-03 0.  1.
         22    1    1    0    0    0 -0.23048597160E+02  0.11937183815E+02  0.84226964985E+01  0.27288752350E+02  0.00000000000E+00 0. -1.
</event>
<event>
 5    1  0.1691138E-003  0.9118800E+02  0.7818608E-02  0.1130116E+00
         25   -1    0    0    0    0  0.00000000000E+00  0.00000000000E+00  0.99999998245E-14  0.12500000000E+03  0.12500000000E+03 0.  0.
        -11    1    3    3    0    0 -0.25985360904E+01  0.32678351313E+02  0.21356374851E+02  0.39124439694E+02  0.51100000000E-03 0.  1.
         23    2    1    0    0    0 -0.23315168653E+02 -0.75520079955E+01 -0.14201731716E+02  0.96674762175E+02  0.92432086116E+02 0.  0.
         11    1    3    3    0    0 -0.20716632563E+02 -0.40230359308E+02 -0.35558106566E+02  0.57550322481E+02  0.51100000000E-03 0. -1.
         22    1    1    0    0    0  0.23315168653E+02  0.75520079955E+01  0.14201731716E+02  0.28325237825E+02  0.00000000000E+00 0. -1.
</event>
<event>
 5    1  0.1691138E-003  0.9118800E+02  0.7818608E-02  0.1130116E+00
         25   -1    0    0    0    0  0.00000000000E+00  0.00000000000E+00  0.99999998245E-14  0.12500000000E+03  0.12500000000E+03 0.  0.
        -11    1    3    3    0    0 -0.53139609407E+02  0.30676027680E+02 -0.11704667009E+02  0.62464677956E+02  0.51100000000E-03 0. -1.
         23    2    1    0    0    0 -0.26917115731E+02  0.14070551717E+02 -0.50063276863E+01  0.94217296062E+02  0.89046751852E+02 0.  0.
         11    1    3    3    0    0  0.26222493676E+02 -0.16605475964E+02  0.66983393230E+01  0.31752618105E+02  0.51100000000E-03 0.  1.
         22    1    1    0    0    0  0.26917115731E+02 -0.14070551717E+02  0.50063276863E+01  0.30782703938E+02  0.00000000000E+00 0. -1.
</event>
<event>
 5    1  0.1691138E-003  0.9118800E+02  0.7818608E-02  0.1130116E+00
         25   -1    0    0    0    0  0.00000000000E+00  0.00000000000E+00  0.99999998245E-14  0.12500000000E+03  0.12500000000E+03 0.  0.
        -11    1    3    3    0    0  0.35547063463E+02  0.51956485543E+01  0.98944427965E+01  0.37262427232E+02  0.51100000000E-03 0. -1.
         23    2    1    0    0    0 -0.22574980562E+02  0.40927755565E+01 -0.11662276313E+02  0.99263076176E+02  0.95868498705E+02 0.  0.
         11    1    3    3    0    0 -0.58122044025E+02 -0.11028729978E+01 -0.21556719109E+02  0.62000648944E+02  0.51100000000E-03 0.  1.
         22    1    1    0    0    0  0.22574980562E+02 -0.40927755565E+01  0.11662276313E+02  0.25736923824E+02  0.00000000000E+00 0.  1.
</event>
<event>
 5    1  0.1691138E-003  0.9118800E+02  0.7818608E-02  0.1130116E+00
         25   -1    0    0    0    0  0.00000000000E+00  0.00000000000E+00  0.99999998245E-14  0.12500000000E+03  0.12500000000E+03 0.  0.
        -11    1    3    3    0    0  0.25034470864E+02 -0.35989801099E+02 -0.10981379162E+01  0.43854263439E+02  0.51100000000E-03 0.  1.
         23    2    1    0    0    0 -0.19149813787E+02 -0.14379025123E+02 -0.17095749758E+02  0.95576601295E+02  0.90934868581E+02 0.  0.
         11    1    3    3    0    0 -0.44184284651E+02  0.21610775976E+02 -0.15997611841E+02  0.51722337856E+02  0.51100000000E-03 0. -1.
         22    1    1    0    0    0  0.19149813787E+02  0.14379025123E+02  0.17095749758E+02  0.29423398705E+02  0.00000000000E+00 0. -1.
</event>
<event>
 5    1  0.1691138E-003  0.9118800E+02  0.7818608E-02  0.1130116E+00
         25   -1    0    0    0    0  0.00000000000E+00  0.00000000000E+00  0.99999998245E-14  0.12500000000E+03  0.12500000000E+03 0.  0.
        -11    1    3    3    0    0  0.13751948917E+01  0.32857774981E+02  0.85054860799E+01  0.33968630108E+02  0.51100000000E-03 0.  1.
         23    2    1    0    0    0  0.42849481009E+02  0.15365021835E+02  0.21414683180E+01  0.79428651488E+02  0.65055075681E+02 0.  0.
         11    1    3    3    0    0  0.41474286117E+02 -0.17492753146E+02 -0.63640177619E+01  0.45460021380E+02  0.51100000000E-03 0. -1.
         22    1    1    0    0    0 -0.42849481009E+02 -0.15365021835E+02 -0.21414683180E+01  0.45571348512E+02  0.00000000000E+00 0. -1.
</event>
<event>
 5    1  0.1691138E-003  0.9118800E+02  0.7818608E-02  0.1130116E+00
         25   -1    0    0    0    0  0.00000000000E+00  0.00000000000E+00  0.99999998245E-14  0.12500000000E+03  0.12500000000E+03 0.  0.
        -11    1    3    3    0    0  0.32726026017E-01 -0.11512358221E+02 -0.56631420425E+02  0.57789733019E+02  0.51100000000E-03 0.  1.
         23    2    1    0    0    0  0.55254517115E+01  0.11138585446E+02 -0.24977593655E+02  0.97098765490E+02  0.93003716983E+02 0.  0.
         11    1    3    3    0    0  0.54927256855E+01  0.22650943667E+02  0.31653826770E+02  0.39309032472E+02  0.51100000000E-03 0. -1.
         22    1    1    0    0    0 -0.55254517115E+01 -0.11138585446E+02  0.24977593655E+02  0.27901234510E+02  0.00000000000E+00 0.  1.
</event>
<event>
 5    1  0.1691138E-003  0.9118800E+02  0.7818608E-02  0.1130116E+00
         25   -1    0    0    0    0  0.00000000000E+00  0.00000000000E+00  0.99999998245E-14  0.12500000000E+03  0.12500000000E+03 0.  0.
        -11    1    3    3    0    0  0.25496763933E+02  0.31920209189E+02 -0.26277704548E+02  0.48574710316E+02  0.51100000000E-03 0. -1.
         23    2    1    0    0    0 -0.95593662546E+01  0.27381236777E+02  0.47528358368E+01  0.95611174587E+02  0.90982380969E+02 0.  0.
         11    1    3    3    0    0 -0.35056130188E+02 -0.45389724118E+01  0.31030540384E+02  0.47036464271E+02  0.51100000000E-03 0.  1.
         22    1    1    0    0    0  0.95593662546E+01 -0.27381236777E+02 -0.47528358368E+01  0.29388825413E+02  0.00000000000E+00 0.  1.
</event>
<event>
 5    1  0.1691138E-003  0.9118800E+02  0.7818608E-02  0.1130116E+00
         25   -1    0    0    0    0  0.00000000000E+00  0.00000000000E+00  0.99999998245E-14  0.12500000000E+03  0.12500000000E+03 0.  0.
        -11    1    3    3    0    0  0.35165134544E+02  0.33665091636E+02 -0.19916546439E+02  0.52598421124E+02  0.51100000000E-03 0. -1.
         23    2    1    0    0    0  0.25923948625E+02 -0.69497820338E+01 -0.14181566298E+02  0.94644318401E+02  0.89644183304E+02 0.  0.
         11    1    3    3    0    0 -0.92411859190E+01 -0.40614873670E+02  0.57349801403E+01  0.42045897278E+02  0.51100000000E-03 0.  1.
         22    1    1    0    0    0 -0.25923948625E+02  0.69497820338E+01  0.14181566298E+02  0.30355681599E+02  0.00000000000E+00 0. -1.
</event>
<event>
 5    1  0.1691138E-003  0.9118800E+02  0.7818608E-02  0.1130116E+00
         25   -1    0    0    0    0  0.00000000000E+00  0.00000000000E+00  0.99999998245E-14  0.12500000000E+03  0.12500000000E+03 0.  0.
        -11    1    3    3    0    0  0.16810463933E+02 -0.39241520012E+02 -0.26356774426E+02  0.50171387751E+02  0.51100000000E-03 0. -1.
         23    2    1    0    0    0 -0.14270764941E+02 -0.25050373475E+02  0.40213521024E+01  0.95890770949E+02  0.91365708760E+02 0.  0.
         11    1    3    3    0    0 -0.31081228873E+02  0.14191146537E+02  0.30378126529E+02  0.45719383198E+02  0.51100000000E-03 0.  1.
         22    1    1    0    0    0  0.14270764941E+02  0.25050373475E+02 -0.40213521024E+01  0.29109229051E+02  0.00000000000E+00 0. -1.
</event>
<event>
 5    1  0.1691138E-003  0.9118800E+02  0.7818608E-02  0.1130116E+00
         25   -1    0    0    0    0  0.00000000000E+00  0.00000000000E+00  0.99999998245E-14  0.12500000000E+03  0.12500000000E+03 0.  0.
        -11    1    3    3    0    0 -0.49635751308E+02  0.59996518107E+01 -0.21244773176E+02  0.54323512565E+02  0.51100000000E-03 0. -1.
         23    2    1    0    0    0 -0.23957094038E+02  0.18864574480E+02  0.60128635851E+01  0.93919957311E+02  0.88628377666E+02 0.  0.
         11    1    3    3    0    0  0.25678657270E+02  0.12864922669E+02  0.27257636761E+02  0.39596444746E+02  0.51100000000E-03 0.  1.
         22    1    1    0    0    0  0.23957094038E+02 -0.18864574480E+02 -0.60128635851E+01  0.31080042689E+02  0.00000000000E+00 0. -1.
</event>
<event>
 5    1  0.1691138E-003  0.9118800E+02  0.7818608E-02  0.1130116E+00
         25   -1    0    0    0    0  0.00000000000E+00  0.00000000000E+00  0.99999998245E-14  0.12500000000E+03  0.12500000000E+03 0.  0.
        -11    1    3    3    0    0 -0.18175909111E+02 -0.71696448164E+01  0.50783815491E+02  0.54412897321E+02  0.51100000000E-03 0. -1.
         23    2    1    0    0    0  0.12565403544E+02  0.50437362281E+01  0.25788028421E+02  0.95873533493E+02  0.91342122667E+02 0.  0.
         11    1    3    3    0    0  0.30741312655E+02  0.12213381045E+02 -0.24995787070E+02  0.41460636172E+02  0.51100000000E-03 0.  1.
         22    1    1    0    0    0 -0.12565403544E+02 -0.50437362281E+01 -0.25788028421E+02  0.29126466507E+02  0.00000000000E+00 0. -1.
</event>
<event>
 5    1  0.1691138E-003  0.9118800E+02  0.7818608E-02  0.1130116E+00
         25   -1    0    0    0    0  0.00000000000E+00  0.00000000000E+00  0.99999998245E-14  0.12500000000E+03  0.12500000000E+03 0.  0.
        -11    1    3    3    0    0  0.22546331467E+02 -0.22453204929E+02 -0.16692626846E+02  0.35932259399E+02  0.51100000000E-03 0.  1.
         23    2    1    0    0    0 -0.22160423225E+02 -0.76768011476E+01  0.18837532900E+02  0.94918938198E+02  0.90026299210E+02 0.  0.
         11    1    3    3    0    0 -0.44706754692E+02  0.14776403782E+02  0.35530159747E+02  0.58986678799E+02  0.51100000000E-03 0. -1.
         22    1    1    0    0    0  0.22160423225E+02  0.76768011476E+01 -0.18837532900E+02  0.30081061802E+02  0.00000000000E+00 0. -1.
</event>
<event>
 5    1  0.1691138E-003  0.9118800E+02  0.7818608E-02  0.1130116E+00
         25   -1    0    0    0    0  0.00000000000E+00  0.00000000000E+00  0.99999998245E-14  0.12500000000E+03  0.12500000000E+03 0.  0.
        -11    1    3    3    0    0  0.24415786469E+02  0.14009564059E+02 -0.21864675841E+02  0.35643548700E+02  0.51100000000E-03 0.  1.
         23    2    1    0    0    0 -0.64112622998E+01 -0.10689314745E+02  0.25078305208E+02  0.96994873217E+02  0.92863977431E+02 0.  0.
         11    1    3    3    0    0 -0.30827048769E+02 -0.24698878804E+02  0.46942981049E+02  0.61351324517E+02  0.51100000000E-03 0. -1.
         22    1    1    0    0    0  0.64112622998E+01  0.10689314745E+02 -0.25078305208E+02  0.28005126783E+02  0.00000000000E+00 0. -1.
</event>
<event>
 5    1  0.1691138E-003  0.9118800E+02  0.7818608E-02  0.1130116E+00
         25   -1    0    0    0    0  0.00000000000E+00  0.00000000000E+00  0.99999998245E-14  0.12500000000E+03  0.12500000000E+03 0.  0.
        -11    1    3    3    0    0  0.34292986484E+02  0.48322800122E+02  0.12631567936E+02  0.60585959120E+02  0.51100000000E-03 0. -1.
         23    2    1    0    0    0  0.76584964279E+01  0.24954236415E+02  0.12591364562E+02  0.96018817414E+02  0.91540725109E+02 0.  0.
         11    1    3    3    0    0 -0.26634490056E+02 -0.23368563708E+02 -0.40203374653E-01  0.35432858294E+02  0.51100000000E-03 0.  1.
         22    1    1    0    0    0 -0.76584964279E+01 -0.24954236415E+02 -0.12591364562E+02  0.28981182586E+02  0.00000000000E+00 0. -1.
</event>
<event>
 5    1  0.1691138E-003  0.9118800E+02  0.7818608E-02  0.1130116E+00
         25   -1    0    0    0    0  0.00000000000E+00  0.00000000000E+00  0.99999998245E-14  0.12500000000E+03  0.12500000000E+03 0.  0.
        -11    1    3    3    0    0  0.54992882925E+02  0.16296925126E+02  0.79771019710E+01  0.57908903435E+02  0.51100000000E-03 0. -1.
         23    2    1    0    0    0  0.17122300298E+02  0.17529501515E+02  0.14748357887E+02  0.96399813790E+02  0.92059510359E+02 0.  0.
         11    1    3    3    0    0 -0.37870582626E+02  0.12325763895E+01  0.67712559162E+01  0.38490910355E+02  0.51100000000E-03 0.  1.
         22    1    1    0    0    0 -0.17122300298E+02 -0.17529501515E+02 -0.14748357887E+02  0.28600186210E+02  0.00000000000E+00 0. -1.
</event>
<event>
 5    1  0.1691138E-003  0.9118800E+02  0.7818608E-02  0.1130116E+00
         25   -1    0    0    0    0  0.00000000000E+00  0.00000000000E+00  0.99999998245E-14  0.12500000000E+03  0.12500000000E+03 0.  0.
        -11    1    3    3    0    0 -0.66066240366E+00 -0.18969099243E+02  0.29479356112E+02  0.35061312553E+02  0.51100000000E-03 0. -1.
         23    2    1    0    0    0 -0.22196627536E+01 -0.58327883190E+01 -0.29162750478E+02  0.95176949557E+02  0.90383833671E+02 0.  0.
         11    1    3    3    0    0 -0.15590003500E+01  0.13136310924E+02 -0.58642106590E+02  0.60115637004E+02  0.51100000000E-03 0.  1.
         22    1    1    0    0    0  0.22196627536E+01  0.58327883190E+01  0.29162750478E+02  0.29823050443E+02  0.00000000000E+00 0.  1.
</event>
<event>
 5    1  0.1691138E-003  0.9118800E+02  0.7818608E-02  0.1130116E+00
         25   -1    0    0    0    0  0.00000000000E+00  0.00000000000E+00  0.99999998245E-14  0.12500000000E+03  0.12500000000E+03 0.  0.
        -11    1    3    3    0    0 -0.54438836815E+01 -0.67127732376E+01 -0.42095856446E+02  0.42973926098E+02  0.51100000000E-03 0.  1.
         23    2    1    0    0    0  0.26777156342E+02 -0.58850895845E+01  0.19056516669E+01  0.97517607646E+02  0.93564960918E+02 0.  0.
         11    1    3    3    0    0  0.32221040024E+02  0.82768365304E+00  0.44001508113E+02  0.54543681549E+02  0.51100000000E-03 0. -1.
         22    1    1    0    0    0 -0.26777156342E+02  0.58850895845E+01 -0.19056516669E+01  0.27482392354E+02  0.00000000000E+00 0.  1.
</event>
<event>
 5    1  0.1691138E-003  0.9118800E+02  0.7818608E-02  0.1130116E+00
         25   -1    0    0    0    0  0.00000000000E+00  0.00000000000E+00  0.99999998245E-14  0.12500000000E+03  0.12500000000E+03 0.  0.
        -11    1    3    3    0    0 -0.21228771712E+02 -0.31613965664E+02  0.21775926011E+02  0.43866781593E+02  0.51100000000E-03 0.  1.
         23    2    1    0    0    0  0.22011128542E+02 -0.20603411914E+02 -0.26492529591E+01  0.94734361011E+02  0.89769651067E+02 0.  0.
         11    1    3    3    0    0  0.43239900254E+02  0.11010553751E+02 -0.24425178970E+02  0.50867579418E+02  0.51100000000E-03 0. -1.
         22    1    1    0    0    0 -0.22011128542E+02  0.20603411914E+02  0.26492529591E+01  0.30265638989E+02  0.00000000000E+00 0.  1.
</event>
<event>
 5    1  0.1691138E-003  0.9118800E+02  0.7818608E-02  0.1130116E+00
         25   -1    0    0    0    0  0.00000000000E+00  0.00000000000E+00  0.99999998245E-14  0.12500000000E+03  0.12500000000E+03 0.  0.
        -11    1    3    3    0    0  0.26304930712E+02 -0.38646199100E+01 -0.31471009383E+02  0.41198411361E+02  0.51100000000E-03 0.  1.
         23    2    1    0    0    0 -0.17935705261E+02 -0.22250540219E+02 -0.48332326037E+01  0.96014896919E+02  0.91535371467E+02 0.  0.
         11    1    3    3    0    0 -0.44240635973E+02 -0.18385920309E+02  0.26637776779E+02  0.54816485558E+02  0.51100000000E-03 0. -1.
         22    1    1    0    0    0  0.17935705261E+02  0.22250540219E+02  0.48332326037E+01  0.28985103081E+02  0.00000000000E+00 0. -1.
</event>
<event>
 5    1  0.1691138E-003  0.9118800E+02  0.7818608E-02  0.1130116E+00
         25   -1    0    0    0    0  0.00000000000E+00  0.00000000000E+00  0.99999998245E-14  0.12500000000E+03  0.12500000000E+03 0.  0.
        -11    1    3    3    0    0  0.13230653537E+02 -0.26892367432E+02 -0.47477690741E+02  0.56146066091E+02  0.51100000000E-03 0.  1.
         23    2    1    0    0    0  0.14520981947E+02  0.48374456081E+01 -0.27095685307E+02  0.93880296291E+02  0.88572422755E+02 0.  0.
         11    1    3    3    0    0  0.12903284092E+01  0.31729813040E+02  0.20382005434E+02  0.37734230200E+02  0.51100000000E-03 0. -1.
         22    1    1    0    0    0 -0.14520981947E+02 -0.48374456081E+01  0.27095685307E+02  0.31119703709E+02  0.00000000000E+00 0.  1.
</event>
<event>
 5    1  0.1691138E-003  0.9118800E+02  0.7818608E-02  0.1130116E+00
         25   -1    0    0    0    0  0.00000000000E+00  0.00000000000E+00  0.99999998245E-14  0.12500000000E+03  0.12500000000E+03 0.  0.
        -11    1    3    3    0    0  0.38561204455E+01  0.31217698953E+02  0.15325620163E+02  0.34989841761E+02  0.51100000000E-03 0.  1.
         23    2    1    0    0    0  0.22662593274E+02 -0.19344641383E+02 -0.85759995566E+01  0.93994257749E+02  0.88733107897E+02 0.  0.
         11    1    3    3    0    0  0.18806472829E+02 -0.50562340336E+02 -0.23901619720E+02  0.59004415988E+02  0.51100000000E-03 0. -1.
         22    1    1    0    0    0 -0.22662593274E+02  0.19344641383E+02  0.85759995566E+01  0.31005742251E+02  0.00000000000E+00 0. -1.
</event>
<event>
 5    1  0.1691138E-003  0.9118800E+02  0.7818608E-02  0.1130116E+00
         25   -1    0    0    0    0  0.00000000000E+00  0.00000000000E+00  0.99999998245E-14  0.12500000000E+03  0.12500000000E+03 0.  0.
        -11    1    3    3    0    0 -0.32094480412E+02 -0.11878646447E+02  0.34980676614E+02  0.48936751537E+02  0.51100000000E-03 0.  1.
         23    2    1    0    0    0 -0.15068065006E+01 -0.28223813773E+02  0.22127529002E+01  0.96649507850E+02  0.92397927263E+02 0.  0.
         11    1    3    3    0    0  0.30587673912E+02 -0.16345167326E+02 -0.32767923714E+02  0.47712756313E+02  0.51100000000E-03 0. -1.
         22    1    1    0    0    0  0.15068065006E+01  0.28223813773E+02 -0.22127529002E+01  0.28350492150E+02  0.00000000000E+00 0.  1.
</event>
<event>
 5    1  0.1691138E-003  0.9118800E+02  0.7818608E-02  0.1130116E+00
         25   -1    0    0    0    0  0.00000000000E+00  0.00000000000E+00  0.99999998245E-14  0.12500000000E+03  0.12500000000E+03 0.  0.
        -11    1    3    3    0    0 -0.40982070518E+02 -0.16755611066E+02 -0.26612945540E+02  0.51657811381E+02  0.51100000000E-03 0. -1.
         23    2    1    0    0    0 -0.96578067155E+01  0.12577088867E+02 -0.25963737054E+02  0.94576784576E+02  0.89549964511E+02 0.  0.
         11    1    3    3    0    0  0.31324263803E+02  0.29332699933E+02  0.64920848625E+00  0.42918973194E+02  0.51100000000E-03 0.  1.
         22    1    1    0    0    0  0.96578067155E+01 -0.12577088867E+02  0.25963737054E+02  0.30423215424E+02  0.00000000000E+00 0.  1.
</event>
<event>
 5    1  0.1691138E-003  0.9118800E+02  0.7818608E-02  0.1130116E+00
         25   -1    0    0    0    0  0.00000000000E+00  0.00000000000E+00  0.99999998245E-14  0.12500000000E+03  0.12500000000E+03 0.  0.
        -11    1    3    3    0    0 -0.32970023884E+02  0.33933428877E+02  0.32971695874E+02  0.57668299778E+02  0.51100000000E-03 0.  1.
         23    2    1    0    0    0 -0.20577687973E+01  0.26272388649E+02  0.10565008656E+02  0.96608236658E+02  0.92342076891E+02 0.  0.
         11    1    3    3    0    0  0.30912255087E+02 -0.76610402277E+01 -0.22406687218E+02  0.38939936880E+02  0.51100000000E-03 0. -1.
         22    1    1    0    0    0  0.20577687973E+01 -0.26272388649E+02 -0.10565008656E+02  0.28391763342E+02  0.00000000000E+00 0.  1.
</event>
<event>
 5    1  0.1691138E-003  0.9118800E+02  0.7818608E-02  0.1130116E+00
         25   -1    0    0    0    0  0.00000000000E+00  0.00000000000E+00  0.99999998245E-14  0.12500000000E+03  0.12500000000E+03 0.  0.
        -11    1    3    3    0    0  0.40519235956E+02  0.14214470576E+02  0.35165837412E+02  0.55502214167E+02  0.51100000000E-03 0. -1.
         23    2    1    0    0    0  0.27788365621E+02 -0.96068514514E+01  0.65005847066E+01  0.94887835345E+02  0.89983103060E+02 0.  0.
         11    1    3    3    0    0 -0.12730870336E+02 -0.23821322028E+02 -0.28665252706E+02  0.39385621178E+02  0.51100000000E-03 0.  1.
         22    1    1    0    0    0 -0.27788365621E+02  0.96068514514E+01 -0.65005847066E+01  0.30112164655E+02  0.00000000000E+00 0. -1.
</event>
<event>
 4    1  0.1691138E-003  0.9118800E+02  0.7818608E-02  0.1130116E+00
         25   -1    0    0    0    0  0.00000000000E+00  0.00000000000E+00  0.99999998245E-14  0.12500000000E+03  0.12500000000E+03 0.  0.
        -11    1    1    0    0    0  0.15578402361E+02  0.65975057612E+00  0.17065325772E+02  0.23115951958E+02  0.51100000000E-03 0.  1.
         11    1    1    0    0    0  0.10439780420E+02  0.29992805481E+02  0.27394576716E+02  0.41940675120E+02  0.51100000000E-03 0. -1.
         22    1    1    0    0    0 -0.26018182782E+02 -0.30652556057E+02 -0.44459902488E+02  0.59943372922E+02  0.00000000000E+00 0.  1.
</event>
<event>
 5    1  0.1691138E-003  0.9118800E+02  0.7818608E-02  0.1130116E+00
         25   -1    0    0    0    0  0.00000000000E+00  0.00000000000E+00  0.99999998245E-14  0.12500000000E+03  0.12500000000E+03 0.  0.
        -11    1    3    3    0    0  0.25575946559E+02 -0.31852497922E+01  0.36905752660E+02  0.45014546963E+02  0.51100000000E-03 0. -1.
         23    2    1    0    0    0 -0.19378215759E+02 -0.13927516283E+02  0.18665071012E+02  0.94703534337E+02  0.89726716111E+02 0.  0.
         11    1    3    3    0    0 -0.44954162317E+02 -0.10742266491E+02 -0.18240681648E+02  0.49688987374E+02  0.51100000000E-03 0.  1.
         22    1    1    0    0    0  0.19378215759E+02  0.13927516283E+02 -0.18665071012E+02  0.30296465663E+02  0.00000000000E+00 0. -1.
</event>
<event>
 5    1  0.1691138E-003  0.9118800E+02  0.7818608E-02  0.1130116E+00
         25   -1    0    0    0    0  0.00000000000E+00  0.00000000000E+00  0.99999998245E-14  0.12500000000E+03  0.12500000000E+03 0.  0.
        -11    1    3    3    0    0 -0.65582961941E+00 -0.86987782176E+01 -0.58327133463E+02  0.58975870941E+02  0.51100000000E-03 0.  1.
         23    2    1    0    0    0 -0.51459366746E+01 -0.17492435872E+02 -0.23042494400E+02  0.95615947775E+02  0.90988938579E+02 0.  0.
         11    1    3    3    0    0 -0.44901070552E+01 -0.87936576541E+01  0.35284639063E+02  0.36640076834E+02  0.51100000000E-03 0. -1.
         22    1    1    0    0    0  0.51459366746E+01  0.17492435872E+02  0.23042494400E+02  0.29384052225E+02  0.00000000000E+00 0.  1.
</event>
<event>
 5    1  0.1691138E-003  0.9118800E+02  0.7818608E-02  0.1130116E+00
         25   -1    0    0    0    0  0.00000000000E+00  0.00000000000E+00  0.99999998245E-14  0.12500000000E+03  0.12500000000E+03 0.  0.
        -11    1    3    3    0    0 -0.37810790920E+02  0.99508648838E+01  0.28872234132E+02  0.48603307768E+02  0.51100000000E-03 0.  1.
         23    2    1    0    0    0 -0.17685524615E+02  0.22148905369E+02 -0.10749209307E+02  0.94686681299E+02  0.89703234751E+02 0.  0.
         11    1    3    3    0    0  0.20125266305E+02  0.12198040485E+02 -0.39621443440E+02  0.46083373531E+02  0.51100000000E-03 0. -1.
         22    1    1    0    0    0  0.17685524615E+02 -0.22148905369E+02  0.10749209307E+02  0.30313318701E+02  0.00000000000E+00 0. -1.
</event>
<event>
 5    1  0.1691138E-003  0.9118800E+02  0.7818608E-02  0.1130116E+00
         25   -1    0    0    0    0  0.00000000000E+00  0.00000000000E+00  0.99999998245E-14  0.12500000000E+03  0.12500000000E+03 0.  0.
        -11    1    3    3    0    0  0.59588973541E+02  0.12662489458E+02 -0.61775930407E+01  0.61231912129E+02  0.51100000000E-03 0. -1.
         23    2    1    0    0    0  0.33321894380E+02  0.21580193294E+01  0.41578689028E+01  0.91350429924E+02  0.84927071544E+02 0.  0.
         11    1    3    3    0    0 -0.26267079161E+02 -0.10504470128E+02  0.10335461943E+02  0.30118517795E+02  0.51100000000E-03 0.  1.
         22    1    1    0    0    0 -0.33321894380E+02 -0.21580193294E+01 -0.41578689028E+01  0.33649570076E+02  0.00000000000E+00 0. -1.
</event>
<event>
 5    1  0.1691138E-003  0.9118800E+02  0.7818608E-02  0.1130116E+00
         25   -1    0    0    0    0  0.00000000000E+00  0.00000000000E+00  0.99999998245E-14  0.12500000000E+03  0.12500000000E+03 0.  0.
        -11    1    3    3    0    0 -0.54380048424E+01 -0.68314640881E+01 -0.58544708023E+02  0.59192259933E+02  0.51100000000E-03 0. -1.
         23    2    1    0    0    0 -0.13647024676E+02 -0.11430826107E+02 -0.23263423996E+02  0.95706793211E+02  0.91113655961E+02 0.  0.
         11    1    3    3    0    0 -0.82090198334E+01 -0.45993620187E+01  0.35281284027E+02  0.36514533277E+02  0.51100000000E-03 0.  1.
         22    1    1    0    0    0  0.13647024676E+02  0.11430826107E+02  0.23263423996E+02  0.29293206789E+02  0.00000000000E+00 0. -1.
</event>
<event>
 5    1  0.1691138E-003  0.9118800E+02  0.7818608E-02  0.1130116E+00
         25   -1    0    0    0    0  0.00000000000E+00  0.00000000000E+00  0.99999998245E-14  0.12500000000E+03  0.12500000000E+03 0.  0.
        -11    1    3    3    0    0  0.42545057011E+02 -0.39696828428E+01  0.27952445356E+02  0.51060546997E+02  0.51100000000E-03 0. -1.
         23    2    1    0    0    0  0.14528287365E+02  0.24381600693E+02  0.87783888822E+01  0.95291521454E+02  0.90542146890E+02 0.  0.
         11    1    3    3    0    0 -0.28016769645E+02  0.28351283536E+02 -0.19174056474E+02  0.44230974457E+02  0.51100000000E-03 0.  1.
         22    1    1    0    0    0 -0.14528287365E+02 -0.24381600693E+02 -0.87783888822E+01  0.29708478546E+02  0.00000000000E+00 0. -1.
</event>
<event>
 5    1  0.1691138E-003  0.9118800E+02  0.7818608E-02  0.1130116E+00
         25   -1    0    0    0    0  0.00000000000E+00  0.00000000000E+00  0.99999998245E-14  0.12500000000E+03  0.12500000000E+03 0.  0.
        -11    1    3    3    0    0 -0.54399015690E+02 -0.11139675530E+02  0.17754394410E+02  0.58297202335E+02  0.51100000000E-03 0.  1.
         23    2    1    0    0    0 -0.17811162105E+02 -0.67078389622E+01  0.22581992419E+02  0.95467323509E+02  0.90784529945E+02 0.  0.
         11    1    3    3    0    0  0.36587853585E+02  0.44318365682E+01  0.48275980095E+01  0.37170121174E+02  0.51100000000E-03 0. -1.
         22    1    1    0    0    0  0.17811162105E+02  0.67078389622E+01 -0.22581992419E+02  0.29532676491E+02  0.00000000000E+00 0.  1.
</event>
<event>
 5    1  0.1691138E-003  0.9118800E+02  0.7818608E-02  0.1130116E+00
         25   -1    0    0    0    0  0.00000000000E+00  0.00000000000E+00  0.99999998245E-14  0.12500000000E+03  0.12500000000E+03 0.  0.
        -11    1    3    3    0    0 -0.10376498128E+02  0.33900190523E+02  0.31224083903E+02  0.47242333206E+02  0.51100000000E-03 0.  1.
         23    2    1    0    0    0 -0.24914173169E+02 -0.85357270883E+01  0.12449708484E+02  0.95869776812E+02  0.91336981574E+02 0.  0.
         11    1    3    3    0    0 -0.14537675041E+02 -0.42435917611E+02 -0.18774375419E+02  0.48627443607E+02  0.51100000000E-03 0. -1.
         22    1    1    0    0    0  0.24914173169E+02  0.85357270883E+01 -0.12449708484E+02  0.29130223188E+02  0.00000000000E+00 0. -1.
</event>
<event>
 5    1  0.1691138E-003  0.9118800E+02  0.7818608E-02  0.1130116E+00
         25   -1    0    0    0    0  0.00000000000E+00  0.00000000000E+00  0.99999998245E-14  0.12500000000E+03  0.12500000000E+03 0.  0.
        -11    1    3    3    0    0  0.46525950970E+02  0.33033156885E+02  0.21675652222E+02  0.61038409767E+02  0.51100000000E-03 0. -1.
         23    2    1    0    0    0  0.20350521602E+02  0.20756673077E+02  0.23027578514E+01  0.95840337786E+02  0.91296683656E+02 0.  0.
         11    1    3    3    0    0 -0.26175429368E+02 -0.12276483808E+02 -0.19372894370E+02  0.34801928019E+02  0.51100000000E-03 0.  1.
         22    1    1    0    0    0 -0.20350521602E+02 -0.20756673077E+02 -0.23027578514E+01  0.29159662214E+02  0.00000000000E+00 0. -1.
</event>
<event>
 5    1  0.1691138E-003  0.9118800E+02  0.7818608E-02  0.1130116E+00
         25   -1    0    0    0    0  0.00000000000E+00  0.00000000000E+00  0.99999998245E-14  0.12500000000E+03  0.12500000000E+03 0.  0.
        -11    1    3    3    0    0 -0.26608696439E+02 -0.29539046807E+02 -0.13355026200E+00  0.39756708219E+02  0.51100000000E-03 0.  1.
         23    2    1    0    0    0  0.11733582441E+02 -0.18944260659E+01 -0.27967432416E+02  0.94611793687E+02  0.89598819309E+02 0.  0.
         11    1    3    3    0    0  0.38342278880E+02  0.27644620741E+02 -0.27833882154E+02  0.54855085468E+02  0.51100000000E-03 0. -1.
         22    1    1    0    0    0 -0.11733582441E+02  0.18944260659E+01  0.27967432416E+02  0.30388206313E+02  0.00000000000E+00 0. -1.
</event>
<event>
 5    1  0.1691138E-003  0.9118800E+02  0.7818608E-02  0.1130116E+00
         25   -1    0    0    0    0  0.00000000000E+00  0.00000000000E+00  0.99999998245E-14  0.12500000000E+03  0.12500000000E+03 0.  0.
        -11    1    3    3    0    0  0.34223387504E+02 -0.13187896650E+02  0.49302355269E+02  0.61448214829E+02  0.51100000000E-03 0.  1.
         23    2    1    0    0    0  0.22037557861E+02 -0.14719840379E+01  0.20385750794E+02  0.94943394588E+02  0.90060250094E+02 0.  0.
         11    1    3    3    0    0 -0.12185829643E+02  0.11715912612E+02 -0.28916604476E+02  0.33495179759E+02  0.51100000000E-03 0. -1.
         22    1    1    0    0    0 -0.22037557861E+02  0.14719840379E+01 -0.20385750794E+02  0.30056605412E+02  0.00000000000E+00 0.  1.
</event>
<event>
 5    1  0.1691138E-003  0.9118800E+02  0.7818608E-02  0.1130116E+00
         25   -1    0    0    0    0  0.00000000000E+00  0.00000000000E+00  0.99999998245E-14  0.12500000000E+03  0.12500000000E+03 0.  0.
        -11    1    3    3    0    0 -0.46327905796E+02  0.75563316066E+01 -0.30119905912E+02  0.55772589461E+02  0.51100000000E-03 0. -1.
         23    2    1    0    0    0 -0.27252003547E+02 -0.46547916120E+01  0.43452477734E+01  0.97013932743E+02  0.92889629054E+02 0.  0.
         11    1    3    3    0    0  0.19075902249E+02 -0.12211123219E+02  0.34465153685E+02  0.41241343282E+02  0.51100000000E-03 0.  1.
         22    1    1    0    0    0  0.27252003547E+02  0.46547916120E+01 -0.43452477734E+01  0.27986067257E+02  0.00000000000E+00 0. -1.
</event>
<event>
 5    1  0.1691138E-003  0.9118800E+02  0.7818608E-02  0.1130116E+00
         25   -1    0    0    0    0  0.00000000000E+00  0.00000000000E+00  0.99999998245E-14  0.12500000000E+03  0.12500000000E+03 0.  0.
        -11    1    3    3    0    0  0.33141706033E+02 -0.35156289969E+01 -0.20508300856E+02  0.39132118908E+02  0.51100000000E-03 0. -1.
         23    2    1    0    0    0 -0.39140446496E+01 -0.25306672270E+02  0.15377480550E+02  0.95130043271E+02  0.90318939419E+02 0.  0.
         11    1    3    3    0    0 -0.37055750682E+02 -0.21791043273E+02  0.35885781406E+02  0.55997924363E+02  0.51100000000E-03 0.  1.
         22    1    1    0    0    0  0.39140446496E+01  0.25306672270E+02 -0.15377480550E+02  0.29869956729E+02  0.00000000000E+00 0.  1.
</event>
<event>
 5    1  0.1691138E-003  0.9118800E+02  0.7818608E-02  0.1130116E+00
         25   -1    0    0    0    0  0.00000000000E+00  0.00000000000E+00  0.99999998245E-14  0.12500000000E+03  0.12500000000E+03 0.  0.
        -11    1    3    3    0    0 -0.17889584975E+02 -0.35365286084E+02 -0.14936507115E+02  0.42353747832E+02  0.51100000000E-03 0.  1.
         23    2    1    0    0    0  0.26670340793E+02 -0.65465741284E+01 -0.10475136639E+02  0.95607939874E+02  0.90977936713E+02 0.  0.
         11    1    3    3    0    0  0.44559925768E+02  0.28818711955E+02  0.44613704763E+01  0.53254192042E+02  0.51100000000E-03 0. -1.
         22    1    1    0    0    0 -0.26670340793E+02  0.65465741284E+01  0.10475136639E+02  0.29392060126E+02  0.00000000000E+00 0. -1.
</event>
<event>
 5    1  0.1691138E-003  0.9118800E+02  0.7818608E-02  0.1130116E+00
         25   -1    0    0    0    0  0.00000000000E+00  0.00000000000E+00  0.99999998245E-14  0.12500000000E+03  0.12500000000E+03 0.  0.
        -11    1    3    3    0    0  0.91774192318E+01  0.13078069649E+02  0.32298473782E+02  0.36034044159E+02  0.51100000000E-03 0.  1.
         23    2    1    0    0    0 -0.15550341497E+02  0.10755717164E+02 -0.22148725768E+02  0.95878450839E+02  0.91348851715E+02 0.  0.
         11    1    3    3    0    0 -0.24727760729E+02 -0.23223524849E+01 -0.54447199551E+02  0.59844406680E+02  0.51100000000E-03 0. -1.
         22    1    1    0    0    0  0.15550341497E+02 -0.10755717164E+02  0.22148725768E+02  0.29121549161E+02  0.00000000000E+00 0. -1.
</event>
<event>
 5    1  0.1691138E-003  0.9118800E+02  0.7818608E-02  0.1130116E+00
         25   -1    0    0    0    0  0.00000000000E+00  0.00000000000E+00  0.99999998245E-14  0.12500000000E+03  0.12500000000E+03 0.  0.
        -11    1    3    3    0    0 -0.10306688194E+02 -0.27017957976E+02 -0.33840282489E+02  0.44512499300E+02  0.51100000000E-03 0. -1.
         23    2    1    0    0    0 -0.22529850011E+02 -0.11017734822E+02  0.13900672945E+02  0.96325737491E+02  0.91958873268E+02 0.  0.
         11    1    3    3    0    0 -0.12223161817E+02  0.16000223154E+02  0.47740955434E+02  0.51813238191E+02  0.51100000000E-03 0.  1.
         22    1    1    0    0    0  0.22529850011E+02  0.11017734822E+02 -0.13900672945E+02  0.28674262509E+02  0.00000000000E+00 0.  1.
</event>
<event>
 5    1  0.1691138E-003  0.9118800E+02  0.7818608E-02  0.1130116E+00
         25   -1    0    0    0    0  0.00000000000E+00  0.00000000000E+00  0.99999998245E-14  0.12500000000E+03  0.12500000000E+03 0.  0.
        -11    1    3    3    0    0 -0.59497384944E+01  0.11842662531E+02 -0.56814331802E+02  0.58339663544E+02  0.51100000000E-03 0. -1.
         23    2    1    0    0    0  0.11595319642E+02  0.12793480994E+02 -0.26770969868E+02  0.93143926462E+02  0.87527033627E+02 0.  0.
         11    1    3    3    0    0  0.17545058136E+02  0.95081846277E+00  0.30043361934E+02  0.34804262919E+02  0.51100000000E-03 0.  1.
         22    1    1    0    0    0 -0.11595319642E+02 -0.12793480994E+02  0.26770969868E+02  0.31856073538E+02  0.00000000000E+00 0. -1.
</event>
<event>
 5    1  0.1691138E-003  0.9118800E+02  0.7818608E-02  0.1130116E+00
         25   -1    0    0    0    0  0.00000000000E+00  0.00000000000E+00  0.99999998245E-14  0.12500000000E+03  0.12500000000E+03 0.  0.
        -11    1    3    3    0    0  0.34851231571E+01 -0.36012322186E+02  0.13054584268E+02  0.38463692014E+02  0.51100000000E-03 0. -1.
         23    2    1    0    0    0 -0.26373118753E+02  0.75215090857E+01 -0.96479552797E+01  0.95927718825E+02  0.91416244214E+02 0.  0.
         11    1    3    3    0    0 -0.29858241910E+02  0.43533831272E+02 -0.22702539547E+02  0.57464026811E+02  0.51100000000E-03 0.  1.
         22    1    1    0    0    0  0.26373118753E+02 -0.75215090857E+01  0.96479552797E+01  0.29072281175E+02  0.00000000000E+00 0.  1.
</event>
<event>
 5    1  0.1691138E-003  0.9118800E+02  0.7818608E-02  0.1130116E+00
         25   -1    0    0    0    0  0.00000000000E+00  0.00000000000E+00  0.99999998245E-14  0.12500000000E+03  0.12500000000E+03 0.  0.
        -11    1    3    3    0    0  0.27565391799E+02  0.18919137895E+02  0.42880162599E+02  0.54373642038E+02  0.51100000000E-03 0. -1.
         23    2    1    0    0    0  0.17857931253E+02 -0.13231363158E+02  0.20752562801E+02  0.94592048039E+02  0.89571267769E+02 0.  0.
         11    1    3    3    0    0 -0.97074605457E+01 -0.32150501053E+02 -0.22127599798E+02  0.40218406001E+02  0.51100000000E-03 0.  1.
         22    1    1    0    0    0 -0.17857931253E+02  0.13231363158E+02 -0.20752562801E+02  0.30407951961E+02  0.00000000000E+00 0. -1.
</event>
<event>
 5    1  0.1691138E-003  0.9118800E+02  0.7818608E-02  0.1130116E+00
         25   -1    0    0    0    0  0.00000000000E+00  0.00000000000E+00  0.99999998245E-14  0.12500000000E+03  0.12500000000E+03 0.  0.
        -11    1    3    3    0    0 -0.29337738681E+02  0.29030901061E+02  0.15061489440E+02  0.43935686995E+02  0.51100000000E-03 0.  1.
         23    2    1    0    0    0 -0.21614865044E+02 -0.10553163600E+02 -0.17073370500E+02  0.95503023323E+02  0.90833671240E+02 0.  0.
         11    1    3    3    0    0  0.77228736371E+01 -0.39584064661E+02 -0.32134859941E+02  0.51567336328E+02  0.51100000000E-03 0. -1.
         22    1    1    0    0    0  0.21614865044E+02  0.10553163600E+02  0.17073370500E+02  0.29496976677E+02  0.00000000000E+00 0. -1.
</event>
<event>
 5    1  0.1691138E-003  0.9118800E+02  0.7818608E-02  0.1130116E+00
         25   -1    0    0    0    0  0.00000000000E+00  0.00000000000E+00  0.99999998245E-14  0.12500000000E+03  0.12500000000E+03 0.  0.
        -11    1    3    3    0    0 -0.78471981701E+01  0.21687038660E+02  0.31529544297E+02  0.39064284567E+02  0.51100000000E-03 0.  1.
         23    2    1    0    0    0 -0.52623512951E+01  0.16916722155E+02 -0.24172746666E+02  0.95030190007E+02  0.90180638176E+02 0.  0.
         11    1    3    3    0    0  0.25848468750E+01 -0.47703165048E+01 -0.55702290963E+02  0.55965905440E+02  0.51100000000E-03 0. -1.
         22    1    1    0    0    0  0.52623512951E+01 -0.16916722155E+02  0.24172746666E+02  0.29969809993E+02  0.00000000000E+00 0. -1.
</event>
<event>
 5    1  0.1691138E-003  0.9118800E+02  0.7818608E-02  0.1130116E+00
         25   -1    0    0    0    0  0.00000000000E+00  0.00000000000E+00  0.99999998245E-14  0.12500000000E+03  0.12500000000E+03 0.  0.
        -11    1    3    3    0    0  0.90264795950E+01 -0.50050165202E+02  0.31151811389E+02  0.59640017805E+02  0.51100000000E-03 0. -1.
         23    2    1    0    0    0  0.16898082817E+02 -0.26022104747E+02  0.10637792233E+02  0.92199729240E+02  0.86168046919E+02 0.  0.
         11    1    3    3    0    0  0.78716032223E+01  0.24028060455E+02 -0.20514019156E+02  0.32559711435E+02  0.51100000000E-03 0.  1.
         22    1    1    0    0    0 -0.16898082817E+02  0.26022104747E+02 -0.10637792233E+02  0.32800270760E+02  0.00000000000E+00 0. -1.
</event>
<event>
 5    1  0.1691138E-003  0.9118800E+02  0.7818608E-02  0.1130116E+00
         25   -1    0    0    0    0  0.00000000000E+00  0.00000000000E+00  0.99999998245E-14  0.12500000000E+03  0.12500000000E+03 0.  0.
        -11    1    3    3    0    0  0.16632430141E+02 -0.13401285145E+02 -0.55443115458E+02  0.59415244070E+02  0.51100000000E-03 0.  1.
         23    2    1    0    0    0  0.98953573732E+01 -0.19136626906E+02 -0.21230871295E+02  0.94753041759E+02  0.89795659359E+02 0.  0.
         11    1    3    3    0    0 -0.67370727682E+01 -0.57353417607E+01  0.34212244163E+02  0.35337797689E+02  0.51100000000E-03 0. -1.
         22    1    1    0    0    0 -0.98953573732E+01  0.19136626906E+02  0.21230871295E+02  0.30246958241E+02  0.00000000000E+00 0.  1.
</event>
<event>
 5    1  0.1691138E-003  0.9118800E+02  0.7818608E-02  0.1130116E+00
         25   -1    0    0    0    0  0.00000000000E+00  0.00000000000E+00  0.99999998245E-14  0.12500000000E+03  0.12500000000E+03 0.  0.
        -11    1    3    3    0    0  0.16308660621E+02 -0.18793120925E+02 -0.39319355311E+02  0.46531338984E+02  0.51100000000E-03 0. -1.
         23    2    1    0    0    0  0.24349311745E+02  0.15690456340E+02 -0.54607679613E+01  0.95522900595E+02  0.90861021064E+02 0.  0.
         11    1    3    3    0    0  0.80406511239E+01  0.34483577265E+02  0.33858587350E+02  0.48991561610E+02  0.51100000000E-03 0.  1.
         22    1    1    0    0    0 -0.24349311745E+02 -0.15690456340E+02  0.54607679613E+01  0.29477099405E+02  0.00000000000E+00 0.  1.
</event>
<event>
 5    1  0.1691138E-003  0.9118800E+02  0.7818608E-02  0.1130116E+00
         25   -1    0    0    0    0  0.00000000000E+00  0.00000000000E+00  0.99999998245E-14  0.12500000000E+03  0.12500000000E+03 0.  0.
        -11    1    3    3    0    0  0.48977176136E+02 -0.86812819824E+01 -0.17317098475E+02  0.52668874480E+02  0.51100000000E-03 0. -1.
         23    2    1    0    0    0  0.13802773414E+02  0.16659481154E+02 -0.19217824264E+02  0.96062487396E+02  0.91600337604E+02 0.  0.
         11    1    3    3    0    0 -0.35174402722E+02  0.25340763136E+02 -0.19007257893E+01  0.43393612917E+02  0.51100000000E-03 0.  1.
         22    1    1    0    0    0 -0.13802773414E+02 -0.16659481154E+02  0.19217824264E+02  0.28937512604E+02  0.00000000000E+00 0. -1.
</event>
<event>
 5    1  0.1691138E-003  0.9118800E+02  0.7818608E-02  0.1130116E+00
         25   -1    0    0    0    0  0.00000000000E+00  0.00000000000E+00  0.99999998245E-14  0.12500000000E+03  0.12500000000E+03 0.  0.
        -11    1    3    3    0    0  0.16063823997E+02  0.28074042141E+01  0.48772358478E+02  0.51426363974E+02  0.51100000000E-03 0. -1.
         23    2    1    0    0    0  0.15114123207E+02 -0.22503071658E+02  0.13871568014E+02  0.94549296338E+02  0.89511586315E+02 0.  0.
         11    1    3    3    0    0 -0.94970078996E+00 -0.25310475872E+02 -0.34900790464E+02  0.43122932364E+02  0.51100000000E-03 0.  1.
         22    1    1    0    0    0 -0.15114123207E+02  0.22503071658E+02 -0.13871568014E+02  0.30450703662E+02  0.00000000000E+00 0. -1.
</event>
<event>
 5    1  0.1691138E-003  0.9118800E+02  0.7818608E-02  0.1130116E+00
         25   -1    0    0    0    0  0.00000000000E+00  0.00000000000E+00  0.99999998245E-14  0.12500000000E+03  0.12500000000E+03 0.  0.
        -11    1    3    3    0    0  0.31595784746E+02  0.41792279971E+02  0.18351978463E+02  0.55512911946E+02  0.51100000000E-03 0. -1.
         23    2    1    0    0    0  0.25039737003E+02  0.29727107654E+01  0.16379379859E+02  0.94931585958E+02  0.90043858699E+02 0.  0.
         11    1    3    3    0    0 -0.65560477434E+01 -0.38819569206E+02 -0.19725986047E+01  0.39418674012E+02  0.51100000000E-03 0.  1.
         22    1    1    0    0    0 -0.25039737003E+02 -0.29727107654E+01 -0.16379379859E+02  0.30068414042E+02  0.00000000000E+00 0. -1.
</event>
<event>
 5    1  0.1691138E-003  0.9118800E+02  0.7818608E-02  0.1130116E+00
         25   -1    0    0    0    0  0.00000000000E+00  0.00000000000E+00  0.99999998245E-14  0.12500000000E+03  0.12500000000E+03 0.  0.
        -11    1    3    3    0    0 -0.28663868463E+02  0.23000532100E+02  0.18968215387E+01  0.36799996798E+02  0.51100000000E-03 0.  1.
         23    2    1    0    0    0 -0.16344157593E+02 -0.23885026196E+02 -0.19822974058E+02  0.89920429531E+02  0.82795575864E+02 0.  0.
         11    1    3    3    0    0  0.12319710869E+02 -0.46885558296E+02 -0.21719795597E+02  0.53120432732E+02  0.51100000000E-03 0. -1.
         22    1    1    0    0    0  0.16344157593E+02  0.23885026196E+02  0.19822974058E+02  0.35079570469E+02  0.00000000000E+00 0. -1.
</event>
<event>
 5    1  0.1691138E-003  0.9118800E+02  0.7818608E-02  0.1130116E+00
         25   -1    0    0    0    0  0.00000000000E+00  0.00000000000E+00  0.99999998245E-14  0.12500000000E+03  0.12500000000E+03 0.  0.
        -11    1    3    3    0    0  0.37484072250E+02 -0.30087512903E+02  0.75382916195E+01  0.48653262439E+02  0.51100000000E-03 0.  1.
         23    2    1    0    0    0 -0.71442119160E+01 -0.28324738705E+02  0.11748107521E+02  0.93514310919E+02  0.88054402103E+02 0.  0.
         11    1    3    3    0    0 -0.44628284166E+02  0.17627741988E+01  0.42098159014E+01  0.44861048480E+02  0.51100000000E-03 0. -1.
         22    1    1    0    0    0  0.71442119160E+01  0.28324738705E+02 -0.11748107521E+02  0.31485689081E+02  0.00000000000E+00 0.  1.
</event>
<event>
 5    1  0.1691138E-003  0.9118800E+02  0.7818608E-02  0.1130116E+00
         25   -1    0    0    0    0  0.00000000000E+00  0.00000000000E+00  0.99999998245E-14  0.12500000000E+03  0.12500000000E+03 0.  0.
        -11    1    3    3    0    0  0.34628183765E+02  0.18110069814E+02  0.45158640735E+02  0.59719247926E+02  0.51100000000E-03 0. -1.
         23    2    1    0    0    0  0.25120037244E+02  0.91603489277E+01  0.11367058914E+02  0.95945941902E+02  0.91441158542E+02 0.  0.
         11    1    3    3    0    0 -0.95081465206E+01 -0.89497208861E+01 -0.33791581821E+02  0.36226693976E+02  0.51100000000E-03 0.  1.
         22    1    1    0    0    0 -0.25120037244E+02 -0.91603489277E+01 -0.11367058914E+02  0.29054058098E+02  0.00000000000E+00 0. -1.
</event>
<event>
 5    1  0.1691138E-003  0.9118800E+02  0.7818608E-02  0.1130116E+00
         25   -1    0    0    0    0  0.00000000000E+00  0.00000000000E+00  0.99999998245E-14  0.12500000000E+03  0.12500000000E+03 0.  0.
        -11    1    3    3    0    0 -0.68494184756E+01 -0.76646935304E+01 -0.29645146848E+02  0.31376691863E+02  0.51100000000E-03 0. -1.
         23    2    1    0    0    0  0.14855490215E+02  0.35416754489E+02 -0.30234979332E+01  0.86475025921E+02  0.77419354687E+02 0.  0.
         11    1    3    3    0    0  0.21704908690E+02  0.43081448019E+02  0.26621648915E+02  0.55098334058E+02  0.51100000000E-03 0.  1.
         22    1    1    0    0    0 -0.14855490215E+02 -0.35416754489E+02  0.30234979332E+01  0.38524974079E+02  0.00000000000E+00 0.  1.
</event>
<event>
 5    1  0.1691138E-003  0.9118800E+02  0.7818608E-02  0.1130116E+00
         25   -1    0    0    0    0  0.00000000000E+00  0.00000000000E+00  0.99999998245E-14  0.12500000000E+03  0.12500000000E+03 0.  0.
        -11    1    3    3    0    0  0.25796715526E+02  0.16195605091E+02  0.46054058654E+02  0.55215436926E+02  0.51100000000E-03 0.  1.
         23    2    1    0    0    0 -0.33480812045E+01  0.22375378155E+02  0.20643017433E+02  0.94373192069E+02  0.89265323711E+02 0.  0.
         11    1    3    3    0    0 -0.29144796731E+02  0.61797730641E+01 -0.25411041221E+02  0.39157755142E+02  0.51100000000E-03 0. -1.
         22    1    1    0    0    0  0.33480812045E+01 -0.22375378155E+02 -0.20643017433E+02  0.30626807931E+02  0.00000000000E+00 0. -1.
</event>
<event>
 5    1  0.1691138E-003  0.9118800E+02  0.7818608E-02  0.1130116E+00
         25   -1    0    0    0    0  0.00000000000E+00  0.00000000000E+00  0.99999998245E-14  0.12500000000E+03  0.12500000000E+03 0.  0.
        -11    1    3    3    0    0 -0.17314967642E+02  0.53543047843E+02  0.20249798979E+02  0.59805688992E+02  0.51100000000E-03 0. -1.
         23    2    1    0    0    0 -0.48285318353E+01  0.32159075344E+02 -0.10425336759E+01  0.92463747555E+02  0.86550198664E+02 0.  0.
         11    1    3    3    0    0  0.12486435807E+02 -0.21383972499E+02 -0.21292332655E+02  0.32658058564E+02  0.51100000000E-03 0.  1.
         22    1    1    0    0    0  0.48285318353E+01 -0.32159075344E+02  0.10425336759E+01  0.32536252445E+02  0.00000000000E+00 0. -1.
</event>
<event>
 5    1  0.1691138E-003  0.9118800E+02  0.7818608E-02  0.1130116E+00
         25   -1    0    0    0    0  0.00000000000E+00  0.00000000000E+00  0.99999998245E-14  0.12500000000E+03  0.12500000000E+03 0.  0.
        -11    1    3    3    0    0  0.34755548364E+02  0.46887500137E+02 -0.38746802550E+01  0.58492725689E+02  0.51100000000E-03 0.  1.
         23    2    1    0    0    0  0.12050389057E+02  0.19989939269E+02 -0.17068688574E+02  0.96083747165E+02  0.91629344597E+02 0.  0.
         11    1    3    3    0    0 -0.22705159307E+02 -0.26897560869E+02 -0.13194008319E+02  0.37591021476E+02  0.51100000000E-03 0. -1.
         22    1    1    0    0    0 -0.12050389057E+02 -0.19989939269E+02  0.17068688574E+02  0.28916252835E+02  0.00000000000E+00 0.  1.
</event>
<event>
 5    1  0.1691138E-003  0.9118800E+02  0.7818608E-02  0.1130116E+00
         25   -1    0    0    0    0  0.00000000000E+00  0.00000000000E+00  0.99999998245E-14  0.12500000000E+03  0.12500000000E+03 0.  0.
        -11    1    3    3    0    0  0.54317850093E+01 -0.63968991133E+01 -0.35314280743E+02  0.36297700083E+02  0.51100000000E-03 0.  1.
         23    2    1    0    0    0  0.41437092528E+01  0.33496871021E+02  0.23351718835E+01  0.91167120692E+02  0.84656837721E+02 0.  0.
         11    1    3    3    0    0 -0.12880757565E+01  0.39893770134E+02  0.37649452626E+02  0.54869420609E+02  0.51100000000E-03 0. -1.
         22    1    1    0    0    0 -0.41437092528E+01 -0.33496871021E+02 -0.23351718835E+01  0.33832879308E+02  0.00000000000E+00 0. -1.
</event>
<event>
 5    1  0.1691138E-003  0.9118800E+02  0.7818608E-02  0.1130116E+00
         25   -1    0    0    0    0  0.00000000000E+00  0.00000000000E+00  0.99999998245E-14  0.12500000000E+03  0.12500000000E+03 0.  0.
        -11    1    3    3    0    0 -0.44469948964E+02  0.75969479999E+01  0.27089044832E+02  0.52622298790E+02  0.51100000000E-03 0. -1.
         23    2    1    0    0    0 -0.23121286590E+02 -0.17846336450E+02 -0.48240885962E+00  0.95788386957E+02  0.91225526796E+02 0.  0.
         11    1    3    3    0    0  0.21348662373E+02 -0.25443284450E+02 -0.27571453691E+02  0.43166088167E+02  0.51100000000E-03 0.  1.
         22    1    1    0    0    0  0.23121286590E+02  0.17846336450E+02  0.48240885962E+00  0.29211613043E+02  0.00000000000E+00 0. -1.
</event>
<event>
 5    1  0.1691138E-003  0.9118800E+02  0.7818608E-02  0.1130116E+00
         25   -1    0    0    0    0  0.00000000000E+00  0.00000000000E+00  0.99999998245E-14  0.12500000000E+03  0.12500000000E+03 0.  0.
        -11    1    3    3    0    0 -0.18975771721E+02  0.26724488500E+02 -0.51522396726E+02  0.61064192147E+02  0.51100000000E-03 0.  1.
         23    2    1    0    0    0 -0.57903054294E+01  0.20254896776E+02 -0.19500718928E+02  0.96293441183E+02  0.91914962307E+02 0.  0.
         11    1    3    3    0    0  0.13185466291E+02 -0.64695917239E+01  0.32021677798E+02  0.35229249036E+02  0.51100000000E-03 0. -1.
         22    1    1    0    0    0  0.57903054294E+01 -0.20254896776E+02  0.19500718928E+02  0.28706558817E+02  0.00000000000E+00 0.  1.
</event>
<event>
 5    1  0.1691138E-003  0.9118800E+02  0.7818608E-02  0.1130116E+00
         25   -1    0    0    0    0  0.00000000000E+00  0.00000000000E+00  0.99999998245E-14  0.12500000000E+03  0.12500000000E+03 0.  0.
        -11    1    3    3    0    0  0.30064540550E+02 -0.13136908707E+02 -0.29939429939E+02  0.44416488315E+02  0.51100000000E-03 0. -1.
         23    2    1    0    0    0  0.44799642393E+00  0.25841713843E+02 -0.11138202255E+02  0.96856538511E+02  0.92677584278E+02 0.  0.
         11    1    3    3    0    0 -0.29616544126E+02  0.38978622550E+02  0.18801227684E+02  0.52440050196E+02  0.51100000000E-03 0.  1.
         22    1    1    0    0    0 -0.44799642393E+00 -0.25841713843E+02  0.11138202255E+02  0.28143461489E+02  0.00000000000E+00 0.  1.
</event>
<event>
 5    1  0.1691138E-003  0.9118800E+02  0.7818608E-02  0.1130116E+00
         25   -1    0    0    0    0  0.00000000000E+00  0.00000000000E+00  0.99999998245E-14  0.12500000000E+03  0.12500000000E+03 0.  0.
        -11    1    3    3    0    0  0.77688005590E+01  0.30743719963E+02  0.73274086766E+01  0.32545683239E+02  0.51100000000E-03 0.  1.
         23    2    1    0    0    0  0.26282907212E+00 -0.28075188106E+02 -0.11353877714E+02  0.94714759280E+02  0.89742352432E+02 0.  0.
         11    1    3    3    0    0 -0.75059714869E+01 -0.58818908069E+02 -0.18681286391E+02  0.62169076042E+02  0.51100000000E-03 0. -1.
         22    1    1    0    0    0 -0.26282907212E+00  0.28075188106E+02  0.11353877714E+02  0.30285240720E+02  0.00000000000E+00 0. -1.
</event>
<event>
 5    1  0.1691138E-003  0.9118800E+02  0.7818608E-02  0.1130116E+00
         25   -1    0    0    0    0  0.00000000000E+00  0.00000000000E+00  0.99999998245E-14  0.12500000000E+03  0.12500000000E+03 0.  0.
        -11    1    3    3    0    0 -0.26156597572E+02 -0.15761803907E+02 -0.23567943100E+02  0.38575251148E+02  0.51100000000E-03 0.  1.
         23    2    1    0    0    0  0.27228908471E+02  0.50100663407E+00 -0.98078523445E+01  0.96054215648E+02  0.91589049083E+02 0.  0.
         11    1    3    3    0    0  0.53385506043E+02  0.16262810541E+02  0.13760090755E+02  0.57478964500E+02  0.51100000000E-03 0. -1.
         22    1    1    0    0    0 -0.27228908471E+02 -0.50100663407E+00  0.98078523445E+01  0.28945784352E+02  0.00000000000E+00 0. -1.
</event>
<event>
 5    1  0.1691138E-003  0.9118800E+02  0.7818608E-02  0.1130116E+00
         25   -1    0    0    0    0  0.00000000000E+00  0.00000000000E+00  0.99999998245E-14  0.12500000000E+03  0.12500000000E+03 0.  0.
        -11    1    3    3    0    0  0.52689939544E+02 -0.22076770479E+02  0.23354074888E+02  0.61717309874E+02  0.51100000000E-03 0. -1.
         23    2    1    0    0    0  0.21913720041E+02 -0.74135581687E+01  0.16742435272E+02  0.96443370129E+02  0.92118632927E+02 0.  0.
         11    1    3    3    0    0 -0.30776219504E+02  0.14663212310E+02 -0.66116396160E+01  0.34726060255E+02  0.51100000000E-03 0.  1.
         22    1    1    0    0    0 -0.21913720041E+02  0.74135581687E+01 -0.16742435272E+02  0.28556629871E+02  0.00000000000E+00 0. -1.
</event>
<event>
 5    1  0.1691138E-003  0.9118800E+02  0.7818608E-02  0.1130116E+00
         25   -1    0    0    0    0  0.00000000000E+00  0.00000000000E+00  0.99999998245E-14  0.12500000000E+03  0.12500000000E+03 0.  0.
        -11    1    3    3    0    0 -0.31400164349E+01 -0.30930769450E+02 -0.25310521202E+02  0.40089832698E+02  0.51100000000E-03 0.  1.
         23    2    1    0    0    0  0.13654412252E+01  0.24029229049E+02 -0.16215362174E+02  0.95979210058E+02  0.91486624785E+02 0.  0.
         11    1    3    3    0    0  0.45054576600E+01  0.54959998499E+02  0.90951590285E+01  0.55889377360E+02  0.51100000000E-03 0. -1.
         22    1    1    0    0    0 -0.13654412252E+01 -0.24029229049E+02  0.16215362174E+02  0.29020789942E+02  0.00000000000E+00 0. -1.
</event>
<event>
 5    1  0.1691138E-003  0.9118800E+02  0.7818608E-02  0.1130116E+00
         25   -1    0    0    0    0  0.00000000000E+00  0.00000000000E+00  0.99999998245E-14  0.12500000000E+03  0.12500000000E+03 0.  0.
        -11    1    3    3    0    0 -0.44748821652E+02 -0.21103106050E+02  0.33153241418E+02  0.59556154518E+02  0.51100000000E-03 0.  1.
         23    2    1    0    0    0 -0.27731859460E+02 -0.71587328854E+01  0.39971640575E+01  0.96081479876E+02  0.91626251528E+02 0.  0.
         11    1    3    3    0    0  0.17016962192E+02  0.13944373165E+02 -0.29156077361E+02  0.36525325358E+02  0.51100000000E-03 0. -1.
         22    1    1    0    0    0  0.27731859460E+02  0.71587328854E+01 -0.39971640575E+01  0.28918520124E+02  0.00000000000E+00 0.  1.
</event>
<event>
 5    1  0.1691138E-003  0.9118800E+02  0.7818608E-02  0.1130116E+00
         25   -1    0    0    0    0  0.00000000000E+00  0.00000000000E+00  0.99999998245E-14  0.12500000000E+03  0.12500000000E+03 0.  0.
        -11    1    3    3    0    0 -0.17739327647E+00 -0.13414821697E+02 -0.45118230523E+02  0.47070623910E+02  0.51100000000E-03 0. -1.
         23    2    1    0    0    0 -0.28281288084E+02 -0.68953647716E+01 -0.66759679202E+01  0.95134537360E+02  0.90325158954E+02 0.  0.
         11    1    3    3    0    0 -0.28103894807E+02  0.65194569252E+01  0.38442262602E+02  0.48063913450E+02  0.51100000000E-03 0.  1.
         22    1    1    0    0    0  0.28281288084E+02  0.68953647716E+01  0.66759679202E+01  0.29865462640E+02  0.00000000000E+00 0.  1.
</event>
<event>
 5    1  0.1691138E-003  0.9118800E+02  0.7818608E-02  0.1130116E+00
         25   -1    0    0    0    0  0.00000000000E+00  0.00000000000E+00  0.99999998245E-14  0.12500000000E+03  0.12500000000E+03 0.  0.
        -11    1    3    3    0    0  0.99020684903E+00 -0.54076991567E+02 -0.91177662746E+01  0.54849204084E+02  0.51100000000E-03 0. -1.
         23    2    1    0    0    0 -0.17560773981E+02 -0.17510395181E+02 -0.14608028426E+02  0.96218248548E+02  0.91812646933E+02 0.  0.
         11    1    3    3    0    0 -0.18550980830E+02  0.36566596387E+02 -0.54902621509E+01  0.41369044463E+02  0.51100000000E-03 0.  1.
         22    1    1    0    0    0  0.17560773981E+02  0.17510395181E+02  0.14608028426E+02  0.28781751452E+02  0.00000000000E+00 0. -1.
</event>
<event>
 5    1  0.1691138E-003  0.9118800E+02  0.7818608E-02  0.1130116E+00
         25   -1    0    0    0    0  0.00000000000E+00  0.00000000000E+00  0.99999998245E-14  0.12500000000E+03  0.12500000000E+03 0.  0.
        -11    1    3    3    0    0  0.54709010917E+02 -0.20937508173E+02 -0.39567243953E+01  0.58712100901E+02  0.51100000000E-03 0.  1.
         23    2    1    0    0    0  0.20151477591E+02 -0.14897889213E+02 -0.15367915408E+02  0.95602687605E+02  0.90970720021E+02 0.  0.
         11    1    3    3    0    0 -0.34557533326E+02  0.60396189600E+01 -0.11411191012E+02  0.36890586704E+02  0.51100000000E-03 0. -1.
         22    1    1    0    0    0 -0.20151477591E+02  0.14897889213E+02  0.15367915408E+02  0.29397312395E+02  0.00000000000E+00 0.  1.
</event>
<event>
 5    1  0.1691138E-003  0.9118800E+02  0.7818608E-02  0.1130116E+00
         25   -1    0    0    0    0  0.00000000000E+00  0.00000000000E+00  0.99999998245E-14  0.12500000000E+03  0.12500000000E+03 0.  0.
        -11    1    3    3    0    0  0.24673090973E+02  0.46357316065E+02  0.80919044713E+00  0.52520633663E+02  0.51100000000E-03 0.  1.
         23    2    1    0    0    0  0.10959902300E+02  0.13518706780E+02 -0.23602051214E+02  0.95675407711E+02  0.91070587610E+02 0.  0.
         11    1    3    3    0    0 -0.13713188674E+02 -0.32838609285E+02 -0.24411241661E+02  0.43154774048E+02  0.51100000000E-03 0. -1.
         22    1    1    0    0    0 -0.10959902300E+02 -0.13518706780E+02  0.23602051214E+02  0.29324592289E+02  0.00000000000E+00 0.  1.
</event>
<event>
 5    1  0.1691138E-003  0.9118800E+02  0.7818608E-02  0.1130116E+00
         25   -1    0    0    0    0  0.00000000000E+00  0.00000000000E+00  0.99999998245E-14  0.12500000000E+03  0.12500000000E+03 0.  0.
        -11    1    3    3    0    0 -0.34280667521E+02 -0.30159312469E+01  0.15119534940E+02  0.37588034586E+02  0.51100000000E-03 0.  1.
         23    2    1    0    0    0 -0.30931053897E+02 -0.11408657821E+02 -0.28062691706E+02  0.81705632765E+02  0.69292194303E+02 0.  0.
         11    1    3    3    0    0  0.33496136238E+01 -0.83927265739E+01 -0.43182226646E+02  0.44117598180E+02  0.51100000000E-03 0. -1.
         22    1    1    0    0    0  0.30931053897E+02  0.11408657821E+02  0.28062691706E+02  0.43294367235E+02  0.00000000000E+00 0.  1.
</event>
<event>
 5    1  0.1691138E-003  0.9118800E+02  0.7818608E-02  0.1130116E+00
         25   -1    0    0    0    0  0.00000000000E+00  0.00000000000E+00  0.99999998245E-14  0.12500000000E+03  0.12500000000E+03 0.  0.
        -11    1    3    3    0    0 -0.48828093929E+02 -0.88237995988E+01  0.31303466279E+02  0.58668127612E+02  0.51100000000E-03 0.  1.
         23    2    1    0    0    0 -0.27598588591E+02 -0.68031751506E+01 -0.36202898783E-01  0.96575246791E+02  0.92297408944E+02 0.  0.
         11    1    3    3    0    0  0.21229505338E+02  0.20206244482E+01 -0.31339669177E+02  0.37907119179E+02  0.51100000000E-03 0. -1.
         22    1    1    0    0    0  0.27598588591E+02  0.68031751506E+01  0.36202898783E-01  0.28424753209E+02  0.00000000000E+00 0.  1.
</event>
<event>
 5    1  0.1691138E-003  0.9118800E+02  0.7818608E-02  0.1130116E+00
         25   -1    0    0    0    0  0.00000000000E+00  0.00000000000E+00  0.99999998245E-14  0.12500000000E+03  0.12500000000E+03 0.  0.
        -11    1    3    3    0    0  0.18179270054E+02  0.16607955440E+02 -0.33304118046E+02  0.41418284883E+02  0.51100000000E-03 0. -1.
         23    2    1    0    0    0  0.76563025071E+01  0.19600946702E+02  0.20080974222E+02  0.95912861856E+02  0.91395926955E+02 0.  0.
         11    1    3    3    0    0 -0.10522967547E+02  0.29929912622E+01  0.53385092268E+02  0.54494576973E+02  0.51100000000E-03 0.  1.
         22    1    1    0    0    0 -0.76563025071E+01 -0.19600946702E+02 -0.20080974222E+02  0.29087138144E+02  0.00000000000E+00 0.  1.
</event>
<event>
 5    1  0.1691138E-003  0.9118800E+02  0.7818608E-02  0.1130116E+00
         25   -1    0    0    0    0  0.00000000000E+00  0.00000000000E+00  0.99999998245E-14  0.12500000000E+03  0.12500000000E+03 0.  0.
        -11    1    3    3    0    0 -0.27484068217E+01  0.24197018452E+02 -0.31625752802E+02  0.39915381528E+02  0.51100000000E-03 0.  1.
         23    2    1    0    0    0 -0.20977240249E+02  0.28156048707E+02  0.12426651209E+02  0.87754472114E+02  0.79458278539E+02 0.  0.
         11    1    3    3    0    0 -0.18228833427E+02  0.39590302557E+01  0.44052404011E+02  0.47839090585E+02  0.51100000000E-03 0. -1.
         22    1    1    0    0    0  0.20977240249E+02 -0.28156048707E+02 -0.12426651209E+02  0.37245527886E+02  0.00000000000E+00 0. -1.
</event>
<event>
 5    1  0.1691138E-003  0.9118800E+02  0.7818608E-02  0.1130116E+00
         25   -1    0    0    0    0  0.00000000000E+00  0.00000000000E+00  0.99999998245E-14  0.12500000000E+03  0.12500000000E+03 0.  0.
        -11    1    3    3    0    0  0.17825656179E+02 -0.49509252335E+02  0.29349389430E+02  0.60252026897E+02  0.51100000000E-03 0.  1.
         23    2    1    0    0    0 -0.34527700999E+01 -0.24157492333E+02  0.15219014004E+02  0.96240228714E+02  0.91842567356E+02 0.  0.
         11    1    3    3    0    0 -0.21278426279E+02  0.25351760002E+02 -0.14130375426E+02  0.35988201817E+02  0.51100000000E-03 0. -1.
         22    1    1    0    0    0  0.34527700999E+01  0.24157492333E+02 -0.15219014004E+02  0.28759771286E+02  0.00000000000E+00 0.  1.
</event>
<event>
 5    1  0.1691138E-003  0.9118800E+02  0.7818608E-02  0.1130116E+00
         25   -1    0    0    0    0  0.00000000000E+00  0.00000000000E+00  0.99999998245E-14  0.12500000000E+03  0.12500000000E+03 0.  0.
        -11    1    3    3    0    0 -0.12502616637E+02  0.30919465623E+02  0.32833743595E+02  0.46801533051E+02  0.51100000000E-03 0.  1.
         23    2    1    0    0    0 -0.27318795327E+02 -0.20779695045E+01 -0.26536724105E+01  0.97474075626E+02  0.93506785350E+02 0.  0.
         11    1    3    3    0    0 -0.14816178691E+02 -0.32997435128E+02 -0.35487416005E+02  0.50672542575E+02  0.51100000000E-03 0. -1.
         22    1    1    0    0    0  0.27318795327E+02  0.20779695045E+01  0.26536724105E+01  0.27525924374E+02  0.00000000000E+00 0. -1.
</event>
<event>
 5    1  0.1691138E-003  0.9118800E+02  0.7818608E-02  0.1130116E+00
         25   -1    0    0    0    0  0.00000000000E+00  0.00000000000E+00  0.99999998245E-14  0.12500000000E+03  0.12500000000E+03 0.  0.
        -11    1    3    3    0    0 -0.17617476323E+02 -0.43858406640E+02 -0.39245612310E+02  0.61434138643E+02  0.51100000000E-03 0.  1.
         23    2    1    0    0    0 -0.44381592822E+01 -0.15299607292E+02 -0.23502858171E+02  0.96607050465E+02  0.92340471172E+02 0.  0.
         11    1    3    3    0    0  0.13179317041E+02  0.28558799348E+02  0.15742754140E+02  0.35172911822E+02  0.51100000000E-03 0. -1.
         22    1    1    0    0    0  0.44381592822E+01  0.15299607292E+02  0.23502858171E+02  0.28392949535E+02  0.00000000000E+00 0.  1.
</event>
<event>
 5    1  0.1691138E-003  0.9118800E+02  0.7818608E-02  0.1130116E+00
         25   -1    0    0    0    0  0.00000000000E+00  0.00000000000E+00  0.99999998245E-14  0.12500000000E+03  0.12500000000E+03 0.  0.
        -11    1    3    3    0    0 -0.40151602196E+02 -0.42716708968E+02 -0.75177929346E+01  0.59104869468E+02  0.51100000000E-03 0. -1.
         23    2    1    0    0    0 -0.83440674286E+01 -0.24286769908E+02 -0.12906614264E+02  0.96258891017E+02  0.91867963699E+02 0.  0.
         11    1    3    3    0    0  0.31807534767E+02  0.18429939060E+02 -0.53888213289E+01  0.37154021549E+02  0.51100000000E-03 0.  1.
         22    1    1    0    0    0  0.83440674286E+01  0.24286769908E+02  0.12906614264E+02  0.28741108983E+02  0.00000000000E+00 0. -1.
</event>
<event>
 5    1  0.1691138E-003  0.9118800E+02  0.7818608E-02  0.1130116E+00
         25   -1    0    0    0    0  0.00000000000E+00  0.00000000000E+00  0.99999998245E-14  0.12500000000E+03  0.12500000000E+03 0.  0.
        -11    1    3    3    0    0  0.42809168904E+02  0.48274207548E+00  0.16321985635E+02  0.45817738895E+02  0.51100000000E-03 0. -1.
         23    2    1    0    0    0 -0.73295627321E+01  0.60957370093E+01  0.26104434376E+02  0.97209318223E+02  0.93152184923E+02 0.  0.
         11    1    3    3    0    0 -0.50138731636E+02  0.56129949338E+01  0.97824487410E+01  0.51391579328E+02  0.51100000000E-03 0.  1.
         22    1    1    0    0    0  0.73295627321E+01 -0.60957370093E+01 -0.26104434376E+02  0.27790681777E+02  0.00000000000E+00 0.  1.
</event>
<event>
 5    1  0.1691138E-003  0.9118800E+02  0.7818608E-02  0.1130116E+00
         25   -1    0    0    0    0  0.00000000000E+00  0.00000000000E+00  0.99999998245E-14  0.12500000000E+03  0.12500000000E+03 0.  0.
        -11    1    3    3    0    0  0.14329142481E+02  0.19636957489E+02  0.57122862306E+02  0.62080236967E+02  0.51100000000E-03 0.  1.
         23    2    1    0    0    0  0.82965744002E+01  0.13171922437E+02  0.23763582139E+02  0.96591541338E+02  0.92319474298E+02 0.  0.
         11    1    3    3    0    0 -0.60325680811E+01 -0.64650350516E+01 -0.33359280167E+02  0.34511304371E+02  0.51100000000E-03 0. -1.
         22    1    1    0    0    0 -0.82965744002E+01 -0.13171922437E+02 -0.23763582139E+02  0.28408458662E+02  0.00000000000E+00 0.  1.
</event>
<event>
 5    1  0.1691138E-003  0.9118800E+02  0.7818608E-02  0.1130116E+00
         25   -1    0    0    0    0  0.00000000000E+00  0.00000000000E+00  0.99999998245E-14  0.12500000000E+03  0.12500000000E+03 0.  0.
        -11    1    3    3    0    0 -0.33590925872E+02  0.32231987181E+02  0.12446145806E+02  0.48188773010E+02  0.51100000000E-03 0. -1.
         23    2    1    0    0    0 -0.60674112205E+01  0.20340199964E+02 -0.22388019826E+02  0.94149381769E+02  0.88951365601E+02 0.  0.
         11    1    3    3    0    0  0.27523514651E+02 -0.11891787216E+02 -0.34834165632E+02  0.45960608759E+02  0.51100000000E-03 0.  1.
         22    1    1    0    0    0  0.60674112205E+01 -0.20340199964E+02  0.22388019826E+02  0.30850618231E+02  0.00000000000E+00 0.  1.
</event>
<event>
 5    1  0.1691138E-003  0.9118800E+02  0.7818608E-02  0.1130116E+00
         25   -1    0    0    0    0  0.00000000000E+00  0.00000000000E+00  0.99999998245E-14  0.12500000000E+03  0.12500000000E+03 0.  0.
        -11    1    3    3    0    0 -0.23492425222E+02 -0.27059797821E+01  0.55353865656E+02  0.60193577836E+02  0.51100000000E-03 0.  1.
         23    2    1    0    0    0 -0.20970532474E+02 -0.47993721353E+01  0.20231693015E+02  0.95468345671E+02  0.90785937334E+02 0.  0.
         11    1    3    3    0    0  0.25218927475E+01 -0.20933923532E+01 -0.35122172640E+02  0.35274767835E+02  0.51100000000E-03 0. -1.
         22    1    1    0    0    0  0.20970532474E+02  0.47993721353E+01 -0.20231693015E+02  0.29531654329E+02  0.00000000000E+00 0.  1.
</event>
<event>
 5    1  0.1691138E-003  0.9118800E+02  0.7818608E-02  0.1130116E+00
         25   -1    0    0    0    0  0.00000000000E+00  0.00000000000E+00  0.99999998245E-14  0.12500000000E+03  0.12500000000E+03 0.  0.
        -11    1    3    3    0    0  0.12742603202E+02  0.16009665140E+02  0.26139143914E+02  0.33195453891E+02  0.51100000000E-03 0.  1.
         23    2    1    0    0    0 -0.51025824762E+01 -0.20660630249E+02 -0.20707633501E+02  0.95306497758E+02  0.90562820403E+02 0.  0.
         11    1    3    3    0    0 -0.17845185678E+02 -0.36670295388E+02 -0.46846777415E+02  0.62111043866E+02  0.51100000000E-03 0. -1.
         22    1    1    0    0    0  0.51025824762E+01  0.20660630249E+02  0.20707633501E+02  0.29693502242E+02  0.00000000000E+00 0. -1.
</event>
<event>
 5    1  0.1691138E-003  0.9118800E+02  0.7818608E-02  0.1130116E+00
         25   -1    0    0    0    0  0.00000000000E+00  0.00000000000E+00  0.99999998245E-14  0.12500000000E+03  0.12500000000E+03 0.  0.
        -11    1    3    3    0    0 -0.26707961011E+02 -0.33035663679E+02  0.22367460517E+02  0.48010140036E+02  0.51100000000E-03 0.  1.
         23    2    1    0    0    0 -0.10280835799E+02  0.12195440496E+02  0.24026912016E+02  0.96160498364E+02  0.91733988199E+02 0.  0.
         11    1    3    3    0    0  0.16427125211E+02  0.45231104174E+02  0.16594514984E+01  0.48150358327E+02  0.51100000000E-03 0. -1.
         22    1    1    0    0    0  0.10280835799E+02 -0.12195440496E+02 -0.24026912016E+02  0.28839501636E+02  0.00000000000E+00 0.  1.
</event>
<event>
 5    1  0.1691138E-003  0.9118800E+02  0.7818608E-02  0.1130116E+00
         25   -1    0    0    0    0  0.00000000000E+00  0.00000000000E+00  0.99999998245E-14  0.12500000000E+03  0.12500000000E+03 0.  0.
        -11    1    3    3    0    0 -0.24401344772E+02  0.12779982922E+01 -0.54258157563E+02  0.59506357380E+02  0.51100000000E-03 0. -1.
         23    2    1    0    0    0 -0.82507611703E+01  0.13911970550E+02 -0.24159907682E+02  0.95925627716E+02  0.91413384846E+02 0.  0.
         11    1    3    3    0    0  0.16150583602E+02  0.12633972258E+02  0.30098249880E+02  0.36419270336E+02  0.51100000000E-03 0.  1.
         22    1    1    0    0    0  0.82507611703E+01 -0.13911970550E+02  0.24159907682E+02  0.29074372284E+02  0.00000000000E+00 0. -1.
</event>
<event>
 5    1  0.1691138E-003  0.9118800E+02  0.7818608E-02  0.1130116E+00
         25   -1    0    0    0    0  0.00000000000E+00  0.00000000000E+00  0.99999998245E-14  0.12500000000E+03  0.12500000000E+03 0.  0.
        -11    1    3    3    0    0 -0.31507080828E+02 -0.40622885588E+02  0.14387037757E+02  0.53384471820E+02  0.51100000000E-03 0. -1.
         23    2    1    0    0    0  0.72226509132E+01 -0.28750402905E+02  0.64145838549E+01  0.94670159258E+02  0.89680208600E+02 0.  0.
         11    1    3    3    0    0  0.38729731741E+02  0.11872482683E+02 -0.79724539017E+01  0.41285687438E+02  0.51100000000E-03 0.  1.
         22    1    1    0    0    0 -0.72226509132E+01  0.28750402905E+02 -0.64145838549E+01  0.30329840742E+02  0.00000000000E+00 0. -1.
</event>
<event>
 5    1  0.1691138E-003  0.9118800E+02  0.7818608E-02  0.1130116E+00
         25   -1    0    0    0    0  0.00000000000E+00  0.00000000000E+00  0.99999998245E-14  0.12500000000E+03  0.12500000000E+03 0.  0.
        -11    1    3    3    0    0 -0.39781620973E+01 -0.16348273014E+02 -0.27756346333E+02  0.32457765884E+02  0.51100000000E-03 0.  1.
         23    2    1    0    0    0  0.41574479888E+01  0.79176131575E+01  0.28965039209E+02  0.94685870155E+02  0.89702104428E+02 0.  0.
         11    1    3    3    0    0  0.81356100861E+01  0.24265886171E+02  0.56721385541E+02  0.62228104271E+02  0.51100000000E-03 0. -1.
         22    1    1    0    0    0 -0.41574479888E+01 -0.79176131575E+01 -0.28965039209E+02  0.30314129845E+02  0.00000000000E+00 0. -1.
</event>
<event>
 5    1  0.1691138E-003  0.9118800E+02  0.7818608E-02  0.1130116E+00
         25   -1    0    0    0    0  0.00000000000E+00  0.00000000000E+00  0.99999998245E-14  0.12500000000E+03  0.12500000000E+03 0.  0.
        -11    1    3    3    0    0  0.30552233226E+02  0.90279494357E+01  0.19942091847E+02  0.37584968453E+02  0.51100000000E-03 0. -1.
         23    2    1    0    0    0 -0.71533146353E+01 -0.27891823266E+02 -0.46974217332E+01  0.95824848136E+02  0.91275473343E+02 0.  0.
         11    1    3    3    0    0 -0.37705547861E+02 -0.36919772701E+02 -0.24639513580E+02  0.58239879683E+02  0.51100000000E-03 0.  1.
         22    1    1    0    0    0  0.71533146353E+01  0.27891823266E+02  0.46974217332E+01  0.29175151864E+02  0.00000000000E+00 0.  1.
</event>
<event>
 5    1  0.1691138E-003  0.9118800E+02  0.7818608E-02  0.1130116E+00
         25   -1    0    0    0    0  0.00000000000E+00  0.00000000000E+00  0.99999998245E-14  0.12500000000E+03  0.12500000000E+03 0.  0.
        -11    1    3    3    0    0  0.26146435809E+02  0.20856988293E+02 -0.12659892144E+02  0.35762032038E+02  0.51100000000E-03 0. -1.
         23    2    1    0    0    0 -0.26325249769E+02 -0.51411151120E+00  0.10072008994E+02  0.96809071473E+02  0.92613540415E+02 0.  0.
         11    1    3    3    0    0 -0.52471685578E+02 -0.21371099804E+02  0.22731901138E+02  0.61047039435E+02  0.51100000000E-03 0.  1.
         22    1    1    0    0    0  0.26325249769E+02  0.51411151120E+00 -0.10072008994E+02  0.28190928527E+02  0.00000000000E+00 0.  1.
</event>
<event>
 5    1  0.1691138E-003  0.9118800E+02  0.7818608E-02  0.1130116E+00
         25   -1    0    0    0    0  0.00000000000E+00  0.00000000000E+00  0.99999998245E-14  0.12500000000E+03  0.12500000000E+03 0.  0.
        -11    1    3    3    0    0 -0.97151722145E+01  0.25076314869E+02  0.49182047053E+02  0.56054258457E+02  0.51100000000E-03 0.  1.
         23    2    1    0    0    0  0.14830575947E+02  0.16344593157E+02  0.19485824383E+02  0.95558718433E+02  0.90910283293E+02 0.  0.
         11    1    3    3    0    0  0.24545748162E+02 -0.87317217116E+01 -0.29696222671E+02  0.39504459976E+02  0.51100000000E-03 0. -1.
         22    1    1    0    0    0 -0.14830575947E+02 -0.16344593157E+02 -0.19485824383E+02  0.29441281567E+02  0.00000000000E+00 0.  1.
</event>
<event>
 5    1  0.1691138E-003  0.9118800E+02  0.7818608E-02  0.1130116E+00
         25   -1    0    0    0    0  0.00000000000E+00  0.00000000000E+00  0.99999998245E-14  0.12500000000E+03  0.12500000000E+03 0.  0.
        -11    1    3    3    0    0 -0.22908801461E+02 -0.46953363544E+02 -0.33562994155E+02  0.62095942777E+02  0.51100000000E-03 0.  1.
         23    2    1    0    0    0 -0.12599511815E+02 -0.18452075575E+02 -0.18755246372E+02  0.95828334681E+02  0.91280247975E+02 0.  0.
         11    1    3    3    0    0  0.10309289646E+02  0.28501287969E+02  0.14807747783E+02  0.33732391904E+02  0.51100000000E-03 0. -1.
         22    1    1    0    0    0  0.12599511815E+02  0.18452075575E+02  0.18755246372E+02  0.29171665319E+02  0.00000000000E+00 0.  1.
</event>
<event>
 5    1  0.1691138E-003  0.9118800E+02  0.7818608E-02  0.1130116E+00
         25   -1    0    0    0    0  0.00000000000E+00  0.00000000000E+00  0.99999998245E-14  0.12500000000E+03  0.12500000000E+03 0.  0.
        -11    1    3    3    0    0 -0.32695902107E+02 -0.43918353158E+02 -0.52606508535E+01  0.55004710765E+02  0.51100000000E-03 0. -1.
         23    2    1    0    0    0 -0.28516547044E+02 -0.35791997402E+01  0.19409762007E+01  0.96194245111E+02  0.91779961200E+02 0.  0.
         11    1    3    3    0    0  0.41793550636E+01  0.40339153417E+02  0.72016270543E+01  0.41189534346E+02  0.51100000000E-03 0.  1.
         22    1    1    0    0    0  0.28516547044E+02  0.35791997402E+01 -0.19409762007E+01  0.28805754889E+02  0.00000000000E+00 0. -1.
</event>
<event>
 5    1  0.1691138E-003  0.9118800E+02  0.7818608E-02  0.1130116E+00
         25   -1    0    0    0    0  0.00000000000E+00  0.00000000000E+00  0.99999998245E-14  0.12500000000E+03  0.12500000000E+03 0.  0.
        -11    1    3    3    0    0  0.38240752662E+01 -0.21643912136E+02 -0.21494280303E+02  0.30742260330E+02  0.51100000000E-03 0.  1.
         23    2    1    0    0    0 -0.27596779966E+02  0.97058131019E+01  0.18415865488E+02  0.90432252400E+02  0.83564724017E+02 0.  0.
         11    1    3    3    0    0 -0.31420855232E+02  0.31349725238E+02  0.39910145791E+02  0.59689992070E+02  0.51100000000E-03 0. -1.
         22    1    1    0    0    0  0.27596779966E+02 -0.97058131019E+01 -0.18415865488E+02  0.34567747600E+02  0.00000000000E+00 0. -1.
</event>
<event>
 5    1  0.1691138E-003  0.9118800E+02  0.7818608E-02  0.1130116E+00
         25   -1    0    0    0    0  0.00000000000E+00  0.00000000000E+00  0.99999998245E-14  0.12500000000E+03  0.12500000000E+03 0.  0.
        -11    1    3    3    0    0 -0.20758517571E+02 -0.58168037300E+02 -0.71233205039E+01  0.62170558227E+02  0.51100000000E-03 0. -1.
         23    2    1    0    0    0 -0.66702642636E+01 -0.28207358619E+02 -0.10244748056E+00  0.96014520858E+02  0.91534857920E+02 0.  0.
         11    1    3    3    0    0  0.14088253308E+02  0.29960678680E+02  0.70208730233E+01  0.33843962630E+02  0.51100000000E-03 0.  1.
         22    1    1    0    0    0  0.66702642636E+01  0.28207358619E+02  0.10244748056E+00  0.28985479142E+02  0.00000000000E+00 0. -1.
</event>
<event>
 5    1  0.1691138E-003  0.9118800E+02  0.7818608E-02  0.1130116E+00
         25   -1    0    0    0    0  0.00000000000E+00  0.00000000000E+00  0.99999998245E-14  0.12500000000E+03  0.12500000000E+03 0.  0.
        -11    1    3    3    0    0 -0.95212230057E+01  0.46640661120E+01 -0.47031514446E+02  0.48211726287E+02  0.51100000000E-03 0.  1.
         23    2    1    0    0    0 -0.23652568423E+02  0.16021909571E+02 -0.24640834642E+01  0.96325668506E+02  0.91958779497E+02 0.  0.
         11    1    3    3    0    0 -0.14131345417E+02  0.11357843459E+02  0.44567430982E+02  0.48113942219E+02  0.51100000000E-03 0. -1.
         22    1    1    0    0    0  0.23652568423E+02 -0.16021909571E+02  0.24640834642E+01  0.28674331494E+02  0.00000000000E+00 0. -1.
</event>
<event>
 5    1  0.1691138E-003  0.9118800E+02  0.7818608E-02  0.1130116E+00
         25   -1    0    0    0    0  0.00000000000E+00  0.00000000000E+00  0.99999998245E-14  0.12500000000E+03  0.12500000000E+03 0.  0.
        -11    1    3    3    0    0 -0.27836562288E+02 -0.40015618175E+02 -0.10024213451E+02  0.49765537810E+02  0.51100000000E-03 0.  1.
         23    2    1    0    0    0 -0.12014688914E+02 -0.16938976231E+02 -0.33026593990E+02  0.85986700011E+02  0.76626855624E+02 0.  0.
         11    1    3    3    0    0  0.15821873375E+02  0.23076641944E+02 -0.23002380539E+02  0.36221162201E+02  0.51100000000E-03 0. -1.
         22    1    1    0    0    0  0.12014688914E+02  0.16938976231E+02  0.33026593990E+02  0.39013299989E+02  0.00000000000E+00 0.  1.
</event>
<event>
 5    1  0.1691138E-003  0.9118800E+02  0.7818608E-02  0.1130116E+00
         25   -1    0    0    0    0  0.00000000000E+00  0.00000000000E+00  0.99999998245E-14  0.12500000000E+03  0.12500000000E+03 0.  0.
        -11    1    3    3    0    0  0.21610134433E+01  0.76035421235E+01  0.53449801786E+02  0.54031149749E+02  0.51100000000E-03 0.  1.
         23    2    1    0    0    0  0.22312746821E+02  0.83196271340E+01  0.16816445130E+02  0.95847509658E+02  0.91306502586E+02 0.  0.
         11    1    3    3    0    0  0.20151733377E+02  0.71608501046E+00 -0.36633356656E+02  0.41816359909E+02  0.51100000000E-03 0. -1.
         22    1    1    0    0    0 -0.22312746821E+02 -0.83196271340E+01 -0.16816445130E+02  0.29152490342E+02  0.00000000000E+00 0.  1.
</event>
<event>
 5    1  0.1691138E-003  0.9118800E+02  0.7818608E-02  0.1130116E+00
         25   -1    0    0    0    0  0.00000000000E+00  0.00000000000E+00  0.99999998245E-14  0.12500000000E+03  0.12500000000E+03 0.  0.
        -11    1    3    3    0    0 -0.13156572055E+02 -0.32885504479E+02  0.18564005690E+02  0.39989674925E+02  0.51100000000E-03 0. -1.
         23    2    1    0    0    0  0.28243383434E+02 -0.79503955019E+01 -0.72438027367E+01  0.94777985267E+02  0.89830375246E+02 0.  0.
         11    1    3    3    0    0  0.41399955488E+02  0.24935108977E+02 -0.25807808427E+02  0.54788310343E+02  0.51100000000E-03 0.  1.
         22    1    1    0    0    0 -0.28243383434E+02  0.79503955019E+01  0.72438027367E+01  0.30222014733E+02  0.00000000000E+00 0.  1.
</event>
<event>
 5    1  0.1691138E-003  0.9118800E+02  0.7818608E-02  0.1130116E+00
         25   -1    0    0    0    0  0.00000000000E+00  0.00000000000E+00  0.99999998245E-14  0.12500000000E+03  0.12500000000E+03 0.  0.
        -11    1    3    3    0    0  0.26374259852E+02  0.39669757865E+02 -0.25791307039E+02  0.54170866624E+02  0.51100000000E-03 0.  1.
         23    2    1    0    0    0 -0.10608500450E+02  0.22189488420E+02 -0.56594526417E+01  0.99762268677E+02  0.96517185875E+02 0.  0.
         11    1    3    3    0    0 -0.36982760302E+02 -0.17480269445E+02  0.20131854397E+02  0.45591402053E+02  0.51100000000E-03 0. -1.
         22    1    1    0    0    0  0.10608500450E+02 -0.22189488420E+02  0.56594526417E+01  0.25237731323E+02  0.00000000000E+00 0.  1.
</event>
<event>
 5    1  0.1691138E-003  0.9118800E+02  0.7818608E-02  0.1130116E+00
         25   -1    0    0    0    0  0.00000000000E+00  0.00000000000E+00  0.99999998245E-14  0.12500000000E+03  0.12500000000E+03 0.  0.
        -11    1    3    3    0    0  0.24370038520E+02  0.23959970783E+02 -0.18268815398E+02  0.38752143086E+02  0.51100000000E-03 0.  1.
         23    2    1    0    0    0  0.41784446897E+01 -0.18293248609E+02  0.18770133313E+02  0.98459083489E+02  0.94814402240E+02 0.  0.
         11    1    3    3    0    0 -0.20191593831E+02 -0.42253219392E+02  0.37038948711E+02  0.59706940403E+02  0.51100000000E-03 0. -1.
         22    1    1    0    0    0 -0.41784446897E+01  0.18293248609E+02 -0.18770133313E+02  0.26540916511E+02  0.00000000000E+00 0. -1.
</event>
<event>
 5    1  0.1691138E-003  0.9118800E+02  0.7818608E-02  0.1130116E+00
         25   -1    0    0    0    0  0.00000000000E+00  0.00000000000E+00  0.99999998245E-14  0.12500000000E+03  0.12500000000E+03 0.  0.
        -11    1    3    3    0    0 -0.30045275473E+02  0.11264586580E+02  0.40979266892E+02  0.52047188246E+02  0.51100000000E-03 0.  1.
         23    2    1    0    0    0  0.21272793543E+01 -0.15060933076E+02  0.23196105736E+02  0.97261644896E+02  0.93222375125E+02 0.  0.
         11    1    3    3    0    0  0.32172554827E+02 -0.26325519655E+02 -0.17783161156E+02  0.45214456650E+02  0.51100000000E-03 0. -1.
         22    1    1    0    0    0 -0.21272793543E+01  0.15060933076E+02 -0.23196105736E+02  0.27738355104E+02  0.00000000000E+00 0.  1.
</event>
<event>
 5    1  0.1691138E-003  0.9118800E+02  0.7818608E-02  0.1130116E+00
         25   -1    0    0    0    0  0.00000000000E+00  0.00000000000E+00  0.99999998245E-14  0.12500000000E+03  0.12500000000E+03 0.  0.
        -11    1    3    3    0    0  0.18924268350E+02  0.56277084455E+02  0.18057233372E+02  0.62058857906E+02  0.51100000000E-03 0.  1.
         23    2    1    0    0    0  0.57166201296E+01  0.28009614988E+02  0.45700197311E+01  0.96049985185E+02  0.91583275199E+02 0.  0.
         11    1    3    3    0    0 -0.13207648221E+02 -0.28267469468E+02 -0.13487213640E+02  0.33991127278E+02  0.51100000000E-03 0. -1.
         22    1    1    0    0    0 -0.57166201296E+01 -0.28009614988E+02 -0.45700197311E+01  0.28950014815E+02  0.00000000000E+00 0.  1.
</event>
<event>
 5    1  0.1691138E-003  0.9118800E+02  0.7818608E-02  0.1130116E+00
         25   -1    0    0    0    0  0.00000000000E+00  0.00000000000E+00  0.99999998245E-14  0.12500000000E+03  0.12500000000E+03 0.  0.
        -11    1    3    3    0    0  0.31179154316E+02  0.99936609832E+01  0.46487705932E+00  0.32744908530E+02  0.51100000000E-03 0.  1.
         23    2    1    0    0    0 -0.28593997412E+02 -0.79338214952E+00 -0.10620720487E+02  0.94486956118E+02  0.89424487863E+02 0.  0.
         11    1    3    3    0    0 -0.59773151729E+02 -0.10787043133E+02 -0.11085597547E+02  0.61742047588E+02  0.51100000000E-03 0. -1.
         22    1    1    0    0    0  0.28593997412E+02  0.79338214952E+00  0.10620720487E+02  0.30513043882E+02  0.00000000000E+00 0. -1.
</event>
<event>
 5    1  0.1691138E-003  0.9118800E+02  0.7818608E-02  0.1130116E+00
         25   -1    0    0    0    0  0.00000000000E+00  0.00000000000E+00  0.99999998245E-14  0.12500000000E+03  0.12500000000E+03 0.  0.
        -11    1    3    3    0    0 -0.17400036064E+02  0.26982932953E+02 -0.17160009130E+02  0.36404750231E+02  0.51100000000E-03 0. -1.
         23    2    1    0    0    0 -0.74587046253E+01 -0.15547894346E+02  0.23347527663E+02  0.95974557002E+02  0.91480267001E+02 0.  0.
         11    1    3    3    0    0  0.99413314382E+01 -0.42530827299E+02  0.40507536792E+02  0.59569806771E+02  0.51100000000E-03 0.  1.
         22    1    1    0    0    0  0.74587046253E+01  0.15547894346E+02 -0.23347527663E+02  0.29025442998E+02  0.00000000000E+00 0.  1.
</event>
<event>
 5    1  0.1691138E-003  0.9118800E+02  0.7818608E-02  0.1130116E+00
         25   -1    0    0    0    0  0.00000000000E+00  0.00000000000E+00  0.99999998245E-14  0.12500000000E+03  0.12500000000E+03 0.  0.
        -11    1    3    3    0    0  0.44168712274E+02 -0.59487049242E+01  0.19816055930E+01  0.44611534329E+02  0.51100000000E-03 0. -1.
         23    2    1    0    0    0 -0.20875424004E+00  0.12587725121E+02 -0.22980486311E+02  0.98797001066E+02  0.95258859254E+02 0.  0.
         11    1    3    3    0    0 -0.44377466514E+02  0.18536430045E+02 -0.24962091904E+02  0.54185466737E+02  0.51100000000E-03 0.  1.
         22    1    1    0    0    0  0.20875424004E+00 -0.12587725121E+02  0.22980486311E+02  0.26202998934E+02  0.00000000000E+00 0.  1.
</event>
<event>
 5    1  0.1691138E-003  0.9118800E+02  0.7818608E-02  0.1130116E+00
         25   -1    0    0    0    0  0.00000000000E+00  0.00000000000E+00  0.99999998245E-14  0.12500000000E+03  0.12500000000E+03 0.  0.
        -11    1    3    3    0    0 -0.54758574355E+01  0.30636181220E+02  0.16059277427E+02  0.35020865297E+02  0.51100000000E-03 0.  1.
         23    2    1    0    0    0 -0.11365244225E+02 -0.27413209800E+02  0.87655001641E+00  0.95311261601E+02  0.90569395494E+02 0.  0.
         11    1    3    3    0    0 -0.58893867894E+01 -0.58049391020E+02 -0.15182727410E+02  0.60290396304E+02  0.51100000000E-03 0. -1.
         22    1    1    0    0    0  0.11365244225E+02  0.27413209800E+02 -0.87655001641E+00  0.29688738399E+02  0.00000000000E+00 0. -1.
</event>
<event>
 5    1  0.1691138E-003  0.9118800E+02  0.7818608E-02  0.1130116E+00
         25   -1    0    0    0    0  0.00000000000E+00  0.00000000000E+00  0.99999998245E-14  0.12500000000E+03  0.12500000000E+03 0.  0.
        -11    1    3    3    0    0  0.47288658752E+01 -0.29238286561E+02  0.16231480838E+02  0.33774258599E+02  0.51100000000E-03 0. -1.
         23    2    1    0    0    0  0.15759965395E+02  0.22177423193E+02 -0.13970362581E+02  0.94415925069E+02  0.89325143533E+02 0.  0.
         11    1    3    3    0    0  0.11031099520E+02  0.51415709754E+02 -0.30201843418E+02  0.60641666470E+02  0.51100000000E-03 0.  1.
         22    1    1    0    0    0 -0.15759965395E+02 -0.22177423193E+02  0.13970362581E+02  0.30584074931E+02  0.00000000000E+00 0.  1.
</event>
<event>
 5    1  0.1691138E-003  0.9118800E+02  0.7818608E-02  0.1130116E+00
         25   -1    0    0    0    0  0.00000000000E+00  0.00000000000E+00  0.99999998245E-14  0.12500000000E+03  0.12500000000E+03 0.  0.
        -11    1    3    3    0    0 -0.45306201716E+02  0.13068691151E+02 -0.38725448310E+02  0.61017234855E+02  0.51100000000E-03 0.  1.
         23    2    1    0    0    0 -0.24378973816E+02  0.20378995471E+01 -0.91709003871E+01  0.98873522764E+02  0.95359219224E+02 0.  0.
         11    1    3    3    0    0  0.20927227900E+02 -0.11030791604E+02  0.29554547923E+02  0.37856287908E+02  0.51100000000E-03 0. -1.
         22    1    1    0    0    0  0.24378973816E+02 -0.20378995471E+01  0.91709003871E+01  0.26126477236E+02  0.00000000000E+00 0.  1.
</event>
<event>
 5    1  0.1691138E-003  0.9118800E+02  0.7818608E-02  0.1130116E+00
         25   -1    0    0    0    0  0.00000000000E+00  0.00000000000E+00  0.99999998245E-14  0.12500000000E+03  0.12500000000E+03 0.  0.
        -11    1    3    3    0    0 -0.41003825658E+02  0.15129113513E+02 -0.10089470361E+01  0.43717522444E+02  0.51100000000E-03 0.  1.
         23    2    1    0    0    0 -0.68587858371E+01 -0.13495498091E+02  0.25340610146E+02  0.95481904965E+02  0.90804604736E+02 0.  0.
         11    1    3    3    0    0  0.34145039821E+02 -0.28624611604E+02  0.26349557182E+02  0.51764382521E+02  0.51100000000E-03 0. -1.
         22    1    1    0    0    0  0.68587858371E+01  0.13495498091E+02 -0.25340610146E+02  0.29518095035E+02  0.00000000000E+00 0.  1.
</event>
<event>
 5    1  0.1691138E-003  0.9118800E+02  0.7818608E-02  0.1130116E+00
         25   -1    0    0    0    0  0.00000000000E+00  0.00000000000E+00  0.99999998245E-14  0.12500000000E+03  0.12500000000E+03 0.  0.
        -11    1    3    3    0    0 -0.15478342887E+02  0.35590469250E+02  0.59914795193E+01  0.39270325019E+02  0.51100000000E-03 0. -1.
         23    2    1    0    0    0  0.22459628504E+02  0.20834841883E+01 -0.18804263756E+02  0.95633758254E+02  0.91013403208E+02 0.  0.
         11    1    3    3    0    0  0.37937971391E+02 -0.33506985062E+02 -0.24795743275E+02  0.56363433235E+02  0.51100000000E-03 0.  1.
         22    1    1    0    0    0 -0.22459628504E+02 -0.20834841883E+01  0.18804263756E+02  0.29366241746E+02  0.00000000000E+00 0.  1.
</event>
<event>
 5    1  0.1691138E-003  0.9118800E+02  0.7818608E-02  0.1130116E+00
         25   -1    0    0    0    0  0.00000000000E+00  0.00000000000E+00  0.99999998245E-14  0.12500000000E+03  0.12500000000E+03 0.  0.
        -11    1    3    3    0    0  0.36185754122E+02 -0.25604452517E+02  0.36695860031E+02  0.57546354652E+02  0.51100000000E-03 0.  1.
         23    2    1    0    0    0  0.98364450878E+01 -0.25458824514E+02  0.29393237926E+02  0.84889280318E+02  0.74815239621E+02 0.  0.
         11    1    3    3    0    0 -0.26349309034E+02  0.14562800310E+00 -0.73026221047E+01  0.27342925666E+02  0.51100000000E-03 0. -1.
         22    1    1    0    0    0 -0.98364450878E+01  0.25458824514E+02 -0.29393237926E+02  0.40110719682E+02  0.00000000000E+00 0.  1.
</event>
<event>
 5    1  0.1691138E-003  0.9118800E+02  0.7818608E-02  0.1130116E+00
         25   -1    0    0    0    0  0.00000000000E+00  0.00000000000E+00  0.99999998245E-14  0.12500000000E+03  0.12500000000E+03 0.  0.
        -11    1    3    3    0    0  0.45259268219E+02 -0.24677499933E+02  0.13968030347E+02  0.53408671906E+02  0.51100000000E-03 0. -1.
         23    2    1    0    0    0  0.16910744839E+01 -0.14321062062E+02  0.21791542187E+02  0.98869101386E+02  0.95353423360E+02 0.  0.
         11    1    3    3    0    0 -0.43568193736E+02  0.10356437871E+02  0.78235118404E+01  0.45460429480E+02  0.51100000000E-03 0.  1.
         22    1    1    0    0    0 -0.16910744839E+01  0.14321062062E+02 -0.21791542187E+02  0.26130898614E+02  0.00000000000E+00 0. -1.
</event>
<event>
 5    1  0.1691138E-003  0.9118800E+02  0.7818608E-02  0.1130116E+00
         25   -1    0    0    0    0  0.00000000000E+00  0.00000000000E+00  0.99999998245E-14  0.12500000000E+03  0.12500000000E+03 0.  0.
        -11    1    3    3    0    0  0.25035983062E+02 -0.74159426576E+01  0.45553650602E+02  0.52506492330E+02  0.51100000000E-03 0.  1.
         23    2    1    0    0    0  0.18097225684E+02 -0.21525736305E+02  0.44335326326E+01  0.96530312391E+02  0.92236533423E+02 0.  0.
         11    1    3    3    0    0 -0.69387573784E+01 -0.14109793647E+02 -0.41120117969E+02  0.44023820061E+02  0.51100000000E-03 0. -1.
         22    1    1    0    0    0 -0.18097225684E+02  0.21525736305E+02 -0.44335326326E+01  0.28469687609E+02  0.00000000000E+00 0.  1.
</event>
<event>
 5    1  0.1691138E-003  0.9118800E+02  0.7818608E-02  0.1130116E+00
         25   -1    0    0    0    0  0.00000000000E+00  0.00000000000E+00  0.99999998245E-14  0.12500000000E+03  0.12500000000E+03 0.  0.
        -11    1    3    3    0    0 -0.29638186537E+02  0.55449789146E+01 -0.45454628492E+02  0.54546238587E+02  0.51100000000E-03 0.  1.
         23    2    1    0    0    0  0.62682664766E+01 -0.51161125397E+01 -0.27972291418E+02  0.95881022352E+02  0.91352370456E+02 0.  0.
         11    1    3    3    0    0  0.35906453014E+02 -0.10661091454E+02  0.17482337074E+02  0.41334783765E+02  0.51100000000E-03 0. -1.
         22    1    1    0    0    0 -0.62682664766E+01  0.51161125397E+01  0.27972291418E+02  0.29118977648E+02  0.00000000000E+00 0.  1.
</event>
<event>
 5    1  0.1691138E-003  0.9118800E+02  0.7818608E-02  0.1130116E+00
         25   -1    0    0    0    0  0.00000000000E+00  0.00000000000E+00  0.99999998245E-14  0.12500000000E+03  0.12500000000E+03 0.  0.
        -11    1    3    3    0    0 -0.16803542313E+02  0.96109519842E+01 -0.56893823433E+02  0.60096893243E+02  0.51100000000E-03 0. -1.
         23    2    1    0    0    0 -0.18458481892E+02 -0.85364011757E+00 -0.23655494578E+02  0.94982893561E+02  0.90115056402E+02 0.  0.
         11    1    3    3    0    0 -0.16549395787E+01 -0.10464592102E+02  0.33238328855E+02  0.34886000318E+02  0.51100000000E-03 0.  1.
         22    1    1    0    0    0  0.18458481892E+02  0.85364011757E+00  0.23655494578E+02  0.30017106439E+02  0.00000000000E+00 0. -1.
</event>
<event>
 5    1  0.1691138E-003  0.9118800E+02  0.7818608E-02  0.1130116E+00
         25   -1    0    0    0    0  0.00000000000E+00  0.00000000000E+00  0.99999998245E-14  0.12500000000E+03  0.12500000000E+03 0.  0.
        -11    1    3    3    0    0  0.32764445433E+02 -0.17397601828E+02 -0.81750954911E+01  0.37987071754E+02  0.51100000000E-03 0.  1.
         23    2    1    0    0    0  0.95673178409E+01  0.17012902885E+02 -0.33228846578E+02  0.86462632678E+02  0.77399342177E+02 0.  0.
         11    1    3    3    0    0 -0.23197127592E+02  0.34410504713E+02 -0.25053751086E+02  0.48475560924E+02  0.51100000000E-03 0. -1.
         22    1    1    0    0    0 -0.95673178409E+01 -0.17012902885E+02  0.33228846578E+02  0.38537367322E+02  0.00000000000E+00 0.  1.
</event>
<event>
 5    1  0.1691138E-003  0.9118800E+02  0.7818608E-02  0.1130116E+00
         25   -1    0    0    0    0  0.00000000000E+00  0.00000000000E+00  0.99999998245E-14  0.12500000000E+03  0.12500000000E+03 0.  0.
        -11    1    3    3    0    0  0.11437207813E+02 -0.10432304374E+02  0.48070700482E+02  0.50501831077E+02  0.51100000000E-03 0.  1.
         23    2    1    0    0    0 -0.17277854829E+02 -0.18162190475E+02  0.12124469863E+02  0.97154134961E+02  0.93078105589E+02 0.  0.
         11    1    3    3    0    0 -0.28715062642E+02 -0.77298861014E+01 -0.35946230619E+02  0.46652303883E+02  0.51100000000E-03 0. -1.
         22    1    1    0    0    0  0.17277854829E+02  0.18162190475E+02 -0.12124469863E+02  0.27845865039E+02  0.00000000000E+00 0.  1.
</event>
<event>
 5    1  0.1691138E-003  0.9118800E+02  0.7818608E-02  0.1130116E+00
         25   -1    0    0    0    0  0.00000000000E+00  0.00000000000E+00  0.99999998245E-14  0.12500000000E+03  0.12500000000E+03 0.  0.
        -11    1    3    3    0    0 -0.12529960462E+02  0.22910833552E+00 -0.32510540150E+02  0.34842325136E+02  0.51100000000E-03 0.  1.
         23    2    1    0    0    0  0.83042075501E+01 -0.18094885604E+02  0.21582992951E+02  0.95636581725E+02  0.91017280949E+02 0.  0.
         11    1    3    3    0    0  0.20834168012E+02 -0.18323993939E+02  0.54093533101E+02  0.60794256589E+02  0.51100000000E-03 0. -1.
         22    1    1    0    0    0 -0.83042075501E+01  0.18094885604E+02 -0.21582992951E+02  0.29363418275E+02  0.00000000000E+00 0. -1.
</event>
<event>
 5    1  0.1691138E-003  0.9118800E+02  0.7818608E-02  0.1130116E+00
         25   -1    0    0    0    0  0.00000000000E+00  0.00000000000E+00  0.99999998245E-14  0.12500000000E+03  0.12500000000E+03 0.  0.
        -11    1    3    3    0    0  0.26216421513E+02 -0.23244030161E+02  0.35804446743E+02  0.50095350102E+02  0.51100000000E-03 0.  1.
         23    2    1    0    0    0  0.30600920708E+02 -0.61376894166E+00 -0.19503744207E+01  0.94330845775E+02  0.89206005649E+02 0.  0.
         11    1    3    3    0    0  0.43844991951E+01  0.22630261219E+02 -0.37754821164E+02  0.44235495673E+02  0.51100000000E-03 0. -1.
         22    1    1    0    0    0 -0.30600920708E+02  0.61376894166E+00  0.19503744207E+01  0.30669154225E+02  0.00000000000E+00 0.  1.
</event>
<event>
 5    1  0.1691138E-003  0.9118800E+02  0.7818608E-02  0.1130116E+00
         25   -1    0    0    0    0  0.00000000000E+00  0.00000000000E+00  0.99999998245E-14  0.12500000000E+03  0.12500000000E+03 0.  0.
        -11    1    3    3    0    0 -0.34328009121E+02 -0.21524794579E+02  0.33300885599E+02  0.52446906237E+02  0.51100000000E-03 0. -1.
         23    2    1    0    0    0 -0.12201254814E+02 -0.28339222896E+02 -0.13448233827E+01  0.94116497554E+02  0.88905142644E+02 0.  0.
         11    1    3    3    0    0  0.22126754306E+02 -0.68144283177E+01 -0.34645708982E+02  0.41669591317E+02  0.51100000000E-03 0.  1.
         22    1    1    0    0    0  0.12201254814E+02  0.28339222896E+02  0.13448233827E+01  0.30883502446E+02  0.00000000000E+00 0. -1.
</event>
<event>
 5    1  0.1691138E-003  0.9118800E+02  0.7818608E-02  0.1130116E+00
         25   -1    0    0    0    0  0.00000000000E+00  0.00000000000E+00  0.99999998245E-14  0.12500000000E+03  0.12500000000E+03 0.  0.
        -11    1    3    3    0    0  0.12294460724E+02  0.43404884809E+01 -0.51390500057E+02  0.53018648617E+02  0.51100000000E-03 0.  1.
         23    2    1    0    0    0  0.19284496214E+02 -0.14916671341E+02 -0.11114022246E+02  0.98205963935E+02  0.94480108932E+02 0.  0.
         11    1    3    3    0    0  0.69900354902E+01 -0.19257159822E+02  0.40276477811E+02  0.45187315319E+02  0.51100000000E-03 0. -1.
         22    1    1    0    0    0 -0.19284496214E+02  0.14916671341E+02  0.11114022246E+02  0.26794036065E+02  0.00000000000E+00 0.  1.
</event>
<event>
 5    1  0.1691138E-003  0.9118800E+02  0.7818608E-02  0.1130116E+00
         25   -1    0    0    0    0  0.00000000000E+00  0.00000000000E+00  0.99999998245E-14  0.12500000000E+03  0.12500000000E+03 0.  0.
        -11    1    3    3    0    0 -0.27211520203E+01 -0.52313022650E+02  0.27352246314E+02  0.59094859216E+02  0.51100000000E-03 0.  1.
         23    2    1    0    0    0 -0.15408379528E+02 -0.21795276877E+02  0.94305565336E+01  0.96691208956E+02  0.92454325151E+02 0.  0.
         11    1    3    3    0    0 -0.12687227508E+02  0.30517745773E+02 -0.17921689781E+02  0.37596349740E+02  0.51100000000E-03 0. -1.
         22    1    1    0    0    0  0.15408379528E+02  0.21795276877E+02 -0.94305565336E+01  0.28308791044E+02  0.00000000000E+00 0.  1.
</event>
<event>
 5    1  0.1691138E-003  0.9118800E+02  0.7818608E-02  0.1130116E+00
         25   -1    0    0    0    0  0.00000000000E+00  0.00000000000E+00  0.99999998245E-14  0.12500000000E+03  0.12500000000E+03 0.  0.
        -11    1    3    3    0    0 -0.23087798205E+02  0.17959743463E+02 -0.42590961397E+02  0.51668063678E+02  0.51100000000E-03 0.  1.
         23    2    1    0    0    0  0.13794119595E+02  0.16808524600E+02 -0.22612198163E+02  0.93629380937E+02  0.88217601612E+02 0.  0.
         11    1    3    3    0    0  0.36881917800E+02 -0.11512188636E+01  0.19978763234E+02  0.41961317259E+02  0.51100000000E-03 0. -1.
         22    1    1    0    0    0 -0.13794119595E+02 -0.16808524600E+02  0.22612198163E+02  0.31370619063E+02  0.00000000000E+00 0.  1.
</event>
<event>
 5    1  0.1691138E-003  0.9118800E+02  0.7818608E-02  0.1130116E+00
         25   -1    0    0    0    0  0.00000000000E+00  0.00000000000E+00  0.99999998245E-14  0.12500000000E+03  0.12500000000E+03 0.  0.
        -11    1    3    3    0    0  0.22068494801E+02  0.37103752325E+02 -0.37531047464E+01  0.43333505454E+02  0.51100000000E-03 0.  1.
         23    2    1    0    0    0  0.12965379337E+01 -0.35320879011E+01 -0.29181676195E+02  0.95576762906E+02  0.90935090732E+02 0.  0.
         11    1    3    3    0    0 -0.20771956868E+02 -0.40635840226E+02 -0.25428571448E+02  0.52243257452E+02  0.51100000000E-03 0. -1.
         22    1    1    0    0    0 -0.12965379337E+01  0.35320879011E+01  0.29181676195E+02  0.29423237094E+02  0.00000000000E+00 0. -1.
</event>
<event>
 5    1  0.1691138E-003  0.9118800E+02  0.7818608E-02  0.1130116E+00
         25   -1    0    0    0    0  0.00000000000E+00  0.00000000000E+00  0.99999998245E-14  0.12500000000E+03  0.12500000000E+03 0.  0.
        -11    1    3    3    0    0  0.41373345645E+02  0.61368389078E+01 -0.17127347481E+02  0.45196908674E+02  0.51100000000E-03 0.  1.
         23    2    1    0    0    0  0.21508075222E+01  0.27793321778E+02  0.72401197232E+01  0.96198714576E+02  0.91786048199E+02 0.  0.
         11    1    3    3    0    0 -0.39222538123E+02  0.21656482870E+02  0.24367467204E+02  0.51001805903E+02  0.51100000000E-03 0. -1.
         22    1    1    0    0    0 -0.21508075222E+01 -0.27793321778E+02 -0.72401197232E+01  0.28801285424E+02  0.00000000000E+00 0. -1.
</event>
<event>
 5    1  0.1691138E-003  0.9118800E+02  0.7818608E-02  0.1130116E+00
         25   -1    0    0    0    0  0.00000000000E+00  0.00000000000E+00  0.99999998245E-14  0.12500000000E+03  0.12500000000E+03 0.  0.
        -11    1    3    3    0    0  0.19253054245E+02 -0.41032743027E+02 -0.20471521905E+02  0.49733784366E+02  0.51100000000E-03 0.  1.
         23    2    1    0    0    0 -0.84998562797E+01 -0.26007839782E+02  0.12096241839E+02  0.95083878034E+02  0.90255024838E+02 0.  0.
         11    1    3    3    0    0 -0.27752910524E+02  0.15024903245E+02  0.32567763744E+02  0.45350093667E+02  0.51100000000E-03 0. -1.
         22    1    1    0    0    0  0.84998562797E+01  0.26007839782E+02 -0.12096241839E+02  0.29916121966E+02  0.00000000000E+00 0.  1.
</event>
<event>
 5    1  0.1691138E-003  0.9118800E+02  0.7818608E-02  0.1130116E+00
         25   -1    0    0    0    0  0.00000000000E+00  0.00000000000E+00  0.99999998245E-14  0.12500000000E+03  0.12500000000E+03 0.  0.
        -11    1    3    3    0    0  0.17812510317E+01  0.22914834885E+02 -0.25847162369E+02  0.34588123913E+02  0.51100000000E-03 0.  1.
         23    2    1    0    0    0 -0.47747185306E+01 -0.59852918826E+01  0.27956975361E+02  0.96013552697E+02  0.91533535790E+02 0.  0.
         11    1    3    3    0    0 -0.65559695623E+01 -0.28900126768E+02  0.53804137730E+02  0.61425428783E+02  0.51100000000E-03 0. -1.
         22    1    1    0    0    0  0.47747185306E+01  0.59852918826E+01 -0.27956975361E+02  0.28986447303E+02  0.00000000000E+00 0. -1.
</event>
<event>
 5    1  0.1691138E-003  0.9118800E+02  0.7818608E-02  0.1130116E+00
         25   -1    0    0    0    0  0.00000000000E+00  0.00000000000E+00  0.99999998245E-14  0.12500000000E+03  0.12500000000E+03 0.  0.
        -11    1    3    3    0    0 -0.52006255320E+02  0.60462906125E+01  0.12814095907E+02  0.53901848547E+02  0.51100000000E-03 0.  1.
         23    2    1    0    0    0 -0.24527884710E+02 -0.18291699044E+02 -0.37511059624E+01  0.94173482549E+02  0.88985227073E+02 0.  0.
         11    1    3    3    0    0  0.27478370611E+02 -0.24337989656E+02 -0.16565201870E+02  0.40271634002E+02  0.51100000000E-03 0. -1.
         22    1    1    0    0    0  0.24527884710E+02  0.18291699044E+02  0.37511059624E+01  0.30826517451E+02  0.00000000000E+00 0.  1.
</event>
<event>
 5    1  0.1691138E-003  0.9118800E+02  0.7818608E-02  0.1130116E+00
         25   -1    0    0    0    0  0.00000000000E+00  0.00000000000E+00  0.99999998245E-14  0.12500000000E+03  0.12500000000E+03 0.  0.
        -11    1    3    3    0    0 -0.36752765265E+02 -0.66321492055E+01 -0.15097858121E+02  0.40282706933E+02  0.51100000000E-03 0.  1.
         23    2    1    0    0    0  0.71288798717E+01  0.22104640855E+02 -0.21779111722E+02  0.93160311198E+02  0.87550430037E+02 0.  0.
         11    1    3    3    0    0  0.43881645137E+02  0.28736790061E+02 -0.66812536012E+01  0.52877604266E+02  0.51100000000E-03 0. -1.
         22    1    1    0    0    0 -0.71288798717E+01 -0.22104640855E+02  0.21779111722E+02  0.31839688802E+02  0.00000000000E+00 0. -1.
</event>
<event>
 5    1  0.1691138E-003  0.9118800E+02  0.7818608E-02  0.1130116E+00
         25   -1    0    0    0    0  0.00000000000E+00  0.00000000000E+00  0.99999998245E-14  0.12500000000E+03  0.12500000000E+03 0.  0.
        -11    1    3    3    0    0 -0.47144177496E+02  0.37341202032E+02  0.61755458769E+01  0.60457226269E+02  0.51100000000E-03 0.  1.
         23    2    1    0    0    0 -0.16573584396E+02  0.26240432596E+02 -0.16878428225E+01  0.93917966348E+02  0.88625569600E+02 0.  0.
         11    1    3    3    0    0  0.30570593100E+02 -0.11100769435E+02 -0.78633886994E+01  0.33460740079E+02  0.51100000000E-03 0. -1.
         22    1    1    0    0    0  0.16573584396E+02 -0.26240432596E+02  0.16878428225E+01  0.31082033652E+02  0.00000000000E+00 0.  1.
</event>
<event>
 5    1  0.1691138E-003  0.9118800E+02  0.7818608E-02  0.1130116E+00
         25   -1    0    0    0    0  0.00000000000E+00  0.00000000000E+00  0.99999998245E-14  0.12500000000E+03  0.12500000000E+03 0.  0.
        -11    1    3    3    0    0  0.13682070695E+02  0.52449412513E+02  0.14041232670E+02  0.55993715242E+02  0.51100000000E-03 0. -1.
         23    2    1    0    0    0  0.22788088128E+02  0.19892482298E+02 -0.42866444911E+01  0.94448680332E+02  0.89370968904E+02 0.  0.
         11    1    3    3    0    0  0.91060174327E+01 -0.32556930215E+02 -0.18327877161E+02  0.38454965089E+02  0.51100000000E-03 0.  1.
         22    1    1    0    0    0 -0.22788088128E+02 -0.19892482298E+02  0.42866444911E+01  0.30551319668E+02  0.00000000000E+00 0. -1.
</event>
<event>
 5    1  0.1691138E-003  0.9118800E+02  0.7818608E-02  0.1130116E+00
         25   -1    0    0    0    0  0.00000000000E+00  0.00000000000E+00  0.99999998245E-14  0.12500000000E+03  0.12500000000E+03 0.  0.
        -11    1    3    3    0    0 -0.15377279185E+02  0.20826685900E+02  0.11715771624E+02  0.28416031843E+02  0.51100000000E-03 0.  1.
         23    2    1    0    0    0  0.26187028587E+02  0.18028303890E+01 -0.26279854325E+02  0.87856475571E+02  0.79618583841E+02 0.  0.
         11    1    3    3    0    0  0.41564307772E+02 -0.19023855511E+02 -0.37995625949E+02  0.59440443728E+02  0.51100000000E-03 0. -1.
         22    1    1    0    0    0 -0.26187028587E+02 -0.18028303890E+01  0.26279854325E+02  0.37143524429E+02  0.00000000000E+00 0. -1.
</event>
<event>
 5    1  0.1691138E-003  0.9118800E+02  0.7818608E-02  0.1130116E+00
         25   -1    0    0    0    0  0.00000000000E+00  0.00000000000E+00  0.99999998245E-14  0.12500000000E+03  0.12500000000E+03 0.  0.
        -11    1    3    3    0    0  0.32905009079E+02  0.14686453420E+02  0.21064404966E+02  0.41738958939E+02  0.51100000000E-03 0.  1.
         23    2    1    0    0    0 -0.21678600001E+02  0.14161869497E+02  0.84271154539E+01  0.97768831819E+02  0.93899989109E+02 0.  0.
         11    1    3    3    0    0 -0.54583609079E+02 -0.52458392201E+00 -0.12637289512E+02  0.56029872879E+02  0.51100000000E-03 0. -1.
         22    1    1    0    0    0  0.21678600001E+02 -0.14161869497E+02 -0.84271154539E+01  0.27231168181E+02  0.00000000000E+00 0. -1.
</event>
<event>
 5    1  0.1691138E-003  0.9118800E+02  0.7818608E-02  0.1130116E+00
         25   -1    0    0    0    0  0.00000000000E+00  0.00000000000E+00  0.99999998245E-14  0.12500000000E+03  0.12500000000E+03 0.  0.
        -11    1    3    3    0    0 -0.15173416571E+02  0.75967916873E+01  0.31487736906E+02  0.35769000407E+02  0.51100000000E-03 0.  1.
         23    2    1    0    0    0  0.16845875869E+02 -0.22001138076E+02 -0.95932156771E+01  0.95676572549E+02  0.91072186409E+02 0.  0.
         11    1    3    3    0    0  0.32019292440E+02 -0.29597929763E+02 -0.41080952583E+02  0.59907572143E+02  0.51100000000E-03 0. -1.
         22    1    1    0    0    0 -0.16845875869E+02  0.22001138076E+02  0.95932156771E+01  0.29323427451E+02  0.00000000000E+00 0. -1.
</event>
<event>
 5    1  0.1691138E-003  0.9118800E+02  0.7818608E-02  0.1130116E+00
         25   -1    0    0    0    0  0.00000000000E+00  0.00000000000E+00  0.99999998245E-14  0.12500000000E+03  0.12500000000E+03 0.  0.
        -11    1    3    3    0    0  0.22188133598E+02  0.22506536796E+02 -0.41722055832E+02  0.52341068142E+02  0.51100000000E-03 0.  1.
         23    2    1    0    0    0  0.94411571031E+01  0.27557031270E+02 -0.41141396294E+00  0.95867635157E+02  0.91334050547E+02 0.  0.
         11    1    3    3    0    0 -0.12746976495E+02  0.50504944742E+01  0.41310641869E+02  0.43526567015E+02  0.51100000000E-03 0. -1.
         22    1    1    0    0    0 -0.94411571031E+01 -0.27557031270E+02  0.41141396294E+00  0.29132364843E+02  0.00000000000E+00 0. -1.
</event>
<event>
 5    1  0.1691138E-003  0.9118800E+02  0.7818608E-02  0.1130116E+00
         25   -1    0    0    0    0  0.00000000000E+00  0.00000000000E+00  0.99999998245E-14  0.12500000000E+03  0.12500000000E+03 0.  0.
        -11    1    3    3    0    0  0.29053727166E+02  0.79019771797E+01  0.16486361389E+02  0.34327254736E+02  0.51100000000E-03 0. -1.
         23    2    1    0    0    0 -0.28609534656E+02 -0.19666086742E+01 -0.34127836735E+01  0.96120593577E+02  0.91679596391E+02 0.  0.
         11    1    3    3    0    0 -0.57663261822E+02 -0.98685858540E+01 -0.19899145063E+02  0.61793338842E+02  0.51100000000E-03 0.  1.
         22    1    1    0    0    0  0.28609534656E+02  0.19666086742E+01  0.34127836735E+01  0.28879406423E+02  0.00000000000E+00 0.  1.
</event>
<event>
 5    1  0.1691138E-003  0.9118800E+02  0.7818608E-02  0.1130116E+00
         25   -1    0    0    0    0  0.00000000000E+00  0.00000000000E+00  0.99999998245E-14  0.12500000000E+03  0.12500000000E+03 0.  0.
        -11    1    3    3    0    0 -0.21448706987E+02  0.30631667065E+02 -0.10871370864E+02  0.38942685621E+02  0.51100000000E-03 0.  1.
         23    2    1    0    0    0 -0.18383599586E+02 -0.24065808422E+02 -0.42520455567E+00  0.94713028087E+02  0.89739941062E+02 0.  0.
         11    1    3    3    0    0  0.30651074012E+01 -0.54697475487E+02  0.10446166308E+02  0.55770342466E+02  0.51100000000E-03 0. -1.
         22    1    1    0    0    0  0.18383599586E+02  0.24065808422E+02  0.42520455567E+00  0.30286971913E+02  0.00000000000E+00 0. -1.
</event>
<event>
 5    1  0.1691138E-003  0.9118800E+02  0.7818608E-02  0.1130116E+00
         25   -1    0    0    0    0  0.00000000000E+00  0.00000000000E+00  0.99999998245E-14  0.12500000000E+03  0.12500000000E+03 0.  0.
        -11    1    3    3    0    0  0.57713973502E+00  0.23662845421E+02 -0.27066753687E+02  0.35956536250E+02  0.51100000000E-03 0.  1.
         23    2    1    0    0    0 -0.16255630696E+02 -0.21588886179E+02  0.93198872201E+01  0.96413537582E+02  0.92078142876E+02 0.  0.
         11    1    3    3    0    0 -0.16832770431E+02 -0.45251731600E+02  0.36386640907E+02  0.60457001331E+02  0.51100000000E-03 0. -1.
         22    1    1    0    0    0  0.16255630696E+02  0.21588886179E+02 -0.93198872201E+01  0.28586462418E+02  0.00000000000E+00 0. -1.
</event>
<event>
 5    1  0.1691138E-003  0.9118800E+02  0.7818608E-02  0.1130116E+00
         25   -1    0    0    0    0  0.00000000000E+00  0.00000000000E+00  0.99999998245E-14  0.12500000000E+03  0.12500000000E+03 0.  0.
        -11    1    3    3    0    0  0.25054766352E+02 -0.32296354476E+02 -0.88395849301E+01  0.41820259342E+02  0.51100000000E-03 0. -1.
         23    2    1    0    0    0  0.12212408262E+02  0.20380109956E+02 -0.15774235300E+02  0.96481264112E+02  0.92170038667E+02 0.  0.
         11    1    3    3    0    0 -0.12842358090E+02  0.52676464432E+02 -0.69346503700E+01  0.54661004770E+02  0.51100000000E-03 0.  1.
         22    1    1    0    0    0 -0.12212408262E+02 -0.20380109956E+02  0.15774235300E+02  0.28518735888E+02  0.00000000000E+00 0. -1.
</event>
<event>
 5    1  0.1691138E-003  0.9118800E+02  0.7818608E-02  0.1130116E+00
         25   -1    0    0    0    0  0.00000000000E+00  0.00000000000E+00  0.99999998245E-14  0.12500000000E+03  0.12500000000E+03 0.  0.
        -11    1    3    3    0    0  0.26502080662E+01 -0.60955822470E+02 -0.12391519524E+02  0.62259020649E+02  0.51100000000E-03 0.  1.
         23    2    1    0    0    0  0.40508009129E+01 -0.26643183773E+02 -0.80527457588E+01  0.96873234387E+02  0.92700100306E+02 0.  0.
         11    1    3    3    0    0  0.14005928467E+01  0.34312638697E+02  0.43387737651E+01  0.34614213738E+02  0.51100000000E-03 0. -1.
         22    1    1    0    0    0 -0.40508009129E+01  0.26643183773E+02  0.80527457588E+01  0.28126765613E+02  0.00000000000E+00 0.  1.
</event>
<event>
 5    1  0.1691138E-003  0.9118800E+02  0.7818608E-02  0.1130116E+00
         25   -1    0    0    0    0  0.00000000000E+00  0.00000000000E+00  0.99999998245E-14  0.12500000000E+03  0.12500000000E+03 0.  0.
        -11    1    3    3    0    0 -0.54270628057E+02  0.16639581902E+02  0.12055751890E+02  0.58030318881E+02  0.51100000000E-03 0.  1.
         23    2    1    0    0    0 -0.29489173328E+02 -0.82684535642E+01  0.36575959074E+01  0.94155929650E+02  0.88960566615E+02 0.  0.
         11    1    3    3    0    0  0.24781454729E+02 -0.24908035466E+02 -0.83981559827E+01  0.36125610769E+02  0.51100000000E-03 0. -1.
         22    1    1    0    0    0  0.29489173328E+02  0.82684535642E+01 -0.36575959074E+01  0.30844070350E+02  0.00000000000E+00 0.  1.
</event>
<event>
 5    1  0.1691138E-003  0.9118800E+02  0.7818608E-02  0.1130116E+00
         25   -1    0    0    0    0  0.00000000000E+00  0.00000000000E+00  0.99999998245E-14  0.12500000000E+03  0.12500000000E+03 0.  0.
        -11    1    3    3    0    0  0.31416332083E+02 -0.21362787697E+02  0.36401375405E+02  0.52615727225E+02  0.51100000000E-03 0.  1.
         23    2    1    0    0    0 -0.88063960237E-01 -0.24255280966E+02  0.13215537103E+00  0.10074419915E+03  0.97780620711E+02 0.  0.
         11    1    3    3    0    0 -0.31504396044E+02 -0.28924932691E+01 -0.36269220034E+02  0.48128471922E+02  0.51100000000E-03 0. -1.
         22    1    1    0    0    0  0.88063960237E-01  0.24255280966E+02 -0.13215537103E+00  0.24255800854E+02  0.00000000000E+00 0.  1.
</event>
<event>
 5    1  0.1691138E-003  0.9118800E+02  0.7818608E-02  0.1130116E+00
         25   -1    0    0    0    0  0.00000000000E+00  0.00000000000E+00  0.99999998245E-14  0.12500000000E+03  0.12500000000E+03 0.  0.
        -11    1    3    3    0    0  0.25566171462E+01 -0.30123283939E+02 -0.25746000493E+02  0.39709004875E+02  0.51100000000E-03 0.  1.
         23    2    1    0    0    0 -0.14618361154E+02 -0.97271033618E+01  0.23472788222E+02  0.95686439835E+02  0.91085728623E+02 0.  0.
         11    1    3    3    0    0 -0.17174978301E+02  0.20396180578E+02  0.49218788715E+02  0.55977434959E+02  0.51100000000E-03 0. -1.
         22    1    1    0    0    0  0.14618361154E+02  0.97271033618E+01 -0.23472788222E+02  0.29313560165E+02  0.00000000000E+00 0. -1.
</event>
<event>
 5    1  0.1691138E-003  0.9118800E+02  0.7818608E-02  0.1130116E+00
         25   -1    0    0    0    0  0.00000000000E+00  0.00000000000E+00  0.99999998245E-14  0.12500000000E+03  0.12500000000E+03 0.  0.
        -11    1    3    3    0    0 -0.48799004694E+02  0.51110128044E+01  0.57058648170E+01  0.49396580900E+02  0.51100000000E-03 0.  1.
         23    2    1    0    0    0 -0.13453017363E+02 -0.10009433094E+02  0.26904286486E+02  0.93298059076E+02  0.87746878970E+02 0.  0.
         11    1    3    3    0    0  0.35345987331E+02 -0.15120445898E+02  0.21198421669E+02  0.43901478177E+02  0.51100000000E-03 0. -1.
         22    1    1    0    0    0  0.13453017363E+02  0.10009433094E+02 -0.26904286486E+02  0.31701940924E+02  0.00000000000E+00 0.  1.
</event>
<event>
 5    1  0.1691138E-003  0.9118800E+02  0.7818608E-02  0.1130116E+00
         25   -1    0    0    0    0  0.00000000000E+00  0.00000000000E+00  0.99999998245E-14  0.12500000000E+03  0.12500000000E+03 0.  0.
        -11    1    3    3    0    0 -0.28267575411E+02  0.15262146003E+02 -0.52567269617E+02  0.61606061028E+02  0.51100000000E-03 0. -1.
         23    2    1    0    0    0 -0.84005631604E+01  0.10639913534E+02 -0.30311180485E+02  0.91795408694E+02  0.85579507906E+02 0.  0.
         11    1    3    3    0    0  0.19867012250E+02 -0.46222324689E+01  0.22256089131E+02  0.30189347665E+02  0.51100000000E-03 0.  1.
         22    1    1    0    0    0  0.84005631604E+01 -0.10639913534E+02  0.30311180485E+02  0.33204591306E+02  0.00000000000E+00 0. -1.
</event>
<event>
 5    1  0.1691138E-003  0.9118800E+02  0.7818608E-02  0.1130116E+00
         25   -1    0    0    0    0  0.00000000000E+00  0.00000000000E+00  0.99999998245E-14  0.12500000000E+03  0.12500000000E+03 0.  0.
        -11    1    3    3    0    0 -0.34545380645E+02 -0.40024431476E+02  0.33714595007E+01  0.52978346315E+02  0.51100000000E-03 0. -1.
         23    2    1    0    0    0 -0.28318489881E+02  0.29826678285E+01  0.19785016651E+01  0.96456215294E+02  0.92136061472E+02 0.  0.
         11    1    3    3    0    0  0.62268907646E+01  0.43007099304E+02 -0.13929578356E+01  0.43477868979E+02  0.51100000000E-03 0.  1.
         22    1    1    0    0    0  0.28318489881E+02 -0.29826678285E+01 -0.19785016651E+01  0.28543784706E+02  0.00000000000E+00 0. -1.
</event>
<event>
 5    1  0.1691138E-003  0.9118800E+02  0.7818608E-02  0.1130116E+00
         25   -1    0    0    0    0  0.00000000000E+00  0.00000000000E+00  0.99999998245E-14  0.12500000000E+03  0.12500000000E+03 0.  0.
        -11    1    3    3    0    0 -0.96480382211E+00  0.44619144635E+02  0.29953899721E+02  0.53749744401E+02  0.51100000000E-03 0.  1.
         23    2    1    0    0    0 -0.17189045030E+02  0.23746478677E+02 -0.24654952392E+01  0.95581686225E+02  0.90941858108E+02 0.  0.
         11    1    3    3    0    0 -0.16224241208E+02 -0.20872665958E+02 -0.32419394960E+02  0.41831941824E+02  0.51100000000E-03 0. -1.
         22    1    1    0    0    0  0.17189045030E+02 -0.23746478677E+02  0.24654952392E+01  0.29418313775E+02  0.00000000000E+00 0.  1.
</event>
<event>
 5    1  0.1691138E-003  0.9118800E+02  0.7818608E-02  0.1130116E+00
         25   -1    0    0    0    0  0.00000000000E+00  0.00000000000E+00  0.99999998245E-14  0.12500000000E+03  0.12500000000E+03 0.  0.
        -11    1    3    3    0    0  0.20256654022E+02  0.50393670202E+01 -0.55906232866E+02  0.59676076662E+02  0.51100000000E-03 0.  1.
         23    2    1    0    0    0  0.10197110271E+02 -0.10875882055E+02 -0.22904723540E+02  0.97670670904E+02  0.93769225901E+02 0.  0.
         11    1    3    3    0    0 -0.10059543751E+02 -0.15915249075E+02  0.33001509326E+02  0.37994594243E+02  0.51100000000E-03 0. -1.
         22    1    1    0    0    0 -0.10197110271E+02  0.10875882055E+02  0.22904723540E+02  0.27329329096E+02  0.00000000000E+00 0.  1.
</event>
<event>
 5    1  0.1691138E-003  0.9118800E+02  0.7818608E-02  0.1130116E+00
         25   -1    0    0    0    0  0.00000000000E+00  0.00000000000E+00  0.99999998245E-14  0.12500000000E+03  0.12500000000E+03 0.  0.
        -11    1    3    3    0    0 -0.32402880358E+02  0.17196588232E+02  0.18035604986E+02  0.40877284032E+02  0.51100000000E-03 0.  1.
         23    2    1    0    0    0  0.13280157519E+02  0.25037309359E+02 -0.98805325915E+01  0.94985763912E+02  0.90119037822E+02 0.  0.
         11    1    3    3    0    0  0.45683037877E+02  0.78407211270E+01 -0.27916137578E+02  0.54108479880E+02  0.51100000000E-03 0. -1.
         22    1    1    0    0    0 -0.13280157519E+02 -0.25037309359E+02  0.98805325915E+01  0.30014236088E+02  0.00000000000E+00 0. -1.
</event>
<event>
 5    1  0.1691138E-003  0.9118800E+02  0.7818608E-02  0.1130116E+00
         25   -1    0    0    0    0  0.00000000000E+00  0.00000000000E+00  0.99999998245E-14  0.12500000000E+03  0.12500000000E+03 0.  0.
        -11    1    3    3    0    0  0.29784591658E+02  0.13617666024E+01  0.33052922686E+02  0.44513728297E+02  0.51100000000E-03 0.  1.
         23    2    1    0    0    0 -0.71387664466E+01 -0.26298089804E+02  0.11996783961E+02  0.95226281067E+02  0.90452032961E+02 0.  0.
         11    1    3    3    0    0 -0.36923358105E+02 -0.27659856406E+02 -0.21056138726E+02  0.50712552770E+02  0.51100000000E-03 0. -1.
         22    1    1    0    0    0  0.71387664466E+01  0.26298089804E+02 -0.11996783961E+02  0.29773718933E+02  0.00000000000E+00 0. -1.
</event>
<event>
 5    1  0.1691138E-003  0.9118800E+02  0.7818608E-02  0.1130116E+00
         25   -1    0    0    0    0  0.00000000000E+00  0.00000000000E+00  0.99999998245E-14  0.12500000000E+03  0.12500000000E+03 0.  0.
        -11    1    3    3    0    0  0.14514463780E+02  0.13630275255E+02  0.27820816000E+02  0.34211867320E+02  0.51100000000E-03 0.  1.
         23    2    1    0    0    0 -0.18426159311E+02 -0.21112698826E+02 -0.10022754735E+02  0.95238867442E+02  0.90469425003E+02 0.  0.
         11    1    3    3    0    0 -0.32940623091E+02 -0.34742974081E+02 -0.37843570735E+02  0.61027000122E+02  0.51100000000E-03 0. -1.
         22    1    1    0    0    0  0.18426159311E+02  0.21112698826E+02  0.10022754735E+02  0.29761132558E+02  0.00000000000E+00 0. -1.
</event>
<event>
 5    1  0.1691138E-003  0.9118800E+02  0.7818608E-02  0.1130116E+00
         25   -1    0    0    0    0  0.00000000000E+00  0.00000000000E+00  0.99999998245E-14  0.12500000000E+03  0.12500000000E+03 0.  0.
        -11    1    3    3    0    0 -0.49580236903E+01  0.60074234272E+02  0.14798283714E+02  0.62068388278E+02  0.51100000000E-03 0.  1.
         23    2    1    0    0    0 -0.59974328748E+01  0.33087045808E+02  0.12315550339E+02  0.89189462702E+02  0.81684549797E+02 0.  0.
         11    1    3    3    0    0 -0.10394091845E+01 -0.26987188464E+02 -0.24827333754E+01  0.27121074424E+02  0.51100000000E-03 0. -1.
         22    1    1    0    0    0  0.59974328748E+01 -0.33087045808E+02 -0.12315550339E+02  0.35810537298E+02  0.00000000000E+00 0.  1.
</event>
<event>
 5    1  0.1691138E-003  0.9118800E+02  0.7818608E-02  0.1130116E+00
         25   -1    0    0    0    0  0.00000000000E+00  0.00000000000E+00  0.99999998245E-14  0.12500000000E+03  0.12500000000E+03 0.  0.
        -11    1    3    3    0    0 -0.10791652212E+02 -0.44631590162E+02  0.29600102429E+02  0.54631535416E+02  0.51100000000E-03 0. -1.
         23    2    1    0    0    0 -0.13283177128E+02 -0.24307321094E+02 -0.68736090573E+01  0.96459937722E+02  0.92141111511E+02 0.  0.
         11    1    3    3    0    0 -0.24915249163E+01  0.20324269068E+02 -0.36473711487E+02  0.41828402306E+02  0.51100000000E-03 0.  1.
         22    1    1    0    0    0  0.13283177128E+02  0.24307321094E+02  0.68736090573E+01  0.28540062278E+02  0.00000000000E+00 0. -1.
</event>
<event>
 5    1  0.1691138E-003  0.9118800E+02  0.7818608E-02  0.1130116E+00
         25   -1    0    0    0    0  0.00000000000E+00  0.00000000000E+00  0.99999998245E-14  0.12500000000E+03  0.12500000000E+03 0.  0.
        -11    1    3    3    0    0  0.56226505355E+02  0.16156677088E+02  0.62620594187E+01  0.58835971203E+02  0.51100000000E-03 0. -1.
         23    2    1    0    0    0  0.20677500597E+02  0.21601905133E+02  0.29249636743E+01  0.94954089317E+02  0.90075092723E+02 0.  0.
         11    1    3    3    0    0 -0.35549004759E+02  0.54452280448E+01 -0.33370957445E+01  0.36118118113E+02  0.51100000000E-03 0.  1.
         22    1    1    0    0    0 -0.20677500597E+02 -0.21601905133E+02 -0.29249636743E+01  0.30045910683E+02  0.00000000000E+00 0. -1.
</event>
<event>
 5    1  0.1691138E-003  0.9118800E+02  0.7818608E-02  0.1130116E+00
         25   -1    0    0    0    0  0.00000000000E+00  0.00000000000E+00  0.99999998245E-14  0.12500000000E+03  0.12500000000E+03 0.  0.
        -11    1    3    3    0    0 -0.17975081297E+02 -0.20189985190E+02  0.23541330591E+02  0.35845966242E+02  0.51100000000E-03 0.  1.
         23    2    1    0    0    0  0.36938582469E+01 -0.83522441029E+01 -0.29374203367E+02  0.94238849278E+02  0.89077002192E+02 0.  0.
         11    1    3    3    0    0  0.21668939544E+02  0.11837741087E+02 -0.52915533958E+02  0.58392883036E+02  0.51100000000E-03 0. -1.
         22    1    1    0    0    0 -0.36938582469E+01  0.83522441029E+01  0.29374203367E+02  0.30761150722E+02  0.00000000000E+00 0. -1.
</event>
<event>
 5    1  0.1691138E-003  0.9118800E+02  0.7818608E-02  0.1130116E+00
         25   -1    0    0    0    0  0.00000000000E+00  0.00000000000E+00  0.99999998245E-14  0.12500000000E+03  0.12500000000E+03 0.  0.
        -11    1    3    3    0    0 -0.30597543408E+02 -0.16701124795E+02  0.49962694357E+02  0.60921326805E+02  0.51100000000E-03 0. -1.
         23    2    1    0    0    0 -0.20343956625E+02  0.57327915207E-01  0.22818623279E+02  0.94429271746E+02  0.89343818681E+02 0.  0.
         11    1    3    3    0    0  0.10253586783E+02  0.16758452710E+02 -0.27144071078E+02  0.33507944940E+02  0.51100000000E-03 0.  1.
         22    1    1    0    0    0  0.20343956625E+02 -0.57327915207E-01 -0.22818623279E+02  0.30570728254E+02  0.00000000000E+00 0. -1.
</event>
<event>
 5    1  0.1691138E-003  0.9118800E+02  0.7818608E-02  0.1130116E+00
         25   -1    0    0    0    0  0.00000000000E+00  0.00000000000E+00  0.99999998245E-14  0.12500000000E+03  0.12500000000E+03 0.  0.
        -11    1    3    3    0    0 -0.28186671720E+02 -0.67337332782E+01  0.28508245722E+02  0.40651589156E+02  0.51100000000E-03 0.  1.
         23    2    1    0    0    0 -0.12380898372E+02  0.21244806175E+02 -0.16085181390E+02  0.95616986297E+02  0.90990365283E+02 0.  0.
         11    1    3    3    0    0  0.15805773348E+02  0.27978539453E+02 -0.44593427112E+02  0.54965397141E+02  0.51100000000E-03 0. -1.
         22    1    1    0    0    0  0.12380898372E+02 -0.21244806175E+02  0.16085181390E+02  0.29383013703E+02  0.00000000000E+00 0.  1.
</event>
<event>
 5    1  0.1691138E-003  0.9118800E+02  0.7818608E-02  0.1130116E+00
         25   -1    0    0    0    0  0.00000000000E+00  0.00000000000E+00  0.99999998245E-14  0.12500000000E+03  0.12500000000E+03 0.  0.
        -11    1    3    3    0    0 -0.15843876783E+02  0.55009013523E+02  0.15385517045E+02  0.59276758813E+02  0.51100000000E-03 0.  1.
         23    2    1    0    0    0 -0.20170510914E+02  0.38930904307E+02  0.12204546993E+01  0.81137096193E+02  0.68258875235E+02 0.  0.
         11    1    3    3    0    0 -0.43266341310E+01 -0.16078109217E+02 -0.14165062346E+02  0.21860337381E+02  0.51100000000E-03 0. -1.
         22    1    1    0    0    0  0.20170510914E+02 -0.38930904307E+02 -0.12204546993E+01  0.43862903807E+02  0.00000000000E+00 0.  1.
</event>
<event>
 5    1  0.1691138E-003  0.9118800E+02  0.7818608E-02  0.1130116E+00
         25   -1    0    0    0    0  0.00000000000E+00  0.00000000000E+00  0.99999998245E-14  0.12500000000E+03  0.12500000000E+03 0.  0.
        -11    1    3    3    0    0  0.39005966808E+02 -0.14570217977E+02 -0.39289603195E+01  0.41823359836E+02  0.51100000000E-03 0.  1.
         23    2    1    0    0    0 -0.51347152797E+01  0.55801531193E+01 -0.28002068498E+02  0.95989325240E+02  0.91500444316E+02 0.  0.
         11    1    3    3    0    0 -0.44140682088E+02  0.20150371096E+02 -0.24073108179E+02  0.54165965404E+02  0.51100000000E-03 0. -1.
         22    1    1    0    0    0  0.51347152797E+01 -0.55801531193E+01  0.28002068498E+02  0.29010674760E+02  0.00000000000E+00 0. -1.
</event>
<event>
 5    1  0.1691138E-003  0.9118800E+02  0.7818608E-02  0.1130116E+00
         25   -1    0    0    0    0  0.00000000000E+00  0.00000000000E+00  0.99999998245E-14  0.12500000000E+03  0.12500000000E+03 0.  0.
        -11    1    3    3    0    0 -0.29671668512E+02  0.19445281755E+02 -0.30787273433E+02  0.46972152394E+02  0.51100000000E-03 0.  1.
         23    2    1    0    0    0  0.16487715677E+02  0.37217154104E+01 -0.23158583025E+02  0.96329180312E+02  0.91963552987E+02 0.  0.
         11    1    3    3    0    0  0.46159384189E+02 -0.15723566345E+02  0.76286904080E+01  0.49357027918E+02  0.51100000000E-03 0. -1.
         22    1    1    0    0    0 -0.16487715677E+02 -0.37217154104E+01  0.23158583025E+02  0.28670819688E+02  0.00000000000E+00 0. -1.
</event>
<event>
 5    1  0.1691138E-003  0.9118800E+02  0.7818608E-02  0.1130116E+00
         25   -1    0    0    0    0  0.00000000000E+00  0.00000000000E+00  0.99999998245E-14  0.12500000000E+03  0.12500000000E+03 0.  0.
        -11    1    3    3    0    0  0.24096891326E+02 -0.73643097700E+01 -0.28696313976E+02  0.38188632681E+02  0.51100000000E-03 0.  1.
         23    2    1    0    0    0  0.74590036581E+01  0.16470563781E+01  0.26962794324E+02  0.96976049386E+02  0.92838636065E+02 0.  0.
         11    1    3    3    0    0 -0.16637887667E+02  0.90113661480E+01  0.55659108300E+02  0.58787416705E+02  0.51100000000E-03 0. -1.
         22    1    1    0    0    0 -0.74590036581E+01 -0.16470563781E+01 -0.26962794324E+02  0.28023950614E+02  0.00000000000E+00 0. -1.
</event>
<event>
 5    1  0.1691138E-003  0.9118800E+02  0.7818608E-02  0.1130116E+00
         25   -1    0    0    0    0  0.00000000000E+00  0.00000000000E+00  0.99999998245E-14  0.12500000000E+03  0.12500000000E+03 0.  0.
        -11    1    3    3    0    0  0.32620806254E+02 -0.84563070861E+01 -0.41543598471E+01  0.33954157864E+02  0.51100000000E-03 0.  1.
         23    2    1    0    0    0 -0.23630842186E+02  0.33095765202E+01  0.17544083638E+02  0.95383030711E+02  0.90668394040E+02 0.  0.
         11    1    3    3    0    0 -0.56251648441E+02  0.11765883606E+02  0.21698443485E+02  0.61428872847E+02  0.51100000000E-03 0. -1.
         22    1    1    0    0    0  0.23630842186E+02 -0.33095765202E+01 -0.17544083638E+02  0.29616969289E+02  0.00000000000E+00 0. -1.
</event>
<event>
 5    1  0.1691138E-003  0.9118800E+02  0.7818608E-02  0.1130116E+00
         25   -1    0    0    0    0  0.00000000000E+00  0.00000000000E+00  0.99999998245E-14  0.12500000000E+03  0.12500000000E+03 0.  0.
        -11    1    3    3    0    0  0.34189826254E+01  0.30608790121E+02 -0.22737653065E+02  0.38283003304E+02  0.51100000000E-03 0. -1.
         23    2    1    0    0    0 -0.34312312153E+01 -0.25408270472E+02 -0.15135013183E+02  0.95227157004E+02  0.90453243452E+02 0.  0.
         11    1    3    3    0    0 -0.68502138407E+01 -0.56017060593E+02  0.76026398815E+01  0.56944153699E+02  0.51100000000E-03 0.  1.
         22    1    1    0    0    0  0.34312312153E+01  0.25408270472E+02  0.15135013183E+02  0.29772842996E+02  0.00000000000E+00 0. -1.
</event>
<event>
 5    1  0.1691138E-003  0.9118800E+02  0.7818608E-02  0.1130116E+00
         25   -1    0    0    0    0  0.00000000000E+00  0.00000000000E+00  0.99999998245E-14  0.12500000000E+03  0.12500000000E+03 0.  0.
        -11    1    3    3    0    0  0.26721165208E+02 -0.16909953785E+02  0.20264631991E+02  0.37558254979E+02  0.51100000000E-03 0.  1.
         23    2    1    0    0    0 -0.35435969196E+01 -0.48942931772E+01 -0.28318180348E+02  0.96044335216E+02  0.91575563356E+02 0.  0.
         11    1    3    3    0    0 -0.30264762128E+02  0.12015660608E+02 -0.48582812339E+02  0.58486080237E+02  0.51100000000E-03 0. -1.
         22    1    1    0    0    0  0.35435969196E+01  0.48942931772E+01  0.28318180348E+02  0.28955664784E+02  0.00000000000E+00 0. -1.
</event>
<event>
 5    1  0.1691138E-003  0.9118800E+02  0.7818608E-02  0.1130116E+00
         25   -1    0    0    0    0  0.00000000000E+00  0.00000000000E+00  0.99999998245E-14  0.12500000000E+03  0.12500000000E+03 0.  0.
        -11    1    3    3    0    0 -0.21415206242E+02 -0.13696128715E+02 -0.24910053056E+02  0.35590809821E+02  0.51100000000E-03 0. -1.
         23    2    1    0    0    0 -0.17557468116E+01  0.54567342857E+01  0.28654419306E+02  0.95777845019E+02  0.91211080768E+02 0.  0.
         11    1    3    3    0    0  0.19659459431E+02  0.19152863001E+02  0.53564472363E+02  0.60187035198E+02  0.51100000000E-03 0.  1.
         22    1    1    0    0    0  0.17557468116E+01 -0.54567342857E+01 -0.28654419306E+02  0.29222154981E+02  0.00000000000E+00 0.  1.
</event>
<event>
 5    1  0.1691138E-003  0.9118800E+02  0.7818608E-02  0.1130116E+00
         25   -1    0    0    0    0  0.00000000000E+00  0.00000000000E+00  0.99999998245E-14  0.12500000000E+03  0.12500000000E+03 0.  0.
        -11    1    3    3    0    0  0.39885641263E+02  0.41262214519E+01  0.28715612165E+02  0.49320142586E+02  0.51100000000E-03 0. -1.
         23    2    1    0    0    0  0.19716688657E+01  0.25535611251E+02  0.16467295519E+02  0.94551244003E+02  0.89514306124E+02 0.  0.
         11    1    3    3    0    0 -0.37913972397E+02  0.21409389799E+02 -0.12248316646E+02  0.45231101417E+02  0.51100000000E-03 0.  1.
         22    1    1    0    0    0 -0.19716688657E+01 -0.25535611251E+02 -0.16467295519E+02  0.30448755997E+02  0.00000000000E+00 0.  1.
</event>
<event>
 5    1  0.1691138E-003  0.9118800E+02  0.7818608E-02  0.1130116E+00
         25   -1    0    0    0    0  0.00000000000E+00  0.00000000000E+00  0.99999998245E-14  0.12500000000E+03  0.12500000000E+03 0.  0.
        -11    1    3    3    0    0  0.48660463051E+02  0.57110462602E+01  0.19287584453E+02  0.52654227067E+02  0.51100000000E-03 0.  1.
         23    2    1    0    0    0  0.16936500901E+02 -0.66544202632E+01 -0.15327132405E+02  0.10120825018E+03  0.98372061810E+02 0.  0.
         11    1    3    3    0    0 -0.31723962151E+02 -0.12365466523E+02 -0.34614716858E+02  0.48554023112E+02  0.51100000000E-03 0. -1.
         22    1    1    0    0    0 -0.16936500901E+02  0.66544202632E+01  0.15327132405E+02  0.23791749821E+02  0.00000000000E+00 0.  1.
</event>
<event>
 5    1  0.1691138E-003  0.9118800E+02  0.7818608E-02  0.1130116E+00
         25   -1    0    0    0    0  0.00000000000E+00  0.00000000000E+00  0.99999998245E-14  0.12500000000E+03  0.12500000000E+03 0.  0.
        -11    1    3    3    0    0  0.19965136745E+02  0.60329423143E+01 -0.38106298836E+02  0.43440684725E+02  0.51100000000E-03 0. -1.
         23    2    1    0    0    0 -0.25877852241E+02  0.26877064468E+01 -0.16125064197E+02  0.94391101001E+02  0.89290398422E+02 0.  0.
         11    1    3    3    0    0 -0.45842988986E+02 -0.33452358675E+01  0.21981234639E+02  0.50950416276E+02  0.51100000000E-03 0.  1.
         22    1    1    0    0    0  0.25877852241E+02 -0.26877064468E+01  0.16125064197E+02  0.30608898999E+02  0.00000000000E+00 0.  1.
</event>
<event>
 5    1  0.1691138E-003  0.9118800E+02  0.7818608E-02  0.1130116E+00
         25   -1    0    0    0    0  0.00000000000E+00  0.00000000000E+00  0.99999998245E-14  0.12500000000E+03  0.12500000000E+03 0.  0.
        -11    1    3    3    0    0  0.52144009558E+02 -0.20053165827E+02 -0.15201855317E+02  0.57898390287E+02  0.51100000000E-03 0. -1.
         23    2    1    0    0    0  0.18145485870E+02 -0.75550696576E+01 -0.22787071774E+02  0.94907004552E+02  0.90009728019E+02 0.  0.
         11    1    3    3    0    0 -0.33998523688E+02  0.12498096170E+02 -0.75852164573E+01  0.37008614265E+02  0.51100000000E-03 0.  1.
         22    1    1    0    0    0 -0.18145485870E+02  0.75550696576E+01  0.22787071774E+02  0.30092995448E+02  0.00000000000E+00 0. -1.
</event>
<event>
 5    1  0.1691138E-003  0.9118800E+02  0.7818608E-02  0.1130116E+00
         25   -1    0    0    0    0  0.00000000000E+00  0.00000000000E+00  0.99999998245E-14  0.12500000000E+03  0.12500000000E+03 0.  0.
        -11    1    3    3    0    0  0.33636323439E+02 -0.16370486764E+02 -0.20838097649E+02  0.42820805752E+02  0.51100000000E-03 0.  1.
         23    2    1    0    0    0 -0.14953164506E+02 -0.25646637480E+02 -0.41669638712E+01  0.95021495523E+02  0.90168585887E+02 0.  0.
         11    1    3    3    0    0 -0.48589487945E+02 -0.92761507161E+01  0.16671133778E+02  0.52200689771E+02  0.51100000000E-03 0. -1.
         22    1    1    0    0    0  0.14953164506E+02  0.25646637480E+02  0.41669638712E+01  0.29978504477E+02  0.00000000000E+00 0.  1.
</event>
<event>
 5    1  0.1691138E-003  0.9118800E+02  0.7818608E-02  0.1130116E+00
         25   -1    0    0    0    0  0.00000000000E+00  0.00000000000E+00  0.99999998245E-14  0.12500000000E+03  0.12500000000E+03 0.  0.
        -11    1    3    3    0    0  0.62429875928E+01 -0.46240922909E+02 -0.22015865112E+01  0.46712362700E+02  0.51100000000E-03 0.  1.
         23    2    1    0    0    0 -0.26372062733E+02 -0.16093163635E+02 -0.11400114638E+02  0.92069190378E+02  0.85978471692E+02 0.  0.
         11    1    3    3    0    0 -0.32615050326E+02  0.30147759275E+02 -0.91985281270E+01  0.45356827678E+02  0.51100000000E-03 0. -1.
         22    1    1    0    0    0  0.26372062733E+02  0.16093163635E+02  0.11400114638E+02  0.32930809622E+02  0.00000000000E+00 0.  1.
</event>
<event>
 5    1  0.1691138E-003  0.9118800E+02  0.7818608E-02  0.1130116E+00
         25   -1    0    0    0    0  0.00000000000E+00  0.00000000000E+00  0.99999998245E-14  0.12500000000E+03  0.12500000000E+03 0.  0.
        -11    1    3    3    0    0  0.23394778374E+02  0.26380570793E+01  0.44437355628E+02  0.50288702268E+02  0.51100000000E-03 0. -1.
         23    2    1    0    0    0  0.23509879779E+02 -0.17691210472E+02  0.43216060000E+01  0.95261646757E+02  0.90500893307E+02 0.  0.
         11    1    3    3    0    0  0.11510140433E+00 -0.20329267551E+02 -0.40115749628E+02  0.44972944489E+02  0.51100000000E-03 0.  1.
         22    1    1    0    0    0 -0.23509879779E+02  0.17691210472E+02 -0.43216060000E+01  0.29738353243E+02  0.00000000000E+00 0. -1.
</event>
<event>
 5    1  0.1691138E-003  0.9118800E+02  0.7818608E-02  0.1130116E+00
         25   -1    0    0    0    0  0.00000000000E+00  0.00000000000E+00  0.99999998245E-14  0.12500000000E+03  0.12500000000E+03 0.  0.
        -11    1    3    3    0    0 -0.35807178871E+01 -0.97607708744E+01  0.55806454504E+02  0.56766667625E+02  0.51100000000E-03 0. -1.
         23    2    1    0    0    0 -0.14587309571E+00  0.14545473187E+02  0.23865562387E+02  0.97050811510E+02  0.92939242936E+02 0.  0.
         11    1    3    3    0    0  0.34348447914E+01  0.24306244061E+02 -0.31940892117E+02  0.40284143885E+02  0.51100000000E-03 0.  1.
         22    1    1    0    0    0  0.14587309571E+00 -0.14545473187E+02 -0.23865562387E+02  0.27949188490E+02  0.00000000000E+00 0. -1.
</event>
<event>
 5    1  0.1691138E-003  0.9118800E+02  0.7818608E-02  0.1130116E+00
         25   -1    0    0    0    0  0.00000000000E+00  0.00000000000E+00  0.99999998245E-14  0.12500000000E+03  0.12500000000E+03 0.  0.
        -11    1    3    3    0    0  0.31113043663E+02  0.18634167746E+02 -0.71569847305E+01  0.36965877837E+02  0.51100000000E-03 0.  1.
         23    2    1    0    0    0 -0.10372809913E+02 -0.21226363645E+02 -0.17730477119E+02  0.95461490932E+02  0.90776498792E+02 0.  0.
         11    1    3    3    0    0 -0.41485853577E+02 -0.39860531391E+02 -0.10573492388E+02  0.58495613095E+02  0.51100000000E-03 0. -1.
         22    1    1    0    0    0  0.10372809913E+02  0.21226363645E+02  0.17730477119E+02  0.29538509068E+02  0.00000000000E+00 0. -1.
</event>
<event>
 5    1  0.1691138E-003  0.9118800E+02  0.7818608E-02  0.1130116E+00
         25   -1    0    0    0    0  0.00000000000E+00  0.00000000000E+00  0.99999998245E-14  0.12500000000E+03  0.12500000000E+03 0.  0.
        -11    1    3    3    0    0  0.53064194700E+02 -0.23628982518E+02 -0.15015030507E+02  0.59996572531E+02  0.51100000000E-03 0.  1.
         23    2    1    0    0    0  0.26020901665E+02 -0.20099806905E+00 -0.13197984096E+02  0.95822705611E+02  0.91272539149E+02 0.  0.
         11    1    3    3    0    0 -0.27043293036E+02  0.23427984449E+02  0.18170464107E+01  0.35826133080E+02  0.51100000000E-03 0. -1.
         22    1    1    0    0    0 -0.26020901665E+02  0.20099806905E+00  0.13197984096E+02  0.29177294389E+02  0.00000000000E+00 0.  1.
</event>
<event>
 5    1  0.1691138E-003  0.9118800E+02  0.7818608E-02  0.1130116E+00
         25   -1    0    0    0    0  0.00000000000E+00  0.00000000000E+00  0.99999998245E-14  0.12500000000E+03  0.12500000000E+03 0.  0.
        -11    1    3    3    0    0 -0.78295212646E+01  0.61285953562E+02 -0.33913676786E+01  0.61877062651E+02  0.51100000000E-03 0. -1.
         23    2    1    0    0    0 -0.97997796736E+01  0.28158748989E+02 -0.62078769557E+00  0.95178259547E+02  0.90385645358E+02 0.  0.
         11    1    3    3    0    0 -0.19702584090E+01 -0.33127204573E+02  0.27705799831E+01  0.33301196896E+02  0.51100000000E-03 0.  1.
         22    1    1    0    0    0  0.97997796736E+01 -0.28158748989E+02  0.62078769557E+00  0.29821740453E+02  0.00000000000E+00 0. -1.
</event>
<event>
 5    1  0.1691138E-003  0.9118800E+02  0.7818608E-02  0.1130116E+00
         25   -1    0    0    0    0  0.00000000000E+00  0.00000000000E+00  0.99999998245E-14  0.12500000000E+03  0.12500000000E+03 0.  0.
        -11    1    3    3    0    0  0.27751543244E+02 -0.19061233627E+02  0.30410823780E+02  0.45368458019E+02  0.51100000000E-03 0.  1.
         23    2    1    0    0    0 -0.20222452880E+02 -0.13628735382E+02  0.16295973135E+02  0.95670002233E+02  0.91063167956E+02 0.  0.
         11    1    3    3    0    0 -0.47973996124E+02  0.54324982445E+01 -0.14114850645E+02  0.50301544214E+02  0.51100000000E-03 0. -1.
         22    1    1    0    0    0  0.20222452880E+02  0.13628735382E+02 -0.16295973135E+02  0.29329997767E+02  0.00000000000E+00 0. -1.
</event>
<event>
 5    1  0.1691138E-003  0.9118800E+02  0.7818608E-02  0.1130116E+00
         25   -1    0    0    0    0  0.00000000000E+00  0.00000000000E+00  0.99999998245E-14  0.12500000000E+03  0.12500000000E+03 0.  0.
        -11    1    3    3    0    0 -0.18495087957E+02 -0.98022521667E+00 -0.32080368914E+02  0.37042937113E+02  0.51100000000E-03 0. -1.
         23    2    1    0    0    0  0.70988530712E+01  0.27873761053E+02  0.10394035501E+02  0.94416078666E+02  0.89325358474E+02 0.  0.
         11    1    3    3    0    0  0.25593941028E+02  0.28853986270E+02  0.42474404415E+02  0.57373141553E+02  0.51100000000E-03 0.  1.
         22    1    1    0    0    0 -0.70988530712E+01 -0.27873761053E+02 -0.10394035501E+02  0.30583921334E+02  0.00000000000E+00 0.  1.
</event>
<event>
 5    1  0.1691138E-003  0.9118800E+02  0.7818608E-02  0.1130116E+00
         25   -1    0    0    0    0  0.00000000000E+00  0.00000000000E+00  0.99999998245E-14  0.12500000000E+03  0.12500000000E+03 0.  0.
        -11    1    3    3    0    0  0.36564906563E+01  0.68205667258E+00 -0.35242438078E+02  0.35438179513E+02  0.51100000000E-03 0.  1.
         23    2    1    0    0    0  0.74622681894E+01  0.16686996628E+02  0.22805762799E+02  0.95772545101E+02  0.91203817219E+02 0.  0.
         11    1    3    3    0    0  0.38057775332E+01  0.16004939956E+02  0.58048200877E+02  0.60334365589E+02  0.51100000000E-03 0. -1.
         22    1    1    0    0    0 -0.74622681894E+01 -0.16686996628E+02 -0.22805762799E+02  0.29227454899E+02  0.00000000000E+00 0. -1.
</event>
<event>
 5    1  0.1691138E-003  0.9118800E+02  0.7818608E-02  0.1130116E+00
         25   -1    0    0    0    0  0.00000000000E+00  0.00000000000E+00  0.99999998245E-14  0.12500000000E+03  0.12500000000E+03 0.  0.
        -11    1    3    3    0    0  0.13004296539E+02  0.28096900267E+02  0.32279394252E+02  0.44727025685E+02  0.51100000000E-03 0. -1.
         23    2    1    0    0    0  0.11701382944E+02 -0.20028093429E+02  0.19904620127E+02  0.94434647204E+02  0.89351339111E+02 0.  0.
         11    1    3    3    0    0 -0.13029135955E+01 -0.48124993696E+02 -0.12374774125E+02  0.49707621518E+02  0.51100000000E-03 0.  1.
         22    1    1    0    0    0 -0.11701382944E+02  0.20028093429E+02 -0.19904620127E+02  0.30565352796E+02  0.00000000000E+00 0. -1.
</event>
<event>
 5    1  0.1691138E-003  0.9118800E+02  0.7818608E-02  0.1130116E+00
         25   -1    0    0    0    0  0.00000000000E+00  0.00000000000E+00  0.99999998245E-14  0.12500000000E+03  0.12500000000E+03 0.  0.
        -11    1    3    3    0    0 -0.20145652581E+02  0.19284497564E+02  0.43857686107E+02  0.51973414311E+02  0.51100000000E-03 0.  1.
         23    2    1    0    0    0  0.56444523860E+01 -0.11301570959E+02  0.26615524609E+02  0.95538643971E+02  0.90882677077E+02 0.  0.
         11    1    3    3    0    0  0.25790104967E+02 -0.30586068523E+02 -0.17242161499E+02  0.43565229660E+02  0.51100000000E-03 0. -1.
         22    1    1    0    0    0 -0.56444523860E+01  0.11301570959E+02 -0.26615524609E+02  0.29461356029E+02  0.00000000000E+00 0. -1.
</event>
<event>
 5    1  0.1691138E-003  0.9118800E+02  0.7818608E-02  0.1130116E+00
         25   -1    0    0    0    0  0.00000000000E+00  0.00000000000E+00  0.99999998245E-14  0.12500000000E+03  0.12500000000E+03 0.  0.
        -11    1    3    3    0    0 -0.24224721971E+02  0.41624070538E+01  0.21221486277E+01  0.24671163371E+02  0.51100000000E-03 0. -1.
         23    2    1    0    0    0  0.14443446747E+01 -0.37356510044E+02  0.26444223726E+02  0.79208167293E+02  0.64630038088E+02 0.  0.
         11    1    3    3    0    0  0.25669066645E+02 -0.41518917097E+02  0.24322075099E+02  0.54537003922E+02  0.51100000000E-03 0.  1.
         22    1    1    0    0    0 -0.14443446747E+01  0.37356510044E+02 -0.26444223726E+02  0.45791832707E+02  0.00000000000E+00 0.  1.
</event>
<event>
 5    1  0.1691138E-003  0.9118800E+02  0.7818608E-02  0.1130116E+00
         25   -1    0    0    0    0  0.00000000000E+00  0.00000000000E+00  0.99999998245E-14  0.12500000000E+03  0.12500000000E+03 0.  0.
        -11    1    3    3    0    0 -0.13069900892E+02  0.14958597833E+02 -0.50802377670E+02  0.54547809632E+02  0.51100000000E-03 0.  1.
         23    2    1    0    0    0 -0.21193600313E+02  0.16133470600E+02 -0.94025751185E+01  0.96753478326E+02  0.92538476222E+02 0.  0.
         11    1    3    3    0    0 -0.81236994209E+01  0.11748727668E+01  0.41399802552E+02  0.42205668694E+02  0.51100000000E-03 0. -1.
         22    1    1    0    0    0  0.21193600313E+02 -0.16133470600E+02  0.94025751185E+01  0.28246521674E+02  0.00000000000E+00 0.  1.
</event>
<event>
 5    1  0.1691138E-003  0.9118800E+02  0.7818608E-02  0.1130116E+00
         25   -1    0    0    0    0  0.00000000000E+00  0.00000000000E+00  0.99999998245E-14  0.12500000000E+03  0.12500000000E+03 0.  0.
        -11    1    3    3    0    0  0.17530945636E+01 -0.38026499861E+02 -0.26865606632E+01  0.38161572828E+02  0.51100000000E-03 0.  1.
         23    2    1    0    0    0 -0.10613631727E+02  0.12086472948E+02  0.23875617578E+02  0.96211510607E+02  0.91803472983E+02 0.  0.
         11    1    3    3    0    0 -0.12366726291E+02  0.50112972809E+02  0.26562178242E+02  0.58049937779E+02  0.51100000000E-03 0. -1.
         22    1    1    0    0    0  0.10613631727E+02 -0.12086472948E+02 -0.23875617578E+02  0.28788489393E+02  0.00000000000E+00 0. -1.
</event>
<event>
 5    1  0.1691138E-003  0.9118800E+02  0.7818608E-02  0.1130116E+00
         25   -1    0    0    0    0  0.00000000000E+00  0.00000000000E+00  0.99999998245E-14  0.12500000000E+03  0.12500000000E+03 0.  0.
        -11    1    3    3    0    0  0.63898102980E+01  0.39456648062E+02 -0.44048873383E+02  0.59480753177E+02  0.51100000000E-03 0. -1.
         23    2    1    0    0    0 -0.93118053853E+01  0.16092611087E+02 -0.26414881599E+02  0.92697866618E+02  0.86887666873E+02 0.  0.
         11    1    3    3    0    0 -0.15701615683E+02 -0.23364036976E+02  0.17633991784E+02  0.33217113441E+02  0.51100000000E-03 0.  1.
         22    1    1    0    0    0  0.93118053853E+01 -0.16092611087E+02  0.26414881599E+02  0.32302133382E+02  0.00000000000E+00 0. -1.
</event>
<event>
 5    1  0.1691138E-003  0.9118800E+02  0.7818608E-02  0.1130116E+00
         25   -1    0    0    0    0  0.00000000000E+00  0.00000000000E+00  0.99999998245E-14  0.12500000000E+03  0.12500000000E+03 0.  0.
        -11    1    3    3    0    0 -0.10879795337E+01  0.61709635782E+01  0.36195368283E+02  0.36733760716E+02  0.51100000000E-03 0.  1.
         23    2    1    0    0    0 -0.15187203518E+02 -0.20816682709E+02 -0.14173894193E+02  0.95591077778E+02  0.90954765925E+02 0.  0.
         11    1    3    3    0    0 -0.14099223984E+02 -0.26987646287E+02 -0.50369262476E+02  0.58857317062E+02  0.51100000000E-03 0. -1.
         22    1    1    0    0    0  0.15187203518E+02  0.20816682709E+02  0.14173894193E+02  0.29408922222E+02  0.00000000000E+00 0. -1.
</event>
<event>
 5    1  0.1691138E-003  0.9118800E+02  0.7818608E-02  0.1130116E+00
         25   -1    0    0    0    0  0.00000000000E+00  0.00000000000E+00  0.99999998245E-14  0.12500000000E+03  0.12500000000E+03 0.  0.
        -11    1    3    3    0    0  0.27442531232E+02  0.20131277673E+02 -0.73987582605E+01  0.34829620802E+02  0.51100000000E-03 0. -1.
         23    2    1    0    0    0 -0.22310225828E+02 -0.16016047606E+02 -0.82188550812E+01  0.96332779412E+02  0.91968444876E+02 0.  0.
         11    1    3    3    0    0 -0.49752757060E+02 -0.36147325279E+02 -0.82009682072E+00  0.61503158610E+02  0.51100000000E-03 0.  1.
         22    1    1    0    0    0  0.22310225828E+02  0.16016047606E+02  0.82188550812E+01  0.28667220588E+02  0.00000000000E+00 0.  1.
</event>
<event>
 5    1  0.1691138E-003  0.9118800E+02  0.7818608E-02  0.1130116E+00
         25   -1    0    0    0    0  0.00000000000E+00  0.00000000000E+00  0.99999998245E-14  0.12500000000E+03  0.12500000000E+03 0.  0.
        -11    1    3    3    0    0 -0.17474830022E+02  0.19254236135E+02  0.27758738324E+02  0.38034758406E+02  0.51100000000E-03 0.  1.
         23    2    1    0    0    0  0.20197250725E+02 -0.19522260836E+02  0.62244814339E+01  0.96228629262E+02  0.91826778859E+02 0.  0.
         11    1    3    3    0    0  0.37672080747E+02 -0.38776496971E+02 -0.21534256890E+02  0.58193870856E+02  0.51100000000E-03 0. -1.
         22    1    1    0    0    0 -0.20197250725E+02  0.19522260836E+02 -0.62244814339E+01  0.28771370738E+02  0.00000000000E+00 0. -1.
</event>
<event>
 5    1  0.1691138E-003  0.9118800E+02  0.7818608E-02  0.1130116E+00
         25   -1    0    0    0    0  0.00000000000E+00  0.00000000000E+00  0.99999998245E-14  0.12500000000E+03  0.12500000000E+03 0.  0.
        -11    1    3    3    0    0  0.76676312097E+01  0.37128923061E+02  0.71369309680E+01  0.38578300635E+02  0.51100000000E-03 0. -1.
         23    2    1    0    0    0  0.26433949962E+02 -0.12849028363E+02 -0.88489013145E+01  0.94305467996E+02  0.89170437921E+02 0.  0.
         11    1    3    3    0    0  0.18766318752E+02 -0.49977951424E+02 -0.15985832282E+02  0.55727167361E+02  0.51100000000E-03 0.  1.
         22    1    1    0    0    0 -0.26433949962E+02  0.12849028363E+02  0.88489013145E+01  0.30694532004E+02  0.00000000000E+00 0.  1.
</event>
<event>
 5    1  0.1691138E-003  0.9118800E+02  0.7818608E-02  0.1130116E+00
         25   -1    0    0    0    0  0.00000000000E+00  0.00000000000E+00  0.99999998245E-14  0.12500000000E+03  0.12500000000E+03 0.  0.
        -11    1    3    3    0    0 -0.24541972840E+02  0.10313992273E+02 -0.47927570399E+02  0.54824619215E+02  0.51100000000E-03 0. -1.
         23    2    1    0    0    0 -0.14515453135E+02  0.26648121832E+02 -0.20144411111E+02  0.88577231353E+02  0.80742230823E+02 0.  0.
         11    1    3    3    0    0  0.10026519705E+02  0.16334129559E+02  0.27783159288E+02  0.33752612138E+02  0.51100000000E-03 0.  1.
         22    1    1    0    0    0  0.14515453135E+02 -0.26648121832E+02  0.20144411111E+02  0.36422768647E+02  0.00000000000E+00 0. -1.
</event>
<event>
 5    1  0.1691138E-003  0.9118800E+02  0.7818608E-02  0.1130116E+00
         25   -1    0    0    0    0  0.00000000000E+00  0.00000000000E+00  0.99999998245E-14  0.12500000000E+03  0.12500000000E+03 0.  0.
        -11    1    3    3    0    0 -0.46806206591E+02  0.21900435565E+00 -0.24306383582E+01  0.46869787086E+02  0.51100000000E-03 0. -1.
         23    2    1    0    0    0 -0.74586738339E+01 -0.28441398767E+02 -0.30267730831E+00  0.95595296418E+02  0.90960563458E+02 0.  0.
         11    1    3    3    0    0  0.39347532757E+02 -0.28660403123E+02  0.21279610499E+01  0.48725509333E+02  0.51100000000E-03 0.  1.
         22    1    1    0    0    0  0.74586738339E+01  0.28441398767E+02  0.30267730831E+00  0.29404703582E+02  0.00000000000E+00 0.  1.
</event>
<event>
 5    1  0.1691138E-003  0.9118800E+02  0.7818608E-02  0.1130116E+00
         25   -1    0    0    0    0  0.00000000000E+00  0.00000000000E+00  0.99999998245E-14  0.12500000000E+03  0.12500000000E+03 0.  0.
        -11    1    3    3    0    0 -0.41159985495E+02  0.72476424801E+01 -0.19420697622E+02  0.46085097633E+02  0.51100000000E-03 0.  1.
         23    2    1    0    0    0  0.29635266261E+01  0.17172975423E+02 -0.27905311695E+02  0.92100152041E+02  0.86023473600E+02 0.  0.
         11    1    3    3    0    0  0.44123512121E+02  0.99253329429E+01 -0.84846140732E+01  0.46015054408E+02  0.51100000000E-03 0. -1.
         22    1    1    0    0    0 -0.29635266261E+01 -0.17172975423E+02  0.27905311695E+02  0.32899847959E+02  0.00000000000E+00 0.  1.
</event>
<event>
 5    1  0.1691138E-003  0.9118800E+02  0.7818608E-02  0.1130116E+00
         25   -1    0    0    0    0  0.00000000000E+00  0.00000000000E+00  0.99999998245E-14  0.12500000000E+03  0.12500000000E+03 0.  0.
        -11    1    3    3    0    0  0.40086538133E+02 -0.30800398915E+02  0.25777597334E+02  0.56745745544E+02  0.51100000000E-03 0.  1.
         23    2    1    0    0    0  0.86767564835E+01 -0.92823551487E+01  0.27340238580E+02  0.94851420170E+02  0.89932502703E+02 0.  0.
         11    1    3    3    0    0 -0.31409781649E+02  0.21518043766E+02  0.15626412457E+01  0.38105674626E+02  0.51100000000E-03 0. -1.
         22    1    1    0    0    0 -0.86767564835E+01  0.92823551487E+01 -0.27340238580E+02  0.30148579830E+02  0.00000000000E+00 0.  1.
</event>
<event>
 5    1  0.1691138E-003  0.9118800E+02  0.7818608E-02  0.1130116E+00
         25   -1    0    0    0    0  0.00000000000E+00  0.00000000000E+00  0.99999998245E-14  0.12500000000E+03  0.12500000000E+03 0.  0.
        -11    1    3    3    0    0  0.11195450509E+02 -0.22845994499E+02  0.34408357787E+02  0.42792670665E+02  0.51100000000E-03 0. -1.
         23    2    1    0    0    0 -0.88492214175E+01  0.22791359439E+02  0.15201207603E+02  0.96210566220E+02  0.91802187093E+02 0.  0.
         11    1    3    3    0    0 -0.20044671927E+02  0.45637353938E+02 -0.19207150184E+02  0.53417895555E+02  0.51100000000E-03 0.  1.
         22    1    1    0    0    0  0.88492214175E+01 -0.22791359439E+02 -0.15201207603E+02  0.28789433780E+02  0.00000000000E+00 0.  1.
</event>
<event>
 5    1  0.1691138E-003  0.9118800E+02  0.7818608E-02  0.1130116E+00
         25   -1    0    0    0    0  0.00000000000E+00  0.00000000000E+00  0.99999998245E-14  0.12500000000E+03  0.12500000000E+03 0.  0.
        -11    1    3    3    0    0  0.33090755719E+01  0.19614138060E+02 -0.27891867948E+02  0.34258147803E+02  0.51100000000E-03 0. -1.
         23    2    1    0    0    0 -0.14295401881E+02 -0.17596142073E+02  0.18106035788E+02  0.95986016083E+02  0.91495923519E+02 0.  0.
         11    1    3    3    0    0 -0.17604477453E+02 -0.37210280133E+02  0.45997903736E+02  0.61727868280E+02  0.51100000000E-03 0.  1.
         22    1    1    0    0    0  0.14295401881E+02  0.17596142073E+02 -0.18106035788E+02  0.29013983917E+02  0.00000000000E+00 0.  1.
</event>
<event>
 5    1  0.1691138E-003  0.9118800E+02  0.7818608E-02  0.1130116E+00
         25   -1    0    0    0    0  0.00000000000E+00  0.00000000000E+00  0.99999998245E-14  0.12500000000E+03  0.12500000000E+03 0.  0.
        -11    1    3    3    0    0 -0.30212788337E+02  0.10627726725E+02 -0.22316939444E+02  0.39035969833E+02  0.51100000000E-03 0.  1.
         23    2    1    0    0    0  0.16682837824E+02  0.16187646558E+02  0.13329956194E+02  0.98203643697E+02  0.94477039138E+02 0.  0.
         11    1    3    3    0    0  0.46895626161E+02  0.55599198329E+01  0.35646895638E+02  0.59167673864E+02  0.51100000000E-03 0. -1.
         22    1    1    0    0    0 -0.16682837824E+02 -0.16187646558E+02 -0.13329956194E+02  0.26796356303E+02  0.00000000000E+00 0. -1.
</event>
<event>
 5    1  0.1691138E-003  0.9118800E+02  0.7818608E-02  0.1130116E+00
         25   -1    0    0    0    0  0.00000000000E+00  0.00000000000E+00  0.99999998245E-14  0.12500000000E+03  0.12500000000E+03 0.  0.
        -11    1    3    3    0    0  0.29061260516E+02 -0.11044047420E+02  0.28493381349E+02  0.42171087573E+02  0.51100000000E-03 0. -1.
         23    2    1    0    0    0  0.14409013733E+02  0.27511103278E+02 -0.26169545212E+01  0.93833849591E+02  0.88506849440E+02 0.  0.
         11    1    3    3    0    0 -0.14652246783E+02  0.38555150698E+02 -0.31110335870E+02  0.51662762018E+02  0.51100000000E-03 0.  1.
         22    1    1    0    0    0 -0.14409013733E+02 -0.27511103278E+02  0.26169545212E+01  0.31166150409E+02  0.00000000000E+00 0.  1.
</event>
<event>
 5    1  0.1691138E-003  0.9118800E+02  0.7818608E-02  0.1130116E+00
         25   -1    0    0    0    0  0.00000000000E+00  0.00000000000E+00  0.99999998245E-14  0.12500000000E+03  0.12500000000E+03 0.  0.
        -11    1    3    3    0    0  0.77100421628E+01 -0.20353036940E+02  0.27096676619E+02  0.34755154249E+02  0.51100000000E-03 0. -1.
         23    2    1    0    0    0  0.31206218757E+01  0.37283756350E+01 -0.28800602155E+02  0.95791888965E+02  0.91230325228E+02 0.  0.
         11    1    3    3    0    0 -0.45894202871E+01  0.24081412575E+02 -0.55897278774E+02  0.61036734716E+02  0.51100000000E-03 0.  1.
         22    1    1    0    0    0 -0.31206218757E+01 -0.37283756350E+01  0.28800602155E+02  0.29208111035E+02  0.00000000000E+00 0.  1.
</event>
<event>
 5    1  0.1691138E-003  0.9118800E+02  0.7818608E-02  0.1130116E+00
         25   -1    0    0    0    0  0.00000000000E+00  0.00000000000E+00  0.99999998245E-14  0.12500000000E+03  0.12500000000E+03 0.  0.
        -11    1    3    3    0    0  0.53089751740E+02  0.28882639605E+02  0.60492690991E+01  0.60739791465E+02  0.51100000000E-03 0. -1.
         23    2    1    0    0    0  0.26719735625E+02  0.29384407849E+01  0.43298630662E+01  0.97772689808E+02  0.93905124738E+02 0.  0.
         11    1    3    3    0    0 -0.26370016115E+02 -0.25944198820E+02 -0.17194060328E+01  0.37032898343E+02  0.51100000000E-03 0.  1.
         22    1    1    0    0    0 -0.26719735625E+02 -0.29384407849E+01 -0.43298630662E+01  0.27227310192E+02  0.00000000000E+00 0. -1.
</event>
<event>
 5    1  0.1691138E-003  0.9118800E+02  0.7818608E-02  0.1130116E+00
         25   -1    0    0    0    0  0.00000000000E+00  0.00000000000E+00  0.99999998245E-14  0.12500000000E+03  0.12500000000E+03 0.  0.
        -11    1    3    3    0    0 -0.15576225983E+02 -0.76592531547E+01  0.50762568492E+02  0.53648125176E+02  0.51100000000E-03 0. -1.
         23    2    1    0    0    0 -0.26769312813E+02 -0.51954940948E+01  0.10058115043E+02  0.95935331662E+02  0.91426653200E+02 0.  0.
         11    1    3    3    0    0 -0.11193086830E+02  0.24637590599E+01 -0.40704453449E+02  0.42287206485E+02  0.51100000000E-03 0.  1.
         22    1    1    0    0    0  0.26769312813E+02  0.51954940948E+01 -0.10058115043E+02  0.29064668338E+02  0.00000000000E+00 0.  1.
</event>
<event>
 5    1  0.1691138E-003  0.9118800E+02  0.7818608E-02  0.1130116E+00
         25   -1    0    0    0    0  0.00000000000E+00  0.00000000000E+00  0.99999998245E-14  0.12500000000E+03  0.12500000000E+03 0.  0.
        -11    1    3    3    0    0  0.35608441106E+02 -0.27565890683E+02 -0.13888821125E+02  0.47124714956E+02  0.51100000000E-03 0.  1.
         23    2    1    0    0    0 -0.13961564287E+02 -0.19654623043E+02 -0.13593778121E+02  0.97322928480E+02  0.93304512860E+02 0.  0.
         11    1    3    3    0    0 -0.49570005394E+02  0.79112676396E+01  0.29504300340E+00  0.50198213524E+02  0.51100000000E-03 0. -1.
         22    1    1    0    0    0  0.13961564287E+02  0.19654623043E+02  0.13593778121E+02  0.27677071520E+02  0.00000000000E+00 0. -1.
</event>
<event>
 5    1  0.1691138E-003  0.9118800E+02  0.7818608E-02  0.1130116E+00
         25   -1    0    0    0    0  0.00000000000E+00  0.00000000000E+00  0.99999998245E-14  0.12500000000E+03  0.12500000000E+03 0.  0.
        -11    1    3    3    0    0 -0.56684062011E+01 -0.29181267698E+02 -0.40059536586E+01  0.29995414288E+02  0.51100000000E-03 0.  1.
         23    2    1    0    0    0  0.26413547086E+02  0.15036737484E+02 -0.21962883406E+02  0.87501370807E+02  0.79059108911E+02 0.  0.
         11    1    3    3    0    0  0.32081953287E+02  0.44218005182E+02 -0.17956929748E+02  0.57505956519E+02  0.51100000000E-03 0. -1.
         22    1    1    0    0    0 -0.26413547086E+02 -0.15036737484E+02  0.21962883406E+02  0.37498629193E+02  0.00000000000E+00 0. -1.
</event>
<event>
 5    1  0.1691138E-003  0.9118800E+02  0.7818608E-02  0.1130116E+00
         25   -1    0    0    0    0  0.00000000000E+00  0.00000000000E+00  0.99999998245E-14  0.12500000000E+03  0.12500000000E+03 0.  0.
        -11    1    3    3    0    0  0.27655846712E+02 -0.22409350182E+02  0.17481864357E+02  0.39656530542E+02  0.51100000000E-03 0.  1.
         23    2    1    0    0    0  0.82399643674E+01  0.42707797179E+01 -0.27803489258E+02  0.95688388186E+02  0.91088402371E+02 0.  0.
         11    1    3    3    0    0 -0.19415882345E+02  0.26680129900E+02 -0.45285353616E+02  0.56031857644E+02  0.51100000000E-03 0. -1.
         22    1    1    0    0    0 -0.82399643674E+01 -0.42707797179E+01  0.27803489258E+02  0.29311611814E+02  0.00000000000E+00 0. -1.
</event>
<event>
 5    1  0.1691138E-003  0.9118800E+02  0.7818608E-02  0.1130116E+00
         25   -1    0    0    0    0  0.00000000000E+00  0.00000000000E+00  0.99999998245E-14  0.12500000000E+03  0.12500000000E+03 0.  0.
        -11    1    3    3    0    0 -0.49004000610E+02  0.28896792325E+02  0.14572167931E+02  0.58726184627E+02  0.51100000000E-03 0. -1.
         23    2    1    0    0    0 -0.13379124723E+02  0.20936618058E+02  0.16322977856E+02  0.95271519377E+02  0.90514528360E+02 0.  0.
         11    1    3    3    0    0  0.35624875887E+02 -0.79601742664E+01  0.17508099253E+01  0.36545334750E+02  0.51100000000E-03 0.  1.
         22    1    1    0    0    0  0.13379124723E+02 -0.20936618058E+02 -0.16322977856E+02  0.29728480623E+02  0.00000000000E+00 0. -1.
</event>
<event>
 5    1  0.1691138E-003  0.9118800E+02  0.7818608E-02  0.1130116E+00
         25   -1    0    0    0    0  0.00000000000E+00  0.00000000000E+00  0.99999998245E-14  0.12500000000E+03  0.12500000000E+03 0.  0.
        -11    1    3    3    0    0 -0.33281983053E+00 -0.21099004284E+01 -0.61955067010E+02  0.61991876704E+02  0.51100000000E-03 0.  1.
         23    2    1    0    0    0  0.53640815604E+01 -0.21319315357E+01 -0.30556990933E+02  0.93902601428E+02  0.88603895835E+02 0.  0.
         11    1    3    3    0    0  0.56969013910E+01 -0.22031107295E-01  0.31398076077E+02  0.31910724724E+02  0.51100000000E-03 0. -1.
         22    1    1    0    0    0 -0.53640815604E+01  0.21319315357E+01  0.30556990933E+02  0.31097398572E+02  0.00000000000E+00 0.  1.
</event>
<event>
 5    1  0.1691138E-003  0.9118800E+02  0.7818608E-02  0.1130116E+00
         25   -1    0    0    0    0  0.00000000000E+00  0.00000000000E+00  0.99999998245E-14  0.12500000000E+03  0.12500000000E+03 0.  0.
        -11    1    3    3    0    0  0.22110118928E+02  0.29801609645E+02 -0.25099436290E+02  0.44799274534E+02  0.51100000000E-03 0. -1.
         23    2    1    0    0    0 -0.11183489928E+02 -0.13194962094E+01 -0.32167727488E+02  0.90918124920E+02  0.84288381346E+02 0.  0.
         11    1    3    3    0    0 -0.33293608856E+02 -0.31121105854E+02 -0.70682911983E+01  0.46118850386E+02  0.51100000000E-03 0.  1.
         22    1    1    0    0    0  0.11183489928E+02  0.13194962094E+01  0.32167727488E+02  0.34081875080E+02  0.00000000000E+00 0.  1.
</event>
<event>
 5    1  0.1691138E-003  0.9118800E+02  0.7818608E-02  0.1130116E+00
         25   -1    0    0    0    0  0.00000000000E+00  0.00000000000E+00  0.99999998245E-14  0.12500000000E+03  0.12500000000E+03 0.  0.
        -11    1    3    3    0    0  0.34822949960E+02  0.28968655125E+02  0.15228643836E+02  0.47788412999E+02  0.51100000000E-03 0. -1.
         23    2    1    0    0    0 -0.12873437422E+02  0.23670351591E+02  0.10762257115E+02  0.95985570595E+02  0.91495314900E+02 0.  0.
         11    1    3    3    0    0 -0.47696387382E+02 -0.52983035339E+01 -0.44663867211E+01  0.48197157595E+02  0.51100000000E-03 0.  1.
         22    1    1    0    0    0  0.12873437422E+02 -0.23670351591E+02 -0.10762257115E+02  0.29014429405E+02  0.00000000000E+00 0. -1.
</event>
<event>
 5    1  0.1691138E-003  0.9118800E+02  0.7818608E-02  0.1130116E+00
         25   -1    0    0    0    0  0.00000000000E+00  0.00000000000E+00  0.99999998245E-14  0.12500000000E+03  0.12500000000E+03 0.  0.
        -11    1    3    3    0    0  0.39534580147E+02 -0.15524727730E+02  0.12723615476E+01  0.42492577030E+02  0.51100000000E-03 0.  1.
         23    2    1    0    0    0  0.12556900567E+02  0.27983515125E+02  0.54176380866E+01  0.93853512669E+02  0.88534615644E+02 0.  0.
         11    1    3    3    0    0 -0.26977679580E+02  0.43508242855E+02  0.41452765390E+01  0.51360935639E+02  0.51100000000E-03 0. -1.
         22    1    1    0    0    0 -0.12556900567E+02 -0.27983515125E+02 -0.54176380866E+01  0.31146487331E+02  0.00000000000E+00 0. -1.
</event>
<event>
 5    1  0.1691138E-003  0.9118800E+02  0.7818608E-02  0.1130116E+00
         25   -1    0    0    0    0  0.00000000000E+00  0.00000000000E+00  0.99999998245E-14  0.12500000000E+03  0.12500000000E+03 0.  0.
        -11    1    3    3    0    0  0.11517988840E+02 -0.29194939880E+02  0.32415445559E+02  0.45119504569E+02  0.51100000000E-03 0. -1.
         23    2    1    0    0    0 -0.92582754151E+01  0.77885157113E+01  0.35346415163E+02  0.87640319788E+02  0.79278496120E+02 0.  0.
         11    1    3    3    0    0 -0.20776264255E+02  0.36983455591E+02  0.29309696040E+01  0.42520815220E+02  0.51100000000E-03 0.  1.
         22    1    1    0    0    0  0.92582754151E+01 -0.77885157113E+01 -0.35346415163E+02  0.37359680212E+02  0.00000000000E+00 0.  1.
</event>
<event>
 5    1  0.1691138E-003  0.9118800E+02  0.7818608E-02  0.1130116E+00
         25   -1    0    0    0    0  0.00000000000E+00  0.00000000000E+00  0.99999998245E-14  0.12500000000E+03  0.12500000000E+03 0.  0.
        -11    1    3    3    0    0  0.12519192667E+02  0.21861888781E+02  0.25860349228E+02  0.36103047358E+02  0.51100000000E-03 0. -1.
         23    2    1    0    0    0  0.10965685862E+02 -0.26503870428E+02 -0.80694489809E+01  0.95203734782E+02  0.90420869801E+02 0.  0.
         11    1    3    3    0    0 -0.15535068048E+01 -0.48365759209E+02 -0.33929798208E+02  0.59100687424E+02  0.51100000000E-03 0.  1.
         22    1    1    0    0    0 -0.10965685862E+02  0.26503870428E+02  0.80694489809E+01  0.29796265218E+02  0.00000000000E+00 0.  1.
</event>
<event>
 5    1  0.1691138E-003  0.9118800E+02  0.7818608E-02  0.1130116E+00
         25   -1    0    0    0    0  0.00000000000E+00  0.00000000000E+00  0.99999998245E-14  0.12500000000E+03  0.12500000000E+03 0.  0.
        -11    1    3    3    0    0 -0.35394461031E+02  0.19933808673E+02 -0.16052561965E+02  0.43678476917E+02  0.51100000000E-03 0. -1.
         23    2    1    0    0    0  0.41770244279E+01  0.31654277130E+02  0.88337301344E+01  0.91871830992E+02  0.85691059908E+02 0.  0.
         11    1    3    3    0    0  0.39571485459E+02  0.11720468458E+02  0.24886292099E+02  0.48193354075E+02  0.51100000000E-03 0.  1.
         22    1    1    0    0    0 -0.41770244279E+01 -0.31654277130E+02 -0.88337301344E+01  0.33128169008E+02  0.00000000000E+00 0.  1.
</event>
<event>
 5    1  0.1691138E-003  0.9118800E+02  0.7818608E-02  0.1130116E+00
         25   -1    0    0    0    0  0.00000000000E+00  0.00000000000E+00  0.99999998245E-14  0.12500000000E+03  0.12500000000E+03 0.  0.
        -11    1    3    3    0    0  0.16035374029E+02 -0.29464705851E+02  0.31985859212E+01  0.33697671481E+02  0.51100000000E-03 0.  1.
         23    2    1    0    0    0 -0.16098311476E+02  0.23968048278E+02  0.19633723008E+01  0.96060791279E+02  0.91598023012E+02 0.  0.
         11    1    3    3    0    0 -0.32133685505E+02  0.53432754129E+02 -0.12352136205E+01  0.62363119797E+02  0.51100000000E-03 0. -1.
         22    1    1    0    0    0  0.16098311476E+02 -0.23968048278E+02 -0.19633723008E+01  0.28939208721E+02  0.00000000000E+00 0. -1.
</event>
<event>
 5    1  0.1691138E-003  0.9118800E+02  0.7818608E-02  0.1130116E+00
         25   -1    0    0    0    0  0.00000000000E+00  0.00000000000E+00  0.99999998245E-14  0.12500000000E+03  0.12500000000E+03 0.  0.
        -11    1    3    3    0    0  0.29724650866E+02 -0.27371621487E+01  0.17094707275E+02  0.34398778217E+02  0.51100000000E-03 0.  1.
         23    2    1    0    0    0 -0.28630074239E+02 -0.82536834487E+01  0.98282101315E+00  0.95187747845E+02  0.90398766371E+02 0.  0.
         11    1    3    3    0    0 -0.58354725105E+02 -0.55165213000E+01 -0.16111886262E+02  0.60788969628E+02  0.51100000000E-03 0. -1.
         22    1    1    0    0    0  0.28630074239E+02  0.82536834487E+01 -0.98282101315E+00  0.29812252155E+02  0.00000000000E+00 0. -1.
</event>
<event>
 5    1  0.1691138E-003  0.9118800E+02  0.7818608E-02  0.1130116E+00
         25   -1    0    0    0    0  0.00000000000E+00  0.00000000000E+00  0.99999998245E-14  0.12500000000E+03  0.12500000000E+03 0.  0.
        -11    1    3    3    0    0  0.29999591767E+02 -0.45245059377E+02 -0.29297796296E+01  0.54366115487E+02  0.51100000000E-03 0.  1.
         23    2    1    0    0    0  0.49342682220E+01 -0.21177801179E+02  0.19555074813E+02  0.95755389956E+02  0.91180302089E+02 0.  0.
         11    1    3    3    0    0 -0.25065323545E+02  0.24067258198E+02  0.22484854443E+02  0.41389274470E+02  0.51100000000E-03 0. -1.
         22    1    1    0    0    0 -0.49342682220E+01  0.21177801179E+02 -0.19555074813E+02  0.29244610044E+02  0.00000000000E+00 0. -1.
</event>
<event>
 5    1  0.1691138E-003  0.9118800E+02  0.7818608E-02  0.1130116E+00
         25   -1    0    0    0    0  0.00000000000E+00  0.00000000000E+00  0.99999998245E-14  0.12500000000E+03  0.12500000000E+03 0.  0.
        -11    1    3    3    0    0  0.28166028370E+02  0.50609187211E+02  0.10519008161E+02  0.58866497410E+02  0.51100000000E-03 0.  1.
         23    2    1    0    0    0  0.24395400233E+02  0.13617467103E+02  0.68737613224E+01  0.96228146436E+02  0.91826121605E+02 0.  0.
         11    1    3    3    0    0 -0.37706281376E+01 -0.36991720109E+02 -0.36452468386E+01  0.37361649026E+02  0.51100000000E-03 0. -1.
         22    1    1    0    0    0 -0.24395400233E+02 -0.13617467103E+02 -0.68737613224E+01  0.28771853564E+02  0.00000000000E+00 0.  1.
</event>
<event>
 5    1  0.1691138E-003  0.9118800E+02  0.7818608E-02  0.1130116E+00
         25   -1    0    0    0    0  0.00000000000E+00  0.00000000000E+00  0.99999998245E-14  0.12500000000E+03  0.12500000000E+03 0.  0.
        -11    1    3    3    0    0 -0.42566005672E+01  0.40007500100E+02  0.39960835577E+02  0.56706146870E+02  0.51100000000E-03 0. -1.
         23    2    1    0    0    0 -0.19090264222E+02  0.96668390801E+01  0.18437093052E+02  0.96754427496E+02  0.92539758342E+02 0.  0.
         11    1    3    3    0    0 -0.14833663655E+02 -0.30340661019E+02 -0.21523742525E+02  0.40048280626E+02  0.51100000000E-03 0.  1.
         22    1    1    0    0    0  0.19090264222E+02 -0.96668390801E+01 -0.18437093052E+02  0.28245572504E+02  0.00000000000E+00 0. -1.
</event>
<event>
 5    1  0.1691138E-003  0.9118800E+02  0.7818608E-02  0.1130116E+00
         25   -1    0    0    0    0  0.00000000000E+00  0.00000000000E+00  0.99999998245E-14  0.12500000000E+03  0.12500000000E+03 0.  0.
        -11    1    3    3    0    0 -0.43548620902E+02 -0.97957408934E+01 -0.17895348305E+00  0.44637102804E+02  0.51100000000E-03 0.  1.
         23    2    1    0    0    0 -0.10105780329E+01 -0.18110661702E+02 -0.24637882387E+02  0.94405186980E+02  0.89310115580E+02 0.  0.
         11    1    3    3    0    0  0.42538042869E+02 -0.83149208083E+01 -0.24458928904E+02  0.49768084176E+02  0.51100000000E-03 0. -1.
         22    1    1    0    0    0  0.10105780329E+01  0.18110661702E+02  0.24637882387E+02  0.30594813020E+02  0.00000000000E+00 0. -1.
</event>
<event>
 5    1  0.1691138E-003  0.9118800E+02  0.7818608E-02  0.1130116E+00
         25   -1    0    0    0    0  0.00000000000E+00  0.00000000000E+00  0.99999998245E-14  0.12500000000E+03  0.12500000000E+03 0.  0.
        -11    1    3    3    0    0  0.34713122190E+02 -0.25594802321E+02 -0.41889833592E+02  0.60123646901E+02  0.51100000000E-03 0. -1.
         23    2    1    0    0    0  0.49090955970E+01 -0.12987780657E+02 -0.24445217776E+02  0.96886829811E+02  0.92718431030E+02 0.  0.
         11    1    3    3    0    0 -0.29804026593E+02  0.12607021664E+02  0.17444615816E+02  0.36763182910E+02  0.51100000000E-03 0.  1.
         22    1    1    0    0    0 -0.49090955970E+01  0.12987780657E+02  0.24445217776E+02  0.28113170189E+02  0.00000000000E+00 0. -1.
</event>
<event>
 5    1  0.1691138E-003  0.9118800E+02  0.7818608E-02  0.1130116E+00
         25   -1    0    0    0    0  0.00000000000E+00  0.00000000000E+00  0.99999998245E-14  0.12500000000E+03  0.12500000000E+03 0.  0.
        -11    1    3    3    0    0 -0.20277777894E+01  0.49693660143E+02  0.35053595453E+02  0.60846744331E+02  0.51100000000E-03 0. -1.
         23    2    1    0    0    0  0.67002269205E+01  0.28414560552E+02  0.11924545253E+02  0.93464701180E+02  0.87983949076E+02 0.  0.
         11    1    3    3    0    0  0.87280047099E+01 -0.21279099591E+02 -0.23129050200E+02  0.32617956850E+02  0.51100000000E-03 0.  1.
         22    1    1    0    0    0 -0.67002269205E+01 -0.28414560552E+02 -0.11924545253E+02  0.31535298820E+02  0.00000000000E+00 0. -1.
</event>
<event>
 5    1  0.1691138E-003  0.9118800E+02  0.7818608E-02  0.1130116E+00
         25   -1    0    0    0    0  0.00000000000E+00  0.00000000000E+00  0.99999998245E-14  0.12500000000E+03  0.12500000000E+03 0.  0.
        -11    1    3    3    0    0 -0.15620353836E+02  0.37477212371E+02 -0.35256658132E+02  0.53773309773E+02  0.51100000000E-03 0. -1.
         23    2    1    0    0    0  0.12390678434E+02  0.92229073049E+01 -0.26213459837E+02  0.94574083287E+02  0.89546193786E+02 0.  0.
         11    1    3    3    0    0  0.28011032270E+02 -0.28254305066E+02  0.90431982945E+01  0.40800773513E+02  0.51100000000E-03 0.  1.
         22    1    1    0    0    0 -0.12390678434E+02 -0.92229073049E+01  0.26213459837E+02  0.30425916713E+02  0.00000000000E+00 0. -1.
</event>
<event>
 5    1  0.1691138E-003  0.9118800E+02  0.7818608E-02  0.1130116E+00
         25   -1    0    0    0    0  0.00000000000E+00  0.00000000000E+00  0.99999998245E-14  0.12500000000E+03  0.12500000000E+03 0.  0.
        -11    1    3    3    0    0  0.64732258424E+01 -0.35934367149E+02 -0.14332570101E+02  0.39225042526E+02  0.51100000000E-03 0.  1.
         23    2    1    0    0    0  0.13355775997E+02  0.20959862624E+02 -0.13874920529E+02  0.96535882002E+02  0.92244081114E+02 0.  0.
         11    1    3    3    0    0  0.68825501549E+01  0.56894229773E+02  0.45764957220E+00  0.57310839476E+02  0.51100000000E-03 0. -1.
         22    1    1    0    0    0 -0.13355775997E+02 -0.20959862624E+02  0.13874920529E+02  0.28464117998E+02  0.00000000000E+00 0. -1.
</event>
<event>
 5    1  0.1691138E-003  0.9118800E+02  0.7818608E-02  0.1130116E+00
         25   -1    0    0    0    0  0.00000000000E+00  0.00000000000E+00  0.99999998245E-14  0.12500000000E+03  0.12500000000E+03 0.  0.
        -11    1    3    3    0    0  0.32045317159E+02 -0.22132576196E+02  0.84019963401E+00  0.38954578891E+02  0.51100000000E-03 0.  1.
         23    2    1    0    0    0 -0.14689260658E+02 -0.34199380714E+01 -0.25199295478E+02  0.95632077913E+02  0.91011095358E+02 0.  0.
         11    1    3    3    0    0 -0.46734577818E+02  0.18712638125E+02 -0.26039495112E+02  0.56677499022E+02  0.51100000000E-03 0. -1.
         22    1    1    0    0    0  0.14689260658E+02  0.34199380714E+01  0.25199295478E+02  0.29367922087E+02  0.00000000000E+00 0. -1.
</event>
<event>
 5    1  0.1691138E-003  0.9118800E+02  0.7818608E-02  0.1130116E+00
         25   -1    0    0    0    0  0.00000000000E+00  0.00000000000E+00  0.99999998245E-14  0.12500000000E+03  0.12500000000E+03 0.  0.
        -11    1    3    3    0    0 -0.48644321300E+02 -0.12566426509E+02  0.28970576380E+02  0.57995511603E+02  0.51100000000E-03 0.  1.
         23    2    1    0    0    0 -0.55352766518E+01 -0.23661958128E+01  0.21188151708E+02  0.10297329024E+03  0.10058987304E+03 0.  0.
         11    1    3    3    0    0  0.43109044648E+02  0.10200230696E+02 -0.77824246727E+01  0.44977778634E+02  0.51100000000E-03 0. -1.
         22    1    1    0    0    0  0.55352766518E+01  0.23661958128E+01 -0.21188151708E+02  0.22026709764E+02  0.00000000000E+00 0.  1.
</event>
<event>
 5    1  0.1691138E-003  0.9118800E+02  0.7818608E-02  0.1130116E+00
         25   -1    0    0    0    0  0.00000000000E+00  0.00000000000E+00  0.99999998245E-14  0.12500000000E+03  0.12500000000E+03 0.  0.
        -11    1    3    3    0    0  0.29616338070E+02 -0.72903688222E+01 -0.39566883538E+02  0.49958134787E+02  0.51100000000E-03 0. -1.
         23    2    1    0    0    0 -0.61661072837E+01  0.15121113326E+02 -0.25983822851E+02  0.94310783698E+02  0.89177889214E+02 0.  0.
         11    1    3    3    0    0 -0.35782445354E+02  0.22411482148E+02  0.13583060687E+02  0.44352648911E+02  0.51100000000E-03 0.  1.
         22    1    1    0    0    0  0.61661072837E+01 -0.15121113326E+02  0.25983822851E+02  0.30689216302E+02  0.00000000000E+00 0.  1.
</event>
<event>
 5    1  0.1691138E-003  0.9118800E+02  0.7818608E-02  0.1130116E+00
         25   -1    0    0    0    0  0.00000000000E+00  0.00000000000E+00  0.99999998245E-14  0.12500000000E+03  0.12500000000E+03 0.  0.
        -11    1    3    3    0    0 -0.11762496193E+01 -0.46918655822E+02 -0.39589354161E+02  0.61400820764E+02  0.51100000000E-03 0.  1.
         23    2    1    0    0    0 -0.86013661439E+01 -0.26781531628E+02 -0.25139956056E+02  0.87273996682E+02  0.78698787604E+02 0.  0.
         11    1    3    3    0    0 -0.74251165245E+01  0.20137124194E+02  0.14449398105E+02  0.25873175918E+02  0.51100000000E-03 0. -1.
         22    1    1    0    0    0  0.86013661439E+01  0.26781531628E+02  0.25139956056E+02  0.37726003318E+02  0.00000000000E+00 0.  1.
</event>
<event>
 5    1  0.1691138E-003  0.9118800E+02  0.7818608E-02  0.1130116E+00
         25   -1    0    0    0    0  0.00000000000E+00  0.00000000000E+00  0.99999998245E-14  0.12500000000E+03  0.12500000000E+03 0.  0.
        -11    1    3    3    0    0  0.90951629890E+01 -0.49833688336E+02 -0.28076304875E+01  0.50734616114E+02  0.51100000000E-03 0.  1.
         23    2    1    0    0    0  0.26061214793E+02 -0.10968482480E+02  0.99597404981E+01  0.95021825353E+02  0.90169043126E+02 0.  0.
         11    1    3    3    0    0  0.16966051804E+02  0.38865205856E+02  0.12767370986E+02  0.44287209239E+02  0.51100000000E-03 0. -1.
         22    1    1    0    0    0 -0.26061214793E+02  0.10968482480E+02 -0.99597404981E+01  0.29978174647E+02  0.00000000000E+00 0.  1.
</event>
<event>
 5    1  0.1691138E-003  0.9118800E+02  0.7818608E-02  0.1130116E+00
         25   -1    0    0    0    0  0.00000000000E+00  0.00000000000E+00  0.99999998245E-14  0.12500000000E+03  0.12500000000E+03 0.  0.
        -11    1    3    3    0    0 -0.23651528671E+02 -0.15874831878E+02  0.53193370698E+02  0.60340200382E+02  0.51100000000E-03 0.  1.
         23    2    1    0    0    0  0.30138539428E+00 -0.81529386412E+01  0.27539191638E+02  0.96277738291E+02  0.91893604634E+02 0.  0.
         11    1    3    3    0    0  0.23952914066E+02  0.77218932366E+01 -0.25654179061E+02  0.35937537909E+02  0.51100000000E-03 0. -1.
         22    1    1    0    0    0 -0.30138539428E+00  0.81529386412E+01 -0.27539191638E+02  0.28722261709E+02  0.00000000000E+00 0.  1.
</event>
<event>
 5    1  0.1691138E-003  0.9118800E+02  0.7818608E-02  0.1130116E+00
         25   -1    0    0    0    0  0.00000000000E+00  0.00000000000E+00  0.99999998245E-14  0.12500000000E+03  0.12500000000E+03 0.  0.
        -11    1    3    3    0    0  0.52805656052E+01  0.19345861995E+02 -0.38101258756E+02  0.43056389404E+02  0.51100000000E-03 0. -1.
         23    2    1    0    0    0 -0.13362370882E+01 -0.24259295985E+02 -0.10119200070E+01  0.10068286708E+03  0.97702184062E+02 0.  0.
         11    1    3    3    0    0 -0.66168026934E+01 -0.43605157981E+02  0.37089338749E+02  0.57626477678E+02  0.51100000000E-03 0.  1.
         22    1    1    0    0    0  0.13362370882E+01  0.24259295985E+02  0.10119200070E+01  0.24317132918E+02  0.00000000000E+00 0.  1.
</event>
<event>
 5    1  0.1691138E-003  0.9118800E+02  0.7818608E-02  0.1130116E+00
         25   -1    0    0    0    0  0.00000000000E+00  0.00000000000E+00  0.99999998245E-14  0.12500000000E+03  0.12500000000E+03 0.  0.
        -11    1    3    3    0    0 -0.30976241655E+01  0.31090954298E+02 -0.13425051703E+02  0.34006980579E+02  0.51100000000E-03 0. -1.
         23    2    1    0    0    0  0.36127421559E+01 -0.29144430125E+02 -0.34459136465E+01  0.95431029202E+02  0.90734543039E+02 0.  0.
         11    1    3    3    0    0  0.67103663215E+01 -0.60235384422E+02  0.99791380563E+01  0.61424048623E+02  0.51100000000E-03 0.  1.
         22    1    1    0    0    0 -0.36127421559E+01  0.29144430125E+02  0.34459136465E+01  0.29568970798E+02  0.00000000000E+00 0.  1.
</event>
<event>
 5    1  0.1691138E-003  0.9118800E+02  0.7818608E-02  0.1130116E+00
         25   -1    0    0    0    0  0.00000000000E+00  0.00000000000E+00  0.99999998245E-14  0.12500000000E+03  0.12500000000E+03 0.  0.
        -11    1    3    3    0    0 -0.82102436023E+00 -0.23194981783E+02 -0.56171863485E+02  0.60777952487E+02  0.51100000000E-03 0. -1.
         23    2    1    0    0    0  0.16104910334E+01 -0.10168580715E+01 -0.29006550609E+02  0.95930984538E+02  0.91420709550E+02 0.  0.
         11    1    3    3    0    0  0.24315153936E+01  0.22178123712E+02  0.27165312876E+02  0.35153032051E+02  0.51100000000E-03 0.  1.
         22    1    1    0    0    0 -0.16104910334E+01  0.10168580715E+01  0.29006550609E+02  0.29069015462E+02  0.00000000000E+00 0. -1.
</event>
<event>
 5    1  0.1691138E-003  0.9118800E+02  0.7818608E-02  0.1130116E+00
         25   -1    0    0    0    0  0.00000000000E+00  0.00000000000E+00  0.99999998245E-14  0.12500000000E+03  0.12500000000E+03 0.  0.
        -11    1    3    3    0    0 -0.34633101384E+02 -0.12196927250E+02  0.99511600063E+01  0.38042638336E+02  0.51100000000E-03 0.  1.
         23    2    1    0    0    0  0.68005663550E+01  0.27905762122E+02  0.35106519682E+01  0.96063795349E+02  0.91602122450E+02 0.  0.
         11    1    3    3    0    0  0.41433667739E+02  0.40102689372E+02 -0.64405080381E+01  0.58021157014E+02  0.51100000000E-03 0. -1.
         22    1    1    0    0    0 -0.68005663550E+01 -0.27905762122E+02 -0.35106519682E+01  0.28936204651E+02  0.00000000000E+00 0. -1.
</event>
<event>
 5    1  0.1691138E-003  0.9118800E+02  0.7818608E-02  0.1130116E+00
         25   -1    0    0    0    0  0.00000000000E+00  0.00000000000E+00  0.99999998245E-14  0.12500000000E+03  0.12500000000E+03 0.  0.
        -11    1    3    3    0    0 -0.43683567281E+02 -0.29794025684E+02 -0.10015316906E+02  0.53816768668E+02  0.51100000000E-03 0.  1.
         23    2    1    0    0    0 -0.14113261401E+02  0.43980277841E+01 -0.20018031842E+02  0.10011529798E+03  0.96973318470E+02 0.  0.
         11    1    3    3    0    0  0.29570305880E+02  0.34192053468E+02 -0.10002714936E+02  0.46298529313E+02  0.51100000000E-03 0. -1.
         22    1    1    0    0    0  0.14113261401E+02 -0.43980277841E+01  0.20018031842E+02  0.24884702020E+02  0.00000000000E+00 0. -1.
</event>
<event>
 5    1  0.1691138E-003  0.9118800E+02  0.7818608E-02  0.1130116E+00
         25   -1    0    0    0    0  0.00000000000E+00  0.00000000000E+00  0.99999998245E-14  0.12500000000E+03  0.12500000000E+03 0.  0.
        -11    1    3    3    0    0  0.74125460354E+01 -0.65273010365E+01 -0.46292195080E+02  0.47334119017E+02  0.51100000000E-03 0.  1.
         23    2    1    0    0    0  0.48872460828E+01 -0.28031870767E+02 -0.21945129419E+01  0.96460784173E+02  0.92142259812E+02 0.  0.
         11    1    3    3    0    0 -0.25252999525E+01 -0.21504569730E+02  0.44097682138E+02  0.49126665156E+02  0.51100000000E-03 0. -1.
         22    1    1    0    0    0 -0.48872460828E+01  0.28031870767E+02  0.21945129419E+01  0.28539215827E+02  0.00000000000E+00 0.  1.
</event>
<event>
 5    1  0.1691138E-003  0.9118800E+02  0.7818608E-02  0.1130116E+00
         25   -1    0    0    0    0  0.00000000000E+00  0.00000000000E+00  0.99999998245E-14  0.12500000000E+03  0.12500000000E+03 0.  0.
        -11    1    3    3    0    0  0.26293324079E+02 -0.31829465067E+02  0.52097185790E+01  0.41612436909E+02  0.51100000000E-03 0.  1.
         23    2    1    0    0    0 -0.12524858199E+02 -0.10706633090E+02 -0.24938578450E+02  0.95109587489E+02  0.90290624497E+02 0.  0.
         11    1    3    3    0    0 -0.38818182278E+02  0.21122831977E+02 -0.30148297029E+02  0.53497150579E+02  0.51100000000E-03 0. -1.
         22    1    1    0    0    0  0.12524858199E+02  0.10706633090E+02  0.24938578450E+02  0.29890412511E+02  0.00000000000E+00 0.  1.
</event>
<event>
 5    1  0.1691138E-003  0.9118800E+02  0.7818608E-02  0.1130116E+00
         25   -1    0    0    0    0  0.00000000000E+00  0.00000000000E+00  0.99999998245E-14  0.12500000000E+03  0.12500000000E+03 0.  0.
        -11    1    3    3    0    0 -0.17814484226E+02 -0.54179493938E+02 -0.12905896006E+02  0.58475084981E+02  0.51100000000E-03 0. -1.
         23    2    1    0    0    0  0.23691343268E+01 -0.25725109090E+02 -0.17693166794E+02  0.93687986549E+02  0.88300603833E+02 0.  0.
         11    1    3    3    0    0  0.20183618553E+02  0.28454384848E+02 -0.47872707879E+01  0.35212901568E+02  0.51100000000E-03 0.  1.
         22    1    1    0    0    0 -0.23691343268E+01  0.25725109090E+02  0.17693166794E+02  0.31312013451E+02  0.00000000000E+00 0. -1.
</event>
<event>
 5    1  0.1691138E-003  0.9118800E+02  0.7818608E-02  0.1130116E+00
         25   -1    0    0    0    0  0.00000000000E+00  0.00000000000E+00  0.99999998245E-14  0.12500000000E+03  0.12500000000E+03 0.  0.
        -11    1    3    3    0    0  0.16431466525E+02 -0.34540165712E+02 -0.11481813381E+02  0.39935550307E+02  0.51100000000E-03 0.  1.
         23    2    1    0    0    0 -0.24936843618E+02 -0.41454826563E+01  0.12734298958E+02  0.96694637150E+02  0.92458960017E+02 0.  0.
         11    1    3    3    0    0 -0.41368310144E+02  0.30394683055E+02  0.24216112339E+02  0.56759086843E+02  0.51100000000E-03 0. -1.
         22    1    1    0    0    0  0.24936843618E+02  0.41454826563E+01 -0.12734298958E+02  0.28305362850E+02  0.00000000000E+00 0. -1.
</event>
<event>
 5    1  0.1691138E-003  0.9118800E+02  0.7818608E-02  0.1130116E+00
         25   -1    0    0    0    0  0.00000000000E+00  0.00000000000E+00  0.99999998245E-14  0.12500000000E+03  0.12500000000E+03 0.  0.
        -11    1    3    3    0    0 -0.28780390900E+02 -0.27171557469E+02 -0.43768374482E+02  0.59010804440E+02  0.51100000000E-03 0.  1.
         23    2    1    0    0    0 -0.24354506741E+02 -0.14748562705E+02 -0.10748924372E+02  0.94566441621E+02  0.89535525940E+02 0.  0.
         11    1    3    3    0    0  0.44258841590E+01  0.12422994765E+02  0.33019450110E+02  0.35555637181E+02  0.51100000000E-03 0. -1.
         22    1    1    0    0    0  0.24354506741E+02  0.14748562705E+02  0.10748924372E+02  0.30433558379E+02  0.00000000000E+00 0.  1.
</event>
<event>
 5    1  0.1691138E-003  0.9118800E+02  0.7818608E-02  0.1130116E+00
         25   -1    0    0    0    0  0.00000000000E+00  0.00000000000E+00  0.99999998245E-14  0.12500000000E+03  0.12500000000E+03 0.  0.
        -11    1    3    3    0    0 -0.12696491640E+02  0.55621298046E+01 -0.46911759609E+02  0.48916780125E+02  0.51100000000E-03 0. -1.
         23    2    1    0    0    0 -0.29438138180E+00  0.28469999387E+02 -0.85772760899E+01  0.95264546571E+02  0.90504898447E+02 0.  0.
         11    1    3    3    0    0  0.12402110259E+02  0.22907869582E+02  0.38334483519E+02  0.46347766446E+02  0.51100000000E-03 0.  1.
         22    1    1    0    0    0  0.29438138180E+00 -0.28469999387E+02  0.85772760899E+01  0.29735453429E+02  0.00000000000E+00 0.  1.
</event>
<event>
 5    1  0.1691138E-003  0.9118800E+02  0.7818608E-02  0.1130116E+00
         25   -1    0    0    0    0  0.00000000000E+00  0.00000000000E+00  0.99999998245E-14  0.12500000000E+03  0.12500000000E+03 0.  0.
        -11    1    3    3    0    0 -0.43221024040E+02 -0.58359825065E+01 -0.25693724270E+02  0.50618999180E+02  0.51100000000E-03 0.  1.
         23    2    1    0    0    0 -0.75573530165E+01 -0.27196124368E+02 -0.10811975391E+02  0.94773495454E+02  0.89824127402E+02 0.  0.
         11    1    3    3    0    0  0.35663671024E+02 -0.21360141861E+02  0.14881748879E+02  0.44154496274E+02  0.51100000000E-03 0. -1.
         22    1    1    0    0    0  0.75573530165E+01  0.27196124368E+02  0.10811975391E+02  0.30226504546E+02  0.00000000000E+00 0.  1.
</event>
<event>
 5    1  0.1691138E-003  0.9118800E+02  0.7818608E-02  0.1130116E+00
         25   -1    0    0    0    0  0.00000000000E+00  0.00000000000E+00  0.99999998245E-14  0.12500000000E+03  0.12500000000E+03 0.  0.
        -11    1    3    3    0    0 -0.14274162239E+01 -0.20038497867E+01 -0.37952762014E+02  0.38032421377E+02  0.51100000000E-03 0.  1.
         23    2    1    0    0    0  0.10192495040E+02  0.27591022056E+02  0.85534722805E+01  0.94368099287E+02  0.89258191903E+02 0.  0.
         11    1    3    3    0    0  0.11619911264E+02  0.29594871842E+02  0.46506234294E+02  0.56335677911E+02  0.51100000000E-03 0. -1.
         22    1    1    0    0    0 -0.10192495040E+02 -0.27591022056E+02 -0.85534722805E+01  0.30631900713E+02  0.00000000000E+00 0. -1.
</event>
<event>
 5    1  0.1691138E-003  0.9118800E+02  0.7818608E-02  0.1130116E+00
         25   -1    0    0    0    0  0.00000000000E+00  0.00000000000E+00  0.99999998245E-14  0.12500000000E+03  0.12500000000E+03 0.  0.
        -11    1    3    3    0    0 -0.20954966114E+02 -0.15797057101E+02 -0.48242386570E+02  0.54917988675E+02  0.51100000000E-03 0. -1.
         23    2    1    0    0    0 -0.16023540123E+02 -0.22599152583E+02 -0.78061024923E+01  0.96217874094E+02  0.91812137125E+02 0.  0.
         11    1    3    3    0    0  0.49314259909E+01 -0.68020954823E+01  0.40436284078E+02  0.41299885418E+02  0.51100000000E-03 0.  1.
         22    1    1    0    0    0  0.16023540123E+02  0.22599152583E+02  0.78061024923E+01  0.28782125906E+02  0.00000000000E+00 0. -1.
</event>
<event>
 5    1  0.1691138E-003  0.9118800E+02  0.7818608E-02  0.1130116E+00
         25   -1    0    0    0    0  0.00000000000E+00  0.00000000000E+00  0.99999998245E-14  0.12500000000E+03  0.12500000000E+03 0.  0.
        -11    1    3    3    0    0 -0.78327643195E+01  0.39162697296E+02  0.24643664446E+02  0.46929513677E+02  0.51100000000E-03 0. -1.
         23    2    1    0    0    0 -0.53163353269E+01  0.14501705879E+02 -0.21036395404E+02  0.98902244804E+02  0.95396861588E+02 0.  0.
         11    1    3    3    0    0  0.25164289927E+01 -0.24660991417E+02 -0.45680059850E+02  0.51972731126E+02  0.51100000000E-03 0.  1.
         22    1    1    0    0    0  0.53163353269E+01 -0.14501705879E+02  0.21036395404E+02  0.26097755196E+02  0.00000000000E+00 0.  1.
</event>
<event>
 5    1  0.1691138E-003  0.9118800E+02  0.7818608E-02  0.1130116E+00
         25   -1    0    0    0    0  0.00000000000E+00  0.00000000000E+00  0.99999998245E-14  0.12500000000E+03  0.12500000000E+03 0.  0.
        -11    1    3    3    0    0 -0.15015774586E+02 -0.32338754053E+02 -0.28092897676E+01  0.35765354876E+02  0.51100000000E-03 0.  1.
         23    2    1    0    0    0  0.22661685352E+02  0.12531003428E+02 -0.14220086609E+02  0.95456999254E+02  0.90770313503E+02 0.  0.
         11    1    3    3    0    0  0.37677459938E+02  0.44869757481E+02 -0.11410796842E+02  0.59691644378E+02  0.51100000000E-03 0. -1.
         22    1    1    0    0    0 -0.22661685352E+02 -0.12531003428E+02  0.14220086609E+02  0.29543000746E+02  0.00000000000E+00 0. -1.
</event>
<event>
 5    1  0.1691138E-003  0.9118800E+02  0.7818608E-02  0.1130116E+00
         25   -1    0    0    0    0  0.00000000000E+00  0.00000000000E+00  0.99999998245E-14  0.12500000000E+03  0.12500000000E+03 0.  0.
        -11    1    3    3    0    0 -0.13680464099E+01 -0.39645354257E+02  0.30193381971E+02  0.49852442069E+02  0.51100000000E-03 0.  1.
         23    2    1    0    0    0 -0.17767841646E+01 -0.23145129037E+02 -0.14591266933E+02  0.97581775571E+02  0.93650648117E+02 0.  0.
         11    1    3    3    0    0 -0.40873775471E+00  0.16500225220E+02 -0.44784648904E+02  0.47729333502E+02  0.51100000000E-03 0. -1.
         22    1    1    0    0    0  0.17767841646E+01  0.23145129037E+02  0.14591266933E+02  0.27418224429E+02  0.00000000000E+00 0. -1.
</event>
<event>
 5    1  0.1691138E-003  0.9118800E+02  0.7818608E-02  0.1130116E+00
         25   -1    0    0    0    0  0.00000000000E+00  0.00000000000E+00  0.99999998245E-14  0.12500000000E+03  0.12500000000E+03 0.  0.
        -11    1    3    3    0    0  0.34178078900E+01  0.32474179686E+02 -0.63009272258E+01  0.33255908366E+02  0.51100000000E-03 0. -1.
         23    2    1    0    0    0  0.72513478565E+00 -0.29211020942E+02  0.27128072189E+01  0.95654320797E+02  0.91041639919E+02 0.  0.
         11    1    3    3    0    0 -0.26926731044E+01 -0.61685200628E+02  0.90137344447E+01  0.62398412431E+02  0.51100000000E-03 0.  1.
         22    1    1    0    0    0 -0.72513478565E+00  0.29211020942E+02 -0.27128072189E+01  0.29345679203E+02  0.00000000000E+00 0.  1.
</event>
<event>
 5    1  0.1691138E-003  0.9118800E+02  0.7818608E-02  0.1130116E+00
         25   -1    0    0    0    0  0.00000000000E+00  0.00000000000E+00  0.99999998245E-14  0.12500000000E+03  0.12500000000E+03 0.  0.
        -11    1    3    3    0    0 -0.41362715932E+02  0.43425509819E+02 -0.36473645970E+01  0.60082879767E+02  0.51100000000E-03 0. -1.
         23    2    1    0    0    0 -0.14496790900E+02  0.11996465797E+02  0.10085603553E+02  0.10365072514E+03  0.10142820754E+03 0.  0.
         11    1    3    3    0    0  0.26865925033E+02 -0.31429044022E+02  0.13732968150E+02  0.43567845373E+02  0.51100000000E-03 0.  1.
         22    1    1    0    0    0  0.14496790900E+02 -0.11996465797E+02 -0.10085603553E+02  0.21349274859E+02  0.00000000000E+00 0. -1.
</event>
<event>
 5    1  0.1691138E-003  0.9118800E+02  0.7818608E-02  0.1130116E+00
         25   -1    0    0    0    0  0.00000000000E+00  0.00000000000E+00  0.99999998245E-14  0.12500000000E+03  0.12500000000E+03 0.  0.
        -11    1    3    3    0    0 -0.18432441805E+02  0.27962130265E+02 -0.11015657223E+02  0.35255926370E+02  0.51100000000E-03 0.  1.
         23    2    1    0    0    0  0.74922879469E+01 -0.23095759930E+02  0.13124934023E+02  0.97399050768E+02  0.93406438171E+02 0.  0.
         11    1    3    3    0    0  0.25924729752E+02 -0.51057890195E+02  0.24140591246E+02  0.62143124398E+02  0.51100000000E-03 0. -1.
         22    1    1    0    0    0 -0.74922879469E+01  0.23095759930E+02 -0.13124934023E+02  0.27600949232E+02  0.00000000000E+00 0. -1.
</event>
<event>
 5    1  0.1691138E-003  0.9118800E+02  0.7818608E-02  0.1130116E+00
         25   -1    0    0    0    0  0.00000000000E+00  0.00000000000E+00  0.99999998245E-14  0.12500000000E+03  0.12500000000E+03 0.  0.
        -11    1    3    3    0    0 -0.51862183037E+01 -0.35098912138E+02 -0.11490533404E+01  0.35498603034E+02  0.51100000000E-03 0. -1.
         23    2    1    0    0    0  0.95503368461E+01  0.24455305374E+02 -0.87687557708E+01  0.97320368995E+02  0.93301083856E+02 0.  0.
         11    1    3    3    0    0  0.14736555150E+02  0.59554217512E+02 -0.76197024304E+01  0.61821765961E+02  0.51100000000E-03 0.  1.
         22    1    1    0    0    0 -0.95503368461E+01 -0.24455305374E+02  0.87687557708E+01  0.27679631005E+02  0.00000000000E+00 0.  1.
</event>
<event>
 5    1  0.1691138E-003  0.9118800E+02  0.7818608E-02  0.1130116E+00
         25   -1    0    0    0    0  0.00000000000E+00  0.00000000000E+00  0.99999998245E-14  0.12500000000E+03  0.12500000000E+03 0.  0.
        -11    1    3    3    0    0  0.15628374228E+02 -0.23000987853E+02  0.24045823493E+02  0.36762659736E+02  0.51100000000E-03 0. -1.
         23    2    1    0    0    0 -0.92723996062E+01  0.18193963191E+02 -0.15743872349E+02  0.99214980946E+02  0.95805768284E+02 0.  0.
         11    1    3    3    0    0 -0.24900773834E+02  0.41194951044E+02 -0.39789695841E+02  0.62452321210E+02  0.51100000000E-03 0.  1.
         22    1    1    0    0    0  0.92723996062E+01 -0.18193963191E+02  0.15743872349E+02  0.25785019054E+02  0.00000000000E+00 0.  1.
</event>
<event>
 5    1  0.1691138E-003  0.9118800E+02  0.7818608E-02  0.1130116E+00
         25   -1    0    0    0    0  0.00000000000E+00  0.00000000000E+00  0.99999998245E-14  0.12500000000E+03  0.12500000000E+03 0.  0.
        -11    1    3    3    0    0  0.20242385389E+02 -0.22091751591E+02  0.22503698268E+02  0.37472871395E+02  0.51100000000E-03 0.  1.
         23    2    1    0    0    0 -0.21211152406E+02  0.17195696645E+02  0.98588210310E+01  0.95968959343E+02  0.91472617956E+02 0.  0.
         11    1    3    3    0    0 -0.41453537795E+02  0.39287448237E+02 -0.12644877237E+02  0.58496087948E+02  0.51100000000E-03 0. -1.
         22    1    1    0    0    0  0.21211152406E+02 -0.17195696645E+02 -0.98588210310E+01  0.29031040657E+02  0.00000000000E+00 0. -1.
</event>
<event>
 5    1  0.1691138E-003  0.9118800E+02  0.7818608E-02  0.1130116E+00
         25   -1    0    0    0    0  0.00000000000E+00  0.00000000000E+00  0.99999998245E-14  0.12500000000E+03  0.12500000000E+03 0.  0.
        -11    1    3    3    0    0  0.53193009768E+02 -0.16702489128E+02 -0.13697976197E+02  0.57411705979E+02  0.51100000000E-03 0. -1.
         23    2    1    0    0    0  0.21235998695E+02 -0.15790969641E+02  0.94691265731E+01  0.96893297582E+02  0.92727150260E+02 0.  0.
         11    1    3    3    0    0 -0.31957011073E+02  0.91151948645E+00  0.23167102770E+02  0.39481591603E+02  0.51100000000E-03 0.  1.
         22    1    1    0    0    0 -0.21235998695E+02  0.15790969641E+02 -0.94691265731E+01  0.28106702418E+02  0.00000000000E+00 0. -1.
</event>
<event>
 5    1  0.1691138E-003  0.9118800E+02  0.7818608E-02  0.1130116E+00
         25   -1    0    0    0    0  0.00000000000E+00  0.00000000000E+00  0.99999998245E-14  0.12500000000E+03  0.12500000000E+03 0.  0.
        -11    1    3    3    0    0  0.29585744459E+02 -0.23649680087E+02  0.23048437068E+02  0.44337953211E+02  0.51100000000E-03 0. -1.
         23    2    1    0    0    0  0.98013627866E+01 -0.14498743303E+02 -0.23477606843E+02  0.95717269716E+02  0.91128027680E+02 0.  0.
         11    1    3    3    0    0 -0.19784381673E+02  0.91509367845E+01 -0.46526043911E+02  0.51379316504E+02  0.51100000000E-03 0.  1.
         22    1    1    0    0    0 -0.98013627866E+01  0.14498743303E+02  0.23477606843E+02  0.29282730284E+02  0.00000000000E+00 0. -1.
</event>
<event>
 5    1  0.1691138E-003  0.9118800E+02  0.7818608E-02  0.1130116E+00
         25   -1    0    0    0    0  0.00000000000E+00  0.00000000000E+00  0.99999998245E-14  0.12500000000E+03  0.12500000000E+03 0.  0.
        -11    1    3    3    0    0 -0.96023113588E+01  0.57439798143E+02  0.10958309141E+02  0.59258917756E+02  0.51100000000E-03 0.  1.
         23    2    1    0    0    0  0.72754158407E+01  0.27302569136E+02  0.13077066443E+02  0.93865266601E+02  0.88551209197E+02 0.  0.
         11    1    3    3    0    0  0.16877727199E+02 -0.30137229007E+02  0.21187573013E+01  0.34606348845E+02  0.51100000000E-03 0. -1.
         22    1    1    0    0    0 -0.72754158407E+01 -0.27302569136E+02 -0.13077066443E+02  0.31134733399E+02  0.00000000000E+00 0.  1.
</event>
<event>
 5    1  0.1691138E-003  0.9118800E+02  0.7818608E-02  0.1130116E+00
         25   -1    0    0    0    0  0.00000000000E+00  0.00000000000E+00  0.99999998245E-14  0.12500000000E+03  0.12500000000E+03 0.  0.
        -11    1    3    3    0    0 -0.16407365849E+02 -0.47541166288E+02 -0.16721628241E+02  0.52999782994E+02  0.51100000000E-03 0.  1.
         23    2    1    0    0    0  0.10430940996E+02 -0.25377024157E+02  0.88279403928E+01  0.96177605639E+02  0.91757296221E+02 0.  0.
         11    1    3    3    0    0  0.26838306845E+02  0.22164142131E+02  0.25549568634E+02  0.43177822645E+02  0.51100000000E-03 0. -1.
         22    1    1    0    0    0 -0.10430940996E+02  0.25377024157E+02 -0.88279403928E+01  0.28822394361E+02  0.00000000000E+00 0.  1.
</event>
<event>
 5    1  0.1691138E-003  0.9118800E+02  0.7818608E-02  0.1130116E+00
         25   -1    0    0    0    0  0.00000000000E+00  0.00000000000E+00  0.99999998245E-14  0.12500000000E+03  0.12500000000E+03 0.  0.
        -11    1    3    3    0    0  0.17372230553E+00 -0.38702312570E+02 -0.74077105045E+01  0.39405245246E+02  0.51100000000E-03 0. -1.
         23    2    1    0    0    0 -0.11605857300E+02  0.14331196071E+02 -0.22614698813E+02  0.95819463561E+02  0.91268098973E+02 0.  0.
         11    1    3    3    0    0 -0.11779579606E+02  0.53033508641E+02 -0.15206988308E+02  0.56414218315E+02  0.51100000000E-03 0.  1.
         22    1    1    0    0    0  0.11605857300E+02 -0.14331196071E+02  0.22614698813E+02  0.29180536439E+02  0.00000000000E+00 0.  1.
</event>
<event>
 5    1  0.1691138E-003  0.9118800E+02  0.7818608E-02  0.1130116E+00
         25   -1    0    0    0    0  0.00000000000E+00  0.00000000000E+00  0.99999998245E-14  0.12500000000E+03  0.12500000000E+03 0.  0.
        -11    1    3    3    0    0 -0.25181700372E+02 -0.17298017810E+01 -0.22068158675E+02  0.33527807495E+02  0.51100000000E-03 0.  1.
         23    2    1    0    0    0  0.13571539442E+02  0.28282907627E+02  0.99672216595E+01  0.92084121548E+02  0.86000176669E+02 0.  0.
         11    1    3    3    0    0  0.38753239814E+02  0.30012709408E+02  0.32035380335E+02  0.58556314053E+02  0.51100000000E-03 0. -1.
         22    1    1    0    0    0 -0.13571539442E+02 -0.28282907627E+02 -0.99672216595E+01  0.32915878452E+02  0.00000000000E+00 0. -1.
</event>
<event>
 5    1  0.1691138E-003  0.9118800E+02  0.7818608E-02  0.1130116E+00
         25   -1    0    0    0    0  0.00000000000E+00  0.00000000000E+00  0.99999998245E-14  0.12500000000E+03  0.12500000000E+03 0.  0.
        -11    1    3    3    0    0  0.29162283795E+02  0.42763414345E+02  0.34687203974E+02  0.62308510834E+02  0.51100000000E-03 0.  1.
         23    2    1    0    0    0  0.16169726913E+02  0.18635465833E+02  0.14112133786E+02  0.96576541814E+02  0.92299162800E+02 0.  0.
         11    1    3    3    0    0 -0.12992556883E+02 -0.24127948512E+02 -0.20575070188E+02  0.34268030980E+02  0.51100000000E-03 0. -1.
         22    1    1    0    0    0 -0.16169726913E+02 -0.18635465833E+02 -0.14112133786E+02  0.28423458186E+02  0.00000000000E+00 0.  1.
</event>
<event>
 5    1  0.1691138E-003  0.9118800E+02  0.7818608E-02  0.1130116E+00
         25   -1    0    0    0    0  0.00000000000E+00  0.00000000000E+00  0.99999998245E-14  0.12500000000E+03  0.12500000000E+03 0.  0.
        -11    1    3    3    0    0 -0.29065115512E+02  0.13444450307E+02  0.21961914297E+02  0.38831171288E+02  0.51100000000E-03 0.  1.
         23    2    1    0    0    0  0.20863459981E+02 -0.19694833955E+01 -0.11709768174E+02  0.10099413618E+03  0.98099612864E+02 0.  0.
         11    1    3    3    0    0  0.49928575493E+02 -0.15413933703E+02 -0.33671682472E+02  0.62162964888E+02  0.51100000000E-03 0. -1.
         22    1    1    0    0    0 -0.20863459981E+02  0.19694833955E+01  0.11709768174E+02  0.24005863824E+02  0.00000000000E+00 0. -1.
</event>
<event>
 5    1  0.1691138E-003  0.9118800E+02  0.7818608E-02  0.1130116E+00
         25   -1    0    0    0    0  0.00000000000E+00  0.00000000000E+00  0.99999998245E-14  0.12500000000E+03  0.12500000000E+03 0.  0.
        -11    1    3    3    0    0 -0.36220598136E+02  0.37511318764E+02  0.18885892127E+02  0.55459063158E+02  0.51100000000E-03 0. -1.
         23    2    1    0    0    0 -0.29403351430E+02  0.62412335958E+00  0.78586039580E+01  0.94558182357E+02  0.89523994488E+02 0.  0.
         11    1    3    3    0    0  0.68172467058E+01 -0.36887195404E+02 -0.11027288169E+02  0.39099119198E+02  0.51100000000E-03 0.  1.
         22    1    1    0    0    0  0.29403351430E+02 -0.62412335958E+00 -0.78586039580E+01  0.30441817643E+02  0.00000000000E+00 0. -1.
</event>
<event>
 5    1  0.1691138E-003  0.9118800E+02  0.7818608E-02  0.1130116E+00
         25   -1    0    0    0    0  0.00000000000E+00  0.00000000000E+00  0.99999998245E-14  0.12500000000E+03  0.12500000000E+03 0.  0.
        -11    1    3    3    0    0 -0.32086069535E+01 -0.61759916439E+02 -0.29119308826E+01  0.61911725698E+02  0.51100000000E-03 0. -1.
         23    2    1    0    0    0  0.89526045503E+00 -0.16922817449E+02  0.43155812744E+01  0.10751264790E+03  0.10608092182E+03 0.  0.
         11    1    3    3    0    0  0.41038674085E+01  0.44837098990E+02  0.72275121570E+01  0.45600922203E+02  0.51100000000E-03 0.  1.
         22    1    1    0    0    0 -0.89526045503E+00  0.16922817449E+02 -0.43155812744E+01  0.17487352099E+02  0.00000000000E+00 0. -1.
</event>
<event>
 5    1  0.1691138E-003  0.9118800E+02  0.7818608E-02  0.1130116E+00
         25   -1    0    0    0    0  0.00000000000E+00  0.00000000000E+00  0.99999998245E-14  0.12500000000E+03  0.12500000000E+03 0.  0.
        -11    1    3    3    0    0 -0.24633323529E+02 -0.25639707456E+02 -0.33953557693E+02  0.49163393971E+02  0.51100000000E-03 0. -1.
         23    2    1    0    0    0 -0.20671971518E+02 -0.16048965301E+02  0.11953602833E+02  0.96228689388E+02  0.91826860705E+02 0.  0.
         11    1    3    3    0    0  0.39613520111E+01  0.95907421548E+01  0.45907160526E+02  0.47065295417E+02  0.51100000000E-03 0.  1.
         22    1    1    0    0    0  0.20671971518E+02  0.16048965301E+02 -0.11953602833E+02  0.28771310612E+02  0.00000000000E+00 0.  1.
</event>
<event>
 5    1  0.1691138E-003  0.9118800E+02  0.7818608E-02  0.1130116E+00
         25   -1    0    0    0    0  0.00000000000E+00  0.00000000000E+00  0.99999998245E-14  0.12500000000E+03  0.12500000000E+03 0.  0.
        -11    1    3    3    0    0 -0.23925737887E+02 -0.46214927149E+02  0.16284355538E+02  0.54529264256E+02  0.51100000000E-03 0. -1.
         23    2    1    0    0    0 -0.25839586738E+02 -0.42286239508E+01  0.97305059634E+01  0.97067075885E+02  0.92961115372E+02 0.  0.
         11    1    3    3    0    0 -0.19138488515E+01  0.41986303198E+02 -0.65538495741E+01  0.42537811629E+02  0.51100000000E-03 0.  1.
         22    1    1    0    0    0  0.25839586738E+02  0.42286239508E+01 -0.97305059634E+01  0.27932924115E+02  0.00000000000E+00 0. -1.
</event>
<event>
 5    1  0.1691138E-003  0.9118800E+02  0.7818608E-02  0.1130116E+00
         25   -1    0    0    0    0  0.00000000000E+00  0.00000000000E+00  0.99999998245E-14  0.12500000000E+03  0.12500000000E+03 0.  0.
        -11    1    3    3    0    0 -0.59000077913E+02 -0.18905500780E+01 -0.14123150916E+02  0.60696348864E+02  0.51100000000E-03 0.  1.
         23    2    1    0    0    0 -0.28896859737E+02 -0.18258532294E+00  0.39255380630E+01  0.95837152245E+02  0.91292322029E+02 0.  0.
         11    1    3    3    0    0  0.30103218176E+02  0.17079647551E+01  0.18048688979E+02  0.35140803381E+02  0.51100000000E-03 0. -1.
         22    1    1    0    0    0  0.28896859737E+02  0.18258532294E+00 -0.39255380630E+01  0.29162847755E+02  0.00000000000E+00 0.  1.
</event>
<event>
 5    1  0.1691138E-003  0.9118800E+02  0.7818608E-02  0.1130116E+00
         25   -1    0    0    0    0  0.00000000000E+00  0.00000000000E+00  0.99999998245E-14  0.12500000000E+03  0.12500000000E+03 0.  0.
        -11    1    3    3    0    0  0.33755963642E+02 -0.12072848532E+02 -0.31641108853E+02  0.47816090626E+02  0.51100000000E-03 0.  1.
         23    2    1    0    0    0 -0.28288200194E+00 -0.29160006082E+02 -0.25785071223E+01  0.95724845416E+02  0.91138418650E+02 0.  0.
         11    1    3    3    0    0 -0.34038845644E+02 -0.17087157550E+02  0.29062601731E+02  0.47908754790E+02  0.51100000000E-03 0. -1.
         22    1    1    0    0    0  0.28288200194E+00  0.29160006082E+02  0.25785071223E+01  0.29275154584E+02  0.00000000000E+00 0.  1.
</event>
<event>
 5    1  0.1691138E-003  0.9118800E+02  0.7818608E-02  0.1130116E+00
         25   -1    0    0    0    0  0.00000000000E+00  0.00000000000E+00  0.99999998245E-14  0.12500000000E+03  0.12500000000E+03 0.  0.
        -11    1    3    3    0    0  0.43657846054E+01 -0.20877552629E+02 -0.52907832236E+02  0.57045341538E+02  0.51100000000E-03 0. -1.
         23    2    1    0    0    0  0.11382931377E+02 -0.22790433635E+02 -0.15442828101E+02  0.95209801415E+02  0.90429256072E+02 0.  0.
         11    1    3    3    0    0  0.70171467712E+01 -0.19128810058E+01  0.37465004135E+02  0.38164459876E+02  0.51100000000E-03 0.  1.
         22    1    1    0    0    0 -0.11382931377E+02  0.22790433635E+02  0.15442828101E+02  0.29790198585E+02  0.00000000000E+00 0. -1.
</event>
<event>
 5    1  0.1691138E-003  0.9118800E+02  0.7818608E-02  0.1130116E+00
         25   -1    0    0    0    0  0.00000000000E+00  0.00000000000E+00  0.99999998245E-14  0.12500000000E+03  0.12500000000E+03 0.  0.
        -11    1    3    3    0    0 -0.95386156017E+00 -0.50304018834E+02  0.42908855162E+01  0.50495701416E+02  0.51100000000E-03 0. -1.
         23    2    1    0    0    0 -0.15581196593E+02 -0.16755054755E+02  0.23813358990E+02  0.91976044854E+02  0.85842945042E+02 0.  0.
         11    1    3    3    0    0 -0.14627335033E+02  0.33548964079E+02  0.19522473473E+02  0.41480343438E+02  0.51100000000E-03 0.  1.
         22    1    1    0    0    0  0.15581196593E+02  0.16755054755E+02 -0.23813358990E+02  0.33023955146E+02  0.00000000000E+00 0. -1.
</event>
<event>
 5    1  0.1691138E-003  0.9118800E+02  0.7818608E-02  0.1130116E+00
         25   -1    0    0    0    0  0.00000000000E+00  0.00000000000E+00  0.99999998245E-14  0.12500000000E+03  0.12500000000E+03 0.  0.
        -11    1    3    3    0    0  0.10005206734E+01 -0.43691558740E+02  0.38167966867E+02  0.58023676562E+02  0.51100000000E-03 0.  1.
         23    2    1    0    0    0 -0.15918497532E+02 -0.19310562509E+02  0.13808490634E+02  0.96417298909E+02  0.92083248896E+02 0.  0.
         11    1    3    3    0    0 -0.16919018206E+02  0.24380996231E+02 -0.24359476233E+02  0.38393622346E+02  0.51100000000E-03 0. -1.
         22    1    1    0    0    0  0.15918497532E+02  0.19310562509E+02 -0.13808490634E+02  0.28582701091E+02  0.00000000000E+00 0.  1.
</event>
<event>
 5    1  0.1691138E-003  0.9118800E+02  0.7818608E-02  0.1130116E+00
         25   -1    0    0    0    0  0.00000000000E+00  0.00000000000E+00  0.99999998245E-14  0.12500000000E+03  0.12500000000E+03 0.  0.
        -11    1    3    3    0    0 -0.31148062910E+02 -0.77678249517E+01  0.51846457830E+02  0.60980292860E+02  0.51100000000E-03 0.  1.
         23    2    1    0    0    0 -0.51338431328E+01 -0.92448190227E+01  0.21934683257E+02  0.10064936646E+03  0.97659314024E+02 0.  0.
         11    1    3    3    0    0  0.26014219777E+02 -0.14769940710E+01 -0.29911774573E+02  0.39669073602E+02  0.51100000000E-03 0. -1.
         22    1    1    0    0    0  0.51338431328E+01  0.92448190227E+01 -0.21934683257E+02  0.24350633537E+02  0.00000000000E+00 0.  1.
</event>
<event>
 5    1  0.1691138E-003  0.9118800E+02  0.7818608E-02  0.1130116E+00
         25   -1    0    0    0    0  0.00000000000E+00  0.00000000000E+00  0.99999998245E-14  0.12500000000E+03  0.12500000000E+03 0.  0.
        -11    1    3    3    0    0  0.16466407438E+02  0.42002201225E+01  0.51130211732E+02  0.53880265172E+02  0.51100000000E-03 0. -1.
         23    2    1    0    0    0  0.26912878280E+02  0.29333975502E+01  0.10316591059E+02  0.96028636733E+02  0.91554132529E+02 0.  0.
         11    1    3    3    0    0  0.10446470842E+02 -0.12668225722E+01 -0.40813620673E+02  0.42148371561E+02  0.51100000000E-03 0.  1.
         22    1    1    0    0    0 -0.26912878280E+02 -0.29333975502E+01 -0.10316591059E+02  0.28971363267E+02  0.00000000000E+00 0. -1.
</event>
<event>
 5    1  0.1691138E-003  0.9118800E+02  0.7818608E-02  0.1130116E+00
         25   -1    0    0    0    0  0.00000000000E+00  0.00000000000E+00  0.99999998245E-14  0.12500000000E+03  0.12500000000E+03 0.  0.
        -11    1    3    3    0    0  0.24542679449E+02  0.18010063015E+02 -0.22910459876E+02  0.38099798639E+02  0.51100000000E-03 0.  1.
         23    2    1    0    0    0  0.86080525972E+01 -0.26528077019E+02  0.96076785101E+01  0.95501780966E+02  0.90831961563E+02 0.  0.
         11    1    3    3    0    0 -0.15934626852E+02 -0.44538140034E+02  0.32518138386E+02  0.57401982326E+02  0.51100000000E-03 0. -1.
         22    1    1    0    0    0 -0.86080525972E+01  0.26528077019E+02 -0.96076785101E+01  0.29498219034E+02  0.00000000000E+00 0. -1.
</event>
<event>
 5    1  0.1691138E-003  0.9118800E+02  0.7818608E-02  0.1130116E+00
         25   -1    0    0    0    0  0.00000000000E+00  0.00000000000E+00  0.99999998245E-14  0.12500000000E+03  0.12500000000E+03 0.  0.
        -11    1    3    3    0    0  0.20889291382E+02 -0.30414029617E+00 -0.55242198158E+02  0.59060608305E+02  0.51100000000E-03 0. -1.
         23    2    1    0    0    0  0.18479853228E+02 -0.13279355280E+02 -0.33253896077E+02  0.84705237856E+02  0.74507110157E+02 0.  0.
         11    1    3    3    0    0 -0.24094381540E+01 -0.12975214983E+02  0.21988302081E+02  0.25644629550E+02  0.51100000000E-03 0.  1.
         22    1    1    0    0    0 -0.18479853228E+02  0.13279355280E+02  0.33253896077E+02  0.40294762144E+02  0.00000000000E+00 0. -1.
</event>
<event>
 5    1  0.1691138E-003  0.9118800E+02  0.7818608E-02  0.1130116E+00
         25   -1    0    0    0    0  0.00000000000E+00  0.00000000000E+00  0.99999998245E-14  0.12500000000E+03  0.12500000000E+03 0.  0.
        -11    1    3    3    0    0 -0.33921942894E+02  0.48734092881E+02 -0.19422573015E+02  0.62473565301E+02  0.51100000000E-03 0.  1.
         23    2    1    0    0    0 -0.14714558473E+02  0.22902467707E+02 -0.97325287463E+01  0.96090427642E+02  0.91638457596E+02 0.  0.
         11    1    3    3    0    0  0.19207384421E+02 -0.25831625175E+02  0.96900442690E+01  0.33616862341E+02  0.51100000000E-03 0. -1.
         22    1    1    0    0    0  0.14714558473E+02 -0.22902467707E+02  0.97325287463E+01  0.28909572358E+02  0.00000000000E+00 0.  1.
</event>
<event>
 5    1  0.1691138E-003  0.9118800E+02  0.7818608E-02  0.1130116E+00
         25   -1    0    0    0    0  0.00000000000E+00  0.00000000000E+00  0.99999998245E-14  0.12500000000E+03  0.12500000000E+03 0.  0.
        -11    1    3    3    0    0 -0.30771947649E+02 -0.21515702750E+02 -0.25190063610E+02  0.45214793286E+02  0.51100000000E-03 0. -1.
         23    2    1    0    0    0  0.76381124484E+01 -0.30575208181E+02  0.24416850390E+01  0.93390730111E+02  0.87878794528E+02 0.  0.
         11    1    3    3    0    0  0.38410060098E+02 -0.90595054313E+01  0.27631748649E+02  0.48175936825E+02  0.51100000000E-03 0.  1.
         22    1    1    0    0    0 -0.76381124484E+01  0.30575208181E+02 -0.24416850390E+01  0.31609269889E+02  0.00000000000E+00 0. -1.
</event>
<event>
 5    1  0.1691138E-003  0.9118800E+02  0.7818608E-02  0.1130116E+00
         25   -1    0    0    0    0  0.00000000000E+00  0.00000000000E+00  0.99999998245E-14  0.12500000000E+03  0.12500000000E+03 0.  0.
        -11    1    3    3    0    0 -0.48583660196E+02 -0.50296450844E+01 -0.31110217593E+02  0.57909541586E+02  0.51100000000E-03 0.  1.
         23    2    1    0    0    0 -0.12763864596E+02  0.77280828723E+00 -0.27864942629E+02  0.94341094282E+02  0.89220365223E+02 0.  0.
         11    1    3    3    0    0  0.35819795601E+02  0.58024533716E+01  0.32452749638E+01  0.36431552696E+02  0.51100000000E-03 0. -1.
         22    1    1    0    0    0  0.12763864596E+02 -0.77280828723E+00  0.27864942629E+02  0.30658905718E+02  0.00000000000E+00 0.  1.
</event>
<event>
 5    1  0.1691138E-003  0.9118800E+02  0.7818608E-02  0.1130116E+00
         25   -1    0    0    0    0  0.00000000000E+00  0.00000000000E+00  0.99999998245E-14  0.12500000000E+03  0.12500000000E+03 0.  0.
        -11    1    3    3    0    0 -0.36656241111E+01  0.94261243985E+01 -0.35713248648E+02  0.37117714781E+02  0.51100000000E-03 0. -1.
         23    2    1    0    0    0  0.19211128919E+02 -0.24179349710E+02  0.38917326074E+01  0.93873580202E+02  0.88562944004E+02 0.  0.
         11    1    3    3    0    0  0.22876753030E+02 -0.33605474109E+02  0.39604981255E+02  0.56755865422E+02  0.51100000000E-03 0.  1.
         22    1    1    0    0    0 -0.19211128919E+02  0.24179349710E+02 -0.38917326074E+01  0.31126419798E+02  0.00000000000E+00 0.  1.
</event>
<event>
 5    1  0.1691138E-003  0.9118800E+02  0.7818608E-02  0.1130116E+00
         25   -1    0    0    0    0  0.00000000000E+00  0.00000000000E+00  0.99999998245E-14  0.12500000000E+03  0.12500000000E+03 0.  0.
        -11    1    3    3    0    0  0.57496423818E+02 -0.21288988233E+02 -0.25944132640E+01  0.61366039079E+02  0.51100000000E-03 0.  1.
         23    2    1    0    0    0  0.24042069988E+02 -0.14544687309E+02 -0.76795482681E+01  0.95870212499E+02  0.91337577835E+02 0.  0.
         11    1    3    3    0    0 -0.33454353830E+02  0.67443009239E+01 -0.50851350041E+01  0.34504173420E+02  0.51100000000E-03 0. -1.
         22    1    1    0    0    0 -0.24042069988E+02  0.14544687309E+02  0.76795482681E+01  0.29129787501E+02  0.00000000000E+00 0.  1.
</event>
<event>
 5    1  0.1691138E-003  0.9118800E+02  0.7818608E-02  0.1130116E+00
         25   -1    0    0    0    0  0.00000000000E+00  0.00000000000E+00  0.99999998245E-14  0.12500000000E+03  0.12500000000E+03 0.  0.
        -11    1    3    3    0    0 -0.11431705149E+02 -0.56677722958E+02 -0.16761184060E+02  0.60199546955E+02  0.51100000000E-03 0. -1.
         23    2    1    0    0    0  0.28961848072E+01 -0.37064410230E+02 -0.40815935053E+01  0.87599227311E+02  0.79213678287E+02 0.  0.
         11    1    3    3    0    0  0.14327889956E+02  0.19613312727E+02  0.12679590555E+02  0.27399680356E+02  0.51100000000E-03 0.  1.
         22    1    1    0    0    0 -0.28961848072E+01  0.37064410230E+02  0.40815935053E+01  0.37400772689E+02  0.00000000000E+00 0. -1.
</event>
<event>
 5    1  0.1691138E-003  0.9118800E+02  0.7818608E-02  0.1130116E+00
         25   -1    0    0    0    0  0.00000000000E+00  0.00000000000E+00  0.99999998245E-14  0.12500000000E+03  0.12500000000E+03 0.  0.
        -11    1    3    3    0    0  0.37698562847E+01 -0.46269021864E+02 -0.21407405164E+02  0.51120555521E+02  0.51100000000E-03 0.  1.
         23    2    1    0    0    0  0.26602759589E+02 -0.12257515711E+02 -0.48251720278E+01  0.95314384052E+02  0.90573704865E+02 0.  0.
         11    1    3    3    0    0  0.22832903304E+02  0.34011506153E+02  0.16582233137E+02  0.44193828530E+02  0.51100000000E-03 0. -1.
         22    1    1    0    0    0 -0.26602759589E+02  0.12257515711E+02  0.48251720278E+01  0.29685615948E+02  0.00000000000E+00 0. -1.
</event>
<event>
 5    1  0.1691138E-003  0.9118800E+02  0.7818608E-02  0.1130116E+00
         25   -1    0    0    0    0  0.00000000000E+00  0.00000000000E+00  0.99999998245E-14  0.12500000000E+03  0.12500000000E+03 0.  0.
        -11    1    3    3    0    0 -0.15608464777E+02 -0.48257312845E+01 -0.31136880274E+02  0.35162724135E+02  0.51100000000E-03 0. -1.
         23    2    1    0    0    0 -0.15376794836E+02  0.50075406301E+01  0.26675241784E+02  0.93805612575E+02  0.88466960746E+02 0.  0.
         11    1    3    3    0    0  0.23166994109E+00  0.98332719146E+01  0.57812122058E+02  0.58642888440E+02  0.51100000000E-03 0.  1.
         22    1    1    0    0    0  0.15376794836E+02 -0.50075406301E+01 -0.26675241784E+02  0.31194387425E+02  0.00000000000E+00 0.  1.
</event>
<event>
 5    1  0.1691138E-003  0.9118800E+02  0.7818608E-02  0.1130116E+00
         25   -1    0    0    0    0  0.00000000000E+00  0.00000000000E+00  0.99999998245E-14  0.12500000000E+03  0.12500000000E+03 0.  0.
        -11    1    3    3    0    0  0.37916172860E+02  0.22612522909E+02  0.20833750325E+02  0.48816057906E+02  0.51100000000E-03 0.  1.
         23    2    1    0    0    0  0.10129561366E+02 -0.15659411712E+02  0.22041838463E+02  0.96126693445E+02  0.91687912841E+02 0.  0.
         11    1    3    3    0    0 -0.27786611494E+02 -0.38271934620E+02  0.12080881374E+01  0.47310635539E+02  0.51100000000E-03 0. -1.
         22    1    1    0    0    0 -0.10129561366E+02  0.15659411712E+02 -0.22041838463E+02  0.28873306555E+02  0.00000000000E+00 0. -1.
</event>
<event>
 5    1  0.1691138E-003  0.9118800E+02  0.7818608E-02  0.1130116E+00
         25   -1    0    0    0    0  0.00000000000E+00  0.00000000000E+00  0.99999998245E-14  0.12500000000E+03  0.12500000000E+03 0.  0.
        -11    1    3    3    0    0  0.46084269966E+02  0.25113509351E+02 -0.23161055173E+02  0.57366216253E+02  0.51100000000E-03 0. -1.
         23    2    1    0    0    0  0.11555301385E+02  0.12591872397E+02 -0.25647933215E+02  0.94179605473E+02  0.88993827698E+02 0.  0.
         11    1    3    3    0    0 -0.34528968580E+02 -0.12521636954E+02 -0.24868780417E+01  0.36813389220E+02  0.51100000000E-03 0.  1.
         22    1    1    0    0    0 -0.11555301385E+02 -0.12591872397E+02  0.25647933215E+02  0.30820394527E+02  0.00000000000E+00 0. -1.
</event>
<event>
 5    1  0.1691138E-003  0.9118800E+02  0.7818608E-02  0.1130116E+00
         25   -1    0    0    0    0  0.00000000000E+00  0.00000000000E+00  0.99999998245E-14  0.12500000000E+03  0.12500000000E+03 0.  0.
        -11    1    3    3    0    0 -0.31451546378E+02  0.19209956970E+02 -0.33950557793E+01  0.37010115109E+02  0.51100000000E-03 0. -1.
         23    2    1    0    0    0  0.70690932133E+01 -0.15807522319E+02  0.23661006415E+02  0.95679477063E+02  0.91076172876E+02 0.  0.
         11    1    3    3    0    0  0.38520639591E+02 -0.35017479290E+02  0.27056062195E+02  0.58669361954E+02  0.51100000000E-03 0.  1.
         22    1    1    0    0    0 -0.70690932133E+01  0.15807522319E+02 -0.23661006415E+02  0.29320522937E+02  0.00000000000E+00 0.  1.
</event>
<event>
 5    1  0.1691138E-003  0.9118800E+02  0.7818608E-02  0.1130116E+00
         25   -1    0    0    0    0  0.00000000000E+00  0.00000000000E+00  0.99999998245E-14  0.12500000000E+03  0.12500000000E+03 0.  0.
        -11    1    3    3    0    0  0.15423279516E+02 -0.34684656636E+02 -0.22666031640E+02  0.44211445888E+02  0.51100000000E-03 0. -1.
         23    2    1    0    0    0  0.79284993875E+00  0.14659673230E+02 -0.25302784733E+02  0.95746529343E+02  0.91168154175E+02 0.  0.
         11    1    3    3    0    0 -0.14630429578E+02  0.49344329866E+02 -0.26367530933E+01  0.51535083455E+02  0.51100000000E-03 0.  1.
         22    1    1    0    0    0 -0.79284993875E+00 -0.14659673230E+02  0.25302784733E+02  0.29253470657E+02  0.00000000000E+00 0.  1.
</event>
<event>
 5    1  0.1691138E-003  0.9118800E+02  0.7818608E-02  0.1130116E+00
         25   -1    0    0    0    0  0.00000000000E+00  0.00000000000E+00  0.99999998245E-14  0.12500000000E+03  0.12500000000E+03 0.  0.
        -11    1    3    3    0    0  0.64611644644E+01  0.73712852318E+01 -0.28071978825E+02  0.29734130013E+02  0.51100000000E-03 0. -1.
         23    2    1    0    0    0 -0.15818127206E+02  0.11825598482E+02  0.28287071225E+02  0.90500488029E+02  0.83666731784E+02 0.  0.
         11    1    3    3    0    0 -0.22279291670E+02  0.44543132497E+01  0.56359050050E+02  0.60766358017E+02  0.51100000000E-03 0.  1.
         22    1    1    0    0    0  0.15818127206E+02 -0.11825598482E+02 -0.28287071225E+02  0.34499511971E+02  0.00000000000E+00 0.  1.
</event>
<event>
 5    1  0.1691138E-003  0.9118800E+02  0.7818608E-02  0.1130116E+00
         25   -1    0    0    0    0  0.00000000000E+00  0.00000000000E+00  0.99999998245E-14  0.12500000000E+03  0.12500000000E+03 0.  0.
        -11    1    3    3    0    0 -0.20604592051E+02 -0.41565178472E+02 -0.10128603416E+02  0.47484754211E+02  0.51100000000E-03 0.  1.
         23    2    1    0    0    0  0.56532564441E+01 -0.56870703073E+01 -0.28352770700E+02  0.95535077067E+02  0.90877771026E+02 0.  0.
         11    1    3    3    0    0  0.26257848495E+02  0.35878108165E+02 -0.18224167284E+02  0.48050322856E+02  0.51100000000E-03 0. -1.
         22    1    1    0    0    0 -0.56532564441E+01  0.56870703073E+01  0.28352770700E+02  0.29464922933E+02  0.00000000000E+00 0.  1.
</event>
<event>
 5    1  0.1691138E-003  0.9118800E+02  0.7818608E-02  0.1130116E+00
         25   -1    0    0    0    0  0.00000000000E+00  0.00000000000E+00  0.99999998245E-14  0.12500000000E+03  0.12500000000E+03 0.  0.
        -11    1    3    3    0    0 -0.15033391108E+01 -0.43172704850E+02  0.14335727901E+01  0.43222651512E+02  0.51100000000E-03 0. -1.
         23    2    1    0    0    0 -0.22017346690E+02  0.14074322918E+01 -0.18517213486E+02  0.96196673522E+02  0.91783268521E+02 0.  0.
         11    1    3    3    0    0 -0.20514007579E+02  0.44580137142E+02 -0.19950786276E+02  0.52974022009E+02  0.51100000000E-03 0.  1.
         22    1    1    0    0    0  0.22017346690E+02 -0.14074322918E+01  0.18517213486E+02  0.28803326478E+02  0.00000000000E+00 0.  1.
</event>
<event>
 5    1  0.1691138E-003  0.9118800E+02  0.7818608E-02  0.1130116E+00
         25   -1    0    0    0    0  0.00000000000E+00  0.00000000000E+00  0.99999998245E-14  0.12500000000E+03  0.12500000000E+03 0.  0.
        -11    1    3    3    0    0  0.41270600357E+02  0.28793256461E+02 -0.36943000346E+02  0.62426751848E+02  0.51100000000E-03 0.  1.
         23    2    1    0    0    0  0.20295891350E+02  0.14818610670E+02 -0.15879546437E+02  0.95273338180E+02  0.90517040081E+02 0.  0.
         11    1    3    3    0    0 -0.20974709006E+02 -0.13974645791E+02  0.21063453909E+02  0.32846586333E+02  0.51100000000E-03 0. -1.
         22    1    1    0    0    0 -0.20295891350E+02 -0.14818610670E+02  0.15879546437E+02  0.29726661820E+02  0.00000000000E+00 0.  1.
</event>
<event>
 5    1  0.1691138E-003  0.9118800E+02  0.7818608E-02  0.1130116E+00
         25   -1    0    0    0    0  0.00000000000E+00  0.00000000000E+00  0.99999998245E-14  0.12500000000E+03  0.12500000000E+03 0.  0.
        -11    1    3    3    0    0  0.22959261296E+02  0.29483489571E+02  0.38398560263E+02  0.53580344036E+02  0.51100000000E-03 0. -1.
         23    2    1    0    0    0 -0.55140726300E+01  0.28001603681E+02  0.77782758288E+01  0.95419662264E+02  0.90718882081E+02 0.  0.
         11    1    3    3    0    0 -0.28473333926E+02 -0.14818858892E+01 -0.30620284434E+02  0.41839318228E+02  0.51100000000E-03 0.  1.
         22    1    1    0    0    0  0.55140726300E+01 -0.28001603681E+02 -0.77782758288E+01  0.29580337736E+02  0.00000000000E+00 0. -1.
</event>
<event>
 5    1  0.1691138E-003  0.9118800E+02  0.7818608E-02  0.1130116E+00
         25   -1    0    0    0    0  0.00000000000E+00  0.00000000000E+00  0.99999998245E-14  0.12500000000E+03  0.12500000000E+03 0.  0.
        -11    1    3    3    0    0 -0.12032157167E+02 -0.19709936393E+02 -0.36224380551E+02  0.42958819179E+02  0.51100000000E-03 0. -1.
         23    2    1    0    0    0  0.96475809691E+01 -0.23875912924E+02  0.12443509828E+02  0.96399720747E+02  0.92059384023E+02 0.  0.
         11    1    3    3    0    0  0.21679738136E+02 -0.41659765315E+01  0.48667890379E+02  0.53440901567E+02  0.51100000000E-03 0.  1.
         22    1    1    0    0    0 -0.96475809691E+01  0.23875912924E+02 -0.12443509828E+02  0.28600279253E+02  0.00000000000E+00 0.  1.
</event>
<event>
 5    1  0.1691138E-003  0.9118800E+02  0.7818608E-02  0.1130116E+00
         25   -1    0    0    0    0  0.00000000000E+00  0.00000000000E+00  0.99999998245E-14  0.12500000000E+03  0.12500000000E+03 0.  0.
        -11    1    3    3    0    0 -0.24007667302E+02 -0.14086637227E+02  0.39993070615E+02  0.48726246881E+02  0.51100000000E-03 0.  1.
         23    2    1    0    0    0 -0.29533533113E+02 -0.40653032021E+01 -0.46631458380E+01  0.94825487620E+02  0.89896451015E+02 0.  0.
         11    1    3    3    0    0 -0.55258658113E+01  0.10021334025E+02 -0.44656216453E+02  0.46099240739E+02  0.51100000000E-03 0. -1.
         22    1    1    0    0    0  0.29533533113E+02  0.40653032021E+01  0.46631458380E+01  0.30174512380E+02  0.00000000000E+00 0. -1.
</event>
<event>
 5    1  0.1691138E-003  0.9118800E+02  0.7818608E-02  0.1130116E+00
         25   -1    0    0    0    0  0.00000000000E+00  0.00000000000E+00  0.99999998245E-14  0.12500000000E+03  0.12500000000E+03 0.  0.
        -11    1    3    3    0    0 -0.44083175471E+01 -0.57448953478E+02  0.86796571393E+01  0.58267932584E+02  0.51100000000E-03 0.  1.
         23    2    1    0    0    0  0.11678011837E+02 -0.22588256377E+02  0.12150561957E+02  0.96817710481E+02  0.92625199705E+02 0.  0.
         11    1    3    3    0    0  0.16086329384E+02  0.34860697101E+02  0.34709048178E+01  0.38549777897E+02  0.51100000000E-03 0. -1.
         22    1    1    0    0    0 -0.11678011837E+02  0.22588256377E+02 -0.12150561957E+02  0.28182289519E+02  0.00000000000E+00 0.  1.
</event>
<event>
 5    1  0.1691138E-003  0.9118800E+02  0.7818608E-02  0.1130116E+00
         25   -1    0    0    0    0  0.00000000000E+00  0.00000000000E+00  0.99999998245E-14  0.12500000000E+03  0.12500000000E+03 0.  0.
        -11    1    3    3    0    0  0.32463423528E+02  0.69571624154E+01 -0.14471704773E+02  0.36217484939E+02  0.51100000000E-03 0. -1.
         23    2    1    0    0    0 -0.18205798659E+02  0.24648684150E+02  0.62105922903E+01  0.93733721172E+02  0.88365322910E+02 0.  0.
         11    1    3    3    0    0 -0.50669222187E+02  0.17691521735E+02  0.20682297063E+02  0.57516236233E+02  0.51100000000E-03 0.  1.
         22    1    1    0    0    0  0.18205798659E+02 -0.24648684150E+02 -0.62105922903E+01  0.31266278828E+02  0.00000000000E+00 0.  1.
</event>
<event>
 5    1  0.1691138E-003  0.9118800E+02  0.7818608E-02  0.1130116E+00
         25   -1    0    0    0    0  0.00000000000E+00  0.00000000000E+00  0.99999998245E-14  0.12500000000E+03  0.12500000000E+03 0.  0.
        -11    1    3    3    0    0  0.48153234202E+02 -0.12013509035E+02  0.34697298207E+02  0.60555436309E+02  0.51100000000E-03 0.  1.
         23    2    1    0    0    0  0.22145066522E+02 -0.15472413654E+02  0.11273682525E+02  0.95727223001E+02  0.91141679545E+02 0.  0.
         11    1    3    3    0    0 -0.26008167680E+02 -0.34589046195E+01 -0.23423615682E+02  0.35171786692E+02  0.51100000000E-03 0. -1.
         22    1    1    0    0    0 -0.22145066522E+02  0.15472413654E+02 -0.11273682525E+02  0.29272776999E+02  0.00000000000E+00 0.  1.
</event>
<event>
 5    1  0.1691138E-003  0.9118800E+02  0.7818608E-02  0.1130116E+00
         25   -1    0    0    0    0  0.00000000000E+00  0.00000000000E+00  0.99999998245E-14  0.12500000000E+03  0.12500000000E+03 0.  0.
        -11    1    3    3    0    0 -0.11725548337E+02  0.33120180967E+02 -0.15600441347E+02  0.38442276748E+02  0.51100000000E-03 0.  1.
         23    2    1    0    0    0 -0.98773635379E+01 -0.25048596616E+02 -0.57261874700E+01  0.97472128200E+02  0.93504181992E+02 0.  0.
         11    1    3    3    0    0  0.18481847989E+01 -0.58168777583E+02  0.98742538773E+01  0.59029851452E+02  0.51100000000E-03 0. -1.
         22    1    1    0    0    0  0.98773635379E+01  0.25048596616E+02  0.57261874700E+01  0.27527871800E+02  0.00000000000E+00 0. -1.
</event>
<event>
 5    1  0.1691138E-003  0.9118800E+02  0.7818608E-02  0.1130116E+00
         25   -1    0    0    0    0  0.00000000000E+00  0.00000000000E+00  0.99999998245E-14  0.12500000000E+03  0.12500000000E+03 0.  0.
        -11    1    3    3    0    0 -0.39661010020E+02  0.40370252717E+01  0.16463410139E+02  0.43131626013E+02  0.51100000000E-03 0. -1.
         23    2    1    0    0    0 -0.10680461359E+02 -0.18385523395E+02 -0.20702815612E+02  0.95323303762E+02  0.90586014044E+02 0.  0.
         11    1    3    3    0    0  0.28980548661E+02 -0.22422548667E+02 -0.37166225751E+02  0.52191677749E+02  0.51100000000E-03 0.  1.
         22    1    1    0    0    0  0.10680461359E+02  0.18385523395E+02  0.20702815612E+02  0.29676696238E+02  0.00000000000E+00 0.  1.
</event>
<event>
 5    1  0.1691138E-003  0.9118800E+02  0.7818608E-02  0.1130116E+00
         25   -1    0    0    0    0  0.00000000000E+00  0.00000000000E+00  0.99999998245E-14  0.12500000000E+03  0.12500000000E+03 0.  0.
        -11    1    3    3    0    0  0.34450390600E+02  0.29694233054E+02  0.13635950207E+02  0.47481744150E+02  0.51100000000E-03 0.  1.
         23    2    1    0    0    0 -0.45484639107E+01  0.14367813422E+02  0.29166813295E+02  0.92169745900E+02  0.86124540492E+02 0.  0.
         11    1    3    3    0    0 -0.38998854511E+02 -0.15326419632E+02  0.15530863088E+02  0.44688001750E+02  0.51100000000E-03 0. -1.
         22    1    1    0    0    0  0.45484639107E+01 -0.14367813422E+02 -0.29166813295E+02  0.32830254100E+02  0.00000000000E+00 0. -1.
</event>
<event>
 5    1  0.1691138E-003  0.9118800E+02  0.7818608E-02  0.1130116E+00
         25   -1    0    0    0    0  0.00000000000E+00  0.00000000000E+00  0.99999998245E-14  0.12500000000E+03  0.12500000000E+03 0.  0.
        -11    1    3    3    0    0  0.12963506508E+02  0.54103490000E+01  0.37198797891E+02  0.39762733081E+02  0.51100000000E-03 0.  1.
         23    2    1    0    0    0 -0.11538739600E+02  0.23535016617E+02 -0.10825100305E+02  0.96641186285E+02  0.92386668796E+02 0.  0.
         11    1    3    3    0    0 -0.24502246108E+02  0.18124667618E+02 -0.48023898196E+02  0.56878453203E+02  0.51100000000E-03 0. -1.
         22    1    1    0    0    0  0.11538739600E+02 -0.23535016617E+02  0.10825100305E+02  0.28358813715E+02  0.00000000000E+00 0. -1.
</event>
<event>
 5    1  0.1691138E-003  0.9118800E+02  0.7818608E-02  0.1130116E+00
         25   -1    0    0    0    0  0.00000000000E+00  0.00000000000E+00  0.99999998245E-14  0.12500000000E+03  0.12500000000E+03 0.  0.
        -11    1    3    3    0    0  0.55090488673E+02  0.14817595653E+02  0.14721549723E+01  0.57067419109E+02  0.51100000000E-03 0. -1.
         23    2    1    0    0    0  0.20878901818E+02  0.50589320494E+01 -0.17413735638E+02  0.97345714193E+02  0.93335033874E+02 0.  0.
         11    1    3    3    0    0 -0.34211586855E+02 -0.97586636038E+01 -0.18885890611E+02  0.40278295085E+02  0.51100000000E-03 0.  1.
         22    1    1    0    0    0 -0.20878901818E+02 -0.50589320494E+01  0.17413735638E+02  0.27654285807E+02  0.00000000000E+00 0. -1.
</event>
<event>
 5    1  0.1691138E-003  0.9118800E+02  0.7818608E-02  0.1130116E+00
         25   -1    0    0    0    0  0.00000000000E+00  0.00000000000E+00  0.99999998245E-14  0.12500000000E+03  0.12500000000E+03 0.  0.
        -11    1    3    3    0    0 -0.76402284494E+01  0.43421273364E+02 -0.29024107185E+02  0.52784267253E+02  0.51100000000E-03 0. -1.
         23    2    1    0    0    0 -0.16210380065E+02  0.21494462449E+02  0.82253442422E+01  0.96849607006E+02  0.92668234857E+02 0.  0.
         11    1    3    3    0    0 -0.85701516160E+01 -0.21926810915E+02  0.37249451427E+02  0.44065339753E+02  0.51100000000E-03 0.  1.
         22    1    1    0    0    0  0.16210380065E+02 -0.21494462449E+02 -0.82253442422E+01  0.28150392994E+02  0.00000000000E+00 0. -1.
</event>
<event>
 5    1  0.1691138E-003  0.9118800E+02  0.7818608E-02  0.1130116E+00
         25   -1    0    0    0    0  0.00000000000E+00  0.00000000000E+00  0.99999998245E-14  0.12500000000E+03  0.12500000000E+03 0.  0.
        -11    1    3    3    0    0  0.52830279356E+01  0.24079196696E+02  0.29639486953E+02  0.38551488750E+02  0.51100000000E-03 0.  1.
         23    2    1    0    0    0  0.21639026883E+02 -0.18868253689E+02 -0.46834667500E+01  0.95910597419E+02  0.91392829887E+02 0.  0.
         11    1    3    3    0    0  0.16355998947E+02 -0.42947450385E+02 -0.34322953703E+02  0.57359108669E+02  0.51100000000E-03 0. -1.
         22    1    1    0    0    0 -0.21639026883E+02  0.18868253689E+02  0.46834667500E+01  0.29089402581E+02  0.00000000000E+00 0. -1.
</event>
<event>
 5    1  0.1691138E-003  0.9118800E+02  0.7818608E-02  0.1130116E+00
         25   -1    0    0    0    0  0.00000000000E+00  0.00000000000E+00  0.99999998245E-14  0.12500000000E+03  0.12500000000E+03 0.  0.
        -11    1    3    3    0    0  0.38229593064E+02  0.16587536006E+02 -0.74274255457E+01  0.42329833298E+02  0.51100000000E-03 0.  1.
         23    2    1    0    0    0 -0.15061413824E+02  0.23796011204E+02 -0.64196571715E+01  0.96115603974E+02  0.91672793093E+02 0.  0.
         11    1    3    3    0    0 -0.53291006888E+02  0.72084751983E+01  0.10077683742E+01  0.53785770675E+02  0.51100000000E-03 0. -1.
         22    1    1    0    0    0  0.15061413824E+02 -0.23796011204E+02  0.64196571715E+01  0.28884396026E+02  0.00000000000E+00 0. -1.
</event>
<event>
 5    1  0.1691138E-003  0.9118800E+02  0.7818608E-02  0.1130116E+00
         25   -1    0    0    0    0  0.00000000000E+00  0.00000000000E+00  0.99999998245E-14  0.12500000000E+03  0.12500000000E+03 0.  0.
        -11    1    3    3    0    0  0.18733237482E+02  0.17681482641E+02  0.46585806031E+02  0.53233507669E+02  0.51100000000E-03 0. -1.
         23    2    1    0    0    0  0.16891500578E+02  0.22682823346E+02  0.36670406489E+01  0.96481927593E+02  0.92170938468E+02 0.  0.
         11    1    3    3    0    0 -0.18417369037E+01  0.50013407046E+01 -0.42918765382E+02  0.43248419923E+02  0.51100000000E-03 0.  1.
         22    1    1    0    0    0 -0.16891500578E+02 -0.22682823346E+02 -0.36670406489E+01  0.28518072407E+02  0.00000000000E+00 0. -1.
</event>
<event>
 5    1  0.1691138E-003  0.9118800E+02  0.7818608E-02  0.1130116E+00
         25   -1    0    0    0    0  0.00000000000E+00  0.00000000000E+00  0.99999998245E-14  0.12500000000E+03  0.12500000000E+03 0.  0.
        -11    1    3    3    0    0 -0.12781721477E+02  0.28806214271E+02  0.38927523767E+02  0.50085152405E+02  0.51100000000E-03 0. -1.
         23    2    1    0    0    0  0.17844787428E+02 -0.14148627712E+01  0.22747992417E+02  0.96053334665E+02  0.91587846717E+02 0.  0.
         11    1    3    3    0    0  0.30626508905E+02 -0.30221077042E+02 -0.16179531351E+02  0.45968182260E+02  0.51100000000E-03 0.  1.
         22    1    1    0    0    0 -0.17844787428E+02  0.14148627712E+01 -0.22747992417E+02  0.28946665335E+02  0.00000000000E+00 0. -1.
</event>
<event>
 5    1  0.1691138E-003  0.9118800E+02  0.7818608E-02  0.1130116E+00
         25   -1    0    0    0    0  0.00000000000E+00  0.00000000000E+00  0.99999998245E-14  0.12500000000E+03  0.12500000000E+03 0.  0.
        -11    1    3    3    0    0  0.48603758376E+02  0.61446343306E+01  0.44232386782E+01  0.49189906485E+02  0.51100000000E-03 0.  1.
         23    2    1    0    0    0  0.11922789413E+02  0.23251319929E+02 -0.15830647570E+02  0.94448630337E+02  0.89370898978E+02 0.  0.
         11    1    3    3    0    0 -0.36680968963E+02  0.17106685598E+02 -0.20253886248E+02  0.45258723851E+02  0.51100000000E-03 0. -1.
         22    1    1    0    0    0 -0.11922789413E+02 -0.23251319929E+02  0.15830647570E+02  0.30551369663E+02  0.00000000000E+00 0.  1.
</event>
<event>
 5    1  0.1691138E-003  0.9118800E+02  0.7818608E-02  0.1130116E+00
         25   -1    0    0    0    0  0.00000000000E+00  0.00000000000E+00  0.99999998245E-14  0.12500000000E+03  0.12500000000E+03 0.  0.
        -11    1    3    3    0    0 -0.27478241226E+01  0.37436189408E+02 -0.34353542054E+01  0.37693772345E+02  0.51100000000E-03 0. -1.
         23    2    1    0    0    0  0.18823094104E+02 -0.18601934096E+02  0.41328283351E+01  0.98215282458E+02  0.94492436811E+02 0.  0.
         11    1    3    3    0    0  0.21570918227E+02 -0.56038123505E+02  0.75681825405E+01  0.60521510112E+02  0.51100000000E-03 0.  1.
         22    1    1    0    0    0 -0.18823094104E+02  0.18601934096E+02 -0.41328283351E+01  0.26784717542E+02  0.00000000000E+00 0.  1.
</event>
<event>
 5    1  0.1691138E-003  0.9118800E+02  0.7818608E-02  0.1130116E+00
         25   -1    0    0    0    0  0.00000000000E+00  0.00000000000E+00  0.99999998245E-14  0.12500000000E+03  0.12500000000E+03 0.  0.
        -11    1    3    3    0    0  0.11834034681E+02 -0.36803994558E+02 -0.24846412777E+01  0.38739538391E+02  0.51100000000E-03 0. -1.
         23    2    1    0    0    0 -0.79951433600E+01  0.11351546850E+02 -0.25724247317E+02  0.95767880110E+02  0.91197423360E+02 0.  0.
         11    1    3    3    0    0 -0.19829178041E+02  0.48155541407E+02 -0.23239606040E+02  0.57028341718E+02  0.51100000000E-03 0.  1.
         22    1    1    0    0    0  0.79951433600E+01 -0.11351546850E+02  0.25724247317E+02  0.29232119890E+02  0.00000000000E+00 0.  1.
</event>
<event>
 5    1  0.1691138E-003  0.9118800E+02  0.7818608E-02  0.1130116E+00
         25   -1    0    0    0    0  0.00000000000E+00  0.00000000000E+00  0.99999998245E-14  0.12500000000E+03  0.12500000000E+03 0.  0.
        -11    1    3    3    0    0  0.44086894971E+02  0.64219877207E+01 -0.43792127447E+02  0.62471166638E+02  0.51100000000E-03 0.  1.
         23    2    1    0    0    0  0.20907819159E+02  0.33426119102E+01 -0.18981378392E+02  0.96564060029E+02  0.92282257273E+02 0.  0.
         11    1    3    3    0    0 -0.23179075812E+02 -0.30793758105E+01  0.24810749055E+02  0.34092893392E+02  0.51100000000E-03 0. -1.
         22    1    1    0    0    0 -0.20907819159E+02 -0.33426119102E+01  0.18981378392E+02  0.28435939971E+02  0.00000000000E+00 0.  1.
</event>
<event>
 5    1  0.1691138E-003  0.9118800E+02  0.7818608E-02  0.1130116E+00
         25   -1    0    0    0    0  0.00000000000E+00  0.00000000000E+00  0.99999998245E-14  0.12500000000E+03  0.12500000000E+03 0.  0.
        -11    1    3    3    0    0  0.24880864140E+02  0.48205086230E+02 -0.14308885906E+02  0.56102869400E+02  0.51100000000E-03 0. -1.
         23    2    1    0    0    0  0.23663040237E+02  0.95947491342E+01 -0.16168558061E+02  0.94777145172E+02  0.89829206236E+02 0.  0.
         11    1    3    3    0    0 -0.12178239028E+01 -0.38610337096E+02 -0.18596721549E+01  0.38674275772E+02  0.51100000000E-03 0.  1.
         22    1    1    0    0    0 -0.23663040237E+02 -0.95947491342E+01  0.16168558061E+02  0.30222854828E+02  0.00000000000E+00 0. -1.
</event>
<event>
 5    1  0.1691138E-003  0.9118800E+02  0.7818608E-02  0.1130116E+00
         25   -1    0    0    0    0  0.00000000000E+00  0.00000000000E+00  0.99999998245E-14  0.12500000000E+03  0.12500000000E+03 0.  0.
        -11    1    3    3    0    0 -0.17363882724E+02  0.51438456509E+02 -0.72027457078E+01  0.54765854118E+02  0.51100000000E-03 0.  1.
         23    2    1    0    0    0 -0.26912085628E+02  0.12382588433E+02 -0.19792605998E+01  0.95309827860E+02  0.90567416686E+02 0.  0.
         11    1    3    3    0    0 -0.95482029047E+01 -0.39055868076E+02  0.52234851080E+01  0.40543973742E+02  0.51100000000E-03 0. -1.
         22    1    1    0    0    0  0.26912085628E+02 -0.12382588433E+02  0.19792605998E+01  0.29690172140E+02  0.00000000000E+00 0.  1.
</event>
<event>
 5    1  0.1691138E-003  0.9118800E+02  0.7818608E-02  0.1130116E+00
         25   -1    0    0    0    0  0.00000000000E+00  0.00000000000E+00  0.99999998245E-14  0.12500000000E+03  0.12500000000E+03 0.  0.
        -11    1    3    3    0    0 -0.22511933519E+02 -0.97723587334E+01 -0.25599471875E+02  0.35462925803E+02  0.51100000000E-03 0.  1.
         23    2    1    0    0    0  0.75725883986E+00 -0.58135302495E+01  0.29246181343E+02  0.95171998088E+02  0.90376985578E+02 0.  0.
         11    1    3    3    0    0  0.23269192359E+02  0.39588284839E+01  0.54845653218E+02  0.59709072285E+02  0.51100000000E-03 0. -1.
         22    1    1    0    0    0 -0.75725883986E+00  0.58135302495E+01 -0.29246181343E+02  0.29828001912E+02  0.00000000000E+00 0. -1.
</event>
<event>
 5    1  0.1691138E-003  0.9118800E+02  0.7818608E-02  0.1130116E+00
         25   -1    0    0    0    0  0.00000000000E+00  0.00000000000E+00  0.99999998245E-14  0.12500000000E+03  0.12500000000E+03 0.  0.
        -11    1    3    3    0    0 -0.18883238735E+02 -0.51243941609E+01 -0.38849264449E+02  0.43498292715E+02  0.51100000000E-03 0.  1.
         23    2    1    0    0    0 -0.20779172218E+02  0.22451578950E+02  0.36456152937E+01  0.94191918166E+02  0.89011120326E+02 0.  0.
         11    1    3    3    0    0 -0.18959334822E+01  0.27575973111E+02  0.42494879743E+02  0.50693625451E+02  0.51100000000E-03 0. -1.
         22    1    1    0    0    0  0.20779172218E+02 -0.22451578950E+02 -0.36456152937E+01  0.30808081834E+02  0.00000000000E+00 0. -1.
</event>
<event>
 5    1  0.1691138E-003  0.9118800E+02  0.7818608E-02  0.1130116E+00
         25   -1    0    0    0    0  0.00000000000E+00  0.00000000000E+00  0.99999998245E-14  0.12500000000E+03  0.12500000000E+03 0.  0.
        -11    1    3    3    0    0 -0.11930907265E+02  0.55140271441E+02 -0.69569798141E+01  0.56843606950E+02  0.51100000000E-03 0.  1.
         23    2    1    0    0    0 -0.91909922295E+01  0.19064447872E+02 -0.20557409229E+02  0.95495176919E+02  0.90822872834E+02 0.  0.
         11    1    3    3    0    0  0.27399150358E+01 -0.36075823568E+02 -0.13600429414E+02  0.38651569969E+02  0.51100000000E-03 0. -1.
         22    1    1    0    0    0  0.91909922295E+01 -0.19064447872E+02  0.20557409229E+02  0.29504823081E+02  0.00000000000E+00 0.  1.
</event>
<event>
 5    1  0.1691138E-003  0.9118800E+02  0.7818608E-02  0.1130116E+00
         25   -1    0    0    0    0  0.00000000000E+00  0.00000000000E+00  0.99999998245E-14  0.12500000000E+03  0.12500000000E+03 0.  0.
        -11    1    3    3    0    0  0.33318130931E+02 -0.31294959413E+02 -0.26238323935E+01  0.45785989452E+02  0.51100000000E-03 0. -1.
         23    2    1    0    0    0 -0.11844369340E+02 -0.11554884853E+02  0.19168920512E+02  0.99677046724E+02  0.96406751221E+02 0.  0.
         11    1    3    3    0    0 -0.45162500271E+02  0.19740074560E+02  0.21792752906E+02  0.53891057272E+02  0.51100000000E-03 0.  1.
         22    1    1    0    0    0  0.11844369340E+02  0.11554884853E+02 -0.19168920512E+02  0.25322953276E+02  0.00000000000E+00 0.  1.
</event>
<event>
 5    1  0.1691138E-003  0.9118800E+02  0.7818608E-02  0.1130116E+00
         25   -1    0    0    0    0  0.00000000000E+00  0.00000000000E+00  0.99999998245E-14  0.12500000000E+03  0.12500000000E+03 0.  0.
        -11    1    3    3    0    0 -0.50391511533E+01 -0.30589914688E+02 -0.17931768114E+02  0.35814581290E+02  0.51100000000E-03 0. -1.
         23    2    1    0    0    0  0.18984911310E+02  0.10339882490E+02  0.19210068774E+02  0.96079993609E+02  0.91624223884E+02 0.  0.
         11    1    3    3    0    0  0.24024062463E+02  0.40929797179E+02  0.37141836888E+02  0.60265412319E+02  0.51100000000E-03 0.  1.
         22    1    1    0    0    0 -0.18984911310E+02 -0.10339882490E+02 -0.19210068774E+02  0.28920006391E+02  0.00000000000E+00 0.  1.
</event>
<event>
 5    1  0.1691138E-003  0.9118800E+02  0.7818608E-02  0.1130116E+00
         25   -1    0    0    0    0  0.00000000000E+00  0.00000000000E+00  0.99999998245E-14  0.12500000000E+03  0.12500000000E+03 0.  0.
        -11    1    3    3    0    0  0.45585756401E+02  0.70632634156E+01  0.39685307887E+02  0.60851249281E+02  0.51100000000E-03 0. -1.
         23    2    1    0    0    0  0.15216395099E+02 -0.25082573537E+01  0.24310008172E+02  0.96210999807E+02  0.91802777473E+02 0.  0.
         11    1    3    3    0    0 -0.30369361302E+02 -0.95715207693E+01 -0.15375299715E+02  0.35359750526E+02  0.51100000000E-03 0.  1.
         22    1    1    0    0    0 -0.15216395099E+02  0.25082573537E+01 -0.24310008172E+02  0.28789000193E+02  0.00000000000E+00 0. -1.
</event>
<event>
 5    1  0.1691138E-003  0.9118800E+02  0.7818608E-02  0.1130116E+00
         25   -1    0    0    0    0  0.00000000000E+00  0.00000000000E+00  0.99999998245E-14  0.12500000000E+03  0.12500000000E+03 0.  0.
        -11    1    3    3    0    0  0.59928267590E+02 -0.81763154442E+01  0.36581478111E+01  0.60593988450E+02  0.51100000000E-03 0. -1.
         23    2    1    0    0    0  0.29127031159E+02  0.20865856508E+01 -0.73712631506E+01  0.94882342318E+02  0.89975472100E+02 0.  0.
         11    1    3    3    0    0 -0.30801236432E+02  0.10262901095E+02 -0.11029410962E+02  0.34288353869E+02  0.51100000000E-03 0.  1.
         22    1    1    0    0    0 -0.29127031159E+02 -0.20865856508E+01  0.73712631506E+01  0.30117657682E+02  0.00000000000E+00 0. -1.
</event>
<event>
 5    1  0.1691138E-003  0.9118800E+02  0.7818608E-02  0.1130116E+00
         25   -1    0    0    0    0  0.00000000000E+00  0.00000000000E+00  0.99999998245E-14  0.12500000000E+03  0.12500000000E+03 0.  0.
        -11    1    3    3    0    0 -0.14525044503E+01  0.19058952595E+02 -0.55415587850E+02  0.58619457693E+02  0.51100000000E-03 0.  1.
         23    2    1    0    0    0 -0.51287912761E+01 -0.60431038385E+01 -0.27678360010E+02  0.96209112261E+02  0.91800207327E+02 0.  0.
         11    1    3    3    0    0 -0.36762868258E+01 -0.25102056433E+02  0.27737227840E+02  0.37589654568E+02  0.51100000000E-03 0. -1.
         22    1    1    0    0    0  0.51287912761E+01  0.60431038385E+01  0.27678360010E+02  0.28790887739E+02  0.00000000000E+00 0.  1.
</event>
<event>
 5    1  0.1691138E-003  0.9118800E+02  0.7818608E-02  0.1130116E+00
         25   -1    0    0    0    0  0.00000000000E+00  0.00000000000E+00  0.99999998245E-14  0.12500000000E+03  0.12500000000E+03 0.  0.
        -11    1    3    3    0    0 -0.24518171567E+02 -0.44595000476E+01 -0.25857334736E+02  0.35911413750E+02  0.51100000000E-03 0.  1.
         23    2    1    0    0    0  0.17759023160E+02 -0.17404240628E+02  0.14872075376E+02  0.96026406481E+02  0.91551087488E+02 0.  0.
         11    1    3    3    0    0  0.42277194727E+02 -0.12944740580E+02  0.40729410111E+02  0.60114992730E+02  0.51100000000E-03 0. -1.
         22    1    1    0    0    0 -0.17759023160E+02  0.17404240628E+02 -0.14872075376E+02  0.28973593519E+02  0.00000000000E+00 0. -1.
</event>
<event>
 5    1  0.1691138E-003  0.9118800E+02  0.7818608E-02  0.1130116E+00
         25   -1    0    0    0    0  0.00000000000E+00  0.00000000000E+00  0.99999998245E-14  0.12500000000E+03  0.12500000000E+03 0.  0.
        -11    1    3    3    0    0 -0.59187160402E+02  0.94794220336E+01 -0.37316513597E+01  0.60057510943E+02  0.51100000000E-03 0. -1.
         23    2    1    0    0    0 -0.27895440456E+02  0.81570184091E+01 -0.13623087914E+02  0.92902008289E+02  0.87180858405E+02 0.  0.
         11    1    3    3    0    0  0.31291719946E+02 -0.13224036245E+01 -0.98914365543E+01  0.32844497346E+02  0.51100000000E-03 0.  1.
         22    1    1    0    0    0  0.27895440456E+02 -0.81570184091E+01  0.13623087914E+02  0.32097991711E+02  0.00000000000E+00 0. -1.
</event>
<event>
 5    1  0.1691138E-003  0.9118800E+02  0.7818608E-02  0.1130116E+00
         25   -1    0    0    0    0  0.00000000000E+00  0.00000000000E+00  0.99999998245E-14  0.12500000000E+03  0.12500000000E+03 0.  0.
        -11    1    3    3    0    0  0.34270782360E+02  0.44406966855E+02  0.25255067857E+02  0.61516531775E+02  0.51100000000E-03 0. -1.
         23    2    1    0    0    0  0.13151791825E+02  0.25098474354E+02  0.59172087217E+01  0.96053214303E+02  0.91587682446E+02 0.  0.
         11    1    3    3    0    0 -0.21118990535E+02 -0.19308492501E+02 -0.19337859136E+02  0.34536682529E+02  0.51100000000E-03 0.  1.
         22    1    1    0    0    0 -0.13151791825E+02 -0.25098474354E+02 -0.59172087217E+01  0.28946785697E+02  0.00000000000E+00 0. -1.
</event>
<event>
 5    1  0.1691138E-003  0.9118800E+02  0.7818608E-02  0.1130116E+00
         25   -1    0    0    0    0  0.00000000000E+00  0.00000000000E+00  0.99999998245E-14  0.12500000000E+03  0.12500000000E+03 0.  0.
        -11    1    3    3    0    0 -0.37752102200E+01 -0.43620663729E+02 -0.41162660014E+02  0.60094750986E+02  0.51100000000E-03 0.  1.
         23    2    1    0    0    0 -0.52679199887E+01 -0.10950061943E+02 -0.26320914004E+02  0.96009564482E+02  0.91528089243E+02 0.  0.
         11    1    3    3    0    0 -0.14927097687E+01  0.32670601787E+02  0.14841746010E+02  0.35914813496E+02  0.51100000000E-03 0. -1.
         22    1    1    0    0    0  0.52679199887E+01  0.10950061943E+02  0.26320914004E+02  0.28990435518E+02  0.00000000000E+00 0.  1.
</event>
<event>
 5    1  0.1691138E-003  0.9118800E+02  0.7818608E-02  0.1130116E+00
         25   -1    0    0    0    0  0.00000000000E+00  0.00000000000E+00  0.99999998245E-14  0.12500000000E+03  0.12500000000E+03 0.  0.
        -11    1    3    3    0    0 -0.22270200446E+01 -0.43623545216E+02  0.15253636627E+02  0.46267123815E+02  0.51100000000E-03 0. -1.
         23    2    1    0    0    0  0.41955405890E+01  0.32331875464E+01  0.29000840623E+02  0.95519416231E+02  0.90856227402E+02 0.  0.
         11    1    3    3    0    0  0.64225606336E+01  0.46856732763E+02  0.13747203995E+02  0.49252292416E+02  0.51100000000E-03 0.  1.
         22    1    1    0    0    0 -0.41955405890E+01 -0.32331875464E+01 -0.29000840623E+02  0.29480583769E+02  0.00000000000E+00 0.  1.
</event>
<event>
 5    1  0.1691138E-003  0.9118800E+02  0.7818608E-02  0.1130116E+00
         25   -1    0    0    0    0  0.00000000000E+00  0.00000000000E+00  0.99999998245E-14  0.12500000000E+03  0.12500000000E+03 0.  0.
        -11    1    3    3    0    0 -0.24046367758E+02 -0.48987082714E+02 -0.16290760958E+02  0.56950425530E+02  0.51100000000E-03 0.  1.
         23    2    1    0    0    0 -0.16494968799E+02 -0.21418700593E+02  0.10376937558E+02  0.96042694119E+02  0.91573323244E+02 0.  0.
         11    1    3    3    0    0  0.75513989595E+01  0.27568382122E+02  0.26667698516E+02  0.39092268589E+02  0.51100000000E-03 0. -1.
         22    1    1    0    0    0  0.16494968799E+02  0.21418700593E+02 -0.10376937558E+02  0.28957305881E+02  0.00000000000E+00 0.  1.
</event>
<event>
 5    1  0.1691138E-003  0.9118800E+02  0.7818608E-02  0.1130116E+00
         25   -1    0    0    0    0  0.00000000000E+00  0.00000000000E+00  0.99999998245E-14  0.12500000000E+03  0.12500000000E+03 0.  0.
        -11    1    3    3    0    0 -0.33629596091E+02 -0.42579838870E+02  0.42128538481E+01  0.54421875650E+02  0.51100000000E-03 0.  1.
         23    2    1    0    0    0 -0.11307766180E+02 -0.14310389259E+02  0.23478024064E+02  0.95270041529E+02  0.90512487439E+02 0.  0.
         11    1    3    3    0    0  0.22321829912E+02  0.28269449612E+02  0.19265170216E+02  0.40848165879E+02  0.51100000000E-03 0. -1.
         22    1    1    0    0    0  0.11307766180E+02  0.14310389259E+02 -0.23478024064E+02  0.29729958471E+02  0.00000000000E+00 0.  1.
</event>
<event>
 5    1  0.1691138E-003  0.9118800E+02  0.7818608E-02  0.1130116E+00
         25   -1    0    0    0    0  0.00000000000E+00  0.00000000000E+00  0.99999998245E-14  0.12500000000E+03  0.12500000000E+03 0.  0.
        -11    1    3    3    0    0  0.50744069297E+02  0.13290202040E+02 -0.18328554023E+02  0.55565510273E+02  0.51100000000E-03 0.  1.
         23    2    1    0    0    0  0.11161430913E+02  0.21538637372E+02 -0.15742084408E+02  0.96081084713E+02  0.91625712429E+02 0.  0.
         11    1    3    3    0    0 -0.39582638384E+02  0.82484353321E+01  0.25864696152E+01  0.40515574440E+02  0.51100000000E-03 0. -1.
         22    1    1    0    0    0 -0.11161430913E+02 -0.21538637372E+02  0.15742084408E+02  0.28918915287E+02  0.00000000000E+00 0.  1.
</event>
<event>
 5    1  0.1691138E-003  0.9118800E+02  0.7818608E-02  0.1130116E+00
         25   -1    0    0    0    0  0.00000000000E+00  0.00000000000E+00  0.99999998245E-14  0.12500000000E+03  0.12500000000E+03 0.  0.
        -11    1    3    3    0    0  0.46343519163E+02 -0.14770858490E+02  0.24980650060E+02  0.54680278955E+02  0.51100000000E-03 0.  1.
         23    2    1    0    0    0  0.11911873215E+02 -0.26093706196E+02  0.56272713166E+01  0.95769187336E+02  0.91199215095E+02 0.  0.
         11    1    3    3    0    0 -0.34431645948E+02 -0.11322847706E+02 -0.19353378743E+02  0.41088908380E+02  0.51100000000E-03 0. -1.
         22    1    1    0    0    0 -0.11911873215E+02  0.26093706196E+02 -0.56272713166E+01  0.29230812664E+02  0.00000000000E+00 0.  1.
</event>
<event>
 5    1  0.1691138E-003  0.9118800E+02  0.7818608E-02  0.1130116E+00
         25   -1    0    0    0    0  0.00000000000E+00  0.00000000000E+00  0.99999998245E-14  0.12500000000E+03  0.12500000000E+03 0.  0.
        -11    1    3    3    0    0  0.41887061649E+02  0.29489162366E+02  0.34455375589E+02  0.61735804343E+02  0.51100000000E-03 0.  1.
         23    2    1    0    0    0  0.14796278528E+02  0.18164424510E+02  0.18463850734E+02  0.95170652706E+02  0.90375124766E+02 0.  0.
         11    1    3    3    0    0 -0.27090783121E+02 -0.11324737855E+02 -0.15991524854E+02  0.33434848363E+02  0.51100000000E-03 0. -1.
         22    1    1    0    0    0 -0.14796278528E+02 -0.18164424510E+02 -0.18463850734E+02  0.29829347294E+02  0.00000000000E+00 0.  1.
</event>
<event>
 5    1  0.1691138E-003  0.9118800E+02  0.7818608E-02  0.1130116E+00
         25   -1    0    0    0    0  0.00000000000E+00  0.00000000000E+00  0.99999998245E-14  0.12500000000E+03  0.12500000000E+03 0.  0.
        -11    1    3    3    0    0 -0.26906249965E+02  0.13980346806E+02  0.53370072772E+02  0.61382090645E+02  0.51100000000E-03 0.  1.
         23    2    1    0    0    0 -0.56646865361E+01  0.33868504063E+01  0.28437030241E+02  0.95807122133E+02  0.91251194695E+02 0.  0.
         11    1    3    3    0    0  0.21241563429E+02 -0.10593496400E+02 -0.24933042531E+02  0.34425031488E+02  0.51100000000E-03 0. -1.
         22    1    1    0    0    0  0.56646865361E+01 -0.33868504063E+01 -0.28437030241E+02  0.29192877867E+02  0.00000000000E+00 0.  1.
</event>
<event>
 5    1  0.1691138E-003  0.9118800E+02  0.7818608E-02  0.1130116E+00
         25   -1    0    0    0    0  0.00000000000E+00  0.00000000000E+00  0.99999998245E-14  0.12500000000E+03  0.12500000000E+03 0.  0.
        -11    1    3    3    0    0 -0.14765036939E+02 -0.54666597875E+02 -0.73951798042E+01  0.57106321223E+02  0.51100000000E-03 0. -1.
         23    2    1    0    0    0 -0.18242380482E+02 -0.15141298988E+02 -0.14202342529E+02  0.97363974345E+02  0.93359485786E+02 0.  0.
         11    1    3    3    0    0 -0.34773435436E+01  0.39525298887E+02 -0.68071627244E+01  0.40257653122E+02  0.51100000000E-03 0.  1.
         22    1    1    0    0    0  0.18242380482E+02  0.15141298988E+02  0.14202342529E+02  0.27636025655E+02  0.00000000000E+00 0. -1.
</event>
<event>
 5    1  0.1691138E-003  0.9118800E+02  0.7818608E-02  0.1130116E+00
         25   -1    0    0    0    0  0.00000000000E+00  0.00000000000E+00  0.99999998245E-14  0.12500000000E+03  0.12500000000E+03 0.  0.
        -11    1    3    3    0    0 -0.43090431620E+02 -0.10750299873E+02  0.12193424072E+02  0.46054683099E+02  0.51100000000E-03 0.  1.
         23    2    1    0    0    0 -0.10008455088E+02  0.26401536114E+02  0.52064270165E+01  0.96289075865E+02  0.91909025488E+02 0.  0.
         11    1    3    3    0    0  0.33081976531E+02  0.37151835987E+02 -0.69869970551E+01  0.50234392765E+02  0.51100000000E-03 0. -1.
         22    1    1    0    0    0  0.10008455088E+02 -0.26401536114E+02 -0.52064270165E+01  0.28710924135E+02  0.00000000000E+00 0. -1.
</event>
<event>
 5    1  0.1691138E-003  0.9118800E+02  0.7818608E-02  0.1130116E+00
         25   -1    0    0    0    0  0.00000000000E+00  0.00000000000E+00  0.99999998245E-14  0.12500000000E+03  0.12500000000E+03 0.  0.
        -11    1    3    3    0    0  0.25959001882E+02 -0.12007823669E+02  0.27768963138E+02  0.39864431791E+02  0.51100000000E-03 0.  1.
         23    2    1    0    0    0  0.29752604831E+02  0.23626007547E+02 -0.27141134856E+01  0.86910997140E+02  0.78120095271E+02 0.  0.
         11    1    3    3    0    0  0.37936029483E+01  0.35633831216E+02 -0.30483076624E+02  0.47046565349E+02  0.51100000000E-03 0. -1.
         22    1    1    0    0    0 -0.29752604831E+02 -0.23626007547E+02  0.27141134856E+01  0.38089002860E+02  0.00000000000E+00 0. -1.
</event>
<event>
 5    1  0.1691138E-003  0.9118800E+02  0.7818608E-02  0.1130116E+00
         25   -1    0    0    0    0  0.00000000000E+00  0.00000000000E+00  0.99999998245E-14  0.12500000000E+03  0.12500000000E+03 0.  0.
        -11    1    3    3    0    0 -0.31885719187E+02  0.29149914581E+01  0.15019126980E+02  0.35366233031E+02  0.51100000000E-03 0.  1.
         23    2    1    0    0    0  0.13415388721E+02 -0.19178805007E+02 -0.17872916887E+02  0.95551054788E+02  0.90899745308E+02 0.  0.
         11    1    3    3    0    0  0.45301107908E+02 -0.22093796466E+02 -0.32892043866E+02  0.60184821757E+02  0.51100000000E-03 0. -1.
         22    1    1    0    0    0 -0.13415388721E+02  0.19178805007E+02  0.17872916887E+02  0.29448945212E+02  0.00000000000E+00 0. -1.
</event>
<event>
 5    1  0.1691138E-003  0.9118800E+02  0.7818608E-02  0.1130116E+00
         25   -1    0    0    0    0  0.00000000000E+00  0.00000000000E+00  0.99999998245E-14  0.12500000000E+03  0.12500000000E+03 0.  0.
        -11    1    3    3    0    0 -0.38550593271E+02 -0.47888569873E+02 -0.66980229228E+00  0.61480988943E+02  0.51100000000E-03 0. -1.
         23    2    1    0    0    0 -0.25337130264E+02 -0.21072947122E+02 -0.49327145113E+01  0.91677771040E+02  0.85407509974E+02 0.  0.
         11    1    3    3    0    0  0.13213463007E+02  0.26815622751E+02 -0.42629122190E+01  0.30196782097E+02  0.51100000000E-03 0.  1.
         22    1    1    0    0    0  0.25337130264E+02  0.21072947122E+02  0.49327145113E+01  0.33322228960E+02  0.00000000000E+00 0. -1.
</event>
<event>
 5    1  0.1691138E-003  0.9118800E+02  0.7818608E-02  0.1130116E+00
         25   -1    0    0    0    0  0.00000000000E+00  0.00000000000E+00  0.99999998245E-14  0.12500000000E+03  0.12500000000E+03 0.  0.
        -11    1    3    3    0    0 -0.27375389435E+02 -0.34318828002E+02  0.17844247632E+02  0.47387878998E+02  0.51100000000E-03 0.  1.
         23    2    1    0    0    0  0.65865285704E+01 -0.12402929507E+02  0.31871280668E+02  0.90171943058E+02  0.83174429751E+02 0.  0.
         11    1    3    3    0    0  0.33961918005E+02  0.21915898495E+02  0.14027033036E+02  0.42784064060E+02  0.51100000000E-03 0. -1.
         22    1    1    0    0    0 -0.65865285704E+01  0.12402929507E+02 -0.31871280668E+02  0.34828056942E+02  0.00000000000E+00 0. -1.
</event>
<event>
 5    1  0.1691138E-003  0.9118800E+02  0.7818608E-02  0.1130116E+00
         25   -1    0    0    0    0  0.00000000000E+00  0.00000000000E+00  0.99999998245E-14  0.12500000000E+03  0.12500000000E+03 0.  0.
        -11    1    3    3    0    0  0.21791823213E+02  0.23165017198E+02  0.40337093968E+02  0.51367136681E+02  0.51100000000E-03 0. -1.
         23    2    1    0    0    0  0.60316624645E+01 -0.14800432465E+02  0.25173770800E+02  0.95181339911E+02  0.90389905286E+02 0.  0.
         11    1    3    3    0    0 -0.15760160749E+02 -0.37965449663E+02 -0.15163323168E+02  0.43814203230E+02  0.51100000000E-03 0.  1.
         22    1    1    0    0    0 -0.60316624645E+01  0.14800432465E+02 -0.25173770800E+02  0.29818660089E+02  0.00000000000E+00 0. -1.
</event>
<event>
 5    1  0.1691138E-003  0.9118800E+02  0.7818608E-02  0.1130116E+00
         25   -1    0    0    0    0  0.00000000000E+00  0.00000000000E+00  0.99999998245E-14  0.12500000000E+03  0.12500000000E+03 0.  0.
        -11    1    3    3    0    0  0.25789253779E+02  0.24234006515E+02 -0.39976587326E+02  0.53390076014E+02  0.51100000000E-03 0.  1.
         23    2    1    0    0    0  0.24582575836E+01 -0.11511634256E+02 -0.22680104026E+02  0.99447155300E+02  0.96108214140E+02 0.  0.
         11    1    3    3    0    0 -0.23330996195E+02 -0.35745640772E+02  0.17296483299E+02  0.46057079287E+02  0.51100000000E-03 0. -1.
         22    1    1    0    0    0 -0.24582575836E+01  0.11511634256E+02  0.22680104026E+02  0.25552844700E+02  0.00000000000E+00 0. -1.
</event>
<event>
 5    1  0.1691138E-003  0.9118800E+02  0.7818608E-02  0.1130116E+00
         25   -1    0    0    0    0  0.00000000000E+00  0.00000000000E+00  0.99999998245E-14  0.12500000000E+03  0.12500000000E+03 0.  0.
        -11    1    3    3    0    0  0.96014759223E+01 -0.21122019495E+02 -0.31191898226E+02  0.38874960613E+02  0.51100000000E-03 0. -1.
         23    2    1    0    0    0 -0.16844832669E+02 -0.17058738010E+02  0.18100015550E+02  0.94960700856E+02  0.90084267294E+02 0.  0.
         11    1    3    3    0    0 -0.26446308592E+02  0.40632814853E+01  0.49291913777E+02  0.56085740243E+02  0.51100000000E-03 0.  1.
         22    1    1    0    0    0  0.16844832669E+02  0.17058738010E+02 -0.18100015550E+02  0.30039299144E+02  0.00000000000E+00 0.  1.
</event>
<event>
 5    1  0.1691138E-003  0.9118800E+02  0.7818608E-02  0.1130116E+00
         25   -1    0    0    0    0  0.00000000000E+00  0.00000000000E+00  0.99999998245E-14  0.12500000000E+03  0.12500000000E+03 0.  0.
        -11    1    3    3    0    0 -0.13602200206E+02  0.11945544661E+02 -0.25946650394E+02  0.31637707796E+02  0.51100000000E-03 0.  1.
         23    2    1    0    0    0 -0.76361064153E+01 -0.73025112459E+01  0.31108059542E+02  0.92146565474E+02  0.86090890160E+02 0.  0.
         11    1    3    3    0    0  0.59660937904E+01 -0.19248055907E+02  0.57054709936E+02  0.60508857678E+02  0.51100000000E-03 0. -1.
         22    1    1    0    0    0  0.76361064153E+01  0.73025112459E+01 -0.31108059542E+02  0.32853434526E+02  0.00000000000E+00 0. -1.
</event>
<event>
 5    1  0.1691138E-003  0.9118800E+02  0.7818608E-02  0.1130116E+00
         25   -1    0    0    0    0  0.00000000000E+00  0.00000000000E+00  0.99999998245E-14  0.12500000000E+03  0.12500000000E+03 0.  0.
        -11    1    3    3    0    0 -0.51581829530E+02  0.87802164480E+01  0.28313992299E+02  0.59493356761E+02  0.51100000000E-03 0.  1.
         23    2    1    0    0    0 -0.14553020022E+02  0.11673504755E+02  0.20184090795E+02  0.97514392381E+02  0.93560665320E+02 0.  0.
         11    1    3    3    0    0  0.37028809509E+02  0.28932883069E+01 -0.81299015042E+01  0.38021035619E+02  0.51100000000E-03 0. -1.
         22    1    1    0    0    0  0.14553020022E+02 -0.11673504755E+02 -0.20184090795E+02  0.27485607619E+02  0.00000000000E+00 0.  1.
</event>
<event>
 5    1  0.1691138E-003  0.9118800E+02  0.7818608E-02  0.1130116E+00
         25   -1    0    0    0    0  0.00000000000E+00  0.00000000000E+00  0.99999998245E-14  0.12500000000E+03  0.12500000000E+03 0.  0.
        -11    1    3    3    0    0  0.13204278366E+02  0.29758171441E+02  0.16081591381E+02  0.36311421293E+02  0.51100000000E-03 0. -1.
         23    2    1    0    0    0 -0.43837894346E+01 -0.26788057843E+02  0.10874819389E+02  0.95758260149E+02  0.91184236780E+02 0.  0.
         11    1    3    3    0    0 -0.17588067800E+02 -0.56546229284E+02 -0.52067719925E+01  0.59446838856E+02  0.51100000000E-03 0.  1.
         22    1    1    0    0    0  0.43837894346E+01  0.26788057843E+02 -0.10874819389E+02  0.29241739851E+02  0.00000000000E+00 0.  1.
</event>
<event>
 5    1  0.1691138E-003  0.9118800E+02  0.7818608E-02  0.1130116E+00
         25   -1    0    0    0    0  0.00000000000E+00  0.00000000000E+00  0.99999998245E-14  0.12500000000E+03  0.12500000000E+03 0.  0.
        -11    1    3    3    0    0  0.33268929078E+02  0.29688128484E+02  0.71554226506E+01  0.45159790616E+02  0.51100000000E-03 0. -1.
         23    2    1    0    0    0  0.21074294152E+02 -0.14094506233E+02 -0.14809564969E+02  0.95638389102E+02  0.91019763104E+02 0.  0.
         11    1    3    3    0    0 -0.12194634926E+02 -0.43782634717E+02 -0.21964987620E+02  0.50478598486E+02  0.51100000000E-03 0.  1.
         22    1    1    0    0    0 -0.21074294152E+02  0.14094506233E+02  0.14809564969E+02  0.29361610898E+02  0.00000000000E+00 0.  1.
</event>
<event>
 5    1  0.1691138E-003  0.9118800E+02  0.7818608E-02  0.1130116E+00
         25   -1    0    0    0    0  0.00000000000E+00  0.00000000000E+00  0.99999998245E-14  0.12500000000E+03  0.12500000000E+03 0.  0.
        -11    1    3    3    0    0  0.26027561854E+02  0.45443034098E+02  0.14275845087E+02  0.54279858855E+02  0.51100000000E-03 0. -1.
         23    2    1    0    0    0 -0.40659665220E+01  0.27600728840E+02 -0.82710760007E+01  0.95901150977E+02  0.91379908865E+02 0.  0.
         11    1    3    3    0    0 -0.30093528376E+02 -0.17842305258E+02 -0.22546921088E+02  0.41621292122E+02  0.51100000000E-03 0.  1.
         22    1    1    0    0    0  0.40659665220E+01 -0.27600728840E+02  0.82710760007E+01  0.29098849023E+02  0.00000000000E+00 0. -1.
</event>
<event>
 5    1  0.1691138E-003  0.9118800E+02  0.7818608E-02  0.1130116E+00
         25   -1    0    0    0    0  0.00000000000E+00  0.00000000000E+00  0.99999998245E-14  0.12500000000E+03  0.12500000000E+03 0.  0.
        -11    1    3    3    0    0  0.22805708956E+02 -0.25379885312E+02  0.61234726266E+01  0.34666062031E+02  0.51100000000E-03 0.  1.
         23    2    1    0    0    0 -0.22489984121E+02  0.16721273504E+02  0.51001669359E+01  0.96514704213E+02  0.92215378615E+02 0.  0.
         11    1    3    3    0    0 -0.45295693077E+02  0.42101158816E+02 -0.10233056907E+01  0.61848642182E+02  0.51100000000E-03 0. -1.
         22    1    1    0    0    0  0.22489984121E+02 -0.16721273504E+02 -0.51001669359E+01  0.28485295787E+02  0.00000000000E+00 0. -1.
</event>
<event>
 5    1  0.1691138E-003  0.9118800E+02  0.7818608E-02  0.1130116E+00
         25   -1    0    0    0    0  0.00000000000E+00  0.00000000000E+00  0.99999998245E-14  0.12500000000E+03  0.12500000000E+03 0.  0.
        -11    1    3    3    0    0  0.48139642462E+02 -0.28578021209E+02  0.19553921754E+02  0.59299952182E+02  0.51100000000E-03 0. -1.
         23    2    1    0    0    0  0.18660330053E+02 -0.58724764479E+01  0.20688485200E+02  0.96527077473E+02  0.92232149321E+02 0.  0.
         11    1    3    3    0    0 -0.29479312409E+02  0.22705544761E+02  0.11345634463E+01  0.37227125291E+02  0.51100000000E-03 0.  1.
         22    1    1    0    0    0 -0.18660330053E+02  0.58724764479E+01 -0.20688485200E+02  0.28472922527E+02  0.00000000000E+00 0. -1.
</event>
<event>
 5    1  0.1691138E-003  0.9118800E+02  0.7818608E-02  0.1130116E+00
         25   -1    0    0    0    0  0.00000000000E+00  0.00000000000E+00  0.99999998245E-14  0.12500000000E+03  0.12500000000E+03 0.  0.
        -11    1    3    3    0    0 -0.37408197270E+02 -0.41212750730E+01 -0.15098059202E+02  0.40550086599E+02  0.51100000000E-03 0.  1.
         23    2    1    0    0    0  0.19949425936E+02  0.12284078557E+02 -0.46088786594E+01  0.10112281542E+03  0.98263441085E+02 0.  0.
         11    1    3    3    0    0  0.57357623206E+02  0.16405353630E+02  0.10489180543E+02  0.60572728817E+02  0.51100000000E-03 0. -1.
         22    1    1    0    0    0 -0.19949425936E+02 -0.12284078557E+02  0.46088786594E+01  0.23877184584E+02  0.00000000000E+00 0. -1.
</event>
<event>
 5    1  0.1691138E-003  0.9118800E+02  0.7818608E-02  0.1130116E+00
         25   -1    0    0    0    0  0.00000000000E+00  0.00000000000E+00  0.99999998245E-14  0.12500000000E+03  0.12500000000E+03 0.  0.
        -11    1    3    3    0    0 -0.10376131145E+02 -0.15515443287E+02  0.50235464758E+02  0.53590997356E+02  0.51100000000E-03 0. -1.
         23    2    1    0    0    0 -0.87487552093E+00 -0.28030887687E+02  0.12835705895E+02  0.94157635993E+02  0.88962964194E+02 0.  0.
         11    1    3    3    0    0  0.95012556243E+01 -0.12515444401E+02 -0.37399758863E+02  0.40566638637E+02  0.51100000000E-03 0.  1.
         22    1    1    0    0    0  0.87487552093E+00  0.28030887687E+02 -0.12835705895E+02  0.30842364007E+02  0.00000000000E+00 0. -1.
</event>
<event>
 5    1  0.1691138E-003  0.9118800E+02  0.7818608E-02  0.1130116E+00
         25   -1    0    0    0    0  0.00000000000E+00  0.00000000000E+00  0.99999998245E-14  0.12500000000E+03  0.12500000000E+03 0.  0.
        -11    1    3    3    0    0 -0.34878435206E+02 -0.23612025128E+02  0.14667856823E+02  0.44600212971E+02  0.51100000000E-03 0. -1.
         23    2    1    0    0    0  0.70917586205E+01 -0.20315037691E+02 -0.17242338367E+02  0.97426606500E+02  0.93443307011E+02 0.  0.
         11    1    3    3    0    0  0.41970193826E+02  0.32969874367E+01 -0.31910195190E+02  0.52826393529E+02  0.51100000000E-03 0.  1.
         22    1    1    0    0    0 -0.70917586205E+01  0.20315037691E+02  0.17242338367E+02  0.27573393500E+02  0.00000000000E+00 0. -1.
</event>
<event>
 5    1  0.1691138E-003  0.9118800E+02  0.7818608E-02  0.1130116E+00
         25   -1    0    0    0    0  0.00000000000E+00  0.00000000000E+00  0.99999998245E-14  0.12500000000E+03  0.12500000000E+03 0.  0.
        -11    1    3    3    0    0  0.42272892358E+02  0.13293462588E+02  0.11843368615E+02  0.45869150377E+02  0.51100000000E-03 0. -1.
         23    2    1    0    0    0  0.13590922425E+02  0.23885873740E+01 -0.26585926428E+02  0.95046202143E+02  0.90202829977E+02 0.  0.
         11    1    3    3    0    0 -0.28681969933E+02 -0.10904875214E+02 -0.38429295043E+02  0.49177051766E+02  0.51100000000E-03 0.  1.
         22    1    1    0    0    0 -0.13590922425E+02 -0.23885873740E+01  0.26585926428E+02  0.29953797857E+02  0.00000000000E+00 0. -1.
</event>
<event>
 5    1  0.1691138E-003  0.9118800E+02  0.7818608E-02  0.1130116E+00
         25   -1    0    0    0    0  0.00000000000E+00  0.00000000000E+00  0.99999998245E-14  0.12500000000E+03  0.12500000000E+03 0.  0.
        -11    1    3    3    0    0 -0.41652186839E+02 -0.77462342679E+01  0.22296173967E+02  0.47875131202E+02  0.51100000000E-03 0.  1.
         23    2    1    0    0    0  0.41711183410E+01 -0.16739398641E+02  0.24971351062E+02  0.94649150442E+02  0.89650920856E+02 0.  0.
         11    1    3    3    0    0  0.45823305180E+02 -0.89931643730E+01  0.26751770949E+01  0.46774019239E+02  0.51100000000E-03 0. -1.
         22    1    1    0    0    0 -0.41711183410E+01  0.16739398641E+02 -0.24971351062E+02  0.30350849558E+02  0.00000000000E+00 0.  1.
</event>
<event>
 5    1  0.1691138E-003  0.9118800E+02  0.7818608E-02  0.1130116E+00
         25   -1    0    0    0    0  0.00000000000E+00  0.00000000000E+00  0.99999998245E-14  0.12500000000E+03  0.12500000000E+03 0.  0.
        -11    1    3    3    0    0 -0.36321705395E+02  0.39536375407E+02  0.24689198392E+02  0.59092704970E+02  0.51100000000E-03 0. -1.
         23    2    1    0    0    0 -0.52404406968E+01  0.17761857951E+02  0.20659111425E+02  0.97255726691E+02  0.93214439187E+02 0.  0.
         11    1    3    3    0    0  0.31081264698E+02 -0.21774517456E+02 -0.40300869675E+01  0.38163021722E+02  0.51100000000E-03 0.  1.
         22    1    1    0    0    0  0.52404406968E+01 -0.17761857951E+02 -0.20659111425E+02  0.27744273309E+02  0.00000000000E+00 0. -1.
</event>
<event>
 5    1  0.1691138E-003  0.9118800E+02  0.7818608E-02  0.1130116E+00
         25   -1    0    0    0    0  0.00000000000E+00  0.00000000000E+00  0.99999998245E-14  0.12500000000E+03  0.12500000000E+03 0.  0.
        -11    1    3    3    0    0  0.18891175680E+02  0.48624267272E+02  0.30546932020E+02  0.60450896953E+02  0.51100000000E-03 0.  1.
         23    2    1    0    0    0  0.15294040039E+02  0.13498163589E+02  0.17595402803E+02  0.98061063852E+02  0.94288206913E+02 0.  0.
         11    1    3    3    0    0 -0.35971356408E+01 -0.35126103683E+02 -0.12951529217E+02  0.37610166898E+02  0.51100000000E-03 0. -1.
         22    1    1    0    0    0 -0.15294040039E+02 -0.13498163589E+02 -0.17595402803E+02  0.26938936148E+02  0.00000000000E+00 0.  1.
</event>
<event>
 5    1  0.1691138E-003  0.9118800E+02  0.7818608E-02  0.1130116E+00
         25   -1    0    0    0    0  0.00000000000E+00  0.00000000000E+00  0.99999998245E-14  0.12500000000E+03  0.12500000000E+03 0.  0.
        -11    1    3    3    0    0  0.21030124913E+02 -0.81170465919E+01  0.44541290512E+02  0.49920728760E+02  0.51100000000E-03 0. -1.
         23    2    1    0    0    0 -0.13000388325E+02 -0.20026582845E+02  0.13057857919E+02  0.97786367929E+02  0.93923330341E+02 0.  0.
         11    1    3    3    0    0 -0.34030513237E+02 -0.11909536253E+02 -0.31483432593E+02  0.47865639169E+02  0.51100000000E-03 0.  1.
         22    1    1    0    0    0  0.13000388325E+02  0.20026582845E+02 -0.13057857919E+02  0.27213632071E+02  0.00000000000E+00 0. -1.
</event>
<event>
 5    1  0.1691138E-003  0.9118800E+02  0.7818608E-02  0.1130116E+00
         25   -1    0    0    0    0  0.00000000000E+00  0.00000000000E+00  0.99999998245E-14  0.12500000000E+03  0.12500000000E+03 0.  0.
        -11    1    3    3    0    0  0.40311571538E+02 -0.86660989310E+01 -0.33827461117E+02  0.53333115383E+02  0.51100000000E-03 0. -1.
         23    2    1    0    0    0 -0.19207214628E+01 -0.13907632432E+02 -0.24288982473E+02  0.96945301991E+02  0.92797227856E+02 0.  0.
         11    1    3    3    0    0 -0.42232293001E+02 -0.52415335014E+01  0.95384786444E+01  0.43612186608E+02  0.51100000000E-03 0.  1.
         22    1    1    0    0    0  0.19207214628E+01  0.13907632432E+02  0.24288982473E+02  0.28054698009E+02  0.00000000000E+00 0. -1.
</event>
<event>
 5    1  0.1691138E-003  0.9118800E+02  0.7818608E-02  0.1130116E+00
         25   -1    0    0    0    0  0.00000000000E+00  0.00000000000E+00  0.99999998245E-14  0.12500000000E+03  0.12500000000E+03 0.  0.
        -11    1    3    3    0    0 -0.34221634926E+02 -0.67212715364E+01  0.29217128895E+02  0.45496553816E+02  0.51100000000E-03 0. -1.
         23    2    1    0    0    0  0.77890737790E+01  0.21457861219E+01  0.35233280510E+02  0.88852273599E+02  0.81166916905E+02 0.  0.
         11    1    3    3    0    0  0.42010708705E+02  0.88670576583E+01  0.60161516152E+01  0.43355719783E+02  0.51100000000E-03 0.  1.
         22    1    1    0    0    0 -0.77890737790E+01 -0.21457861219E+01 -0.35233280510E+02  0.36147726401E+02  0.00000000000E+00 0. -1.
</event>
<event>
 5    1  0.1691138E-003  0.9118800E+02  0.7818608E-02  0.1130116E+00
         25   -1    0    0    0    0  0.00000000000E+00  0.00000000000E+00  0.99999998245E-14  0.12500000000E+03  0.12500000000E+03 0.  0.
        -11    1    3    3    0    0 -0.42628804553E+02  0.27619387960E+02  0.12100819017E+02  0.52215662305E+02  0.51100000000E-03 0.  1.
         23    2    1    0    0    0  0.17249592331E+01  0.24938258859E+02  0.13335521369E+02  0.96667538592E+02  0.92422316828E+02 0.  0.
         11    1    3    3    0    0  0.44353763786E+02 -0.26811291006E+01  0.12347023521E+01  0.44451876286E+02  0.51100000000E-03 0. -1.
         22    1    1    0    0    0 -0.17249592331E+01 -0.24938258859E+02 -0.13335521369E+02  0.28332461408E+02  0.00000000000E+00 0. -1.
</event>
<event>
 5    1  0.1691138E-003  0.9118800E+02  0.7818608E-02  0.1130116E+00
         25   -1    0    0    0    0  0.00000000000E+00  0.00000000000E+00  0.99999998245E-14  0.12500000000E+03  0.12500000000E+03 0.  0.
        -11    1    3    3    0    0 -0.52647017695E+02  0.27456126538E+02 -0.19436454191E+02  0.62476580479E+02  0.51100000000E-03 0. -1.
         23    2    1    0    0    0 -0.25370447638E+02  0.11872685704E+02 -0.90656221788E+01  0.95558434406E+02  0.90909892759E+02 0.  0.
         11    1    3    3    0    0  0.27276570057E+02 -0.15583440834E+02  0.10370832013E+02  0.33081853926E+02  0.51100000000E-03 0.  1.
         22    1    1    0    0    0  0.25370447638E+02 -0.11872685704E+02  0.90656221788E+01  0.29441565594E+02  0.00000000000E+00 0. -1.
</event>
<event>
 5    1  0.1691138E-003  0.9118800E+02  0.7818608E-02  0.1130116E+00
         25   -1    0    0    0    0  0.00000000000E+00  0.00000000000E+00  0.99999998245E-14  0.12500000000E+03  0.12500000000E+03 0.  0.
        -11    1    3    3    0    0 -0.37373154445E+02  0.39575251016E+02  0.29854308954E+02  0.62082468778E+02  0.51100000000E-03 0. -1.
         23    2    1    0    0    0 -0.21885539329E+02  0.18037955678E+02  0.19610358350E+02  0.90519413703E+02  0.83695002395E+02 0.  0.
         11    1    3    3    0    0  0.15487615116E+02 -0.21537295338E+02 -0.10243950605E+02  0.28436944926E+02  0.51100000000E-03 0.  1.
         22    1    1    0    0    0  0.21885539329E+02 -0.18037955678E+02 -0.19610358350E+02  0.34480586297E+02  0.00000000000E+00 0. -1.
</event>
<event>
 5    1  0.1691138E-003  0.9118800E+02  0.7818608E-02  0.1130116E+00
         25   -1    0    0    0    0  0.00000000000E+00  0.00000000000E+00  0.99999998245E-14  0.12500000000E+03  0.12500000000E+03 0.  0.
        -11    1    3    3    0    0  0.28765675490E+02 -0.38698413451E+01  0.15685236873E+02  0.32991914380E+02  0.51100000000E-03 0. -1.
         23    2    1    0    0    0 -0.25602774887E+02 -0.33105739681E+01 -0.14714900562E+02  0.95284847629E+02  0.90532932721E+02 0.  0.
         11    1    3    3    0    0 -0.54368450377E+02  0.55926737706E+00 -0.30400137435E+02  0.62292933249E+02  0.51100000000E-03 0.  1.
         22    1    1    0    0    0  0.25602774887E+02  0.33105739681E+01  0.14714900562E+02  0.29715152371E+02  0.00000000000E+00 0.  1.
</event>
<event>
 5    1  0.1691138E-003  0.9118800E+02  0.7818608E-02  0.1130116E+00
         25   -1    0    0    0    0  0.00000000000E+00  0.00000000000E+00  0.99999998245E-14  0.12500000000E+03  0.12500000000E+03 0.  0.
        -11    1    3    3    0    0  0.11235252240E+02  0.37571649831E+02 -0.47239508450E+02  0.61395691403E+02  0.51100000000E-03 0.  1.
         23    2    1    0    0    0  0.77741722990E+01  0.10862815263E+02 -0.26270431096E+02  0.95528419446E+02  0.90868613181E+02 0.  0.
         11    1    3    3    0    0 -0.34610799414E+01 -0.26708834568E+02  0.20969077354E+02  0.34132728043E+02  0.51100000000E-03 0. -1.
         22    1    1    0    0    0 -0.77741722990E+01 -0.10862815263E+02  0.26270431096E+02  0.29471580554E+02  0.00000000000E+00 0.  1.
</event>
<event>
 5    1  0.1691138E-003  0.9118800E+02  0.7818608E-02  0.1130116E+00
         25   -1    0    0    0    0  0.00000000000E+00  0.00000000000E+00  0.99999998245E-14  0.12500000000E+03  0.12500000000E+03 0.  0.
        -11    1    3    3    0    0 -0.14945833205E+02  0.88039196426E+01 -0.43020373619E+02  0.46385768053E+02  0.51100000000E-03 0.  1.
         23    2    1    0    0    0  0.16441252611E+02 -0.17697140417E+02 -0.20988363775E+02  0.92999765933E+02  0.87320910917E+02 0.  0.
         11    1    3    3    0    0  0.31387085816E+02 -0.26501060060E+02  0.22032009844E+02  0.46613997880E+02  0.51100000000E-03 0. -1.
         22    1    1    0    0    0 -0.16441252611E+02  0.17697140417E+02  0.20988363775E+02  0.32000234067E+02  0.00000000000E+00 0. -1.
</event>
<event>
 5    1  0.1691138E-003  0.9118800E+02  0.7818608E-02  0.1130116E+00
         25   -1    0    0    0    0  0.00000000000E+00  0.00000000000E+00  0.99999998245E-14  0.12500000000E+03  0.12500000000E+03 0.  0.
        -11    1    3    3    0    0 -0.28752757279E+02  0.11693841831E+02  0.46060697138E+02  0.55543269700E+02  0.51100000000E-03 0.  1.
         23    2    1    0    0    0  0.65799994055E+01  0.69748055497E+01  0.27795857096E+02  0.95596701267E+02  0.90962494012E+02 0.  0.
         11    1    3    3    0    0  0.35332756684E+02 -0.47190362814E+01 -0.18264840041E+02  0.40053431567E+02  0.51100000000E-03 0. -1.
         22    1    1    0    0    0 -0.65799994055E+01 -0.69748055497E+01 -0.27795857096E+02  0.29403298733E+02  0.00000000000E+00 0.  1.
</event>
<event>
 5    1  0.1691138E-003  0.9118800E+02  0.7818608E-02  0.1130116E+00
         25   -1    0    0    0    0  0.00000000000E+00  0.00000000000E+00  0.99999998245E-14  0.12500000000E+03  0.12500000000E+03 0.  0.
        -11    1    3    3    0    0  0.26895083779E+02 -0.67883575153E+01  0.30064130094E+02  0.40905736123E+02  0.51100000000E-03 0.  1.
         23    2    1    0    0    0  0.86853997687E+01 -0.18933587282E+02 -0.20357673057E+02  0.95873521517E+02  0.91342106278E+02 0.  0.
         11    1    3    3    0    0 -0.18209684010E+02 -0.12145229767E+02 -0.50421803151E+02  0.54967785394E+02  0.51100000000E-03 0. -1.
         22    1    1    0    0    0 -0.86853997687E+01  0.18933587282E+02  0.20357673057E+02  0.29126478483E+02  0.00000000000E+00 0. -1.
</event>
<event>
 5    1  0.1691138E-003  0.9118800E+02  0.7818608E-02  0.1130116E+00
         25   -1    0    0    0    0  0.00000000000E+00  0.00000000000E+00  0.99999998245E-14  0.12500000000E+03  0.12500000000E+03 0.  0.
        -11    1    3    3    0    0 -0.22353290373E+02  0.29282340975E+02 -0.64404712559E+01  0.37397924458E+02  0.51100000000E-03 0. -1.
         23    2    1    0    0    0  0.92846955104E+01 -0.89153089025E+01  0.25530732448E+02  0.96407927622E+02  0.92070526801E+02 0.  0.
         11    1    3    3    0    0  0.31637985883E+02 -0.38197649878E+02  0.31971203704E+02  0.59010003164E+02  0.51100000000E-03 0.  1.
         22    1    1    0    0    0 -0.92846955104E+01  0.89153089025E+01 -0.25530732448E+02  0.28592072378E+02  0.00000000000E+00 0. -1.
</event>
<event>
 5    1  0.1691138E-003  0.9118800E+02  0.7818608E-02  0.1130116E+00
         25   -1    0    0    0    0  0.00000000000E+00  0.00000000000E+00  0.99999998245E-14  0.12500000000E+03  0.12500000000E+03 0.  0.
        -11    1    3    3    0    0 -0.30042163605E+02  0.36724176388E+02  0.28670031241E+02  0.55436156225E+02  0.51100000000E-03 0.  1.
         23    2    1    0    0    0  0.52655198432E+01  0.17690568153E+02  0.22303601139E+02  0.96049481446E+02  0.91582587654E+02 0.  0.
         11    1    3    3    0    0  0.35307683448E+02 -0.19033608235E+02 -0.63664301016E+01  0.40613325220E+02  0.51100000000E-03 0. -1.
         22    1    1    0    0    0 -0.52655198432E+01 -0.17690568153E+02 -0.22303601139E+02  0.28950518554E+02  0.00000000000E+00 0.  1.
</event>
<event>
 5    1  0.1691138E-003  0.9118800E+02  0.7818608E-02  0.1130116E+00
         25   -1    0    0    0    0  0.00000000000E+00  0.00000000000E+00  0.99999998245E-14  0.12500000000E+03  0.12500000000E+03 0.  0.
        -11    1    3    3    0    0  0.67473402145E+01  0.31906427871E+02  0.14742974143E+02  0.35789691621E+02  0.51100000000E-03 0.  1.
         23    2    1    0    0    0 -0.18197447241E+02 -0.21851613468E+02  0.81481277300E+01  0.95419058792E+02  0.90718050563E+02 0.  0.
         11    1    3    3    0    0 -0.24944787455E+02 -0.53758041339E+02 -0.65948464134E+01  0.59629367171E+02  0.51100000000E-03 0. -1.
         22    1    1    0    0    0  0.18197447241E+02  0.21851613468E+02 -0.81481277300E+01  0.29580941208E+02  0.00000000000E+00 0. -1.
</event>
<event>
 5    1  0.1691138E-003  0.9118800E+02  0.7818608E-02  0.1130116E+00
         25   -1    0    0    0    0  0.00000000000E+00  0.00000000000E+00  0.99999998245E-14  0.12500000000E+03  0.12500000000E+03 0.  0.
        -11    1    3    3    0    0 -0.43088548187E+01  0.35474927512E+02  0.15027255573E+02  0.38766675408E+02  0.51100000000E-03 0. -1.
         23    2    1    0    0    0 -0.24411407553E+02 -0.15842543238E+02 -0.20599469362E-01  0.95898394902E+02  0.91376138709E+02 0.  0.
         11    1    3    3    0    0 -0.20102552734E+02 -0.51317470751E+02 -0.15047855042E+02  0.57131719494E+02  0.51100000000E-03 0.  1.
         22    1    1    0    0    0  0.24411407553E+02  0.15842543238E+02  0.20599469362E-01  0.29101605098E+02  0.00000000000E+00 0.  1.
</event>
<event>
 5    1  0.1691138E-003  0.9118800E+02  0.7818608E-02  0.1130116E+00
         25   -1    0    0    0    0  0.00000000000E+00  0.00000000000E+00  0.99999998245E-14  0.12500000000E+03  0.12500000000E+03 0.  0.
        -11    1    3    3    0    0 -0.16609920585E+01 -0.44180855901E+01 -0.45236123726E+02  0.45481702529E+02  0.51100000000E-03 0.  1.
         23    2    1    0    0    0 -0.18829073596E+02 -0.21882444537E+02 -0.91674520537E+00  0.96117205586E+02  0.91674976938E+02 0.  0.
         11    1    3    3    0    0 -0.17168081537E+02 -0.17464358947E+02  0.44319378521E+02  0.50635503057E+02  0.51100000000E-03 0. -1.
         22    1    1    0    0    0  0.18829073596E+02  0.21882444537E+02  0.91674520537E+00  0.28882794414E+02  0.00000000000E+00 0.  1.
</event>
<event>
 5    1  0.1691138E-003  0.9118800E+02  0.7818608E-02  0.1130116E+00
         25   -1    0    0    0    0  0.00000000000E+00  0.00000000000E+00  0.99999998245E-14  0.12500000000E+03  0.12500000000E+03 0.  0.
        -11    1    3    3    0    0  0.22430866369E+02 -0.38130496401E+02 -0.21447105972E+02  0.49163572660E+02  0.51100000000E-03 0. -1.
         23    2    1    0    0    0  0.20842970517E+02  0.31533846625E+01 -0.26886872848E+02  0.90834561523E+02  0.84164365267E+02 0.  0.
         11    1    3    3    0    0 -0.15878958524E+01  0.41283881063E+02 -0.54397668756E+01  0.41670988863E+02  0.51100000000E-03 0.  1.
         22    1    1    0    0    0 -0.20842970517E+02 -0.31533846625E+01  0.26886872848E+02  0.34165438477E+02  0.00000000000E+00 0. -1.
</event>
<event>
 5    1  0.1691138E-003  0.9118800E+02  0.7818608E-02  0.1130116E+00
         25   -1    0    0    0    0  0.00000000000E+00  0.00000000000E+00  0.99999998245E-14  0.12500000000E+03  0.12500000000E+03 0.  0.
        -11    1    3    3    0    0  0.12657467736E+02  0.25592414275E+02  0.98433370456E+01  0.30200570232E+02  0.51100000000E-03 0. -1.
         23    2    1    0    0    0 -0.21184544431E+02 -0.11348209813E+02  0.32000172260E+02  0.84980282193E+02  0.74967129785E+02 0.  0.
         11    1    3    3    0    0 -0.33842012166E+02 -0.36940624088E+02  0.22156835215E+02  0.54779711960E+02  0.51100000000E-03 0.  1.
         22    1    1    0    0    0  0.21184544431E+02  0.11348209813E+02 -0.32000172260E+02  0.40019717807E+02  0.00000000000E+00 0.  1.
</event>
<event>
 5    1  0.1691138E-003  0.9118800E+02  0.7818608E-02  0.1130116E+00
         25   -1    0    0    0    0  0.00000000000E+00  0.00000000000E+00  0.99999998245E-14  0.12500000000E+03  0.12500000000E+03 0.  0.
        -11    1    3    3    0    0 -0.29100760794E+02 -0.45209250904E+02 -0.21658479191E+02  0.57963957484E+02  0.51100000000E-03 0.  1.
         23    2    1    0    0    0 -0.53794266756E+00 -0.21660052803E+02 -0.20758735075E+02  0.94993794781E+02  0.90130176385E+02 0.  0.
         11    1    3    3    0    0  0.28562818126E+02  0.23549198101E+02  0.89974411654E+00  0.37029837297E+02  0.51100000000E-03 0. -1.
         22    1    1    0    0    0  0.53794266756E+00  0.21660052803E+02  0.20758735075E+02  0.30006205219E+02  0.00000000000E+00 0.  1.
</event>
<event>
 5    1  0.1691138E-003  0.9118800E+02  0.7818608E-02  0.1130116E+00
         25   -1    0    0    0    0  0.00000000000E+00  0.00000000000E+00  0.99999998245E-14  0.12500000000E+03  0.12500000000E+03 0.  0.
        -11    1    3    3    0    0 -0.12114376793E+02  0.90923250567E+01 -0.38072694865E+02  0.40975097249E+02  0.51100000000E-03 0.  1.
         23    2    1    0    0    0  0.29809087852E+02 -0.22700407194E+01 -0.72438768929E+01  0.94239496820E+02  0.89077910870E+02 0.  0.
         11    1    3    3    0    0  0.41923464645E+02 -0.11362365776E+02  0.30828817972E+02  0.53264399571E+02  0.51100000000E-03 0. -1.
         22    1    1    0    0    0 -0.29809087852E+02  0.22700407194E+01  0.72438768929E+01  0.30760503180E+02  0.00000000000E+00 0. -1.
</event>
<event>
 5    1  0.1691138E-003  0.9118800E+02  0.7818608E-02  0.1130116E+00
         25   -1    0    0    0    0  0.00000000000E+00  0.00000000000E+00  0.99999998245E-14  0.12500000000E+03  0.12500000000E+03 0.  0.
        -11    1    3    3    0    0 -0.17726851199E+02  0.26787223938E+01  0.48681159903E+02  0.51877472345E+02  0.51100000000E-03 0. -1.
         23    2    1    0    0    0  0.17273795031E+02  0.66754316323E+01  0.22992688334E+02  0.95476973410E+02  0.90797815791E+02 0.  0.
         11    1    3    3    0    0  0.35000646230E+02  0.39967092386E+01 -0.25688471569E+02  0.43599501065E+02  0.51100000000E-03 0.  1.
         22    1    1    0    0    0 -0.17273795031E+02 -0.66754316323E+01 -0.22992688334E+02  0.29523026590E+02  0.00000000000E+00 0. -1.
</event>
<event>
 5    1  0.1691138E-003  0.9118800E+02  0.7818608E-02  0.1130116E+00
         25   -1    0    0    0    0  0.00000000000E+00  0.00000000000E+00  0.99999998245E-14  0.12500000000E+03  0.12500000000E+03 0.  0.
        -11    1    3    3    0    0 -0.10811458724E+02  0.39847831772E+02 -0.28321235696E+01  0.41385483697E+02  0.51100000000E-03 0.  1.
         23    2    1    0    0    0  0.18655365043E+02 -0.51048994342E+01 -0.19375043583E+02  0.97623459734E+02  0.93706269446E+02 0.  0.
         11    1    3    3    0    0  0.29466823766E+02 -0.44952731207E+02 -0.16542920014E+02  0.56237976036E+02  0.51100000000E-03 0. -1.
         22    1    1    0    0    0 -0.18655365043E+02  0.51048994342E+01  0.19375043583E+02  0.27376540266E+02  0.00000000000E+00 0. -1.
</event>
<event>
 5    1  0.1691138E-003  0.9118800E+02  0.7818608E-02  0.1130116E+00
         25   -1    0    0    0    0  0.00000000000E+00  0.00000000000E+00  0.99999998245E-14  0.12500000000E+03  0.12500000000E+03 0.  0.
        -11    1    3    3    0    0  0.58421670799E+02 -0.44883399245E+01 -0.14420165214E+02  0.60342174135E+02  0.51100000000E-03 0.  1.
         23    2    1    0    0    0  0.42865206042E+02  0.69446097481E+01 -0.70484066126E+01  0.81007574182E+02  0.68021272743E+02 0.  0.
         11    1    3    3    0    0 -0.15556464757E+02  0.11432949673E+02  0.73717586019E+01  0.20665400047E+02  0.51100000000E-03 0. -1.
         22    1    1    0    0    0 -0.42865206042E+02 -0.69446097481E+01  0.70484066126E+01  0.43992425818E+02  0.00000000000E+00 0.  1.
</event>
<event>
 5    1  0.1691138E-003  0.9118800E+02  0.7818608E-02  0.1130116E+00
         25   -1    0    0    0    0  0.00000000000E+00  0.00000000000E+00  0.99999998245E-14  0.12500000000E+03  0.12500000000E+03 0.  0.
        -11    1    3    3    0    0 -0.44628126104E+02  0.23668136864E+01 -0.37200106001E+02  0.58147393177E+02  0.51100000000E-03 0.  1.
         23    2    1    0    0    0 -0.28600157068E+02 -0.66685082037E+00 -0.27552401649E+01  0.96259696892E+02  0.91869060206E+02 0.  0.
         11    1    3    3    0    0  0.16027969036E+02 -0.30336645068E+01  0.34444865836E+02  0.38112303715E+02  0.51100000000E-03 0. -1.
         22    1    1    0    0    0  0.28600157068E+02  0.66685082037E+00  0.27552401649E+01  0.28740303108E+02  0.00000000000E+00 0.  1.
</event>
<event>
 5    1  0.1691138E-003  0.9118800E+02  0.7818608E-02  0.1130116E+00
         25   -1    0    0    0    0  0.00000000000E+00  0.00000000000E+00  0.99999998245E-14  0.12500000000E+03  0.12500000000E+03 0.  0.
        -11    1    3    3    0    0  0.30896392517E+02 -0.28031703628E+02 -0.12870036118E+02  0.43657774895E+02  0.51100000000E-03 0.  1.
         23    2    1    0    0    0  0.15842352818E+02  0.56801316912E+01  0.23902692789E+02  0.95766752466E+02  0.91195877738E+02 0.  0.
         11    1    3    3    0    0 -0.15054039699E+02  0.33711835319E+02  0.36772728907E+02  0.52108977570E+02  0.51100000000E-03 0. -1.
         22    1    1    0    0    0 -0.15842352818E+02 -0.56801316912E+01 -0.23902692789E+02  0.29233247534E+02  0.00000000000E+00 0.  1.
</event>
<event>
 5    1  0.1691138E-003  0.9118800E+02  0.7818608E-02  0.1130116E+00
         25   -1    0    0    0    0  0.00000000000E+00  0.00000000000E+00  0.99999998245E-14  0.12500000000E+03  0.12500000000E+03 0.  0.
        -11    1    3    3    0    0  0.38658550065E+02 -0.11799595292E+02  0.15585848964E+02  0.43320118079E+02  0.51100000000E-03 0. -1.
         23    2    1    0    0    0 -0.13236957182E+02  0.37747184107E+01  0.23189338307E+02  0.98033150988E+02  0.94251194937E+02 0.  0.
         11    1    3    3    0    0 -0.51895507247E+02  0.15574313702E+02  0.76034893422E+01  0.54713032910E+02  0.51100000000E-03 0.  1.
         22    1    1    0    0    0  0.13236957182E+02 -0.37747184107E+01 -0.23189338307E+02  0.26966849012E+02  0.00000000000E+00 0.  1.
</event>
<event>
 5    1  0.1691138E-003  0.9118800E+02  0.7818608E-02  0.1130116E+00
         25   -1    0    0    0    0  0.00000000000E+00  0.00000000000E+00  0.99999998245E-14  0.12500000000E+03  0.12500000000E+03 0.  0.
        -11    1    3    3    0    0 -0.19406624621E+02  0.36847619077E+01 -0.76476532955E+01  0.21182095049E+02  0.51100000000E-03 0.  1.
         23    2    1    0    0    0  0.11585972471E+02  0.94374227146E+01  0.42240342361E+02  0.80194350486E+02  0.66510056544E+02 0.  0.
         11    1    3    3    0    0  0.30992597092E+02  0.57526608069E+01  0.49887995656E+02  0.59012255437E+02  0.51100000000E-03 0. -1.
         22    1    1    0    0    0 -0.11585972471E+02 -0.94374227146E+01 -0.42240342361E+02  0.44805649514E+02  0.00000000000E+00 0. -1.
</event>
<event>
 5    1  0.1691138E-003  0.9118800E+02  0.7818608E-02  0.1130116E+00
         25   -1    0    0    0    0  0.00000000000E+00  0.00000000000E+00  0.99999998245E-14  0.12500000000E+03  0.12500000000E+03 0.  0.
        -11    1    3    3    0    0 -0.25589519869E+02 -0.33822504436E+02  0.40171243636E+02  0.58416728332E+02  0.51100000000E-03 0.  1.
         23    2    1    0    0    0 -0.98628932499E+00 -0.78538508389E+01  0.27525679751E+02  0.96358792180E+02  0.92003793645E+02 0.  0.
         11    1    3    3    0    0  0.24603230544E+02  0.25968653597E+02 -0.12645563885E+02  0.37942063849E+02  0.51100000000E-03 0. -1.
         22    1    1    0    0    0  0.98628932499E+00  0.78538508389E+01 -0.27525679751E+02  0.28641207820E+02  0.00000000000E+00 0.  1.
</event>
<event>
 5    1  0.1691138E-003  0.9118800E+02  0.7818608E-02  0.1130116E+00
         25   -1    0    0    0    0  0.00000000000E+00  0.00000000000E+00  0.99999998245E-14  0.12500000000E+03  0.12500000000E+03 0.  0.
        -11    1    3    3    0    0  0.42012226670E+02  0.43858520460E+02  0.64704050729E+01  0.61077517539E+02  0.51100000000E-03 0. -1.
         23    2    1    0    0    0  0.22068837571E+02  0.18066278831E+02 -0.57676664896E+01  0.95902061941E+02  0.91381154979E+02 0.  0.
         11    1    3    3    0    0 -0.19943389099E+02 -0.25792241629E+02 -0.12238071563E+02  0.34824544402E+02  0.51100000000E-03 0.  1.
         22    1    1    0    0    0 -0.22068837571E+02 -0.18066278831E+02  0.57676664896E+01  0.29097938059E+02  0.00000000000E+00 0. -1.
</event>
<event>
 5    1  0.1691138E-003  0.9118800E+02  0.7818608E-02  0.1130116E+00
         25   -1    0    0    0    0  0.00000000000E+00  0.00000000000E+00  0.99999998245E-14  0.12500000000E+03  0.12500000000E+03 0.  0.
        -11    1    3    3    0    0 -0.51557434612E+02 -0.38988009991E+01 -0.34206354199E+02  0.61995519038E+02  0.51100000000E-03 0. -1.
         23    2    1    0    0    0 -0.28887141802E+02  0.97816861750E-01 -0.12896705608E+02  0.93364552396E+02  0.87841551096E+02 0.  0.
         11    1    3    3    0    0  0.22670292810E+02  0.39966178609E+01  0.21309648591E+02  0.31369033357E+02  0.51100000000E-03 0.  1.
         22    1    1    0    0    0  0.28887141802E+02 -0.97816861750E-01  0.12896705608E+02  0.31635447604E+02  0.00000000000E+00 0. -1.
</event>
<event>
 5    1  0.1691138E-003  0.9118800E+02  0.7818608E-02  0.1130116E+00
         25   -1    0    0    0    0  0.00000000000E+00  0.00000000000E+00  0.99999998245E-14  0.12500000000E+03  0.12500000000E+03 0.  0.
        -11    1    3    3    0    0  0.22604800558E+02  0.48056437614E+02 -0.18770254911E+02  0.56326908970E+02  0.51100000000E-03 0. -1.
         23    2    1    0    0    0  0.25900316881E+02  0.11451612589E+02 -0.14067492405E+02  0.93379434097E+02  0.87862725455E+02 0.  0.
         11    1    3    3    0    0  0.32955163233E+01 -0.36604825024E+02  0.47027625063E+01  0.37052525128E+02  0.51100000000E-03 0.  1.
         22    1    1    0    0    0 -0.25900316881E+02 -0.11451612589E+02  0.14067492405E+02  0.31620565903E+02  0.00000000000E+00 0.  1.
</event>
<event>
 5    1  0.1691138E-003  0.9118800E+02  0.7818608E-02  0.1130116E+00
         25   -1    0    0    0    0  0.00000000000E+00  0.00000000000E+00  0.99999998245E-14  0.12500000000E+03  0.12500000000E+03 0.  0.
        -11    1    3    3    0    0  0.22639287913E+02  0.55672063001E+02 -0.68288223292E+01  0.60485938619E+02  0.51100000000E-03 0.  1.
         23    2    1    0    0    0  0.18151275899E+02  0.23643186255E+02  0.47069241486E+01  0.94823449369E+02  0.89893616804E+02 0.  0.
         11    1    3    3    0    0 -0.44880120142E+01 -0.32028876746E+02  0.11535746478E+02  0.34337510750E+02  0.51100000000E-03 0. -1.
         22    1    1    0    0    0 -0.18151275899E+02 -0.23643186255E+02 -0.47069241486E+01  0.30176550631E+02  0.00000000000E+00 0.  1.
</event>
<event>
 5    1  0.1691138E-003  0.9118800E+02  0.7818608E-02  0.1130116E+00
         25   -1    0    0    0    0  0.00000000000E+00  0.00000000000E+00  0.99999998245E-14  0.12500000000E+03  0.12500000000E+03 0.  0.
        -11    1    3    3    0    0 -0.29104432923E+02 -0.46996942746E+02 -0.26494163365E+02  0.61300255594E+02  0.51100000000E-03 0.  1.
         23    2    1    0    0    0 -0.12064073798E+02 -0.18496578740E+02 -0.20146776375E+02  0.95107561156E+02  0.90287819162E+02 0.  0.
         11    1    3    3    0    0  0.17040359125E+02  0.28500364005E+02  0.63473869897E+01  0.33807305562E+02  0.51100000000E-03 0. -1.
         22    1    1    0    0    0  0.12064073798E+02  0.18496578740E+02  0.20146776375E+02  0.29892438844E+02  0.00000000000E+00 0.  1.
</event>
<event>
 5    1  0.1691138E-003  0.9118800E+02  0.7818608E-02  0.1130116E+00
         25   -1    0    0    0    0  0.00000000000E+00  0.00000000000E+00  0.99999998245E-14  0.12500000000E+03  0.12500000000E+03 0.  0.
        -11    1    3    3    0    0 -0.24400006484E+02  0.23493116312E+02 -0.47310749405E+02  0.58185856013E+02  0.51100000000E-03 0. -1.
         23    2    1    0    0    0 -0.24998248601E+02  0.10811711633E+02 -0.12900920189E+02  0.94862991467E+02  0.89948584574E+02 0.  0.
         11    1    3    3    0    0 -0.59824211743E+00 -0.12681404678E+02  0.34409829216E+02  0.36677135455E+02  0.51100000000E-03 0.  1.
         22    1    1    0    0    0  0.24998248601E+02 -0.10811711633E+02  0.12900920189E+02  0.30137008533E+02  0.00000000000E+00 0. -1.
</event>
<event>
 5    1  0.1691138E-003  0.9118800E+02  0.7818608E-02  0.1130116E+00
         25   -1    0    0    0    0  0.00000000000E+00  0.00000000000E+00  0.99999998245E-14  0.12500000000E+03  0.12500000000E+03 0.  0.
        -11    1    3    3    0    0 -0.37528682906E+02  0.96224573000E+01  0.44371430424E+02  0.58905157357E+02  0.51100000000E-03 0. -1.
         23    2    1    0    0    0 -0.15997780883E+02 -0.10788988311E+02  0.18471504840E+02  0.98288059729E+02  0.94588661754E+02 0.  0.
         11    1    3    3    0    0  0.21530902022E+02 -0.20411445611E+02 -0.25899925583E+02  0.39382902373E+02  0.51100000000E-03 0.  1.
         22    1    1    0    0    0  0.15997780883E+02  0.10788988311E+02 -0.18471504840E+02  0.26711940271E+02  0.00000000000E+00 0. -1.
</event>
<event>
 5    1  0.1691138E-003  0.9118800E+02  0.7818608E-02  0.1130116E+00
         25   -1    0    0    0    0  0.00000000000E+00  0.00000000000E+00  0.99999998245E-14  0.12500000000E+03  0.12500000000E+03 0.  0.
        -11    1    3    3    0    0 -0.16568553435E+02  0.17426428769E+02  0.35092405684E+02  0.42540267036E+02  0.51100000000E-03 0. -1.
         23    2    1    0    0    0  0.13192644329E+02  0.22789792567E+02 -0.99984692180E+01  0.96832822357E+02  0.92645591310E+02 0.  0.
         11    1    3    3    0    0  0.29761197764E+02  0.53633637980E+01 -0.45090874902E+02  0.54292555321E+02  0.51100000000E-03 0.  1.
         22    1    1    0    0    0 -0.13192644329E+02 -0.22789792567E+02  0.99984692180E+01  0.28167177643E+02  0.00000000000E+00 0.  1.
</event>
<event>
 5    1  0.1691138E-003  0.9118800E+02  0.7818608E-02  0.1130116E+00
         25   -1    0    0    0    0  0.00000000000E+00  0.00000000000E+00  0.99999998245E-14  0.12500000000E+03  0.12500000000E+03 0.  0.
        -11    1    3    3    0    0  0.34054419618E+02  0.48544891047E+01  0.50720187176E+02  0.61284638756E+02  0.51100000000E-03 0. -1.
         23    2    1    0    0    0  0.23166653972E+02  0.45031473964E+00  0.19246878045E+02  0.94877932440E+02  0.89969345390E+02 0.  0.
         11    1    3    3    0    0 -0.10887765647E+02 -0.44041743651E+01 -0.31473309131E+02  0.33593293684E+02  0.51100000000E-03 0.  1.
         22    1    1    0    0    0 -0.23166653972E+02 -0.45031473964E+00 -0.19246878045E+02  0.30122067560E+02  0.00000000000E+00 0. -1.
</event>
<event>
 5    1  0.1691138E-003  0.9118800E+02  0.7818608E-02  0.1130116E+00
         25   -1    0    0    0    0  0.00000000000E+00  0.00000000000E+00  0.99999998245E-14  0.12500000000E+03  0.12500000000E+03 0.  0.
        -11    1    3    3    0    0 -0.37905589807E+02 -0.10747494152E+02 -0.26084914000E+02  0.47252143949E+02  0.51100000000E-03 0. -1.
         23    2    1    0    0    0 -0.41353521399E+01 -0.32381526020E+02 -0.72510425624E+01  0.91559874657E+02  0.85234785530E+02 0.  0.
         11    1    3    3    0    0  0.33770237667E+02 -0.21634031868E+02  0.18833871437E+02  0.44307730708E+02  0.51100000000E-03 0.  1.
         22    1    1    0    0    0  0.41353521399E+01  0.32381526020E+02  0.72510425624E+01  0.33440125343E+02  0.00000000000E+00 0. -1.
</event>
<event>
 5    1  0.1691138E-003  0.9118800E+02  0.7818608E-02  0.1130116E+00
         25   -1    0    0    0    0  0.00000000000E+00  0.00000000000E+00  0.99999998245E-14  0.12500000000E+03  0.12500000000E+03 0.  0.
        -11    1    3    3    0    0  0.54653754382E+02 -0.21083092473E+02  0.24885214352E+01  0.58632093562E+02  0.51100000000E-03 0.  1.
         23    2    1    0    0    0  0.15918106369E+02 -0.22223228149E+02 -0.17056232944E+01  0.97610820922E+02  0.93689408316E+02 0.  0.
         11    1    3    3    0    0 -0.38735648013E+02 -0.11401356759E+01 -0.41941447296E+01  0.38978727360E+02  0.51100000000E-03 0. -1.
         22    1    1    0    0    0 -0.15918106369E+02  0.22223228149E+02  0.17056232944E+01  0.27389179078E+02  0.00000000000E+00 0.  1.
</event>
<event>
 5    1  0.1691138E-003  0.9118800E+02  0.7818608E-02  0.1130116E+00
         25   -1    0    0    0    0  0.00000000000E+00  0.00000000000E+00  0.99999998245E-14  0.12500000000E+03  0.12500000000E+03 0.  0.
        -11    1    3    3    0    0  0.18910419601E+02 -0.13852932902E+02  0.41287253503E+02  0.47477837161E+02  0.51100000000E-03 0.  1.
         23    2    1    0    0    0  0.17018175406E+02 -0.36641158009E+02  0.16064772444E+02  0.81522768395E+02  0.68961526220E+02 0.  0.
         11    1    3    3    0    0 -0.18922441946E+01 -0.22788225108E+02 -0.25222481059E+02  0.34044931233E+02  0.51100000000E-03 0. -1.
         22    1    1    0    0    0 -0.17018175406E+02  0.36641158009E+02 -0.16064772444E+02  0.43477231605E+02  0.00000000000E+00 0.  1.
</event>
<event>
 5    1  0.1691138E-003  0.9118800E+02  0.7818608E-02  0.1130116E+00
         25   -1    0    0    0    0  0.00000000000E+00  0.00000000000E+00  0.99999998245E-14  0.12500000000E+03  0.12500000000E+03 0.  0.
        -11    1    3    3    0    0 -0.12383437766E+02  0.11595522151E+02 -0.53870947767E+02  0.56479064072E+02  0.51100000000E-03 0.  1.
         23    2    1    0    0    0 -0.21283752432E+02 -0.52550405571E+01 -0.20091832898E+02  0.95262896610E+02  0.90502619589E+02 0.  0.
         11    1    3    3    0    0 -0.89003146664E+01 -0.16850562708E+02  0.33779114869E+02  0.38783832538E+02  0.51100000000E-03 0. -1.
         22    1    1    0    0    0  0.21283752432E+02  0.52550405571E+01  0.20091832898E+02  0.29737103390E+02  0.00000000000E+00 0.  1.
</event>
<event>
 5    1  0.1691138E-003  0.9118800E+02  0.7818608E-02  0.1130116E+00
         25   -1    0    0    0    0  0.00000000000E+00  0.00000000000E+00  0.99999998245E-14  0.12500000000E+03  0.12500000000E+03 0.  0.
        -11    1    3    3    0    0 -0.25409148577E+02  0.25265744042E+02 -0.36583307471E+02  0.51208603176E+02  0.51100000000E-03 0.  1.
         23    2    1    0    0    0 -0.11628494160E+02 -0.12162455065E+02 -0.28498795054E+02  0.91904252401E+02  0.85738340899E+02 0.  0.
         11    1    3    3    0    0  0.13780654417E+02 -0.37428199107E+02  0.80845124171E+01  0.40695649225E+02  0.51100000000E-03 0. -1.
         22    1    1    0    0    0  0.11628494160E+02  0.12162455065E+02  0.28498795054E+02  0.33095747599E+02  0.00000000000E+00 0.  1.
</event>
<event>
 5    1  0.1691138E-003  0.9118800E+02  0.7818608E-02  0.1130116E+00
         25   -1    0    0    0    0  0.00000000000E+00  0.00000000000E+00  0.99999998245E-14  0.12500000000E+03  0.12500000000E+03 0.  0.
        -11    1    3    3    0    0 -0.16615999968E+02  0.29328322455E+02 -0.48655457443E+01  0.34057532039E+02  0.51100000000E-03 0. -1.
         23    2    1    0    0    0  0.13149194064E+02 -0.14058636682E+02 -0.27579944864E+02  0.91366684246E+02  0.84950992116E+02 0.  0.
         11    1    3    3    0    0  0.29765194032E+02 -0.43386959138E+02 -0.22714399120E+02  0.57309152206E+02  0.51100000000E-03 0.  1.
         22    1    1    0    0    0 -0.13149194064E+02  0.14058636682E+02  0.27579944864E+02  0.33633315754E+02  0.00000000000E+00 0.  1.
</event>
<event>
 5    1  0.1691138E-003  0.9118800E+02  0.7818608E-02  0.1130116E+00
         25   -1    0    0    0    0  0.00000000000E+00  0.00000000000E+00  0.99999998245E-14  0.12500000000E+03  0.12500000000E+03 0.  0.
        -11    1    3    3    0    0  0.61492263948E+01 -0.32371913740E+02  0.13456963453E+02  0.35592747156E+02  0.51100000000E-03 0. -1.
         23    2    1    0    0    0 -0.17147822805E+02  0.22782684762E+02  0.45184054836E+01  0.96129348119E+02  0.91691531941E+02 0.  0.
         11    1    3    3    0    0 -0.23297049200E+02  0.55154598502E+02 -0.89385579698E+01  0.60536600963E+02  0.51100000000E-03 0.  1.
         22    1    1    0    0    0  0.17147822805E+02 -0.22782684762E+02 -0.45184054836E+01  0.28870651881E+02  0.00000000000E+00 0.  1.
</event>
<event>
 5    1  0.1691138E-003  0.9118800E+02  0.7818608E-02  0.1130116E+00
         25   -1    0    0    0    0  0.00000000000E+00  0.00000000000E+00  0.99999998245E-14  0.12500000000E+03  0.12500000000E+03 0.  0.
        -11    1    3    3    0    0  0.49825071675E+02  0.25987067990E+02 -0.55629651927E+01  0.56469567487E+02  0.51100000000E-03 0.  1.
         23    2    1    0    0    0  0.10646874733E+02  0.26680864107E+02  0.12700396212E+01  0.96245218628E+02  0.91849358501E+02 0.  0.
         11    1    3    3    0    0 -0.39178196942E+02  0.69379611739E+00  0.68330048140E+01  0.39775651142E+02  0.51100000000E-03 0. -1.
         22    1    1    0    0    0 -0.10646874733E+02 -0.26680864107E+02 -0.12700396212E+01  0.28754781372E+02  0.00000000000E+00 0.  1.
</event>
<event>
 5    1  0.1691138E-003  0.9118800E+02  0.7818608E-02  0.1130116E+00
         25   -1    0    0    0    0  0.00000000000E+00  0.00000000000E+00  0.99999998245E-14  0.12500000000E+03  0.12500000000E+03 0.  0.
        -11    1    3    3    0    0 -0.13259301014E+02 -0.23991714721E+02  0.23901637896E+02  0.36368939124E+02  0.51100000000E-03 0.  1.
         23    2    1    0    0    0  0.24621610179E+02 -0.26524693001E+01 -0.16110940546E+02  0.95456444248E+02  0.90769549201E+02 0.  0.
         11    1    3    3    0    0  0.37880911193E+02  0.21339245421E+02 -0.40012578442E+02  0.59087505124E+02  0.51100000000E-03 0. -1.
         22    1    1    0    0    0 -0.24621610179E+02  0.26524693001E+01  0.16110940546E+02  0.29543555752E+02  0.00000000000E+00 0. -1.
</event>
<event>
 5    1  0.1691138E-003  0.9118800E+02  0.7818608E-02  0.1130116E+00
         25   -1    0    0    0    0  0.00000000000E+00  0.00000000000E+00  0.99999998245E-14  0.12500000000E+03  0.12500000000E+03 0.  0.
        -11    1    3    3    0    0 -0.36245807131E+02 -0.66205297040E+01 -0.55862693196E+01  0.37266558109E+02  0.51100000000E-03 0. -1.
         23    2    1    0    0    0  0.14311749799E+02  0.41624570723E+01  0.23940094387E+02  0.96799284575E+02  0.92600330150E+02 0.  0.
         11    1    3    3    0    0  0.50557556930E+02  0.10782986776E+02  0.29526363707E+02  0.59532726466E+02  0.51100000000E-03 0.  1.
         22    1    1    0    0    0 -0.14311749799E+02 -0.41624570723E+01 -0.23940094387E+02  0.28200715425E+02  0.00000000000E+00 0.  1.
</event>
<event>
 5    1  0.1691138E-003  0.9118800E+02  0.7818608E-02  0.1130116E+00
         25   -1    0    0    0    0  0.00000000000E+00  0.00000000000E+00  0.99999998245E-14  0.12500000000E+03  0.12500000000E+03 0.  0.
        -11    1    3    3    0    0 -0.51925921128E+02  0.63921301585E+01  0.19905997115E+02  0.55976864277E+02  0.51100000000E-03 0.  1.
         23    2    1    0    0    0 -0.18616266844E+02  0.20029391864E+02 -0.10663155766E+01  0.97634347102E+02  0.93720791586E+02 0.  0.
         11    1    3    3    0    0  0.33309654284E+02  0.13637261706E+02 -0.20972312692E+02  0.41657482824E+02  0.51100000000E-03 0. -1.
         22    1    1    0    0    0  0.18616266844E+02 -0.20029391864E+02  0.10663155766E+01  0.27365652898E+02  0.00000000000E+00 0.  1.
</event>
<event>
 5    1  0.1691138E-003  0.9118800E+02  0.7818608E-02  0.1130116E+00
         25   -1    0    0    0    0  0.00000000000E+00  0.00000000000E+00  0.99999998245E-14  0.12500000000E+03  0.12500000000E+03 0.  0.
        -11    1    3    3    0    0 -0.87527542231E+01  0.34860729944E+02  0.53275581306E+01  0.36335438275E+02  0.51100000000E-03 0.  1.
         23    2    1    0    0    0  0.25689812703E+02 -0.12324339595E+02 -0.61002902804E+01  0.95861205161E+02  0.91325250015E+02 0.  0.
         11    1    3    3    0    0  0.34442566926E+02 -0.47185069539E+02 -0.11427848411E+02  0.59525766886E+02  0.51100000000E-03 0. -1.
         22    1    1    0    0    0 -0.25689812703E+02  0.12324339595E+02  0.61002902804E+01  0.29138794839E+02  0.00000000000E+00 0. -1.
</event>
<event>
 5    1  0.1691138E-003  0.9118800E+02  0.7818608E-02  0.1130116E+00
         25   -1    0    0    0    0  0.00000000000E+00  0.00000000000E+00  0.99999998245E-14  0.12500000000E+03  0.12500000000E+03 0.  0.
        -11    1    3    3    0    0 -0.14815077190E+02  0.22939575039E+02 -0.48688881393E+02  0.55823989348E+02  0.51100000000E-03 0. -1.
         23    2    1    0    0    0 -0.18098345441E+02 -0.66301216438E+01 -0.21464132304E+02  0.96151818146E+02  0.91722159463E+02 0.  0.
         11    1    3    3    0    0 -0.32832682509E+01 -0.29569696683E+02  0.27224749089E+02  0.40327828798E+02  0.51100000000E-03 0.  1.
         22    1    1    0    0    0  0.18098345441E+02  0.66301216438E+01  0.21464132304E+02  0.28848181854E+02  0.00000000000E+00 0. -1.
</event>
<event>
 5    1  0.1691138E-003  0.9118800E+02  0.7818608E-02  0.1130116E+00
         25   -1    0    0    0    0  0.00000000000E+00  0.00000000000E+00  0.99999998245E-14  0.12500000000E+03  0.12500000000E+03 0.  0.
        -11    1    3    3    0    0  0.33548957379E+02  0.39801626328E+02 -0.33820107061E+02  0.62076578848E+02  0.51100000000E-03 0. -1.
         23    2    1    0    0    0  0.98397361572E+01  0.19342283151E+02 -0.15111819536E+02  0.98555503128E+02  0.94941433431E+02 0.  0.
         11    1    3    3    0    0 -0.23709221222E+02 -0.20459343177E+02  0.18708287526E+02  0.36478924280E+02  0.51100000000E-03 0.  1.
         22    1    1    0    0    0 -0.98397361572E+01 -0.19342283151E+02  0.15111819536E+02  0.26444496872E+02  0.00000000000E+00 0. -1.
</event>
<event>
 5    1  0.1691138E-003  0.9118800E+02  0.7818608E-02  0.1130116E+00
         25   -1    0    0    0    0  0.00000000000E+00  0.00000000000E+00  0.99999998245E-14  0.12500000000E+03  0.12500000000E+03 0.  0.
        -11    1    3    3    0    0  0.44116081682E+02 -0.17924412295E+02  0.34854571854E+01  0.47745802236E+02  0.51100000000E-03 0.  1.
         23    2    1    0    0    0  0.35140434351E+01 -0.28976157337E+02  0.16087628856E+02  0.91671663746E+02  0.85398571045E+02 0.  0.
         11    1    3    3    0    0 -0.40602038247E+02 -0.11051745041E+02  0.12602171670E+02  0.43925861510E+02  0.51100000000E-03 0. -1.
         22    1    1    0    0    0 -0.35140434351E+01  0.28976157337E+02 -0.16087628856E+02  0.33328336254E+02  0.00000000000E+00 0.  1.
</event>
<event>
 5    1  0.1691138E-003  0.9118800E+02  0.7818608E-02  0.1130116E+00
         25   -1    0    0    0    0  0.00000000000E+00  0.00000000000E+00  0.99999998245E-14  0.12500000000E+03  0.12500000000E+03 0.  0.
        -11    1    3    3    0    0 -0.20621451843E+02  0.25044170590E+02 -0.41796207745E+01  0.32709692551E+02  0.51100000000E-03 0. -1.
         23    2    1    0    0    0  0.30146346668E+02 -0.62000487167E+01 -0.10083013363E+02  0.92613120250E+02  0.86765661770E+02 0.  0.
         11    1    3    3    0    0  0.50767798511E+02 -0.31244219307E+02 -0.59033925884E+01  0.59903427699E+02  0.51100000000E-03 0.  1.
         22    1    1    0    0    0 -0.30146346668E+02  0.62000487167E+01  0.10083013363E+02  0.32386879750E+02  0.00000000000E+00 0.  1.
</event>
<event>
 5    1  0.1691138E-003  0.9118800E+02  0.7818608E-02  0.1130116E+00
         25   -1    0    0    0    0  0.00000000000E+00  0.00000000000E+00  0.99999998245E-14  0.12500000000E+03  0.12500000000E+03 0.  0.
        -11    1    3    3    0    0 -0.21654380235E+01  0.30263329142E+01  0.44704235769E+02  0.44858850952E+02  0.51100000000E-03 0. -1.
         23    2    1    0    0    0 -0.43990917195E+01  0.28829502193E+02  0.80872739628E+00  0.95825589215E+02  0.91276488231E+02 0.  0.
         11    1    3    3    0    0 -0.22336536960E+01  0.25803169279E+02 -0.43895508373E+02  0.50966738264E+02  0.51100000000E-03 0.  1.
         22    1    1    0    0    0  0.43990917195E+01 -0.28829502193E+02 -0.80872739628E+00  0.29174410785E+02  0.00000000000E+00 0. -1.
</event>
<event>
 5    1  0.1691138E-003  0.9118800E+02  0.7818608E-02  0.1130116E+00
         25   -1    0    0    0    0  0.00000000000E+00  0.00000000000E+00  0.99999998245E-14  0.12500000000E+03  0.12500000000E+03 0.  0.
        -11    1    3    3    0    0  0.35288737456E+01  0.61341175058E+02  0.60055015318E+01  0.61735393060E+02  0.51100000000E-03 0.  1.
         23    2    1    0    0    0 -0.52475793074E+01  0.28720876069E+02  0.30519544185E+01  0.95644587611E+02  0.91028275293E+02 0.  0.
         11    1    3    3    0    0 -0.87764530530E+01 -0.32620298989E+02 -0.29535471133E+01  0.33909194551E+02  0.51100000000E-03 0. -1.
         22    1    1    0    0    0  0.52475793074E+01 -0.28720876069E+02 -0.30519544185E+01  0.29355412389E+02  0.00000000000E+00 0.  1.
</event>
<event>
 5    1  0.1691138E-003  0.9118800E+02  0.7818608E-02  0.1130116E+00
         25   -1    0    0    0    0  0.00000000000E+00  0.00000000000E+00  0.99999998245E-14  0.12500000000E+03  0.12500000000E+03 0.  0.
        -11    1    3    3    0    0  0.12685079105E+02  0.68943528270E+01 -0.30879231639E+02  0.34087685161E+02  0.51100000000E-03 0.  1.
         23    2    1    0    0    0 -0.51513772702E+00 -0.13026512551E+02  0.26072410523E+02  0.95849940196E+02  0.91309829969E+02 0.  0.
         11    1    3    3    0    0 -0.13200216832E+02 -0.19920865378E+02  0.56951642162E+02  0.61762255035E+02  0.51100000000E-03 0. -1.
         22    1    1    0    0    0  0.51513772702E+00  0.13026512551E+02 -0.26072410523E+02  0.29150059804E+02  0.00000000000E+00 0. -1.
</event>
<event>
 5    1  0.1691138E-003  0.9118800E+02  0.7818608E-02  0.1130116E+00
         25   -1    0    0    0    0  0.00000000000E+00  0.00000000000E+00  0.99999998245E-14  0.12500000000E+03  0.12500000000E+03 0.  0.
        -11    1    3    3    0    0  0.20115043471E+02  0.10706995135E+02  0.55594528337E+02  0.60083327970E+02  0.51100000000E-03 0.  1.
         23    2    1    0    0    0  0.13663642559E+02  0.13716806933E+02  0.17293913158E+02  0.99039927721E+02  0.95577099402E+02 0.  0.
         11    1    3    3    0    0 -0.64514009118E+01  0.30098117978E+01 -0.38300615179E+02  0.38956599751E+02  0.51100000000E-03 0. -1.
         22    1    1    0    0    0 -0.13663642559E+02 -0.13716806933E+02 -0.17293913158E+02  0.25960072279E+02  0.00000000000E+00 0.  1.
</event>
<event>
 5    1  0.1691138E-003  0.9118800E+02  0.7818608E-02  0.1130116E+00
         25   -1    0    0    0    0  0.00000000000E+00  0.00000000000E+00  0.99999998245E-14  0.12500000000E+03  0.12500000000E+03 0.  0.
        -11    1    3    3    0    0 -0.28404684763E+02 -0.20861992372E+02  0.30657276275E+02  0.46710999037E+02  0.51100000000E-03 0.  1.
         23    2    1    0    0    0 -0.23237014081E+02  0.20069953765E+02  0.11313213497E+02  0.92277673262E+02  0.86281042619E+02 0.  0.
         11    1    3    3    0    0  0.51676706817E+01  0.40931946137E+02 -0.19344062778E+02  0.45566674224E+02  0.51100000000E-03 0. -1.
         22    1    1    0    0    0  0.23237014081E+02 -0.20069953765E+02 -0.11313213497E+02  0.32722326738E+02  0.00000000000E+00 0.  1.
</event>
<event>
 5    1  0.1691138E-003  0.9118800E+02  0.7818608E-02  0.1130116E+00
         25   -1    0    0    0    0  0.00000000000E+00  0.00000000000E+00  0.99999998245E-14  0.12500000000E+03  0.12500000000E+03 0.  0.
        -11    1    3    3    0    0 -0.32469941630E+02 -0.10733853944E+02  0.42263865931E+02  0.54366782999E+02  0.51100000000E-03 0. -1.
         23    2    1    0    0    0 -0.16131423756E+01  0.12238469949E+02  0.26166171847E+02  0.96068167632E+02  0.91608088660E+02 0.  0.
         11    1    3    3    0    0  0.30856799254E+02  0.22972323893E+02 -0.16097694084E+02  0.41701384633E+02  0.51100000000E-03 0.  1.
         22    1    1    0    0    0  0.16131423756E+01 -0.12238469949E+02 -0.26166171847E+02  0.28931832368E+02  0.00000000000E+00 0. -1.
</event>
<event>
 5    1  0.1691138E-003  0.9118800E+02  0.7818608E-02  0.1130116E+00
         25   -1    0    0    0    0  0.00000000000E+00  0.00000000000E+00  0.99999998245E-14  0.12500000000E+03  0.12500000000E+03 0.  0.
        -11    1    3    3    0    0 -0.33751576982E+02  0.23945052754E+02 -0.12572590701E+02  0.43250485978E+02  0.51100000000E-03 0.  1.
         23    2    1    0    0    0  0.20748765886E+02  0.14263313524E+02 -0.68951985965E+01  0.98894499389E+02  0.95386712111E+02 0.  0.
         11    1    3    3    0    0  0.54500342867E+02 -0.96817392301E+01  0.56773921042E+01  0.55644013411E+02  0.51100000000E-03 0. -1.
         22    1    1    0    0    0 -0.20748765886E+02 -0.14263313524E+02  0.68951985965E+01  0.26105500611E+02  0.00000000000E+00 0. -1.
</event>
<event>
 5    1  0.1691138E-003  0.9118800E+02  0.7818608E-02  0.1130116E+00
         25   -1    0    0    0    0  0.00000000000E+00  0.00000000000E+00  0.99999998245E-14  0.12500000000E+03  0.12500000000E+03 0.  0.
        -11    1    3    3    0    0 -0.13640472419E+02 -0.10164268656E+02 -0.36384863812E+02  0.40165073883E+02  0.51100000000E-03 0.  1.
         23    2    1    0    0    0 -0.14651826883E+01  0.29206037879E+02  0.90678248609E+00  0.95743177490E+02  0.91163558358E+02 0.  0.
         11    1    3    3    0    0  0.12175289731E+02  0.39370306535E+02  0.37291646298E+02  0.55578103607E+02  0.51100000000E-03 0. -1.
         22    1    1    0    0    0  0.14651826883E+01 -0.29206037879E+02 -0.90678248609E+00  0.29256822510E+02  0.00000000000E+00 0. -1.
</event>
<event>
 5    1  0.1691138E-003  0.9118800E+02  0.7818608E-02  0.1130116E+00
         25   -1    0    0    0    0  0.00000000000E+00  0.00000000000E+00  0.99999998245E-14  0.12500000000E+03  0.12500000000E+03 0.  0.
        -11    1    3    3    0    0  0.48044809028E+01  0.85614578328E+01 -0.38185197139E+02  0.39427032322E+02  0.51100000000E-03 0.  1.
         23    2    1    0    0    0  0.31633264292E+01 -0.29414290998E+02  0.27496644160E+01  0.95288591359E+02  0.90538101591E+02 0.  0.
         11    1    3    3    0    0 -0.16411544736E+01 -0.37975748831E+02  0.40934861555E+02  0.55861559037E+02  0.51100000000E-03 0. -1.
         22    1    1    0    0    0 -0.31633264292E+01  0.29414290998E+02 -0.27496644160E+01  0.29711408641E+02  0.00000000000E+00 0.  1.
</event>
<event>
 5    1  0.1691138E-003  0.9118800E+02  0.7818608E-02  0.1130116E+00
         25   -1    0    0    0    0  0.00000000000E+00  0.00000000000E+00  0.99999998245E-14  0.12500000000E+03  0.12500000000E+03 0.  0.
        -11    1    3    3    0    0 -0.82529635909E+01 -0.15948450278E+02  0.18643948797E+02  0.25885542322E+02  0.51100000000E-03 0.  1.
         23    2    1    0    0    0 -0.38579007114E+02  0.20130598322E+02 -0.90535292608E+01  0.80552872188E+02  0.67180488588E+02 0.  0.
         11    1    3    3    0    0 -0.30326043523E+02  0.36079048600E+02 -0.27697478058E+02  0.54667329866E+02  0.51100000000E-03 0. -1.
         22    1    1    0    0    0  0.38579007114E+02 -0.20130598322E+02  0.90535292608E+01  0.44447127812E+02  0.00000000000E+00 0. -1.
</event>
<event>
 5    1  0.1691138E-003  0.9118800E+02  0.7818608E-02  0.1130116E+00
         25   -1    0    0    0    0  0.00000000000E+00  0.00000000000E+00  0.99999998245E-14  0.12500000000E+03  0.12500000000E+03 0.  0.
        -11    1    3    3    0    0  0.58946070821E+02  0.18148991591E+02 -0.94500818758E+01  0.62396548052E+02  0.51100000000E-03 0.  1.
         23    2    1    0    0    0  0.23837147957E+02  0.67978926300E+01 -0.13357556133E+01  0.10017651898E+03  0.97052201134E+02 0.  0.
         11    1    3    3    0    0 -0.35108922865E+02 -0.11351098961E+02  0.81143262625E+01  0.37779970928E+02  0.51100000000E-03 0. -1.
         22    1    1    0    0    0 -0.23837147957E+02 -0.67978926300E+01  0.13357556133E+01  0.24823481020E+02  0.00000000000E+00 0.  1.
</event>
<event>
 5    1  0.1691138E-003  0.9118800E+02  0.7818608E-02  0.1130116E+00
         25   -1    0    0    0    0  0.00000000000E+00  0.00000000000E+00  0.99999998245E-14  0.12500000000E+03  0.12500000000E+03 0.  0.
        -11    1    3    3    0    0  0.31565187288E+02 -0.29573099432E+02  0.39489846010E+02  0.58569422028E+02  0.51100000000E-03 0. -1.
         23    2    1    0    0    0  0.39057182132E+00 -0.18074954056E+02  0.23235333138E+02  0.95559598907E+02  0.90911493920E+02 0.  0.
         11    1    3    3    0    0 -0.31174615467E+02  0.11498145376E+02 -0.16254512872E+02  0.36990176879E+02  0.51100000000E-03 0.  1.
         22    1    1    0    0    0 -0.39057182132E+00  0.18074954056E+02 -0.23235333138E+02  0.29440401093E+02  0.00000000000E+00 0. -1.
</event>
<event>
 5    1  0.1691138E-003  0.9118800E+02  0.7818608E-02  0.1130116E+00
         25   -1    0    0    0    0  0.00000000000E+00  0.00000000000E+00  0.99999998245E-14  0.12500000000E+03  0.12500000000E+03 0.  0.
        -11    1    3    3    0    0  0.44651770708E+02 -0.14873063459E+02 -0.20222329241E+02  0.51224322780E+02  0.51100000000E-03 0.  1.
         23    2    1    0    0    0  0.47338292761E+01  0.43463489488E+01 -0.28057753058E+02  0.96215674483E+02  0.91809142360E+02 0.  0.
         11    1    3    3    0    0 -0.39917941432E+02  0.19219412408E+02 -0.78354238167E+01  0.44991351704E+02  0.51100000000E-03 0. -1.
         22    1    1    0    0    0 -0.47338292761E+01 -0.43463489488E+01  0.28057753058E+02  0.28784325517E+02  0.00000000000E+00 0.  1.
</event>
<event>
 4    1  0.1691138E-003  0.9118800E+02  0.7818608E-02  0.1130116E+00
         25   -1    0    0    0    0  0.00000000000E+00  0.00000000000E+00  0.99999998245E-14  0.12500000000E+03  0.12500000000E+03 0.  0.
        -11    1    1    0    0    0 -0.52624462331E+01 -0.80553814907E+01  0.27550647760E+01  0.10008640942E+02  0.51100000000E-03 0.  1.
         11    1    1    0    0    0  0.57335221797E+01  0.24122192021E+02  0.52170276371E+02  0.57762368038E+02  0.51100000000E-03 0. -1.
         22    1    1    0    0    0 -0.47107594659E+00 -0.16066810530E+02 -0.54925341147E+02  0.57228991021E+02  0.00000000000E+00 0. -1.
</event>
<event>
 5    1  0.1691138E-003  0.9118800E+02  0.7818608E-02  0.1130116E+00
         25   -1    0    0    0    0  0.00000000000E+00  0.00000000000E+00  0.99999998245E-14  0.12500000000E+03  0.12500000000E+03 0.  0.
        -11    1    3    3    0    0  0.32829744744E+02  0.13526563224E+02  0.34202007864E+02  0.49300480676E+02  0.51100000000E-03 0. -1.
         23    2    1    0    0    0  0.27459346047E+02 -0.13716137759E+02 -0.11870746905E+01  0.94282622725E+02  0.89138407442E+02 0.  0.
         11    1    3    3    0    0 -0.53703986976E+01 -0.27242700983E+02 -0.35389082555E+02  0.44982142050E+02  0.51100000000E-03 0.  1.
         22    1    1    0    0    0 -0.27459346047E+02  0.13716137759E+02  0.11870746905E+01  0.30717377275E+02  0.00000000000E+00 0. -1.
</event>
<event>
 5    1  0.1691138E-003  0.9118800E+02  0.7818608E-02  0.1130116E+00
         25   -1    0    0    0    0  0.00000000000E+00  0.00000000000E+00  0.99999998245E-14  0.12500000000E+03  0.12500000000E+03 0.  0.
        -11    1    3    3    0    0  0.19691854973E+02  0.43291651087E+02 -0.24467751446E+02  0.53484643283E+02  0.51100000000E-03 0. -1.
         23    2    1    0    0    0 -0.14028942924E+02  0.18063121703E+02 -0.17569130449E+02  0.96159716541E+02  0.91732922854E+02 0.  0.
         11    1    3    3    0    0 -0.33720797897E+02 -0.25228529384E+02  0.68986209967E+01  0.42675073258E+02  0.51100000000E-03 0.  1.
         22    1    1    0    0    0  0.14028942924E+02 -0.18063121703E+02  0.17569130449E+02  0.28840283459E+02  0.00000000000E+00 0.  1.
</event>
<event>
 5    1  0.1691138E-003  0.9118800E+02  0.7818608E-02  0.1130116E+00
         25   -1    0    0    0    0  0.00000000000E+00  0.00000000000E+00  0.99999998245E-14  0.12500000000E+03  0.12500000000E+03 0.  0.
        -11    1    3    3    0    0  0.34921728058E+02 -0.23438671131E+02 -0.22867643892E+01  0.42120395138E+02  0.51100000000E-03 0. -1.
         23    2    1    0    0    0 -0.17727937101E+02 -0.17511891426E+02 -0.14050656645E+02  0.96392884673E+02  0.92050101403E+02 0.  0.
         11    1    3    3    0    0 -0.52649665159E+02  0.59267797047E+01 -0.11763892256E+02  0.54272489535E+02  0.51100000000E-03 0.  1.
         22    1    1    0    0    0  0.17727937101E+02  0.17511891426E+02  0.14050656645E+02  0.28607115327E+02  0.00000000000E+00 0. -1.
</event>
<event>
 5    1  0.1691138E-003  0.9118800E+02  0.7818608E-02  0.1130116E+00
         25   -1    0    0    0    0  0.00000000000E+00  0.00000000000E+00  0.99999998245E-14  0.12500000000E+03  0.12500000000E+03 0.  0.
        -11    1    3    3    0    0 -0.23211093379E+02  0.23136589976E+02  0.74084759771E+01  0.33599734643E+02  0.51100000000E-03 0. -1.
         23    2    1    0    0    0  0.24594403505E+02 -0.15891220852E+02  0.34180748818E+00  0.95716345578E+02  0.91126760036E+02 0.  0.
         11    1    3    3    0    0  0.47805496884E+02 -0.39027810827E+02 -0.70666684889E+01  0.62116610935E+02  0.51100000000E-03 0.  1.
         22    1    1    0    0    0 -0.24594403505E+02  0.15891220852E+02 -0.34180748818E+00  0.29283654422E+02  0.00000000000E+00 0.  1.
</event>
<event>
 5    1  0.1691138E-003  0.9118800E+02  0.7818608E-02  0.1130116E+00
         25   -1    0    0    0    0  0.00000000000E+00  0.00000000000E+00  0.99999998245E-14  0.12500000000E+03  0.12500000000E+03 0.  0.
        -11    1    3    3    0    0 -0.20247479764E+02 -0.24808391412E+02  0.45448086113E+02  0.55596270134E+02  0.51100000000E-03 0.  1.
         23    2    1    0    0    0 -0.61170651918E+01 -0.25087918819E+02  0.46646412219E+01  0.98759172365E+02  0.95209206967E+02 0.  0.
         11    1    3    3    0    0  0.14130414572E+02 -0.27952740745E+00 -0.40783444891E+02  0.43162902231E+02  0.51100000000E-03 0. -1.
         22    1    1    0    0    0  0.61170651918E+01  0.25087918819E+02 -0.46646412219E+01  0.26240827635E+02  0.00000000000E+00 0. -1.
</event>
<event>
 5    1  0.1691138E-003  0.9118800E+02  0.7818608E-02  0.1130116E+00
         25   -1    0    0    0    0  0.00000000000E+00  0.00000000000E+00  0.99999998245E-14  0.12500000000E+03  0.12500000000E+03 0.  0.
        -11    1    3    3    0    0  0.29269780446E+02 -0.19169620349E+02 -0.24552843512E+02  0.42743847703E+02  0.51100000000E-03 0. -1.
         23    2    1    0    0    0  0.14248208795E+02  0.25957470008E+02 -0.21678131178E+01  0.95309915514E+02  0.90567537663E+02 0.  0.
         11    1    3    3    0    0 -0.15021571651E+02  0.45127090358E+02  0.22385030394E+02  0.52566067810E+02  0.51100000000E-03 0.  1.
         22    1    1    0    0    0 -0.14248208795E+02 -0.25957470008E+02  0.21678131178E+01  0.29690084486E+02  0.00000000000E+00 0.  1.
</event>
<event>
 5    1  0.1691138E-003  0.9118800E+02  0.7818608E-02  0.1130116E+00
         25   -1    0    0    0    0  0.00000000000E+00  0.00000000000E+00  0.99999998245E-14  0.12500000000E+03  0.12500000000E+03 0.  0.
        -11    1    3    3    0    0  0.31085258845E+02 -0.17101334826E+02  0.25075426034E+02  0.43445666773E+02  0.51100000000E-03 0.  1.
         23    2    1    0    0    0  0.19388429516E+02  0.38082842668E+01 -0.21486103799E+02  0.95809815269E+02  0.91254883800E+02 0.  0.
         11    1    3    3    0    0 -0.11696829330E+02  0.20909619093E+02 -0.46561529833E+02  0.52364148496E+02  0.51100000000E-03 0. -1.
         22    1    1    0    0    0 -0.19388429516E+02 -0.38082842668E+01  0.21486103799E+02  0.29190184731E+02  0.00000000000E+00 0. -1.
</event>
<event>
 5    1  0.1691138E-003  0.9118800E+02  0.7818608E-02  0.1130116E+00
         25   -1    0    0    0    0  0.00000000000E+00  0.00000000000E+00  0.99999998245E-14  0.12500000000E+03  0.12500000000E+03 0.  0.
        -11    1    3    3    0    0  0.43678617155E+02 -0.28626986494E+01  0.20514097584E+02  0.48340923037E+02  0.51100000000E-03 0. -1.
         23    2    1    0    0    0  0.13704935504E+02 -0.17867046705E+02 -0.15594498532E+02  0.97609399430E+02  0.93687511748E+02 0.  0.
         11    1    3    3    0    0 -0.29973681652E+02 -0.15004348056E+02 -0.36108596116E+02  0.49268476393E+02  0.51100000000E-03 0.  1.
         22    1    1    0    0    0 -0.13704935504E+02  0.17867046705E+02  0.15594498532E+02  0.27390600570E+02  0.00000000000E+00 0.  1.
</event>
<event>
 5    1  0.1691138E-003  0.9118800E+02  0.7818608E-02  0.1130116E+00
         25   -1    0    0    0    0  0.00000000000E+00  0.00000000000E+00  0.99999998245E-14  0.12500000000E+03  0.12500000000E+03 0.  0.
        -11    1    3    3    0    0 -0.31804049700E+01 -0.30463206578E+02  0.39315374800E+02  0.49837943644E+02  0.51100000000E-03 0.  1.
         23    2    1    0    0    0  0.23702646532E+02 -0.17181561479E+02  0.51842648526E+01  0.95269576028E+02  0.90511844568E+02 0.  0.
         11    1    3    3    0    0  0.26883051502E+02  0.13281645099E+02 -0.34131109947E+02  0.45431632384E+02  0.51100000000E-03 0. -1.
         22    1    1    0    0    0 -0.23702646532E+02  0.17181561479E+02 -0.51842648526E+01  0.29730423972E+02  0.00000000000E+00 0.  1.
</event>
<event>
 5    1  0.1691138E-003  0.9118800E+02  0.7818608E-02  0.1130116E+00
         25   -1    0    0    0    0  0.00000000000E+00  0.00000000000E+00  0.99999998245E-14  0.12500000000E+03  0.12500000000E+03 0.  0.
        -11    1    3    3    0    0 -0.37346002620E+02 -0.13114321476E+01 -0.25605139712E+02  0.45299745539E+02  0.51100000000E-03 0.  1.
         23    2    1    0    0    0  0.11710776447E+02  0.17092889744E+02 -0.16571843008E+02  0.98468223854E+02  0.94826451813E+02 0.  0.
         11    1    3    3    0    0  0.49056779067E+02  0.18404321892E+02  0.90332967040E+01  0.53168478315E+02  0.51100000000E-03 0. -1.
         22    1    1    0    0    0 -0.11710776447E+02 -0.17092889744E+02  0.16571843008E+02  0.26531776146E+02  0.00000000000E+00 0. -1.
</event>
<event>
 5    1  0.1691138E-003  0.9118800E+02  0.7818608E-02  0.1130116E+00
         25   -1    0    0    0    0  0.00000000000E+00  0.00000000000E+00  0.99999998245E-14  0.12500000000E+03  0.12500000000E+03 0.  0.
        -11    1    3    3    0    0 -0.15868042426E+02  0.23717525431E+02  0.18408256665E+02  0.33958499624E+02  0.51100000000E-03 0.  1.
         23    2    1    0    0    0  0.73241962214E+01 -0.25083231256E+02 -0.12313620175E+02  0.96113366718E+02  0.91669742443E+02 0.  0.
         11    1    3    3    0    0  0.23192238648E+02 -0.48800756687E+02 -0.30721876840E+02  0.62154867094E+02  0.51100000000E-03 0. -1.
         22    1    1    0    0    0 -0.73241962214E+01  0.25083231256E+02  0.12313620175E+02  0.28886633282E+02  0.00000000000E+00 0. -1.
</event>
<event>
 4    1  0.1691138E-003  0.9118800E+02  0.7818608E-02  0.1130116E+00
         25   -1    0    0    0    0  0.00000000000E+00  0.00000000000E+00  0.99999998245E-14  0.12500000000E+03  0.12500000000E+03 0.  0.
        -11    1    1    0    0    0 -0.34367680785E+02  0.19083282045E+02 -0.13271849822E+02  0.41490373993E+02  0.51100000000E-03 0.  1.
         11    1    1    0    0    0  0.11683157826E+02 -0.34890717019E+01 -0.29910032284E+02  0.32299842563E+02  0.51100000000E-03 0. -1.
         22    1    1    0    0    0  0.22684522959E+02 -0.15594210343E+02  0.43181882106E+02  0.51209783444E+02  0.00000000000E+00 0.  1.
</event>
<event>
 5    1  0.1691138E-003  0.9118800E+02  0.7818608E-02  0.1130116E+00
         25   -1    0    0    0    0  0.00000000000E+00  0.00000000000E+00  0.99999998245E-14  0.12500000000E+03  0.12500000000E+03 0.  0.
        -11    1    3    3    0    0 -0.27180215216E+02 -0.11219672873E+01  0.17388267236E+02  0.32285828896E+02  0.51100000000E-03 0.  1.
         23    2    1    0    0    0  0.28458339200E+02  0.66266493855E+01 -0.91040693958E+01  0.94394875728E+02  0.89295682606E+02 0.  0.
         11    1    3    3    0    0  0.55638554417E+02  0.77486166727E+01 -0.26492336631E+02  0.62109046832E+02  0.51100000000E-03 0. -1.
         22    1    1    0    0    0 -0.28458339200E+02 -0.66266493855E+01  0.91040693958E+01  0.30605124272E+02  0.00000000000E+00 0. -1.
</event>
<event>
 5    1  0.1691138E-003  0.9118800E+02  0.7818608E-02  0.1130116E+00
         25   -1    0    0    0    0  0.00000000000E+00  0.00000000000E+00  0.99999998245E-14  0.12500000000E+03  0.12500000000E+03 0.  0.
        -11    1    3    3    0    0  0.60164452053E+02  0.51752497141E+01 -0.11202690468E+02  0.61416974644E+02  0.51100000000E-03 0.  1.
         23    2    1    0    0    0  0.27343300390E+02 -0.31004379400E+01 -0.11263886674E+02  0.95265442081E+02  0.90506135263E+02 0.  0.
         11    1    3    3    0    0 -0.32821151663E+02 -0.82756876541E+01 -0.61196206844E-01  0.33848467437E+02  0.51100000000E-03 0. -1.
         22    1    1    0    0    0 -0.27343300390E+02  0.31004379400E+01  0.11263886674E+02  0.29734557919E+02  0.00000000000E+00 0.  1.
</event>
<event>
 5    1  0.1691138E-003  0.9118800E+02  0.7818608E-02  0.1130116E+00
         25   -1    0    0    0    0  0.00000000000E+00  0.00000000000E+00  0.99999998245E-14  0.12500000000E+03  0.12500000000E+03 0.  0.
        -11    1    3    3    0    0 -0.14153517085E+02  0.50227228538E+02 -0.29281333169E+02  0.59837220898E+02  0.51100000000E-03 0.  1.
         23    2    1    0    0    0 -0.94936521246E+01  0.26221350671E+02 -0.11811810408E+01  0.97087926442E+02  0.92989147810E+02 0.  0.
         11    1    3    3    0    0  0.46598649604E+01 -0.24005877867E+02  0.28100152128E+02  0.37250705543E+02  0.51100000000E-03 0. -1.
         22    1    1    0    0    0  0.94936521246E+01 -0.26221350671E+02  0.11811810408E+01  0.27912073558E+02  0.00000000000E+00 0.  1.
</event>
<event>
 5    1  0.1691138E-003  0.9118800E+02  0.7818608E-02  0.1130116E+00
         25   -1    0    0    0    0  0.00000000000E+00  0.00000000000E+00  0.99999998245E-14  0.12500000000E+03  0.12500000000E+03 0.  0.
        -11    1    3    3    0    0  0.38778750277E+01  0.14216066364E+02 -0.24684490430E+02  0.28748191694E+02  0.51100000000E-03 0. -1.
         23    2    1    0    0    0 -0.23106100519E+02  0.84741045001E+01  0.27695607909E+02  0.87949372127E+02  0.79764296724E+02 0.  0.
         11    1    3    3    0    0 -0.26983975547E+02 -0.57419618643E+01  0.52380098340E+02  0.59201180433E+02  0.51100000000E-03 0.  1.
         22    1    1    0    0    0  0.23106100519E+02 -0.84741045001E+01 -0.27695607909E+02  0.37050627873E+02  0.00000000000E+00 0.  1.
</event>
<event>
 5    1  0.1691138E-003  0.9118800E+02  0.7818608E-02  0.1130116E+00
         25   -1    0    0    0    0  0.00000000000E+00  0.00000000000E+00  0.99999998245E-14  0.12500000000E+03  0.12500000000E+03 0.  0.
        -11    1    3    3    0    0  0.24310032285E+02  0.31536680416E+02 -0.23480794759E+01  0.39888010215E+02  0.51100000000E-03 0.  1.
         23    2    1    0    0    0  0.12168119134E+02 -0.24661261558E+02  0.10202825104E+01  0.97481244191E+02  0.93516367806E+02 0.  0.
         11    1    3    3    0    0 -0.12141913151E+02 -0.56197941974E+02  0.33683619863E+01  0.57593233976E+02  0.51100000000E-03 0. -1.
         22    1    1    0    0    0 -0.12168119134E+02  0.24661261558E+02 -0.10202825104E+01  0.27518755809E+02  0.00000000000E+00 0. -1.
</event>
<event>
 5    1  0.1691138E-003  0.9118800E+02  0.7818608E-02  0.1130116E+00
         25   -1    0    0    0    0  0.00000000000E+00  0.00000000000E+00  0.99999998245E-14  0.12500000000E+03  0.12500000000E+03 0.  0.
        -11    1    3    3    0    0 -0.26122649585E+02 -0.14052998235E+01 -0.22454664167E+02  0.34475783270E+02  0.51100000000E-03 0.  1.
         23    2    1    0    0    0  0.29437863844E+02  0.73363201592E+01 -0.10858543397E+01  0.94642323856E+02  0.89641402065E+02 0.  0.
         11    1    3    3    0    0  0.55560513430E+02  0.87416199827E+01  0.21368809827E+02  0.60166540587E+02  0.51100000000E-03 0. -1.
         22    1    1    0    0    0 -0.29437863844E+02 -0.73363201592E+01  0.10858543397E+01  0.30357676144E+02  0.00000000000E+00 0. -1.
</event>
<event>
 5    1  0.1691138E-003  0.9118800E+02  0.7818608E-02  0.1130116E+00
         25   -1    0    0    0    0  0.00000000000E+00  0.00000000000E+00  0.99999998245E-14  0.12500000000E+03  0.12500000000E+03 0.  0.
        -11    1    3    3    0    0  0.11147751635E+02 -0.22818279121E+02  0.39583902432E+02  0.47030113338E+02  0.51100000000E-03 0.  1.
         23    2    1    0    0    0 -0.24289607577E+02  0.94277861446E+00  0.17294805726E+02  0.95167397484E+02  0.90370622278E+02 0.  0.
         11    1    3    3    0    0 -0.35437359213E+02  0.23761057736E+02 -0.22289096706E+02  0.48137284146E+02  0.51100000000E-03 0. -1.
         22    1    1    0    0    0  0.24289607577E+02 -0.94277861446E+00 -0.17294805726E+02  0.29832602516E+02  0.00000000000E+00 0.  1.
</event>
<event>
 5    1  0.1691138E-003  0.9118800E+02  0.7818608E-02  0.1130116E+00
         25   -1    0    0    0    0  0.00000000000E+00  0.00000000000E+00  0.99999998245E-14  0.12500000000E+03  0.12500000000E+03 0.  0.
        -11    1    3    3    0    0  0.24828438205E+02  0.53273649270E+02  0.13739841170E+02  0.60359889711E+02  0.51100000000E-03 0. -1.
         23    2    1    0    0    0  0.19015193015E+02  0.20927314104E+02  0.14478541922E+02  0.93232749298E+02  0.87653792413E+02 0.  0.
         11    1    3    3    0    0 -0.58132451909E+01 -0.32346335166E+02  0.73870075235E+00  0.32872859586E+02  0.51100000000E-03 0.  1.
         22    1    1    0    0    0 -0.19015193015E+02 -0.20927314104E+02 -0.14478541922E+02  0.31767250702E+02  0.00000000000E+00 0. -1.
</event>
<event>
 5    1  0.1691138E-003  0.9118800E+02  0.7818608E-02  0.1130116E+00
         25   -1    0    0    0    0  0.00000000000E+00  0.00000000000E+00  0.99999998245E-14  0.12500000000E+03  0.12500000000E+03 0.  0.
        -11    1    3    3    0    0 -0.30582056180E+01 -0.23770850959E+02  0.12352810846E+02  0.26962898824E+02  0.51100000000E-03 0.  1.
         23    2    1    0    0    0  0.33491054429E+02  0.16117341889E+02 -0.11507564726E+02  0.86091858407E+02  0.76798207021E+02 0.  0.
         11    1    3    3    0    0  0.36549260047E+02  0.39888192848E+02 -0.23860375573E+02  0.59128959583E+02  0.51100000000E-03 0. -1.
         22    1    1    0    0    0 -0.33491054429E+02 -0.16117341889E+02  0.11507564726E+02  0.38908141593E+02  0.00000000000E+00 0. -1.
</event>
<event>
 5    1  0.1691138E-003  0.9118800E+02  0.7818608E-02  0.1130116E+00
         25   -1    0    0    0    0  0.00000000000E+00  0.00000000000E+00  0.99999998245E-14  0.12500000000E+03  0.12500000000E+03 0.  0.
        -11    1    3    3    0    0 -0.30301489817E+02 -0.83534654963E+00  0.20628741754E+02  0.36666375272E+02  0.51100000000E-03 0. -1.
         23    2    1    0    0    0  0.79135620920E+01 -0.26969809637E+01 -0.26408696263E+02  0.97299505246E+02  0.93273127489E+02 0.  0.
         11    1    3    3    0    0  0.38215051909E+02 -0.18616344140E+01 -0.47037438017E+02  0.60633129974E+02  0.51100000000E-03 0.  1.
         22    1    1    0    0    0 -0.79135620920E+01  0.26969809637E+01  0.26408696263E+02  0.27700494754E+02  0.00000000000E+00 0.  1.
</event>
<event>
 5    1  0.1691138E-003  0.9118800E+02  0.7818608E-02  0.1130116E+00
         25   -1    0    0    0    0  0.00000000000E+00  0.00000000000E+00  0.99999998245E-14  0.12500000000E+03  0.12500000000E+03 0.  0.
        -11    1    3    3    0    0  0.57367893649E+02 -0.11306134462E+02  0.91628973843E+01  0.59184986162E+02  0.51100000000E-03 0. -1.
         23    2    1    0    0    0  0.23754980230E+02 -0.16801704915E+02 -0.38594626907E+01  0.95648819001E+02  0.91034085651E+02 0.  0.
         11    1    3    3    0    0 -0.33612913420E+02 -0.54955704534E+01 -0.13022360075E+02  0.36463832839E+02  0.51100000000E-03 0.  1.
         22    1    1    0    0    0 -0.23754980230E+02  0.16801704915E+02  0.38594626907E+01  0.29351180999E+02  0.00000000000E+00 0. -1.
</event>
<event>
 5    1  0.1691138E-003  0.9118800E+02  0.7818608E-02  0.1130116E+00
         25   -1    0    0    0    0  0.00000000000E+00  0.00000000000E+00  0.99999998245E-14  0.12500000000E+03  0.12500000000E+03 0.  0.
        -11    1    3    3    0    0 -0.29255142776E+02 -0.85648895184E+01 -0.36763647894E+02  0.47757580739E+02  0.51100000000E-03 0.  1.
         23    2    1    0    0    0  0.35163157290E+01 -0.27487957362E+02 -0.57204567268E+01  0.96703782914E+02  0.92471323816E+02 0.  0.
         11    1    3    3    0    0  0.32771458505E+02 -0.18923067844E+02  0.31043191167E+02  0.48946202174E+02  0.51100000000E-03 0. -1.
         22    1    1    0    0    0 -0.35163157290E+01  0.27487957362E+02  0.57204567268E+01  0.28296217086E+02  0.00000000000E+00 0. -1.
</event>
<event>
 5    1  0.1691138E-003  0.9118800E+02  0.7818608E-02  0.1130116E+00
         25   -1    0    0    0    0  0.00000000000E+00  0.00000000000E+00  0.99999998245E-14  0.12500000000E+03  0.12500000000E+03 0.  0.
        -11    1    3    3    0    0 -0.52340663236E+01  0.48729632356E+02 -0.54889083484E+01  0.49316332335E+02  0.51100000000E-03 0. -1.
         23    2    1    0    0    0  0.30497608879E+01  0.52533124770E+01 -0.26145610745E+02  0.98158031095E+02  0.94416671058E+02 0.  0.
         11    1    3    3    0    0  0.82838272115E+01 -0.43476319880E+02 -0.20656702397E+02  0.48841698760E+02  0.51100000000E-03 0.  1.
         22    1    1    0    0    0 -0.30497608879E+01 -0.52533124770E+01  0.26145610745E+02  0.26841968905E+02  0.00000000000E+00 0. -1.
</event>
<event>
 5    1  0.1691138E-003  0.9118800E+02  0.7818608E-02  0.1130116E+00
         25   -1    0    0    0    0  0.00000000000E+00  0.00000000000E+00  0.99999998245E-14  0.12500000000E+03  0.12500000000E+03 0.  0.
        -11    1    3    3    0    0 -0.67315742248E+01  0.60504582507E+02 -0.11095862087E+02  0.61880827011E+02  0.51100000000E-03 0.  1.
         23    2    1    0    0    0 -0.92768801114E+01  0.27684457426E+02 -0.44138617877E+01  0.95470830295E+02  0.90789358263E+02 0.  0.
         11    1    3    3    0    0 -0.25453058866E+01 -0.32820125081E+02  0.66820002990E+01  0.33590003284E+02  0.51100000000E-03 0. -1.
         22    1    1    0    0    0  0.92768801114E+01 -0.27684457426E+02  0.44138617877E+01  0.29529169705E+02  0.00000000000E+00 0.  1.
</event>
<event>
 5    1  0.1691138E-003  0.9118800E+02  0.7818608E-02  0.1130116E+00
         25   -1    0    0    0    0  0.00000000000E+00  0.00000000000E+00  0.99999998245E-14  0.12500000000E+03  0.12500000000E+03 0.  0.
        -11    1    3    3    0    0  0.34710456544E+02  0.42208681091E+02  0.18176404183E+02  0.57591407538E+02  0.51100000000E-03 0. -1.
         23    2    1    0    0    0  0.16604002203E+02  0.12540143317E+02  0.24433384063E+02  0.92907347564E+02  0.87188513527E+02 0.  0.
         11    1    3    3    0    0 -0.18106454340E+02 -0.29668537774E+02  0.62569798800E+01  0.35315940026E+02  0.51100000000E-03 0.  1.
         22    1    1    0    0    0 -0.16604002203E+02 -0.12540143317E+02 -0.24433384063E+02  0.32092652436E+02  0.00000000000E+00 0. -1.
</event>
<event>
 5    1  0.1691138E-003  0.9118800E+02  0.7818608E-02  0.1130116E+00
         25   -1    0    0    0    0  0.00000000000E+00  0.00000000000E+00  0.99999998245E-14  0.12500000000E+03  0.12500000000E+03 0.  0.
        -11    1    3    3    0    0 -0.24334974674E+02 -0.49269353005E+02 -0.75611144446E+01  0.55469185948E+02  0.51100000000E-03 0. -1.
         23    2    1    0    0    0 -0.19297498826E+02 -0.13589480279E+02  0.14094510158E+02  0.97509589821E+02  0.93554248729E+02 0.  0.
         11    1    3    3    0    0  0.50374758478E+01  0.35679872725E+02  0.21655624603E+02  0.42040403873E+02  0.51100000000E-03 0.  1.
         22    1    1    0    0    0  0.19297498826E+02  0.13589480279E+02 -0.14094510158E+02  0.27490410179E+02  0.00000000000E+00 0. -1.
</event>
<event>
 5    1  0.1691138E-003  0.9118800E+02  0.7818608E-02  0.1130116E+00
         25   -1    0    0    0    0  0.00000000000E+00  0.00000000000E+00  0.99999998245E-14  0.12500000000E+03  0.12500000000E+03 0.  0.
        -11    1    3    3    0    0  0.50049775301E+01 -0.35523253802E+02 -0.52147948715E+01  0.36251144073E+02  0.51100000000E-03 0. -1.
         23    2    1    0    0    0  0.29660316101E+02 -0.14551568969E+02  0.27308903770E+02  0.82136743757E+02  0.70065583129E+02 0.  0.
         11    1    3    3    0    0  0.24655338570E+02  0.20971684833E+02  0.32523698642E+02  0.45885599684E+02  0.51100000000E-03 0.  1.
         22    1    1    0    0    0 -0.29660316101E+02  0.14551568969E+02 -0.27308903770E+02  0.42863256243E+02  0.00000000000E+00 0.  1.
</event>
<event>
 5    1  0.1691138E-003  0.9118800E+02  0.7818608E-02  0.1130116E+00
         25   -1    0    0    0    0  0.00000000000E+00  0.00000000000E+00  0.99999998245E-14  0.12500000000E+03  0.12500000000E+03 0.  0.
        -11    1    3    3    0    0  0.25249051329E+02 -0.40715119964E+01 -0.21948501535E+02  0.33702055172E+02  0.51100000000E-03 0.  1.
         23    2    1    0    0    0  0.11927410990E+02 -0.42622319477E+02 -0.24208476196E+02  0.74552249106E+02  0.54891367960E+02 0.  0.
         11    1    3    3    0    0 -0.13321640338E+02 -0.38550807481E+02 -0.22599746613E+01  0.40850193934E+02  0.51100000000E-03 0. -1.
         22    1    1    0    0    0 -0.11927410990E+02  0.42622319477E+02  0.24208476196E+02  0.50447750894E+02  0.00000000000E+00 0.  1.
</event>
<event>
 5    1  0.1691138E-003  0.9118800E+02  0.7818608E-02  0.1130116E+00
         25   -1    0    0    0    0  0.00000000000E+00  0.00000000000E+00  0.99999998245E-14  0.12500000000E+03  0.12500000000E+03 0.  0.
        -11    1    3    3    0    0  0.14610016826E+02 -0.39942992381E+02  0.38311956950E+02  0.57242477913E+02  0.51100000000E-03 0. -1.
         23    2    1    0    0    0 -0.60401622404E+01 -0.27688239280E+02  0.87243103704E+01  0.95348090352E+02  0.90620210704E+02 0.  0.
         11    1    3    3    0    0 -0.20650179066E+02  0.12254753101E+02 -0.29587646580E+02  0.38105612440E+02  0.51100000000E-03 0.  1.
         22    1    1    0    0    0  0.60401622404E+01  0.27688239280E+02 -0.87243103704E+01  0.29651909648E+02  0.00000000000E+00 0. -1.
</event>
<event>
 5    1  0.1691138E-003  0.9118800E+02  0.7818608E-02  0.1130116E+00
         25   -1    0    0    0    0  0.00000000000E+00  0.00000000000E+00  0.99999998245E-14  0.12500000000E+03  0.12500000000E+03 0.  0.
        -11    1    3    3    0    0  0.47637130718E+02 -0.32711237448E+02  0.18752670077E+02  0.60753468326E+02  0.51100000000E-03 0. -1.
         23    2    1    0    0    0  0.17770784558E+02 -0.24326302627E+02  0.60607104824E+01  0.94270502854E+02  0.89121409961E+02 0.  0.
         11    1    3    3    0    0 -0.29866346161E+02  0.83849348206E+01 -0.12691959594E+02  0.33517034528E+02  0.51100000000E-03 0.  1.
         22    1    1    0    0    0 -0.17770784558E+02  0.24326302627E+02 -0.60607104824E+01  0.30729497146E+02  0.00000000000E+00 0. -1.
</event>
<event>
 5    1  0.1691138E-003  0.9118800E+02  0.7818608E-02  0.1130116E+00
         25   -1    0    0    0    0  0.00000000000E+00  0.00000000000E+00  0.99999998245E-14  0.12500000000E+03  0.12500000000E+03 0.  0.
        -11    1    3    3    0    0 -0.25636448835E+02  0.31358948549E+02 -0.49507976172E+01  0.40805901048E+02  0.51100000000E-03 0.  1.
         23    2    1    0    0    0  0.15387204490E+01 -0.82537164514E+01  0.25816748979E+02  0.97852329313E+02  0.94011075562E+02 0.  0.
         11    1    3    3    0    0  0.27175169284E+02 -0.39612665001E+02  0.30767546596E+02  0.57046428266E+02  0.51100000000E-03 0. -1.
         22    1    1    0    0    0 -0.15387204490E+01  0.82537164514E+01 -0.25816748979E+02  0.27147670687E+02  0.00000000000E+00 0. -1.
</event>
<event>
 5    1  0.1691138E-003  0.9118800E+02  0.7818608E-02  0.1130116E+00
         25   -1    0    0    0    0  0.00000000000E+00  0.00000000000E+00  0.99999998245E-14  0.12500000000E+03  0.12500000000E+03 0.  0.
        -11    1    3    3    0    0  0.19709134628E+02 -0.44026480504E+02 -0.92251197238E+01  0.49110933686E+02  0.51100000000E-03 0. -1.
         23    2    1    0    0    0  0.21001662543E+02  0.22649968019E+01 -0.19168330602E+02  0.96475888478E+02  0.92162748003E+02 0.  0.
         11    1    3    3    0    0  0.12925279152E+01  0.46291477306E+02 -0.99432108778E+01  0.47364954792E+02  0.51100000000E-03 0.  1.
         22    1    1    0    0    0 -0.21001662543E+02 -0.22649968019E+01  0.19168330602E+02  0.28524111522E+02  0.00000000000E+00 0.  1.
</event>
<event>
 5    1  0.1691138E-003  0.9118800E+02  0.7818608E-02  0.1130116E+00
         25   -1    0    0    0    0  0.00000000000E+00  0.00000000000E+00  0.99999998245E-14  0.12500000000E+03  0.12500000000E+03 0.  0.
        -11    1    3    3    0    0  0.32875260470E+02 -0.18221339514E+02  0.16571344936E+02  0.41078089512E+02  0.51100000000E-03 0. -1.
         23    2    1    0    0    0  0.67414720332E+01 -0.61731006552E+00 -0.28296434858E+02  0.95905039224E+02  0.91385227504E+02 0.  0.
         11    1    3    3    0    0 -0.26133788437E+02  0.17604029449E+02 -0.44867779794E+02  0.54826949713E+02  0.51100000000E-03 0.  1.
         22    1    1    0    0    0 -0.67414720332E+01  0.61731006552E+00  0.28296434858E+02  0.29094960776E+02  0.00000000000E+00 0.  1.
</event>
<event>
 5    1  0.1691138E-003  0.9118800E+02  0.7818608E-02  0.1130116E+00
         25   -1    0    0    0    0  0.00000000000E+00  0.00000000000E+00  0.99999998245E-14  0.12500000000E+03  0.12500000000E+03 0.  0.
        -11    1    3    3    0    0 -0.73343573130E+01  0.40675482121E+02 -0.14569181801E+02  0.43824065325E+02  0.51100000000E-03 0. -1.
         23    2    1    0    0    0  0.50018592692E+01  0.56924962211E+01  0.25482516300E+02  0.98414632853E+02  0.94755781951E+02 0.  0.
         11    1    3    3    0    0  0.12336216582E+02 -0.34982985900E+02  0.40051698101E+02  0.54590567528E+02  0.51100000000E-03 0.  1.
         22    1    1    0    0    0 -0.50018592692E+01 -0.56924962211E+01 -0.25482516300E+02  0.26585367147E+02  0.00000000000E+00 0.  1.
</event>
<event>
 5    1  0.1691138E-003  0.9118800E+02  0.7818608E-02  0.1130116E+00
         25   -1    0    0    0    0  0.00000000000E+00  0.00000000000E+00  0.99999998245E-14  0.12500000000E+03  0.12500000000E+03 0.  0.
        -11    1    3    3    0    0  0.86698217484E+01 -0.43534882864E+02  0.37230275506E+02  0.57935699268E+02  0.51100000000E-03 0. -1.
         23    2    1    0    0    0  0.12602412259E+02 -0.25479938804E+02  0.35485856726E+01  0.96353175805E+02  0.91996162698E+02 0.  0.
         11    1    3    3    0    0  0.39325905106E+01  0.18054944060E+02 -0.33681689834E+02  0.38417476537E+02  0.51100000000E-03 0.  1.
         22    1    1    0    0    0 -0.12602412259E+02  0.25479938804E+02 -0.35485856726E+01  0.28646824195E+02  0.00000000000E+00 0. -1.
</event>
<event>
 5    1  0.1691138E-003  0.9118800E+02  0.7818608E-02  0.1130116E+00
         25   -1    0    0    0    0  0.00000000000E+00  0.00000000000E+00  0.99999998245E-14  0.12500000000E+03  0.12500000000E+03 0.  0.
        -11    1    3    3    0    0 -0.17089209877E+02 -0.43542652490E+02  0.33282114353E+02  0.57408212096E+02  0.51100000000E-03 0. -1.
         23    2    1    0    0    0 -0.13617851431E+02 -0.61394977622E+01  0.25004463634E+02  0.95873336751E+02  0.91341853429E+02 0.  0.
         11    1    3    3    0    0  0.34713584452E+01  0.37403154727E+02 -0.82776507188E+01  0.38465124655E+02  0.51100000000E-03 0.  1.
         22    1    1    0    0    0  0.13617851431E+02  0.61394977622E+01 -0.25004463634E+02  0.29126663249E+02  0.00000000000E+00 0. -1.
</event>
<event>
 5    1  0.1691138E-003  0.9118800E+02  0.7818608E-02  0.1130116E+00
         25   -1    0    0    0    0  0.00000000000E+00  0.00000000000E+00  0.99999998245E-14  0.12500000000E+03  0.12500000000E+03 0.  0.
        -11    1    3    3    0    0  0.14619791215E+02 -0.22378366809E+02 -0.46729906024E+02  0.53835060263E+02  0.51100000000E-03 0.  1.
         23    2    1    0    0    0 -0.16554394418E+02 -0.12447435686E+02 -0.21458480963E+02  0.95176300783E+02  0.90382936420E+02 0.  0.
         11    1    3    3    0    0 -0.31174185634E+02  0.99309311227E+01  0.25271425061E+02  0.41341240521E+02  0.51100000000E-03 0. -1.
         22    1    1    0    0    0  0.16554394418E+02  0.12447435686E+02  0.21458480963E+02  0.29823699217E+02  0.00000000000E+00 0.  1.
</event>
<event>
 5    1  0.1691138E-003  0.9118800E+02  0.7818608E-02  0.1130116E+00
         25   -1    0    0    0    0  0.00000000000E+00  0.00000000000E+00  0.99999998245E-14  0.12500000000E+03  0.12500000000E+03 0.  0.
        -11    1    3    3    0    0  0.39332874997E+02  0.95265257797E+01 -0.94539023835E+01  0.41559668183E+02  0.51100000000E-03 0. -1.
         23    2    1    0    0    0 -0.88170072564E+01 -0.16835514743E+02 -0.19948424952E+02  0.97447979535E+02  0.93471893549E+02 0.  0.
         11    1    3    3    0    0 -0.48149882253E+02 -0.26362040523E+02 -0.10494522569E+02  0.55888311352E+02  0.51100000000E-03 0.  1.
         22    1    1    0    0    0  0.88170072564E+01  0.16835514743E+02  0.19948424952E+02  0.27552020465E+02  0.00000000000E+00 0.  1.
</event>
<event>
 5    1  0.1691138E-003  0.9118800E+02  0.7818608E-02  0.1130116E+00
         25   -1    0    0    0    0  0.00000000000E+00  0.00000000000E+00  0.99999998245E-14  0.12500000000E+03  0.12500000000E+03 0.  0.
        -11    1    3    3    0    0 -0.22554196044E+02 -0.44361218189E+02 -0.31329937445E+02  0.58806244728E+02  0.51100000000E-03 0. -1.
         23    2    1    0    0    0  0.29662052687E+01 -0.18137424467E+02 -0.21539556176E+02  0.96685392105E+02  0.92446460323E+02 0.  0.
         11    1    3    3    0    0  0.25520401313E+02  0.26223793722E+02  0.97903812691E+01  0.37879147377E+02  0.51100000000E-03 0.  1.
         22    1    1    0    0    0 -0.29662052687E+01  0.18137424467E+02  0.21539556176E+02  0.28314607895E+02  0.00000000000E+00 0. -1.
</event>
<event>
 5    1  0.1691138E-003  0.9118800E+02  0.7818608E-02  0.1130116E+00
         25   -1    0    0    0    0  0.00000000000E+00  0.00000000000E+00  0.99999998245E-14  0.12500000000E+03  0.12500000000E+03 0.  0.
        -11    1    3    3    0    0  0.36454634443E+02 -0.44772469124E+02 -0.45774465281E+01  0.57917763948E+02  0.51100000000E-03 0. -1.
         23    2    1    0    0    0  0.19955747726E+02 -0.17667587323E+02  0.14211747405E+02  0.94794880012E+02  0.89853881403E+02 0.  0.
         11    1    3    3    0    0 -0.16498886716E+02  0.27104881800E+02  0.18789193933E+02  0.36877116064E+02  0.51100000000E-03 0.  1.
         22    1    1    0    0    0 -0.19955747726E+02  0.17667587323E+02 -0.14211747405E+02  0.30205119988E+02  0.00000000000E+00 0. -1.
</event>
<event>
 5    1  0.1691138E-003  0.9118800E+02  0.7818608E-02  0.1130116E+00
         25   -1    0    0    0    0  0.00000000000E+00  0.00000000000E+00  0.99999998245E-14  0.12500000000E+03  0.12500000000E+03 0.  0.
        -11    1    3    3    0    0 -0.22055115978E+02 -0.33840282003E+01  0.26645257888E+02  0.34754130054E+02  0.51100000000E-03 0.  1.
         23    2    1    0    0    0  0.10642845333E+02 -0.11876678006E+02 -0.24330901437E+02  0.95908447927E+02  0.91389889932E+02 0.  0.
         11    1    3    3    0    0  0.32697961311E+02 -0.84926498059E+01 -0.50976159326E+02  0.61154317873E+02  0.51100000000E-03 0. -1.
         22    1    1    0    0    0 -0.10642845333E+02  0.11876678006E+02  0.24330901437E+02  0.29091552073E+02  0.00000000000E+00 0. -1.
</event>
<event>
 5    1  0.1691138E-003  0.9118800E+02  0.7818608E-02  0.1130116E+00
         25   -1    0    0    0    0  0.00000000000E+00  0.00000000000E+00  0.99999998245E-14  0.12500000000E+03  0.12500000000E+03 0.  0.
        -11    1    3    3    0    0  0.44797183378E+01  0.22430054717E+02 -0.28625996847E+02  0.36641819370E+02  0.51100000000E-03 0.  1.
         23    2    1    0    0    0  0.16550362810E+02 -0.24271269176E+02  0.46707435955E+01  0.95253994179E+02  0.90490322934E+02 0.  0.
         11    1    3    3    0    0  0.12070644473E+02 -0.46701323894E+02  0.33296740443E+02  0.58612174808E+02  0.51100000000E-03 0. -1.
         22    1    1    0    0    0 -0.16550362810E+02  0.24271269176E+02 -0.46707435955E+01  0.29746005821E+02  0.00000000000E+00 0. -1.
</event>
<event>
 5    1  0.1691138E-003  0.9118800E+02  0.7818608E-02  0.1130116E+00
         25   -1    0    0    0    0  0.00000000000E+00  0.00000000000E+00  0.99999998245E-14  0.12500000000E+03  0.12500000000E+03 0.  0.
        -11    1    3    3    0    0 -0.15342560580E+02 -0.49467902556E+02 -0.90030162624E+01  0.52569210100E+02  0.51100000000E-03 0. -1.
         23    2    1    0    0    0  0.18017118014E+02 -0.22928129563E+02 -0.53363930018E+01  0.95355561111E+02  0.90630515158E+02 0.  0.
         11    1    3    3    0    0  0.33359678594E+02  0.26539772993E+02  0.36666232606E+01  0.42786351011E+02  0.51100000000E-03 0.  1.
         22    1    1    0    0    0 -0.18017118014E+02  0.22928129563E+02  0.53363930018E+01  0.29644438889E+02  0.00000000000E+00 0. -1.
</event>
<event>
 5    1  0.1691138E-003  0.9118800E+02  0.7818608E-02  0.1130116E+00
         25   -1    0    0    0    0  0.00000000000E+00  0.00000000000E+00  0.99999998245E-14  0.12500000000E+03  0.12500000000E+03 0.  0.
        -11    1    3    3    0    0  0.89813687514E+01  0.38028710640E+02 -0.44991110247E+02  0.59590668893E+02  0.51100000000E-03 0.  1.
         23    2    1    0    0    0  0.14092941548E+02  0.11903449001E+02 -0.28953926012E+02  0.90668776149E+02  0.83917781413E+02 0.  0.
         11    1    3    3    0    0  0.51115727969E+01 -0.26125261639E+02  0.16037184235E+02  0.31078107256E+02  0.51100000000E-03 0. -1.
         22    1    1    0    0    0 -0.14092941548E+02 -0.11903449001E+02  0.28953926012E+02  0.34331223851E+02  0.00000000000E+00 0.  1.
</event>
<event>
 5    1  0.1691138E-003  0.9118800E+02  0.7818608E-02  0.1130116E+00
         25   -1    0    0    0    0  0.00000000000E+00  0.00000000000E+00  0.99999998245E-14  0.12500000000E+03  0.12500000000E+03 0.  0.
        -11    1    3    3    0    0  0.38760825131E+02 -0.27181018220E+00 -0.90953626836E+01  0.39814583612E+02  0.51100000000E-03 0. -1.
         23    2    1    0    0    0 -0.12151874146E+02 -0.14739362282E+02 -0.23545371693E+02  0.94680016921E+02  0.89693947567E+02 0.  0.
         11    1    3    3    0    0 -0.50912699277E+02 -0.14467552100E+02 -0.14450009010E+02  0.54865433308E+02  0.51100000000E-03 0.  1.
         22    1    1    0    0    0  0.12151874146E+02  0.14739362282E+02  0.23545371693E+02  0.30319983079E+02  0.00000000000E+00 0.  1.
</event>
<event>
 5    1  0.1691138E-003  0.9118800E+02  0.7818608E-02  0.1130116E+00
         25   -1    0    0    0    0  0.00000000000E+00  0.00000000000E+00  0.99999998245E-14  0.12500000000E+03  0.12500000000E+03 0.  0.
        -11    1    3    3    0    0 -0.18941457900E+02 -0.28337207452E+02 -0.58231545635E+01  0.34578682492E+02  0.51100000000E-03 0. -1.
         23    2    1    0    0    0  0.14063952168E+02  0.67357817863E+01  0.27668275940E+02  0.93239977954E+02  0.87664100341E+02 0.  0.
         11    1    3    3    0    0  0.33005410068E+02  0.35072989238E+02  0.33491430503E+02  0.58661295462E+02  0.51100000000E-03 0.  1.
         22    1    1    0    0    0 -0.14063952168E+02 -0.67357817863E+01 -0.27668275940E+02  0.31760022046E+02  0.00000000000E+00 0.  1.
</event>
<event>
 5    1  0.1691138E-003  0.9118800E+02  0.7818608E-02  0.1130116E+00
         25   -1    0    0    0    0  0.00000000000E+00  0.00000000000E+00  0.99999998245E-14  0.12500000000E+03  0.12500000000E+03 0.  0.
        -11    1    3    3    0    0 -0.18269299051E+02  0.37070018817E+02 -0.90063893993E+00  0.41337207619E+02  0.51100000000E-03 0. -1.
         23    2    1    0    0    0  0.21586772098E+02  0.13070176241E+02 -0.21146753684E+02  0.92075792676E+02  0.85988069922E+02 0.  0.
         11    1    3    3    0    0  0.39856071149E+02 -0.23999842576E+02 -0.20246114744E+02  0.50738585057E+02  0.51100000000E-03 0.  1.
         22    1    1    0    0    0 -0.21586772098E+02 -0.13070176241E+02  0.21146753684E+02  0.32924207324E+02  0.00000000000E+00 0.  1.
</event>
<event>
 5    1  0.1691138E-003  0.9118800E+02  0.7818608E-02  0.1130116E+00
         25   -1    0    0    0    0  0.00000000000E+00  0.00000000000E+00  0.99999998245E-14  0.12500000000E+03  0.12500000000E+03 0.  0.
        -11    1    3    3    0    0  0.21756006308E+02  0.39866627148E+02  0.50959617355E+01  0.45701647639E+02  0.51100000000E-03 0. -1.
         23    2    1    0    0    0  0.13811650748E+02 -0.54162788680E+01  0.25102997022E+02  0.95840812209E+02  0.91297333215E+02 0.  0.
         11    1    3    3    0    0 -0.79443555608E+01 -0.45282906016E+02  0.20007035287E+02  0.50139164570E+02  0.51100000000E-03 0.  1.
         22    1    1    0    0    0 -0.13811650748E+02  0.54162788680E+01 -0.25102997022E+02  0.29159187791E+02  0.00000000000E+00 0.  1.
</event>
<event>
 5    1  0.1691138E-003  0.9118800E+02  0.7818608E-02  0.1130116E+00
         25   -1    0    0    0    0  0.00000000000E+00  0.00000000000E+00  0.99999998245E-14  0.12500000000E+03  0.12500000000E+03 0.  0.
        -11    1    3    3    0    0 -0.61016961279E+01 -0.50604425595E+02 -0.24319847339E+02  0.56475601460E+02  0.51100000000E-03 0.  1.
         23    2    1    0    0    0 -0.17955759307E+02 -0.89307893900E+01 -0.31420608759E+01  0.10470121092E+03  0.10271466658E+03 0.  0.
         11    1    3    3    0    0 -0.11854063179E+02  0.41673636205E+02  0.21177786464E+02  0.48225609463E+02  0.51100000000E-03 0. -1.
         22    1    1    0    0    0  0.17955759307E+02  0.89307893900E+01  0.31420608759E+01  0.20298789077E+02  0.00000000000E+00 0.  1.
</event>
<event>
 5    1  0.1691138E-003  0.9118800E+02  0.7818608E-02  0.1130116E+00
         25   -1    0    0    0    0  0.00000000000E+00  0.00000000000E+00  0.99999998245E-14  0.12500000000E+03  0.12500000000E+03 0.  0.
        -11    1    3    3    0    0 -0.29295896680E+02  0.13735443983E+02  0.39802425130E+02  0.51294688128E+02  0.51100000000E-03 0. -1.
         23    2    1    0    0    0 -0.13484839163E+01 -0.15940569814E+02  0.26262469669E+02  0.94248780707E+02  0.89090937680E+02 0.  0.
         11    1    3    3    0    0  0.27947412764E+02 -0.29676013798E+02 -0.13539955461E+02  0.42954092578E+02  0.51100000000E-03 0.  1.
         22    1    1    0    0    0  0.13484839163E+01  0.15940569814E+02 -0.26262469669E+02  0.30751219293E+02  0.00000000000E+00 0. -1.
</event>
<event>
 5    1  0.1691138E-003  0.9118800E+02  0.7818608E-02  0.1130116E+00
         25   -1    0    0    0    0  0.00000000000E+00  0.00000000000E+00  0.99999998245E-14  0.12500000000E+03  0.12500000000E+03 0.  0.
        -11    1    3    3    0    0  0.14873463297E+02  0.23529275187E+02  0.46190311926E+02  0.53929505999E+02  0.51100000000E-03 0.  1.
         23    2    1    0    0    0  0.24289536037E+02  0.17271415021E+02  0.74596946106E+01  0.94276549975E+02  0.89129891135E+02 0.  0.
         11    1    3    3    0    0  0.94160727403E+01 -0.62578601658E+01 -0.38730617315E+02  0.40347043976E+02  0.51100000000E-03 0. -1.
         22    1    1    0    0    0 -0.24289536037E+02 -0.17271415021E+02 -0.74596946106E+01  0.30723450025E+02  0.00000000000E+00 0.  1.
</event>
<event>
 5    1  0.1691138E-003  0.9118800E+02  0.7818608E-02  0.1130116E+00
         25   -1    0    0    0    0  0.00000000000E+00  0.00000000000E+00  0.99999998245E-14  0.12500000000E+03  0.12500000000E+03 0.  0.
        -11    1    3    3    0    0 -0.20519360186E+02  0.40765002175E+02  0.40814675457E+02  0.61226360970E+02  0.51100000000E-03 0.  1.
         23    2    1    0    0    0 -0.13179670781E+01  0.13295771874E+02  0.20847704649E+02  0.10023830830E+03  0.97131751110E+02 0.  0.
         11    1    3    3    0    0  0.19201393108E+02 -0.27469230300E+02 -0.19966970808E+02  0.39011947325E+02  0.51100000000E-03 0. -1.
         22    1    1    0    0    0  0.13179670781E+01 -0.13295771874E+02 -0.20847704649E+02  0.24761691705E+02  0.00000000000E+00 0.  1.
</event>
<event>
 5    1  0.1691138E-003  0.9118800E+02  0.7818608E-02  0.1130116E+00
         25   -1    0    0    0    0  0.00000000000E+00  0.00000000000E+00  0.99999998245E-14  0.12500000000E+03  0.12500000000E+03 0.  0.
        -11    1    3    3    0    0 -0.11878380382E+02 -0.91549931345E+01  0.50486267428E+02  0.52666621487E+02  0.51100000000E-03 0.  1.
         23    2    1    0    0    0 -0.12408449645E+02 -0.24461959140E+02  0.10251922321E+02  0.95717599503E+02  0.91128480048E+02 0.  0.
         11    1    3    3    0    0 -0.53006926345E+00 -0.15306966006E+02 -0.40234345107E+02  0.43050978016E+02  0.51100000000E-03 0. -1.
         22    1    1    0    0    0  0.12408449645E+02  0.24461959140E+02 -0.10251922321E+02  0.29282400497E+02  0.00000000000E+00 0.  1.
</event>
<event>
 5    1  0.1691138E-003  0.9118800E+02  0.7818608E-02  0.1130116E+00
         25   -1    0    0    0    0  0.00000000000E+00  0.00000000000E+00  0.99999998245E-14  0.12500000000E+03  0.12500000000E+03 0.  0.
        -11    1    3    3    0    0  0.29509641493E+02 -0.27646772203E+00 -0.40236941269E+02  0.49898966105E+02  0.51100000000E-03 0.  1.
         23    2    1    0    0    0 -0.12156880032E+02 -0.11117113720E+02 -0.23952392827E+02  0.95929446656E+02  0.91418606772E+02 0.  0.
         11    1    3    3    0    0 -0.41666521524E+02 -0.10840645998E+02  0.16284548441E+02  0.46030480551E+02  0.51100000000E-03 0. -1.
         22    1    1    0    0    0  0.12156880032E+02  0.11117113720E+02  0.23952392827E+02  0.29070553344E+02  0.00000000000E+00 0. -1.
</event>
<event>
 5    1  0.1691138E-003  0.9118800E+02  0.7818608E-02  0.1130116E+00
         25   -1    0    0    0    0  0.00000000000E+00  0.00000000000E+00  0.99999998245E-14  0.12500000000E+03  0.12500000000E+03 0.  0.
        -11    1    3    3    0    0 -0.40126394294E+02 -0.31169576302E+02  0.14417087847E+02  0.52815929682E+02  0.51100000000E-03 0.  1.
         23    2    1    0    0    0 -0.28149962314E+02  0.80720214897E+01  0.21607830818E+01  0.95635959189E+02  0.91016425975E+02 0.  0.
         11    1    3    3    0    0  0.11976431980E+02  0.39241597792E+02 -0.12256304765E+02  0.42820029507E+02  0.51100000000E-03 0. -1.
         22    1    1    0    0    0  0.28149962314E+02 -0.80720214897E+01 -0.21607830818E+01  0.29364040811E+02  0.00000000000E+00 0.  1.
</event>
<event>
 5    1  0.1691138E-003  0.9118800E+02  0.7818608E-02  0.1130116E+00
         25   -1    0    0    0    0  0.00000000000E+00  0.00000000000E+00  0.99999998245E-14  0.12500000000E+03  0.12500000000E+03 0.  0.
        -11    1    3    3    0    0 -0.14289778111E+02  0.33544260623E+02 -0.49961398002E+02  0.61851083012E+02  0.51100000000E-03 0. -1.
         23    2    1    0    0    0 -0.91578806224E+01  0.20182310356E+02 -0.19615215148E+02  0.95403562814E+02  0.90696696210E+02 0.  0.
         11    1    3    3    0    0  0.51318974890E+01 -0.13361950267E+02  0.30346182854E+02  0.33552479802E+02  0.51100000000E-03 0.  1.
         22    1    1    0    0    0  0.91578806224E+01 -0.20182310356E+02  0.19615215148E+02  0.29596437186E+02  0.00000000000E+00 0. -1.
</event>
<event>
 5    1  0.1691138E-003  0.9118800E+02  0.7818608E-02  0.1130116E+00
         25   -1    0    0    0    0  0.00000000000E+00  0.00000000000E+00  0.99999998245E-14  0.12500000000E+03  0.12500000000E+03 0.  0.
        -11    1    3    3    0    0  0.19601994840E+02 -0.18688477282E+01  0.48371635246E+02  0.52225912057E+02  0.51100000000E-03 0. -1.
         23    2    1    0    0    0  0.26361403482E+02 -0.13736193571E+02  0.89346862444E+01  0.93960747019E+02  0.88685888137E+02 0.  0.
         11    1    3    3    0    0  0.67594086422E+01 -0.11867345842E+02 -0.39436949001E+02  0.41734834962E+02  0.51100000000E-03 0.  1.
         22    1    1    0    0    0 -0.26361403482E+02  0.13736193571E+02 -0.89346862444E+01  0.31039252981E+02  0.00000000000E+00 0. -1.
</event>
<event>
 5    1  0.1691138E-003  0.9118800E+02  0.7818608E-02  0.1130116E+00
         25   -1    0    0    0    0  0.00000000000E+00  0.00000000000E+00  0.99999998245E-14  0.12500000000E+03  0.12500000000E+03 0.  0.
        -11    1    3    3    0    0  0.58534866435E+02 -0.12597539928E+02  0.16866792025E+02  0.62205444089E+02  0.51100000000E-03 0.  1.
         23    2    1    0    0    0  0.29397832633E+02 -0.10112240055E+02  0.10940079262E+02  0.92042826325E+02  0.85940133704E+02 0.  0.
         11    1    3    3    0    0 -0.29137033802E+02  0.24852998734E+01 -0.59267127632E+01  0.29837382236E+02  0.51100000000E-03 0. -1.
         22    1    1    0    0    0 -0.29397832633E+02  0.10112240055E+02 -0.10940079262E+02  0.32957173675E+02  0.00000000000E+00 0.  1.
</event>
<event>
 5    1  0.1691138E-003  0.9118800E+02  0.7818608E-02  0.1130116E+00
         25   -1    0    0    0    0  0.00000000000E+00  0.00000000000E+00  0.99999998245E-14  0.12500000000E+03  0.12500000000E+03 0.  0.
        -11    1    3    3    0    0  0.20149067038E+02  0.26653420352E+02 -0.25186792562E+02  0.41842134730E+02  0.51100000000E-03 0.  1.
         23    2    1    0    0    0  0.15465854616E+02  0.12522094379E+01  0.23432092407E+02  0.96896198797E+02  0.92731061135E+02 0.  0.
         11    1    3    3    0    0 -0.46832124220E+01 -0.25401210914E+02  0.48618884968E+02  0.55054064067E+02  0.51100000000E-03 0. -1.
         22    1    1    0    0    0 -0.15465854616E+02 -0.12522094379E+01 -0.23432092407E+02  0.28103801203E+02  0.00000000000E+00 0. -1.
</event>
<event>
 5    1  0.1691138E-003  0.9118800E+02  0.7818608E-02  0.1130116E+00
         25   -1    0    0    0    0  0.00000000000E+00  0.00000000000E+00  0.99999998245E-14  0.12500000000E+03  0.12500000000E+03 0.  0.
        -11    1    3    3    0    0  0.35207767716E+02 -0.35790680031E+02 -0.78354670697E+01  0.50812933679E+02  0.51100000000E-03 0.  1.
         23    2    1    0    0    0  0.23381265115E+02  0.86121577978E+01 -0.12722599848E+02  0.97022913533E+02  0.92901713564E+02 0.  0.
         11    1    3    3    0    0 -0.11826502601E+02  0.44402837829E+02 -0.48871327779E+01  0.46209979854E+02  0.51100000000E-03 0. -1.
         22    1    1    0    0    0 -0.23381265115E+02 -0.86121577978E+01  0.12722599848E+02  0.27977086467E+02  0.00000000000E+00 0.  1.
</event>
<event>
 5    1  0.1691138E-003  0.9118800E+02  0.7818608E-02  0.1130116E+00
         25   -1    0    0    0    0  0.00000000000E+00  0.00000000000E+00  0.99999998245E-14  0.12500000000E+03  0.12500000000E+03 0.  0.
        -11    1    3    3    0    0 -0.27489695942E+02 -0.90266871301E+01  0.13725585156E+02  0.32024305639E+02  0.51100000000E-03 0.  1.
         23    2    1    0    0    0  0.24105665844E+02  0.17680309463E+02 -0.80038884661E+01  0.94052646331E+02  0.88815322906E+02 0.  0.
         11    1    3    3    0    0  0.51595361786E+02  0.26706996593E+02 -0.21729473622E+02  0.62028340692E+02  0.51100000000E-03 0. -1.
         22    1    1    0    0    0 -0.24105665844E+02 -0.17680309463E+02  0.80038884661E+01  0.30947353669E+02  0.00000000000E+00 0. -1.
</event>
<event>
 5    1  0.1691138E-003  0.9118800E+02  0.7818608E-02  0.1130116E+00
         25   -1    0    0    0    0  0.00000000000E+00  0.00000000000E+00  0.99999998245E-14  0.12500000000E+03  0.12500000000E+03 0.  0.
        -11    1    3    3    0    0 -0.45617375128E+02 -0.23431822538E+01  0.30296587733E+02  0.54811665229E+02  0.51100000000E-03 0. -1.
         23    2    1    0    0    0 -0.21114985891E+02  0.20352459052E+02  0.94232214923E+01  0.94196391089E+02  0.89017401514E+02 0.  0.
         11    1    3    3    0    0  0.24502389237E+02  0.22695641306E+02 -0.20873366241E+02  0.39384725860E+02  0.51100000000E-03 0.  1.
         22    1    1    0    0    0  0.21114985891E+02 -0.20352459052E+02 -0.94232214923E+01  0.30803608911E+02  0.00000000000E+00 0.  1.
</event>
<event>
 5    1  0.1691138E-003  0.9118800E+02  0.7818608E-02  0.1130116E+00
         25   -1    0    0    0    0  0.00000000000E+00  0.00000000000E+00  0.99999998245E-14  0.12500000000E+03  0.12500000000E+03 0.  0.
        -11    1    3    3    0    0 -0.20061187383E+02 -0.29406847066E+02 -0.19816375759E+02  0.40741902779E+02  0.51100000000E-03 0. -1.
         23    2    1    0    0    0  0.12052293118E+02 -0.67932053313E+00  0.21439404788E+02  0.10039578647E+03  0.97334200656E+02 0.  0.
         11    1    3    3    0    0  0.32113480501E+02  0.28727526533E+02  0.41255780547E+02  0.59653883691E+02  0.51100000000E-03 0.  1.
         22    1    1    0    0    0 -0.12052293118E+02  0.67932053313E+00 -0.21439404788E+02  0.24604213531E+02  0.00000000000E+00 0.  1.
</event>
<event>
 5    1  0.1691138E-003  0.9118800E+02  0.7818608E-02  0.1130116E+00
         25   -1    0    0    0    0  0.00000000000E+00  0.00000000000E+00  0.99999998245E-14  0.12500000000E+03  0.12500000000E+03 0.  0.
        -11    1    3    3    0    0  0.80062413692E+01 -0.89519487931E+01  0.36119263972E+02  0.38063611471E+02  0.51100000000E-03 0. -1.
         23    2    1    0    0    0  0.26850642492E+01 -0.20584335209E+02 -0.20330144983E+02  0.95944205035E+02  0.91438784215E+02 0.  0.
         11    1    3    3    0    0 -0.53211771200E+01 -0.11632386416E+02 -0.56449408955E+02  0.57880593564E+02  0.51100000000E-03 0.  1.
         22    1    1    0    0    0 -0.26850642492E+01  0.20584335209E+02  0.20330144983E+02  0.29055794965E+02  0.00000000000E+00 0.  1.
</event>
<event>
 5    1  0.1691138E-003  0.9118800E+02  0.7818608E-02  0.1130116E+00
         25   -1    0    0    0    0  0.00000000000E+00  0.00000000000E+00  0.99999998245E-14  0.12500000000E+03  0.12500000000E+03 0.  0.
        -11    1    3    3    0    0  0.34288202251E+01  0.33347291538E+02 -0.27794150047E+02  0.43546681138E+02  0.51100000000E-03 0. -1.
         23    2    1    0    0    0  0.10642299915E+02  0.15323451835E+02  0.21504719136E+02  0.96530372873E+02  0.92236615389E+02 0.  0.
         11    1    3    3    0    0  0.72134796895E+01 -0.18023839703E+02  0.49298869183E+02  0.52983691735E+02  0.51100000000E-03 0.  1.
         22    1    1    0    0    0 -0.10642299915E+02 -0.15323451835E+02 -0.21504719136E+02  0.28469627127E+02  0.00000000000E+00 0.  1.
</event>
<event>
 5    1  0.1691138E-003  0.9118800E+02  0.7818608E-02  0.1130116E+00
         25   -1    0    0    0    0  0.00000000000E+00  0.00000000000E+00  0.99999998245E-14  0.12500000000E+03  0.12500000000E+03 0.  0.
        -11    1    3    3    0    0 -0.33625478932E+02  0.38081371932E+02  0.27388519675E+02  0.57714770482E+02  0.51100000000E-03 0. -1.
         23    2    1    0    0    0 -0.22412526078E+01  0.17697667468E+02  0.23725162124E+02  0.95316436116E+02  0.90576536857E+02 0.  0.
         11    1    3    3    0    0  0.31384226324E+02 -0.20383704464E+02 -0.36633575511E+01  0.37601665634E+02  0.51100000000E-03 0.  1.
         22    1    1    0    0    0  0.22412526078E+01 -0.17697667468E+02 -0.23725162124E+02  0.29683563884E+02  0.00000000000E+00 0. -1.
</event>
<event>
 5    1  0.1691138E-003  0.9118800E+02  0.7818608E-02  0.1130116E+00
         25   -1    0    0    0    0  0.00000000000E+00  0.00000000000E+00  0.99999998245E-14  0.12500000000E+03  0.12500000000E+03 0.  0.
        -11    1    3    3    0    0  0.46992743935E+02 -0.26927379170E+02  0.11685754377E+02  0.55407206996E+02  0.51100000000E-03 0.  1.
         23    2    1    0    0    0  0.17140102462E+02 -0.34053030208E+01  0.23958267570E+02  0.95345695321E+02  0.90616906977E+02 0.  0.
         11    1    3    3    0    0 -0.29852641473E+02  0.23522076149E+02  0.12272513193E+02  0.39938488324E+02  0.51100000000E-03 0. -1.
         22    1    1    0    0    0 -0.17140102462E+02  0.34053030208E+01 -0.23958267570E+02  0.29654304679E+02  0.00000000000E+00 0.  1.
</event>
<event>
 5    1  0.1691138E-003  0.9118800E+02  0.7818608E-02  0.1130116E+00
         25   -1    0    0    0    0  0.00000000000E+00  0.00000000000E+00  0.99999998245E-14  0.12500000000E+03  0.12500000000E+03 0.  0.
        -11    1    3    3    0    0  0.15189176103E+02 -0.17819954760E+02  0.26763085549E+02  0.35560154762E+02  0.51100000000E-03 0. -1.
         23    2    1    0    0    0 -0.10641457901E+02  0.28251636621E+02 -0.84566648325E-01  0.94810552348E+02  0.89875681288E+02 0.  0.
         11    1    3    3    0    0 -0.25830634004E+02  0.46071591381E+02 -0.26847652197E+02  0.59250397586E+02  0.51100000000E-03 0.  1.
         22    1    1    0    0    0  0.10641457901E+02 -0.28251636621E+02  0.84566648325E-01  0.30189447652E+02  0.00000000000E+00 0.  1.
</event>
<event>
 5    1  0.1691138E-003  0.9118800E+02  0.7818608E-02  0.1130116E+00
         25   -1    0    0    0    0  0.00000000000E+00  0.00000000000E+00  0.99999998245E-14  0.12500000000E+03  0.12500000000E+03 0.  0.
        -11    1    3    3    0    0 -0.12656430416E+02  0.48428360813E+02 -0.29427905074E+02  0.58064558547E+02  0.51100000000E-03 0. -1.
         23    2    1    0    0    0  0.25262579542E+01  0.14063308760E+02 -0.25409828683E+02  0.95848361518E+02  0.91307668788E+02 0.  0.
         11    1    3    3    0    0  0.15182688371E+02 -0.34365052053E+02  0.40180763912E+01  0.37783802971E+02  0.51100000000E-03 0.  1.
         22    1    1    0    0    0 -0.25262579542E+01 -0.14063308760E+02  0.25409828683E+02  0.29151638482E+02  0.00000000000E+00 0. -1.
</event>
<event>
 5    1  0.1691138E-003  0.9118800E+02  0.7818608E-02  0.1130116E+00
         25   -1    0    0    0    0  0.00000000000E+00  0.00000000000E+00  0.99999998245E-14  0.12500000000E+03  0.12500000000E+03 0.  0.
        -11    1    3    3    0    0 -0.78049447466E+01 -0.49436411493E+02 -0.30088373552E+02  0.58396799287E+02  0.51100000000E-03 0. -1.
         23    2    1    0    0    0  0.10727900698E+02 -0.28198887048E+02 -0.92728543316E+01  0.93436557355E+02  0.87943955669E+02 0.  0.
         11    1    3    3    0    0  0.18532845444E+02  0.21237524444E+02  0.20815519220E+02  0.35039758068E+02  0.51100000000E-03 0.  1.
         22    1    1    0    0    0 -0.10727900698E+02  0.28198887048E+02  0.92728543316E+01  0.31563442645E+02  0.00000000000E+00 0. -1.
</event>
<event>
 5    1  0.1691138E-003  0.9118800E+02  0.7818608E-02  0.1130116E+00
         25   -1    0    0    0    0  0.00000000000E+00  0.00000000000E+00  0.99999998245E-14  0.12500000000E+03  0.12500000000E+03 0.  0.
        -11    1    3    3    0    0 -0.29265391615E+01 -0.32837641909E+02  0.46062126596E+01  0.33288024167E+02  0.51100000000E-03 0.  1.
         23    2    1    0    0    0 -0.16056696952E+01  0.29289717074E+02 -0.72187533520E+00  0.95657423333E+02  0.91045899596E+02 0.  0.
         11    1    3    3    0    0  0.13208694663E+01  0.62127358983E+02 -0.53280879948E+01  0.62369399166E+02  0.51100000000E-03 0. -1.
         22    1    1    0    0    0  0.16056696952E+01 -0.29289717074E+02  0.72187533520E+00  0.29342576667E+02  0.00000000000E+00 0. -1.
</event>
<event>
 5    1  0.1691138E-003  0.9118800E+02  0.7818608E-02  0.1130116E+00
         25   -1    0    0    0    0  0.00000000000E+00  0.00000000000E+00  0.99999998245E-14  0.12500000000E+03  0.12500000000E+03 0.  0.
        -11    1    3    3    0    0 -0.34773680817E+02 -0.18387066718E+02 -0.13467748793E+02  0.41577317829E+02  0.51100000000E-03 0.  1.
         23    2    1    0    0    0  0.71971045048E+01  0.15351892986E+02 -0.23164041413E+02  0.96293698495E+02  0.91915312237E+02 0.  0.
         11    1    3    3    0    0  0.41970785321E+02  0.33738959703E+02 -0.96962926208E+01  0.54716380666E+02  0.51100000000E-03 0. -1.
         22    1    1    0    0    0 -0.71971045048E+01 -0.15351892986E+02  0.23164041413E+02  0.28706301505E+02  0.00000000000E+00 0. -1.
</event>
<event>
 5    1  0.1691138E-003  0.9118800E+02  0.7818608E-02  0.1130116E+00
         25   -1    0    0    0    0  0.00000000000E+00  0.00000000000E+00  0.99999998245E-14  0.12500000000E+03  0.12500000000E+03 0.  0.
        -11    1    3    3    0    0 -0.23617352421E+02 -0.18827545752E+02  0.17693879163E+02  0.35004702177E+02  0.51100000000E-03 0. -1.
         23    2    1    0    0    0  0.23494330489E+02  0.58765795533E+01 -0.14098600439E+02  0.96977004323E+02  0.92839921805E+02 0.  0.
         11    1    3    3    0    0  0.47111682910E+02  0.24704125305E+02 -0.31792479602E+02  0.61972302146E+02  0.51100000000E-03 0.  1.
         22    1    1    0    0    0 -0.23494330489E+02 -0.58765795533E+01  0.14098600439E+02  0.28022995677E+02  0.00000000000E+00 0.  1.
</event>
<event>
 5    1  0.1691138E-003  0.9118800E+02  0.7818608E-02  0.1130116E+00
         25   -1    0    0    0    0  0.00000000000E+00  0.00000000000E+00  0.99999998245E-14  0.12500000000E+03  0.12500000000E+03 0.  0.
        -11    1    3    3    0    0  0.52910739651E+02  0.16814571651E+01  0.13947683152E+02  0.54744054784E+02  0.51100000000E-03 0.  1.
         23    2    1    0    0    0  0.92612190314E+01 -0.12121439704E+02  0.18810516430E+02  0.10078151518E+03  0.97828312854E+02 0.  0.
         11    1    3    3    0    0 -0.43649520619E+02 -0.13802896869E+02  0.48628332783E+01  0.46037460399E+02  0.51100000000E-03 0. -1.
         22    1    1    0    0    0 -0.92612190314E+01  0.12121439704E+02 -0.18810516430E+02  0.24218484817E+02  0.00000000000E+00 0.  1.
</event>
<event>
 5    1  0.1691138E-003  0.9118800E+02  0.7818608E-02  0.1130116E+00
         25   -1    0    0    0    0  0.00000000000E+00  0.00000000000E+00  0.99999998245E-14  0.12500000000E+03  0.12500000000E+03 0.  0.
        -11    1    3    3    0    0  0.22377547300E+00 -0.49041710007E+02  0.37345970848E+02  0.61643012051E+02  0.51100000000E-03 0.  1.
         23    2    1    0    0    0  0.64085666716E+01 -0.20390951844E+02  0.20147150258E+02  0.95627082075E+02  0.91004233522E+02 0.  0.
         11    1    3    3    0    0  0.61847911986E+01  0.28650758163E+02 -0.17198820590E+02  0.33984070025E+02  0.51100000000E-03 0. -1.
         22    1    1    0    0    0 -0.64085666716E+01  0.20390951844E+02 -0.20147150258E+02  0.29372917925E+02  0.00000000000E+00 0.  1.
</event>
<event>
 5    1  0.1691138E-003  0.9118800E+02  0.7818608E-02  0.1130116E+00
         25   -1    0    0    0    0  0.00000000000E+00  0.00000000000E+00  0.99999998245E-14  0.12500000000E+03  0.12500000000E+03 0.  0.
        -11    1    3    3    0    0 -0.16197425072E+02  0.43794371854E+02 -0.33742909214E+02  0.57609786561E+02  0.51100000000E-03 0.  1.
         23    2    1    0    0    0  0.96787908071E+01  0.10443203376E+02 -0.16494055793E+02  0.10321024634E+03  0.10088390151E+03 0.  0.
         11    1    3    3    0    0  0.25876215879E+02 -0.33351168479E+02  0.17248853421E+02  0.45600459775E+02  0.51100000000E-03 0. -1.
         22    1    1    0    0    0 -0.96787908071E+01 -0.10443203376E+02  0.16494055793E+02  0.21789753664E+02  0.00000000000E+00 0.  1.
</event>
<event>
 5    1  0.1691138E-003  0.9118800E+02  0.7818608E-02  0.1130116E+00
         25   -1    0    0    0    0  0.00000000000E+00  0.00000000000E+00  0.99999998245E-14  0.12500000000E+03  0.12500000000E+03 0.  0.
        -11    1    3    3    0    0 -0.36300235476E+02  0.42684121621E+02  0.95879318704E+01  0.56846897646E+02  0.51100000000E-03 0.  1.
         23    2    1    0    0    0 -0.22113271455E+02  0.14757519619E+02 -0.12942435413E+02  0.95431642011E+02  0.90735387268E+02 0.  0.
         11    1    3    3    0    0  0.14186964021E+02 -0.27926602002E+02 -0.22530367284E+02  0.38584744365E+02  0.51100000000E-03 0. -1.
         22    1    1    0    0    0  0.22113271455E+02 -0.14757519619E+02  0.12942435413E+02  0.29568357989E+02  0.00000000000E+00 0.  1.
</event>
<event>
 5    1  0.1691138E-003  0.9118800E+02  0.7818608E-02  0.1130116E+00
         25   -1    0    0    0    0  0.00000000000E+00  0.00000000000E+00  0.99999998245E-14  0.12500000000E+03  0.12500000000E+03 0.  0.
        -11    1    3    3    0    0  0.31286783852E+02  0.24375545849E+01 -0.53163381861E+02  0.61734509695E+02  0.51100000000E-03 0.  1.
         23    2    1    0    0    0  0.94083748233E+01  0.56278317651E+01 -0.26166288226E+02  0.96629863470E+02  0.92371347655E+02 0.  0.
         11    1    3    3    0    0 -0.21878409029E+02  0.31902771801E+01  0.26997093634E+02  0.34895353775E+02  0.51100000000E-03 0. -1.
         22    1    1    0    0    0 -0.94083748233E+01 -0.56278317651E+01  0.26166288226E+02  0.28370136530E+02  0.00000000000E+00 0.  1.
</event>
<event>
 5    1  0.1691138E-003  0.9118800E+02  0.7818608E-02  0.1130116E+00
         25   -1    0    0    0    0  0.00000000000E+00  0.00000000000E+00  0.99999998245E-14  0.12500000000E+03  0.12500000000E+03 0.  0.
        -11    1    3    3    0    0 -0.39090299348E+02 -0.94457424298E+01  0.49806941381E-01  0.40215370621E+02  0.51100000000E-03 0. -1.
         23    2    1    0    0    0 -0.45180037103E+01  0.26331841961E+02  0.17639572551E+02  0.92985428656E+02  0.87300384672E+02 0.  0.
         11    1    3    3    0    0  0.34572295638E+02  0.35777584391E+02  0.17589765610E+02  0.52770058035E+02  0.51100000000E-03 0.  1.
         22    1    1    0    0    0  0.45180037103E+01 -0.26331841961E+02 -0.17639572551E+02  0.32014571344E+02  0.00000000000E+00 0. -1.
</event>
<event>
 5    1  0.1691138E-003  0.9118800E+02  0.7818608E-02  0.1130116E+00
         25   -1    0    0    0    0  0.00000000000E+00  0.00000000000E+00  0.99999998245E-14  0.12500000000E+03  0.12500000000E+03 0.  0.
        -11    1    3    3    0    0  0.33652760763E+01 -0.30661373735E+02 -0.16228539415E+02  0.34854130518E+02  0.51100000000E-03 0. -1.
         23    2    1    0    0    0 -0.23624553405E+01  0.96071856506E+01  0.28215309018E+02  0.95100453610E+02  0.90277978502E+02 0.  0.
         11    1    3    3    0    0 -0.57277314168E+01  0.40268559386E+02  0.44443848433E+02  0.60246323091E+02  0.51100000000E-03 0.  1.
         22    1    1    0    0    0  0.23624553405E+01 -0.96071856506E+01 -0.28215309018E+02  0.29899546390E+02  0.00000000000E+00 0.  1.
</event>
<event>
 5    1  0.1691138E-003  0.9118800E+02  0.7818608E-02  0.1130116E+00
         25   -1    0    0    0    0  0.00000000000E+00  0.00000000000E+00  0.99999998245E-14  0.12500000000E+03  0.12500000000E+03 0.  0.
        -11    1    3    3    0    0  0.99098939927E+01  0.10690667580E+02 -0.34969605181E+02  0.37886272699E+02  0.51100000000E-03 0.  1.
         23    2    1    0    0    0 -0.17166021855E+02 -0.19282552242E+02  0.90631011684E+01  0.97638915773E+02  0.93726884847E+02 0.  0.
         11    1    3    3    0    0 -0.27075915848E+02 -0.29973219823E+02  0.44032706349E+02  0.59752643073E+02  0.51100000000E-03 0. -1.
         22    1    1    0    0    0  0.17166021855E+02  0.19282552242E+02 -0.90631011684E+01  0.27361084227E+02  0.00000000000E+00 0. -1.
</event>
<event>
 5    1  0.1691138E-003  0.9118800E+02  0.7818608E-02  0.1130116E+00
         25   -1    0    0    0    0  0.00000000000E+00  0.00000000000E+00  0.99999998245E-14  0.12500000000E+03  0.12500000000E+03 0.  0.
        -11    1    3    3    0    0  0.64020669350E+01 -0.23417546561E+02 -0.22646346678E+02  0.33199773585E+02  0.51100000000E-03 0.  1.
         23    2    1    0    0    0  0.93117150505E+01  0.28799635094E+02  0.78379994975E+01  0.93734024006E+02  0.88365751293E+02 0.  0.
         11    1    3    3    0    0  0.29096481155E+01  0.52217181654E+02  0.30484346176E+02  0.60534250422E+02  0.51100000000E-03 0. -1.
         22    1    1    0    0    0 -0.93117150505E+01 -0.28799635094E+02 -0.78379994975E+01  0.31265975994E+02  0.00000000000E+00 0. -1.
</event>
<event>
 5    1  0.1691138E-003  0.9118800E+02  0.7818608E-02  0.1130116E+00
         25   -1    0    0    0    0  0.00000000000E+00  0.00000000000E+00  0.99999998245E-14  0.12500000000E+03  0.12500000000E+03 0.  0.
        -11    1    3    3    0    0 -0.43485331380E+02 -0.16599637225E+02 -0.15141399848E+01  0.46570533832E+02  0.51100000000E-03 0.  1.
         23    2    1    0    0    0 -0.13296286626E+02  0.18053555645E+02  0.17749522025E+02  0.96403363107E+02  0.92064329557E+02 0.  0.
         11    1    3    3    0    0  0.30189044754E+02  0.34653192870E+02  0.19263662010E+02  0.49832829275E+02  0.51100000000E-03 0. -1.
         22    1    1    0    0    0  0.13296286626E+02 -0.18053555645E+02 -0.17749522025E+02  0.28596636893E+02  0.00000000000E+00 0. -1.
</event>
<event>
 5    1  0.1691138E-003  0.9118800E+02  0.7818608E-02  0.1130116E+00
         25   -1    0    0    0    0  0.00000000000E+00  0.00000000000E+00  0.99999998245E-14  0.12500000000E+03  0.12500000000E+03 0.  0.
        -11    1    3    3    0    0  0.46846214511E+02 -0.10593567637E+02  0.45463337548E+01  0.48243762708E+02  0.51100000000E-03 0.  1.
         23    2    1    0    0    0  0.14259890214E+02  0.24613483502E+02 -0.10018228631E+01  0.96536484967E+02  0.92244898188E+02 0.  0.
         11    1    3    3    0    0 -0.32586324297E+02  0.35207051138E+02 -0.55481566179E+01  0.48292722259E+02  0.51100000000E-03 0. -1.
         22    1    1    0    0    0 -0.14259890214E+02 -0.24613483502E+02  0.10018228631E+01  0.28463515033E+02  0.00000000000E+00 0.  1.
</event>
<event>
 5    1  0.1691138E-003  0.9118800E+02  0.7818608E-02  0.1130116E+00
         25   -1    0    0    0    0  0.00000000000E+00  0.00000000000E+00  0.99999998245E-14  0.12500000000E+03  0.12500000000E+03 0.  0.
        -11    1    3    3    0    0  0.44675795283E+02  0.12194286307E+02  0.31830380871E+02  0.56194309760E+02  0.51100000000E-03 0.  1.
         23    2    1    0    0    0  0.61827933239E+01  0.17183654150E+02  0.22326647549E+02  0.96155865518E+02  0.91727675101E+02 0.  0.
         11    1    3    3    0    0 -0.38493001959E+02  0.49893678436E+01 -0.95037333225E+01  0.39961555758E+02  0.51100000000E-03 0. -1.
         22    1    1    0    0    0 -0.61827933239E+01 -0.17183654150E+02 -0.22326647549E+02  0.28844134482E+02  0.00000000000E+00 0.  1.
</event>
<event>
 5    1  0.1691138E-003  0.9118800E+02  0.7818608E-02  0.1130116E+00
         25   -1    0    0    0    0  0.00000000000E+00  0.00000000000E+00  0.99999998245E-14  0.12500000000E+03  0.12500000000E+03 0.  0.
        -11    1    3    3    0    0  0.12189668618E+02 -0.52698333766E+02 -0.20626319631E+02  0.57889096249E+02  0.51100000000E-03 0.  1.
         23    2    1    0    0    0 -0.72327047835E+01 -0.20104152069E+02 -0.19845833823E+02  0.95839306095E+02  0.91295271092E+02 0.  0.
         11    1    3    3    0    0 -0.19422373402E+02  0.32594181697E+02  0.78048580873E+00  0.37950209847E+02  0.51100000000E-03 0. -1.
         22    1    1    0    0    0  0.72327047835E+01  0.20104152069E+02  0.19845833823E+02  0.29160693905E+02  0.00000000000E+00 0.  1.
</event>
<event>
 5    1  0.1691138E-003  0.9118800E+02  0.7818608E-02  0.1130116E+00
         25   -1    0    0    0    0  0.00000000000E+00  0.00000000000E+00  0.99999998245E-14  0.12500000000E+03  0.12500000000E+03 0.  0.
        -11    1    3    3    0    0  0.29724663690E+02 -0.10599507919E+02  0.79336834528E+01  0.32539952873E+02  0.51100000000E-03 0. -1.
         23    2    1    0    0    0 -0.29358851549E+02  0.47842309439E+01 -0.46945783335E+01  0.94885716085E+02  0.89980159042E+02 0.  0.
         11    1    3    3    0    0 -0.59083515239E+02  0.15383738863E+02 -0.12628261786E+02  0.62345763211E+02  0.51100000000E-03 0.  1.
         22    1    1    0    0    0  0.29358851549E+02 -0.47842309439E+01  0.46945783335E+01  0.30114283915E+02  0.00000000000E+00 0.  1.
</event>
<event>
 5    1  0.1691138E-003  0.9118800E+02  0.7818608E-02  0.1130116E+00
         25   -1    0    0    0    0  0.00000000000E+00  0.00000000000E+00  0.99999998245E-14  0.12500000000E+03  0.12500000000E+03 0.  0.
        -11    1    3    3    0    0  0.14145184905E+01 -0.26973753955E+02 -0.53850585490E+02  0.60245081317E+02  0.51100000000E-03 0.  1.
         23    2    1    0    0    0  0.12388822969E+02 -0.13455241458E+02 -0.23689798415E+02  0.95071201057E+02  0.90237465967E+02 0.  0.
         11    1    3    3    0    0  0.10974304478E+02  0.13518512496E+02  0.30160787075E+02  0.34826119740E+02  0.51100000000E-03 0. -1.
         22    1    1    0    0    0 -0.12388822969E+02  0.13455241458E+02  0.23689798415E+02  0.29928798943E+02  0.00000000000E+00 0.  1.
</event>
<event>
 5    1  0.1691138E-003  0.9118800E+02  0.7818608E-02  0.1130116E+00
         25   -1    0    0    0    0  0.00000000000E+00  0.00000000000E+00  0.99999998245E-14  0.12500000000E+03  0.12500000000E+03 0.  0.
        -11    1    3    3    0    0  0.26017245142E+02 -0.36160839233E+02  0.16158274190E+02  0.47387690004E+02  0.51100000000E-03 0.  1.
         23    2    1    0    0    0  0.26314347343E+02  0.86832783064E+01 -0.47811557374E+01  0.96880546797E+02  0.92709960087E+02 0.  0.
         11    1    3    3    0    0  0.29710220117E+00  0.44844117540E+02 -0.20939429927E+02  0.49492856793E+02  0.51100000000E-03 0. -1.
         22    1    1    0    0    0 -0.26314347343E+02 -0.86832783064E+01  0.47811557374E+01  0.28119453203E+02  0.00000000000E+00 0. -1.
</event>
<event>
 5    1  0.1691138E-003  0.9118800E+02  0.7818608E-02  0.1130116E+00
         25   -1    0    0    0    0  0.00000000000E+00  0.00000000000E+00  0.99999998245E-14  0.12500000000E+03  0.12500000000E+03 0.  0.
        -11    1    3    3    0    0 -0.11743109683E+02 -0.40113663922E+02  0.35041086888E+01  0.41943836690E+02  0.51100000000E-03 0.  1.
         23    2    1    0    0    0  0.13114833951E+02  0.15684202169E+01  0.26305342682E+02  0.95564819260E+02  0.90918671432E+02 0.  0.
         11    1    3    3    0    0  0.24857943635E+02  0.41682084139E+02  0.22801233994E+02  0.53620982570E+02  0.51100000000E-03 0. -1.
         22    1    1    0    0    0 -0.13114833951E+02 -0.15684202169E+01 -0.26305342682E+02  0.29435180740E+02  0.00000000000E+00 0.  1.
</event>
<event>
 5    1  0.1691138E-003  0.9118800E+02  0.7818608E-02  0.1130116E+00
         25   -1    0    0    0    0  0.00000000000E+00  0.00000000000E+00  0.99999998245E-14  0.12500000000E+03  0.12500000000E+03 0.  0.
        -11    1    3    3    0    0  0.44300893628E+02  0.46368546045E+00 -0.20284314030E+02  0.48726148795E+02  0.51100000000E-03 0.  1.
         23    2    1    0    0    0  0.15550565399E+02  0.22385790418E+02  0.10078802769E+02  0.95939271135E+02  0.91432039154E+02 0.  0.
         11    1    3    3    0    0 -0.28750328229E+02  0.21922104958E+02  0.30363116800E+02  0.47213122340E+02  0.51100000000E-03 0. -1.
         22    1    1    0    0    0 -0.15550565399E+02 -0.22385790418E+02 -0.10078802769E+02  0.29060728865E+02  0.00000000000E+00 0.  1.
</event>
<event>
 5    1  0.1691138E-003  0.9118800E+02  0.7818608E-02  0.1130116E+00
         25   -1    0    0    0    0  0.00000000000E+00  0.00000000000E+00  0.99999998245E-14  0.12500000000E+03  0.12500000000E+03 0.  0.
        -11    1    3    3    0    0  0.67294257238E+01  0.19216576316E+02  0.34795111873E+02  0.40314535671E+02  0.51100000000E-03 0.  1.
         23    2    1    0    0    0  0.27768367365E+02 -0.71588730905E+01 -0.83946929496E+01  0.95120198131E+02  0.90305312871E+02 0.  0.
         11    1    3    3    0    0  0.21038941641E+02 -0.26375449406E+02 -0.43189804823E+02  0.54805662460E+02  0.51100000000E-03 0. -1.
         22    1    1    0    0    0 -0.27768367365E+02  0.71588730905E+01  0.83946929496E+01  0.29879801869E+02  0.00000000000E+00 0. -1.
</event>
<event>
 5    1  0.1691138E-003  0.9118800E+02  0.7818608E-02  0.1130116E+00
         25   -1    0    0    0    0  0.00000000000E+00  0.00000000000E+00  0.99999998245E-14  0.12500000000E+03  0.12500000000E+03 0.  0.
        -11    1    3    3    0    0 -0.21006473667E+02 -0.36962795889E+02  0.31361934983E+02  0.52830778737E+02  0.51100000000E-03 0.  1.
         23    2    1    0    0    0  0.14660353935E+02 -0.16948460327E+02  0.19175434447E+02  0.95506380839E+02  0.90838291540E+02 0.  0.
         11    1    3    3    0    0  0.35666827603E+02  0.20014335561E+02 -0.12186500536E+02  0.42675602102E+02  0.51100000000E-03 0. -1.
         22    1    1    0    0    0 -0.14660353935E+02  0.16948460327E+02 -0.19175434447E+02  0.29493619161E+02  0.00000000000E+00 0.  1.
</event>
<event>
 5    1  0.1691138E-003  0.9118800E+02  0.7818608E-02  0.1130116E+00
         25   -1    0    0    0    0  0.00000000000E+00  0.00000000000E+00  0.99999998245E-14  0.12500000000E+03  0.12500000000E+03 0.  0.
        -11    1    3    3    0    0 -0.22385855281E+02 -0.20517912962E+02 -0.19529392488E+02  0.36104133284E+02  0.51100000000E-03 0.  1.
         23    2    1    0    0    0  0.86470240267E+00  0.29364598993E+02  0.27851666635E+01  0.95490941432E+02  0.90817043323E+02 0.  0.
         11    1    3    3    0    0  0.23250557684E+02  0.49882511955E+02  0.22314559152E+02  0.59386808147E+02  0.51100000000E-03 0. -1.
         22    1    1    0    0    0 -0.86470240267E+00 -0.29364598993E+02 -0.27851666635E+01  0.29509058568E+02  0.00000000000E+00 0. -1.
</event>
<event>
 5    1  0.1691138E-003  0.9118800E+02  0.7818608E-02  0.1130116E+00
         25   -1    0    0    0    0  0.00000000000E+00  0.00000000000E+00  0.99999998245E-14  0.12500000000E+03  0.12500000000E+03 0.  0.
        -11    1    3    3    0    0  0.29142483633E+02  0.53530043376E+02  0.10357217548E+02  0.61822502794E+02  0.51100000000E-03 0.  1.
         23    2    1    0    0    0  0.17147278154E+02  0.23670613245E+02 -0.45032507475E+00  0.95767657087E+02  0.91197117672E+02 0.  0.
         11    1    3    3    0    0 -0.11995205479E+02 -0.29859430130E+02 -0.10807542622E+02  0.33945154293E+02  0.51100000000E-03 0. -1.
         22    1    1    0    0    0 -0.17147278154E+02 -0.23670613245E+02  0.45032507475E+00  0.29232342913E+02  0.00000000000E+00 0.  1.
</event>
<event>
 5    1  0.1691138E-003  0.9118800E+02  0.7818608E-02  0.1130116E+00
         25   -1    0    0    0    0  0.00000000000E+00  0.00000000000E+00  0.99999998245E-14  0.12500000000E+03  0.12500000000E+03 0.  0.
        -11    1    3    3    0    0 -0.33961710673E+02  0.67377051119E+01  0.26514098952E+02  0.43609539157E+02  0.51100000000E-03 0.  1.
         23    2    1    0    0    0 -0.21779127475E+02 -0.40011401070E+01 -0.21402738808E+02  0.94203624495E+02  0.89027558227E+02 0.  0.
         11    1    3    3    0    0  0.12182583198E+02 -0.10738845219E+02 -0.47916837760E+02  0.50594085338E+02  0.51100000000E-03 0. -1.
         22    1    1    0    0    0  0.21779127475E+02  0.40011401070E+01  0.21402738808E+02  0.30796375505E+02  0.00000000000E+00 0. -1.
</event>
<event>
 5    1  0.1691138E-003  0.9118800E+02  0.7818608E-02  0.1130116E+00
         25   -1    0    0    0    0  0.00000000000E+00  0.00000000000E+00  0.99999998245E-14  0.12500000000E+03  0.12500000000E+03 0.  0.
        -11    1    3    3    0    0 -0.15381487373E+02  0.16808528537E+02  0.25658871195E+02  0.34314639101E+02  0.51100000000E-03 0. -1.
         23    2    1    0    0    0 -0.10378656682E+01  0.19681660635E+01 -0.30640963350E+02  0.94278354897E+02  0.89132422408E+02 0.  0.
         11    1    3    3    0    0  0.14343621705E+02 -0.14840362474E+02 -0.56299834545E+02  0.59963715796E+02  0.51100000000E-03 0.  1.
         22    1    1    0    0    0  0.10378656682E+01 -0.19681660635E+01  0.30640963350E+02  0.30721645103E+02  0.00000000000E+00 0.  1.
</event>
<event>
 5    1  0.1691138E-003  0.9118800E+02  0.7818608E-02  0.1130116E+00
         25   -1    0    0    0    0  0.00000000000E+00  0.00000000000E+00  0.99999998245E-14  0.12500000000E+03  0.12500000000E+03 0.  0.
        -11    1    3    3    0    0  0.29387553902E+02 -0.22063587012E+02 -0.16949897713E+02  0.40468867403E+02  0.51100000000E-03 0.  1.
         23    2    1    0    0    0  0.66652633278E+01  0.26223681574E+02  0.36992681369E+01  0.97690811157E+02  0.93796070223E+02 0.  0.
         11    1    3    3    0    0 -0.22722290574E+02  0.48287268586E+02  0.20649165850E+02  0.57221943754E+02  0.51100000000E-03 0. -1.
         22    1    1    0    0    0 -0.66652633278E+01 -0.26223681574E+02 -0.36992681369E+01  0.27309188843E+02  0.00000000000E+00 0. -1.
</event>
<event>
 5    1  0.1691138E-003  0.9118800E+02  0.7818608E-02  0.1130116E+00
         25   -1    0    0    0    0  0.00000000000E+00  0.00000000000E+00  0.99999998245E-14  0.12500000000E+03  0.12500000000E+03 0.  0.
        -11    1    3    3    0    0 -0.27735236794E+02 -0.34909403987E+02 -0.16704841537E+02  0.47612619942E+02  0.51100000000E-03 0. -1.
         23    2    1    0    0    0 -0.94939899885E+01 -0.14159692731E+02  0.23237939325E+02  0.96179268431E+02  0.91759561396E+02 0.  0.
         11    1    3    3    0    0  0.18241246805E+02  0.20749711256E+02  0.39942780861E+02  0.48566648488E+02  0.51100000000E-03 0.  1.
         22    1    1    0    0    0  0.94939899885E+01  0.14159692731E+02 -0.23237939325E+02  0.28820731569E+02  0.00000000000E+00 0.  1.
</event>
<event>
 5    1  0.1691138E-003  0.9118800E+02  0.7818608E-02  0.1130116E+00
         25   -1    0    0    0    0  0.00000000000E+00  0.00000000000E+00  0.99999998245E-14  0.12500000000E+03  0.12500000000E+03 0.  0.
        -11    1    3    3    0    0  0.14035799463E+02  0.24566786192E+02 -0.43821289414E+02  0.52161633952E+02  0.51100000000E-03 0. -1.
         23    2    1    0    0    0  0.93526105754E+01  0.38675235210E+02 -0.19445553854E+02  0.80712589737E+02  0.67477014117E+02 0.  0.
         11    1    3    3    0    0 -0.46831888873E+01  0.14108449018E+02  0.24375735560E+02  0.28550955785E+02  0.51100000000E-03 0.  1.
         22    1    1    0    0    0 -0.93526105754E+01 -0.38675235210E+02  0.19445553854E+02  0.44287410263E+02  0.00000000000E+00 0. -1.
</event>
<event>
 5    1  0.1691138E-003  0.9118800E+02  0.7818608E-02  0.1130116E+00
         25   -1    0    0    0    0  0.00000000000E+00  0.00000000000E+00  0.99999998245E-14  0.12500000000E+03  0.12500000000E+03 0.  0.
        -11    1    3    3    0    0  0.11758401456E+02  0.26481440158E+02 -0.45870287775E+02  0.54255045650E+02  0.51100000000E-03 0. -1.
         23    2    1    0    0    0  0.19283820510E+02  0.23685337153E+02 -0.73737915971E+01  0.93579724189E+02  0.88147212362E+02 0.  0.
         11    1    3    3    0    0  0.75254190536E+01 -0.27961030051E+01  0.38496496178E+02  0.39324678539E+02  0.51100000000E-03 0.  1.
         22    1    1    0    0    0 -0.19283820510E+02 -0.23685337153E+02  0.73737915971E+01  0.31420275811E+02  0.00000000000E+00 0. -1.
</event>
<event>
 5    1  0.1691138E-003  0.9118800E+02  0.7818608E-02  0.1130116E+00
         25   -1    0    0    0    0  0.00000000000E+00  0.00000000000E+00  0.99999998245E-14  0.12500000000E+03  0.12500000000E+03 0.  0.
        -11    1    3    3    0    0 -0.12418513257E+02 -0.46571648494E+02  0.19638994123E+02  0.52046402425E+02  0.51100000000E-03 0.  1.
         23    2    1    0    0    0 -0.11312906092E+02 -0.14211770512E+00  0.23772386797E+02  0.98672667896E+02  0.95095567583E+02 0.  0.
         11    1    3    3    0    0  0.11056071649E+01  0.46429530789E+02  0.41333926738E+01  0.46626265471E+02  0.51100000000E-03 0. -1.
         22    1    1    0    0    0  0.11312906092E+02  0.14211770512E+00 -0.23772386797E+02  0.26327332104E+02  0.00000000000E+00 0.  1.
</event>
<event>
 5    1  0.1691138E-003  0.9118800E+02  0.7818608E-02  0.1130116E+00
         25   -1    0    0    0    0  0.00000000000E+00  0.00000000000E+00  0.99999998245E-14  0.12500000000E+03  0.12500000000E+03 0.  0.
        -11    1    3    3    0    0  0.37901176758E+02  0.12007865183E+00 -0.40307076441E+02  0.55327877513E+02  0.51100000000E-03 0.  1.
         23    2    1    0    0    0  0.15337713323E+01  0.12564626594E+02 -0.25522839227E+02  0.96510745567E+02  0.92210012427E+02 0.  0.
         11    1    3    3    0    0 -0.36367405426E+02  0.12444547942E+02  0.14784237214E+02  0.41182868054E+02  0.51100000000E-03 0. -1.
         22    1    1    0    0    0 -0.15337713323E+01 -0.12564626594E+02  0.25522839227E+02  0.28489254433E+02  0.00000000000E+00 0.  1.
</event>
<event>
 5    1  0.1691138E-003  0.9118800E+02  0.7818608E-02  0.1130116E+00
         25   -1    0    0    0    0  0.00000000000E+00  0.00000000000E+00  0.99999998245E-14  0.12500000000E+03  0.12500000000E+03 0.  0.
        -11    1    3    3    0    0 -0.28272362927E+02 -0.22660231993E+02  0.33319993912E+02  0.49224329493E+02  0.51100000000E-03 0.  1.
         23    2    1    0    0    0 -0.29780737921E+02  0.85102650127E+01  0.12058813639E+01  0.94003691968E+02  0.88746397066E+02 0.  0.
         11    1    3    3    0    0 -0.15083749944E+01  0.31170497006E+02 -0.32114112548E+02  0.44779362476E+02  0.51100000000E-03 0. -1.
         22    1    1    0    0    0  0.29780737921E+02 -0.85102650127E+01 -0.12058813639E+01  0.30996308032E+02  0.00000000000E+00 0.  1.
</event>
<event>
 5    1  0.1691138E-003  0.9118800E+02  0.7818608E-02  0.1130116E+00
         25   -1    0    0    0    0  0.00000000000E+00  0.00000000000E+00  0.99999998245E-14  0.12500000000E+03  0.12500000000E+03 0.  0.
        -11    1    3    3    0    0  0.38008859774E+01  0.19289708761E+02  0.51391255988E+02  0.55023638471E+02  0.51100000000E-03 0.  1.
         23    2    1    0    0    0 -0.88959502662E+01 -0.10035053819E+02  0.25644364546E+02  0.96060862672E+02  0.91598120439E+02 0.  0.
         11    1    3    3    0    0 -0.12696836244E+02 -0.29324762580E+02 -0.25746891441E+02  0.41037224201E+02  0.51100000000E-03 0. -1.
         22    1    1    0    0    0  0.88959502662E+01  0.10035053819E+02 -0.25644364546E+02  0.28939137328E+02  0.00000000000E+00 0.  1.
</event>
<event>
 5    1  0.1691138E-003  0.9118800E+02  0.7818608E-02  0.1130116E+00
         25   -1    0    0    0    0  0.00000000000E+00  0.00000000000E+00  0.99999998245E-14  0.12500000000E+03  0.12500000000E+03 0.  0.
        -11    1    3    3    0    0  0.26495868660E+02 -0.14842323948E+02 -0.10581727499E+02  0.32160512953E+02  0.51100000000E-03 0.  1.
         23    2    1    0    0    0 -0.32253412522E+02 -0.43810696476E+01 -0.44345397037E+01  0.92149710306E+02  0.86095456190E+02 0.  0.
         11    1    3    3    0    0 -0.58749281183E+02  0.10461254301E+02  0.61471877951E+01  0.59989197353E+02  0.51100000000E-03 0. -1.
         22    1    1    0    0    0  0.32253412522E+02  0.43810696476E+01  0.44345397037E+01  0.32850289694E+02  0.00000000000E+00 0. -1.
</event>
<event>
 4    1  0.1691138E-003  0.9118800E+02  0.7818608E-02  0.1130116E+00
         25   -1    0    0    0    0  0.00000000000E+00  0.00000000000E+00  0.99999998245E-14  0.12500000000E+03  0.12500000000E+03 0.  0.
        -11    1    1    0    0    0 -0.22112947270E+01  0.42648506344E+02  0.10382436718E+02  0.43949743005E+02  0.51100000000E-03 0. -1.
         11    1    1    0    0    0  0.48691814157E+01  0.66639684959E+01 -0.27555897955E+02  0.28765342274E+02  0.51100000000E-03 0.  1.
         22    1    1    0    0    0 -0.26578866887E+01 -0.49312474840E+02  0.17173461237E+02  0.52284914721E+02  0.00000000000E+00 0.  1.
</event>
<event>
 5    1  0.1691138E-003  0.9118800E+02  0.7818608E-02  0.1130116E+00
         25   -1    0    0    0    0  0.00000000000E+00  0.00000000000E+00  0.99999998245E-14  0.12500000000E+03  0.12500000000E+03 0.  0.
        -11    1    3    3    0    0  0.24154974634E+02 -0.61776007885E+01 -0.22445520832E+02  0.33547383754E+02  0.51100000000E-03 0. -1.
         23    2    1    0    0    0 -0.21030669244E+02  0.35339074814E+01  0.19605295551E+02  0.96031997574E+02  0.91558721013E+02 0.  0.
         11    1    3    3    0    0 -0.45185643877E+02  0.97115082699E+01  0.42050816383E+02  0.62484613820E+02  0.51100000000E-03 0.  1.
         22    1    1    0    0    0  0.21030669244E+02 -0.35339074814E+01 -0.19605295551E+02  0.28968002426E+02  0.00000000000E+00 0.  1.
</event>
<event>
 5    1  0.1691138E-003  0.9118800E+02  0.7818608E-02  0.1130116E+00
         25   -1    0    0    0    0  0.00000000000E+00  0.00000000000E+00  0.99999998245E-14  0.12500000000E+03  0.12500000000E+03 0.  0.
        -11    1    3    3    0    0  0.75822777937E+01  0.34018751077E+02 -0.19681030060E+02  0.40026357639E+02  0.51100000000E-03 0.  1.
         23    2    1    0    0    0  0.15555488078E+02 -0.19719817703E+02 -0.17483130861E+02  0.94397642505E+02  0.89299555577E+02 0.  0.
         11    1    3    3    0    0  0.79732102842E+01 -0.53738568780E+02  0.21978991993E+01  0.54371284865E+02  0.51100000000E-03 0. -1.
         22    1    1    0    0    0 -0.15555488078E+02  0.19719817703E+02  0.17483130861E+02  0.30602357495E+02  0.00000000000E+00 0. -1.
</event>
<event>
 5    1  0.1691138E-003  0.9118800E+02  0.7818608E-02  0.1130116E+00
         25   -1    0    0    0    0  0.00000000000E+00  0.00000000000E+00  0.99999998245E-14  0.12500000000E+03  0.12500000000E+03 0.  0.
        -11    1    3    3    0    0 -0.39753661284E+01 -0.58643658255E+02 -0.17845775308E+02  0.61427631291E+02  0.51100000000E-03 0. -1.
         23    2    1    0    0    0 -0.23515633871E+01 -0.28761882531E+02 -0.25422819775E+00  0.96141026195E+02  0.91707450891E+02 0.  0.
         11    1    3    3    0    0  0.16238027413E+01  0.29881775724E+02  0.17591547110E+02  0.34713394904E+02  0.51100000000E-03 0.  1.
         22    1    1    0    0    0  0.23515633871E+01  0.28761882531E+02  0.25422819775E+00  0.28858973805E+02  0.00000000000E+00 0. -1.
</event>
<event>
 5    1  0.1691138E-003  0.9118800E+02  0.7818608E-02  0.1130116E+00
         25   -1    0    0    0    0  0.00000000000E+00  0.00000000000E+00  0.99999998245E-14  0.12500000000E+03  0.12500000000E+03 0.  0.
        -11    1    3    3    0    0  0.44538793268E+02 -0.18311213419E+02  0.23026488626E+02  0.53378121186E+02  0.51100000000E-03 0.  1.
         23    2    1    0    0    0  0.13948041952E+02  0.10247336675E+02  0.24204323961E+02  0.95244242882E+02  0.90476851849E+02 0.  0.
         11    1    3    3    0    0 -0.30590751316E+02  0.28558550094E+02  0.11778353354E+01  0.41866121696E+02  0.51100000000E-03 0. -1.
         22    1    1    0    0    0 -0.13948041952E+02 -0.10247336675E+02 -0.24204323961E+02  0.29755757118E+02  0.00000000000E+00 0. -1.
</event>
<event>
 5    1  0.1691138E-003  0.9118800E+02  0.7818608E-02  0.1130116E+00
         25   -1    0    0    0    0  0.00000000000E+00  0.00000000000E+00  0.99999998245E-14  0.12500000000E+03  0.12500000000E+03 0.  0.
        -11    1    3    3    0    0  0.25425516553E+02 -0.20842155955E+02 -0.99982668829E+01  0.34363028065E+02  0.51100000000E-03 0. -1.
         23    2    1    0    0    0 -0.15739739742E+02  0.47752389798E+01 -0.33075670218E+02  0.88060288647E+02  0.79937926930E+02 0.  0.
         11    1    3    3    0    0 -0.41165256296E+02  0.25617394935E+02 -0.23077403335E+02  0.53697260583E+02  0.51100000000E-03 0.  1.
         22    1    1    0    0    0  0.15739739742E+02 -0.47752389798E+01  0.33075670218E+02  0.36939711353E+02  0.00000000000E+00 0.  1.
</event>
<event>
 5    1  0.1691138E-003  0.9118800E+02  0.7818608E-02  0.1130116E+00
         25   -1    0    0    0    0  0.00000000000E+00  0.00000000000E+00  0.99999998245E-14  0.12500000000E+03  0.12500000000E+03 0.  0.
        -11    1    3    3    0    0 -0.31799981118E+02 -0.14422609768E+02  0.18600070715E+02  0.39562774201E+02  0.51100000000E-03 0. -1.
         23    2    1    0    0    0  0.24595360390E+02 -0.77078679779E+01  0.11420000828E+02  0.96808522558E+02  0.92612799544E+02 0.  0.
         11    1    3    3    0    0  0.56395341508E+02  0.67147417903E+01 -0.71800698876E+01  0.57245748357E+02  0.51100000000E-03 0.  1.
         22    1    1    0    0    0 -0.24595360390E+02  0.77078679779E+01 -0.11420000828E+02  0.28191477442E+02  0.00000000000E+00 0.  1.
</event>
<event>
 5    1  0.1691138E-003  0.9118800E+02  0.7818608E-02  0.1130116E+00
         25   -1    0    0    0    0  0.00000000000E+00  0.00000000000E+00  0.99999998245E-14  0.12500000000E+03  0.12500000000E+03 0.  0.
        -11    1    3    3    0    0 -0.20310592188E+02  0.21167033788E+02  0.29188705119E+02  0.41382894790E+02  0.51100000000E-03 0. -1.
         23    2    1    0    0    0  0.23439930211E+02  0.14745922973E+02 -0.44624110288E+01  0.96950299737E+02  0.92803959691E+02 0.  0.
         11    1    3    3    0    0  0.43750522399E+02 -0.64211108147E+01 -0.33651116148E+02  0.55567404947E+02  0.51100000000E-03 0.  1.
         22    1    1    0    0    0 -0.23439930211E+02 -0.14745922973E+02  0.44624110288E+01  0.28049700263E+02  0.00000000000E+00 0.  1.
</event>
<event>
 5    1  0.1691138E-003  0.9118800E+02  0.7818608E-02  0.1130116E+00
         25   -1    0    0    0    0  0.00000000000E+00  0.00000000000E+00  0.99999998245E-14  0.12500000000E+03  0.12500000000E+03 0.  0.
        -11    1    3    3    0    0  0.18610488750E+02 -0.28376258847E+01  0.29119702320E+02  0.34675055525E+02  0.51100000000E-03 0.  1.
         23    2    1    0    0    0  0.13247783344E+01  0.15994584996E+02 -0.25436713062E+02  0.94923295423E+02  0.90032348941E+02 0.  0.
         11    1    3    3    0    0 -0.17285710416E+02  0.18832210880E+02 -0.54556415382E+02  0.60248239898E+02  0.51100000000E-03 0. -1.
         22    1    1    0    0    0 -0.13247783344E+01 -0.15994584996E+02  0.25436713062E+02  0.30076704577E+02  0.00000000000E+00 0. -1.
</event>
<event>
 5    1  0.1691138E-003  0.9118800E+02  0.7818608E-02  0.1130116E+00
         25   -1    0    0    0    0  0.00000000000E+00  0.00000000000E+00  0.99999998245E-14  0.12500000000E+03  0.12500000000E+03 0.  0.
        -11    1    3    3    0    0  0.49372709614E+02  0.30648135168E+02 -0.83737088040E+01  0.58711937826E+02  0.51100000000E-03 0. -1.
         23    2    1    0    0    0  0.26588018983E+02  0.27463728809E+00 -0.96782260809E+01  0.96703953648E+02  0.92471554610E+02 0.  0.
         11    1    3    3    0    0 -0.22784690630E+02 -0.30373497880E+02 -0.13045172769E+01  0.37992015822E+02  0.51100000000E-03 0.  1.
         22    1    1    0    0    0 -0.26588018983E+02 -0.27463728809E+00  0.96782260809E+01  0.28296046352E+02  0.00000000000E+00 0. -1.
</event>
<event>
 5    1  0.1691138E-003  0.9118800E+02  0.7818608E-02  0.1130116E+00
         25   -1    0    0    0    0  0.00000000000E+00  0.00000000000E+00  0.99999998245E-14  0.12500000000E+03  0.12500000000E+03 0.  0.
        -11    1    3    3    0    0 -0.23125892178E+02 -0.17004351772E+02  0.52898177531E+02  0.60184483503E+02  0.51100000000E-03 0.  1.
         23    2    1    0    0    0 -0.21716857567E+02 -0.85311453319E+01  0.19739101429E+02  0.94438022504E+02  0.89356060936E+02 0.  0.
         11    1    3    3    0    0  0.14090346116E+01  0.84732064397E+01 -0.33159076101E+02  0.34253539001E+02  0.51100000000E-03 0. -1.
         22    1    1    0    0    0  0.21716857567E+02  0.85311453319E+01 -0.19739101429E+02  0.30561977496E+02  0.00000000000E+00 0.  1.
</event>
<event>
 5    1  0.1691138E-003  0.9118800E+02  0.7818608E-02  0.1130116E+00
         25   -1    0    0    0    0  0.00000000000E+00  0.00000000000E+00  0.99999998245E-14  0.12500000000E+03  0.12500000000E+03 0.  0.
        -11    1    3    3    0    0  0.47421634103E+01  0.32173016718E+02  0.95393390661E+01  0.33890855826E+02  0.51100000000E-03 0. -1.
         23    2    1    0    0    0  0.36278667565E+01 -0.22375453841E+02 -0.18962406535E+02  0.95446739378E+02  0.90756183506E+02 0.  0.
         11    1    3    3    0    0 -0.11142966538E+01 -0.54548470558E+02 -0.28501745601E+02  0.61555883552E+02  0.51100000000E-03 0.  1.
         22    1    1    0    0    0 -0.36278667565E+01  0.22375453841E+02  0.18962406535E+02  0.29553260622E+02  0.00000000000E+00 0.  1.
</event>
<event>
 5    1  0.1691138E-003  0.9118800E+02  0.7818608E-02  0.1130116E+00
         25   -1    0    0    0    0  0.00000000000E+00  0.00000000000E+00  0.99999998245E-14  0.12500000000E+03  0.12500000000E+03 0.  0.
        -11    1    3    3    0    0 -0.88836954317E+01 -0.22062417276E+02 -0.14303730897E+02  0.27753684772E+02  0.51100000000E-03 0.  1.
         23    2    1    0    0    0  0.36295695041E+01  0.36124661467E+02 -0.13275366334E+01  0.88669196343E+02  0.80884479881E+02 0.  0.
         11    1    3    3    0    0  0.12513264936E+02  0.58187078743E+02  0.12976194263E+02  0.60915511570E+02  0.51100000000E-03 0. -1.
         22    1    1    0    0    0 -0.36295695041E+01 -0.36124661467E+02  0.13275366334E+01  0.36330803657E+02  0.00000000000E+00 0. -1.
</event>
<event>
 5    1  0.1691138E-003  0.9118800E+02  0.7818608E-02  0.1130116E+00
         25   -1    0    0    0    0  0.00000000000E+00  0.00000000000E+00  0.99999998245E-14  0.12500000000E+03  0.12500000000E+03 0.  0.
        -11    1    3    3    0    0  0.17291482395E+02 -0.34588746297E+02  0.11005761641E+02  0.40205764802E+02  0.51100000000E-03 0. -1.
         23    2    1    0    0    0 -0.11756987615E+02  0.65305458841E+01 -0.21144636485E+02  0.99940661632E+02  0.96747947824E+02 0.  0.
         11    1    3    3    0    0 -0.29048470009E+02  0.41119292181E+02 -0.32150398126E+02  0.59734896830E+02  0.51100000000E-03 0.  1.
         22    1    1    0    0    0  0.11756987615E+02 -0.65305458841E+01  0.21144636485E+02  0.25059338368E+02  0.00000000000E+00 0.  1.
</event>
<event>
 5    1  0.1691138E-003  0.9118800E+02  0.7818608E-02  0.1130116E+00
         25   -1    0    0    0    0  0.00000000000E+00  0.00000000000E+00  0.99999998245E-14  0.12500000000E+03  0.12500000000E+03 0.  0.
        -11    1    3    3    0    0  0.15482638519E+02  0.13019152049E+02  0.33162844701E+02  0.38845652067E+02  0.51100000000E-03 0. -1.
         23    2    1    0    0    0  0.20373217427E+02 -0.11064635300E+02 -0.18029131375E+02  0.95630905346E+02  0.91009484872E+02 0.  0.
         11    1    3    3    0    0  0.48905789072E+01 -0.24083787349E+02 -0.51191976076E+02  0.56785253279E+02  0.51100000000E-03 0.  1.
         22    1    1    0    0    0 -0.20373217427E+02  0.11064635300E+02  0.18029131375E+02  0.29369094654E+02  0.00000000000E+00 0. -1.
</event>
<event>
 5    1  0.1691138E-003  0.9118800E+02  0.7818608E-02  0.1130116E+00
         25   -1    0    0    0    0  0.00000000000E+00  0.00000000000E+00  0.99999998245E-14  0.12500000000E+03  0.12500000000E+03 0.  0.
        -11    1    3    3    0    0  0.28646650008E+02  0.11625939621E+02  0.17707575687E+02  0.35627956238E+02  0.51100000000E-03 0.  1.
         23    2    1    0    0    0 -0.22505641410E+02  0.10725017745E+02 -0.14574607763E+02  0.96121823251E+02  0.91681272966E+02 0.  0.
         11    1    3    3    0    0 -0.51152291418E+02 -0.90092187528E+00 -0.32282183450E+02  0.60493867012E+02  0.51100000000E-03 0. -1.
         22    1    1    0    0    0  0.22505641410E+02 -0.10725017745E+02  0.14574607763E+02  0.28878176749E+02  0.00000000000E+00 0. -1.
</event>
<event>
 5    1  0.1691138E-003  0.9118800E+02  0.7818608E-02  0.1130116E+00
         25   -1    0    0    0    0  0.00000000000E+00  0.00000000000E+00  0.99999998245E-14  0.12500000000E+03  0.12500000000E+03 0.  0.
        -11    1    3    3    0    0  0.34389029571E+02  0.96524720147E+01  0.36771786765E+02  0.51263436024E+02  0.51100000000E-03 0. -1.
         23    2    1    0    0    0  0.23220928317E+02 -0.16573502812E+02  0.17524416309E+01  0.96417425605E+02  0.92083420882E+02 0.  0.
         11    1    3    3    0    0 -0.11168101254E+02 -0.26225974827E+02 -0.35019345134E+02  0.45153989581E+02  0.51100000000E-03 0.  1.
         22    1    1    0    0    0 -0.23220928317E+02  0.16573502812E+02 -0.17524416309E+01  0.28582574395E+02  0.00000000000E+00 0. -1.
</event>
<event>
 5    1  0.1691138E-003  0.9118800E+02  0.7818608E-02  0.1130116E+00
         25   -1    0    0    0    0  0.00000000000E+00  0.00000000000E+00  0.99999998245E-14  0.12500000000E+03  0.12500000000E+03 0.  0.
        -11    1    3    3    0    0 -0.28963792526E+02  0.16622197181E+02 -0.14724241769E+02  0.36496602753E+02  0.51100000000E-03 0.  1.
         23    2    1    0    0    0  0.18269008462E+02 -0.18955568122E+02 -0.12961733623E+02  0.95655890344E+02  0.91043794879E+02 0.  0.
         11    1    3    3    0    0  0.47232800987E+02 -0.35577765303E+02  0.17625081467E+01  0.59159287591E+02  0.51100000000E-03 0. -1.
         22    1    1    0    0    0 -0.18269008462E+02  0.18955568122E+02  0.12961733623E+02  0.29344109656E+02  0.00000000000E+00 0. -1.
</event>
<event>
 5    1  0.1691138E-003  0.9118800E+02  0.7818608E-02  0.1130116E+00
         25   -1    0    0    0    0  0.00000000000E+00  0.00000000000E+00  0.99999998245E-14  0.12500000000E+03  0.12500000000E+03 0.  0.
        -11    1    3    3    0    0 -0.18409584441E+02  0.15002870484E+02  0.28458179038E+02  0.37065710252E+02  0.51100000000E-03 0.  1.
         23    2    1    0    0    0  0.85286484364E+01  0.14658263072E+02 -0.23750988035E+02  0.95815895541E+02  0.91263212113E+02 0.  0.
         11    1    3    3    0    0  0.26938232878E+02 -0.34460741187E+00 -0.52209167073E+02  0.58750185289E+02  0.51100000000E-03 0. -1.
         22    1    1    0    0    0 -0.85286484364E+01 -0.14658263072E+02  0.23750988035E+02  0.29184104459E+02  0.00000000000E+00 0. -1.
</event>
<event>
 5    1  0.1691138E-003  0.9118800E+02  0.7818608E-02  0.1130116E+00
         25   -1    0    0    0    0  0.00000000000E+00  0.00000000000E+00  0.99999998245E-14  0.12500000000E+03  0.12500000000E+03 0.  0.
        -11    1    3    3    0    0  0.21625034573E+01  0.83646873554E+01 -0.38636198993E+02  0.39590406523E+02  0.51100000000E-03 0.  1.
         23    2    1    0    0    0  0.64852224193E+01  0.25827765145E+02  0.13785976086E+02  0.95013591431E+02  0.90157627841E+02 0.  0.
         11    1    3    3    0    0  0.43227189620E+01  0.17463077790E+02  0.52422175079E+02  0.55423184908E+02  0.51100000000E-03 0. -1.
         22    1    1    0    0    0 -0.64852224193E+01 -0.25827765145E+02 -0.13785976086E+02  0.29986408569E+02  0.00000000000E+00 0. -1.
</event>
<event>
 5    1  0.1691138E-003  0.9118800E+02  0.7818608E-02  0.1130116E+00
         25   -1    0    0    0    0  0.00000000000E+00  0.00000000000E+00  0.99999998245E-14  0.12500000000E+03  0.12500000000E+03 0.  0.
        -11    1    3    3    0    0 -0.28899647328E+02  0.50104288933E+01  0.39878302934E+02  0.49503263109E+02  0.51100000000E-03 0. -1.
         23    2    1    0    0    0 -0.23796639454E+02  0.17048570006E+02 -0.41516965803E+01  0.95433627666E+02  0.90738122729E+02 0.  0.
         11    1    3    3    0    0  0.51030078743E+01  0.12038141112E+02 -0.44029999514E+02  0.45930364556E+02  0.51100000000E-03 0.  1.
         22    1    1    0    0    0  0.23796639454E+02 -0.17048570006E+02  0.41516965803E+01  0.29566372334E+02  0.00000000000E+00 0. -1.
</event>
<event>
 5    1  0.1691138E-003  0.9118800E+02  0.7818608E-02  0.1130116E+00
         25   -1    0    0    0    0  0.00000000000E+00  0.00000000000E+00  0.99999998245E-14  0.12500000000E+03  0.12500000000E+03 0.  0.
        -11    1    3    3    0    0 -0.15244609531E+01  0.10482071304E+02 -0.33094331752E+02  0.34748130804E+02  0.51100000000E-03 0.  1.
         23    2    1    0    0    0 -0.20982940250E+01  0.11170953865E+02  0.27445169295E+02  0.95294270490E+02  0.90545942055E+02 0.  0.
         11    1    3    3    0    0 -0.57383307189E+00  0.68888256108E+00  0.60539501047E+02  0.60546139686E+02  0.51100000000E-03 0. -1.
         22    1    1    0    0    0  0.20982940250E+01 -0.11170953865E+02 -0.27445169295E+02  0.29705729510E+02  0.00000000000E+00 0. -1.
</event>
<event>
 5    1  0.1691138E-003  0.9118800E+02  0.7818608E-02  0.1130116E+00
         25   -1    0    0    0    0  0.00000000000E+00  0.00000000000E+00  0.99999998245E-14  0.12500000000E+03  0.12500000000E+03 0.  0.
        -11    1    3    3    0    0  0.26707499952E+02  0.20950773700E+02  0.85807470358E+01  0.35012207760E+02  0.51100000000E-03 0.  1.
         23    2    1    0    0    0 -0.14515875506E+02 -0.16307544562E+02 -0.18089736692E+02  0.96647130217E+02  0.92394710640E+02 0.  0.
         11    1    3    3    0    0 -0.41223375458E+02 -0.37258318261E+02 -0.26670483728E+02  0.61634922457E+02  0.51100000000E-03 0. -1.
         22    1    1    0    0    0  0.14515875506E+02  0.16307544562E+02  0.18089736692E+02  0.28352869783E+02  0.00000000000E+00 0. -1.
</event>
<event>
 5    1  0.1691138E-003  0.9118800E+02  0.7818608E-02  0.1130116E+00
         25   -1    0    0    0    0  0.00000000000E+00  0.00000000000E+00  0.99999998245E-14  0.12500000000E+03  0.12500000000E+03 0.  0.
        -11    1    3    3    0    0  0.28508452845E+02  0.36128640407E+02 -0.15124272781E+02  0.48443308812E+02  0.51100000000E-03 0.  1.
         23    2    1    0    0    0  0.18052881577E+02 -0.10300815869E+02 -0.19836881821E+02  0.96268219318E+02  0.91880655360E+02 0.  0.
         11    1    3    3    0    0 -0.10455571268E+02 -0.46429456276E+02 -0.47126090400E+01  0.47824910505E+02  0.51100000000E-03 0. -1.
         22    1    1    0    0    0 -0.18052881577E+02  0.10300815869E+02  0.19836881821E+02  0.28731780682E+02  0.00000000000E+00 0. -1.
</event>
<event>
 5    1  0.1691138E-003  0.9118800E+02  0.7818608E-02  0.1130116E+00
         25   -1    0    0    0    0  0.00000000000E+00  0.00000000000E+00  0.99999998245E-14  0.12500000000E+03  0.12500000000E+03 0.  0.
        -11    1    3    3    0    0 -0.32835261514E+02  0.15040685394E+02  0.30069811084E+02  0.46995426955E+02  0.51100000000E-03 0.  1.
         23    2    1    0    0    0  0.12412901180E+02 -0.13471363335E+02  0.53324039361E+01  0.10592141836E+03  0.10418903296E+03 0.  0.
         11    1    3    3    0    0  0.45248162694E+02 -0.28512048729E+02 -0.24737407148E+02  0.58925991401E+02  0.51100000000E-03 0. -1.
         22    1    1    0    0    0 -0.12412901180E+02  0.13471363335E+02 -0.53324039361E+01  0.19078581644E+02  0.00000000000E+00 0. -1.
</event>
<event>
 5    1  0.1691138E-003  0.9118800E+02  0.7818608E-02  0.1130116E+00
         25   -1    0    0    0    0  0.00000000000E+00  0.00000000000E+00  0.99999998245E-14  0.12500000000E+03  0.12500000000E+03 0.  0.
        -11    1    3    3    0    0  0.38419060171E+02  0.24751523035E+02 -0.45781711230E+00  0.45704175671E+02  0.51100000000E-03 0. -1.
         23    2    1    0    0    0  0.39205577823E+01  0.86521495823E+01 -0.29769882450E+02  0.93751378162E+02  0.88390296642E+02 0.  0.
         11    1    3    3    0    0 -0.34498502388E+02 -0.16099373453E+02 -0.29312065338E+02  0.48047202491E+02  0.51100000000E-03 0.  1.
         22    1    1    0    0    0 -0.39205577823E+01 -0.86521495823E+01  0.29769882450E+02  0.31248621838E+02  0.00000000000E+00 0.  1.
</event>
<event>
 5    1  0.1691138E-003  0.9118800E+02  0.7818608E-02  0.1130116E+00
         25   -1    0    0    0    0  0.00000000000E+00  0.00000000000E+00  0.99999998245E-14  0.12500000000E+03  0.12500000000E+03 0.  0.
        -11    1    3    3    0    0  0.44564138526E+02  0.56153426129E+01  0.40017610469E+02  0.60157324269E+02  0.51100000000E-03 0.  1.
         23    2    1    0    0    0  0.20204380028E+02 -0.95088531671E+01  0.18378939135E+02  0.96079061831E+02  0.91622952679E+02 0.  0.
         11    1    3    3    0    0 -0.24359758498E+02 -0.15124195780E+02 -0.21638671334E+02  0.35921737562E+02  0.51100000000E-03 0. -1.
         22    1    1    0    0    0 -0.20204380028E+02  0.95088531671E+01 -0.18378939135E+02  0.28920938169E+02  0.00000000000E+00 0.  1.
</event>
<event>
 5    1  0.1691138E-003  0.9118800E+02  0.7818608E-02  0.1130116E+00
         25   -1    0    0    0    0  0.00000000000E+00  0.00000000000E+00  0.99999998245E-14  0.12500000000E+03  0.12500000000E+03 0.  0.
        -11    1    3    3    0    0  0.12017128169E+02 -0.27975949302E+02 -0.24454585297E+02  0.39052424395E+02  0.51100000000E-03 0. -1.
         23    2    1    0    0    0 -0.14837604822E+02 -0.12554877182E+02  0.22479887438E+02  0.95282584279E+02  0.90529807631E+02 0.  0.
         11    1    3    3    0    0 -0.26854732992E+02  0.15421072120E+02  0.46934472735E+02  0.56230159884E+02  0.51100000000E-03 0.  1.
         22    1    1    0    0    0  0.14837604822E+02  0.12554877182E+02 -0.22479887438E+02  0.29717415721E+02  0.00000000000E+00 0.  1.
</event>
<event>
 5    1  0.1691138E-003  0.9118800E+02  0.7818608E-02  0.1130116E+00
         25   -1    0    0    0    0  0.00000000000E+00  0.00000000000E+00  0.99999998245E-14  0.12500000000E+03  0.12500000000E+03 0.  0.
        -11    1    3    3    0    0 -0.31845114825E+02 -0.41099327659E+02 -0.19736436313E+02  0.55612885115E+02  0.51100000000E-03 0.  1.
         23    2    1    0    0    0 -0.25681796063E+02 -0.18888633572E+01 -0.13915897308E+02  0.95729286792E+02  0.91144509972E+02 0.  0.
         11    1    3    3    0    0  0.61633187617E+01  0.39210464302E+02  0.58205390047E+01  0.40116401677E+02  0.51100000000E-03 0. -1.
         22    1    1    0    0    0  0.25681796063E+02  0.18888633572E+01  0.13915897308E+02  0.29270713208E+02  0.00000000000E+00 0.  1.
</event>
<event>
 5    1  0.1691138E-003  0.9118800E+02  0.7818608E-02  0.1130116E+00
         25   -1    0    0    0    0  0.00000000000E+00  0.00000000000E+00  0.99999998245E-14  0.12500000000E+03  0.12500000000E+03 0.  0.
        -11    1    3    3    0    0 -0.79568855825E+01 -0.44139600077E+02  0.24254497773E+02  0.50989184987E+02  0.51100000000E-03 0. -1.
         23    2    1    0    0    0  0.12576907288E+02 -0.55609432087E+01  0.26917573680E+02  0.94773216196E+02  0.89823738784E+02 0.  0.
         11    1    3    3    0    0  0.20533792870E+02  0.38578656868E+02  0.26630759068E+01  0.43784031209E+02  0.51100000000E-03 0.  1.
         22    1    1    0    0    0 -0.12576907288E+02  0.55609432087E+01 -0.26917573680E+02  0.30226783804E+02  0.00000000000E+00 0. -1.
</event>
<event>
 5    1  0.1691138E-003  0.9118800E+02  0.7818608E-02  0.1130116E+00
         25   -1    0    0    0    0  0.00000000000E+00  0.00000000000E+00  0.99999998245E-14  0.12500000000E+03  0.12500000000E+03 0.  0.
        -11    1    3    3    0    0  0.25771851423E+01 -0.48565447721E+02 -0.16084592497E+02  0.51224590888E+02  0.51100000000E-03 0.  1.
         23    2    1    0    0    0  0.25238658669E+02 -0.11505776001E+02 -0.11739129516E+02  0.94880572141E+02  0.89973012816E+02 0.  0.
         11    1    3    3    0    0  0.22661473527E+02  0.37059671720E+02  0.43454629804E+01  0.43655981253E+02  0.51100000000E-03 0. -1.
         22    1    1    0    0    0 -0.25238658669E+02  0.11505776001E+02  0.11739129516E+02  0.30119427859E+02  0.00000000000E+00 0.  1.
</event>
<event>
 5    1  0.1691138E-003  0.9118800E+02  0.7818608E-02  0.1130116E+00
         25   -1    0    0    0    0  0.00000000000E+00  0.00000000000E+00  0.99999998245E-14  0.12500000000E+03  0.12500000000E+03 0.  0.
        -11    1    3    3    0    0  0.25778455316E+02 -0.28626816872E+02 -0.10894665597E+02  0.40033949861E+02  0.51100000000E-03 0. -1.
         23    2    1    0    0    0  0.15486048326E+02  0.23966936178E+02  0.52114689456E+01  0.95993257144E+02  0.91505815586E+02 0.  0.
         11    1    3    3    0    0 -0.10292406990E+02  0.52593753050E+02  0.16106134543E+02  0.55959307284E+02  0.51100000000E-03 0.  1.
         22    1    1    0    0    0 -0.15486048326E+02 -0.23966936178E+02 -0.52114689456E+01  0.29006742856E+02  0.00000000000E+00 0.  1.
</event>
<event>
 5    1  0.1691138E-003  0.9118800E+02  0.7818608E-02  0.1130116E+00
         25   -1    0    0    0    0  0.00000000000E+00  0.00000000000E+00  0.99999998245E-14  0.12500000000E+03  0.12500000000E+03 0.  0.
        -11    1    3    3    0    0 -0.28215939938E+02  0.18209098211E+02  0.60257511929E+01  0.34117740282E+02  0.51100000000E-03 0. -1.
         23    2    1    0    0    0  0.28730273110E+02 -0.97180159441E+00 -0.65668202074E+01  0.95512780413E+02  0.90847097385E+02 0.  0.
         11    1    3    3    0    0  0.56946213049E+02 -0.19180899806E+02 -0.12592571400E+02  0.61395040131E+02  0.51100000000E-03 0.  1.
         22    1    1    0    0    0 -0.28730273110E+02  0.97180159441E+00  0.65668202074E+01  0.29487219587E+02  0.00000000000E+00 0.  1.
</event>
<event>
 5    1  0.1691138E-003  0.9118800E+02  0.7818608E-02  0.1130116E+00
         25   -1    0    0    0    0  0.00000000000E+00  0.00000000000E+00  0.99999998245E-14  0.12500000000E+03  0.12500000000E+03 0.  0.
        -11    1    3    3    0    0  0.48985132906E+02  0.22974577008E+02  0.19687221848E+02  0.57575699205E+02  0.51100000000E-03 0.  1.
         23    2    1    0    0    0  0.32116581945E+02 -0.31162726266E+01  0.16359579092E+02  0.88822357471E+02  0.81120831897E+02 0.  0.
         11    1    3    3    0    0 -0.16868550961E+02 -0.26090849635E+02 -0.33276427565E+01  0.31246658266E+02  0.51100000000E-03 0. -1.
         22    1    1    0    0    0 -0.32116581945E+02  0.31162726266E+01 -0.16359579092E+02  0.36177642529E+02  0.00000000000E+00 0.  1.
</event>
<event>
 5    1  0.1691138E-003  0.9118800E+02  0.7818608E-02  0.1130116E+00
         25   -1    0    0    0    0  0.00000000000E+00  0.00000000000E+00  0.99999998245E-14  0.12500000000E+03  0.12500000000E+03 0.  0.
        -11    1    3    3    0    0 -0.14766529451E+02  0.12916557965E+02 -0.30838362448E+02  0.36549862659E+02  0.51100000000E-03 0.  1.
         23    2    1    0    0    0  0.27668191691E+01  0.16852451205E+02  0.24726984454E+02  0.94948641294E+02  0.90067532016E+02 0.  0.
         11    1    3    3    0    0  0.17533348620E+02  0.39358932401E+01  0.55565346902E+02  0.58398778634E+02  0.51100000000E-03 0. -1.
         22    1    1    0    0    0 -0.27668191691E+01 -0.16852451205E+02 -0.24726984454E+02  0.30051358706E+02  0.00000000000E+00 0. -1.
</event>
<event>
 5    1  0.1691138E-003  0.9118800E+02  0.7818608E-02  0.1130116E+00
         25   -1    0    0    0    0  0.00000000000E+00  0.00000000000E+00  0.99999998245E-14  0.12500000000E+03  0.12500000000E+03 0.  0.
        -11    1    3    3    0    0 -0.28946286774E+02 -0.16478550658E+02  0.45181101410E+02  0.56131649491E+02  0.51100000000E-03 0.  1.
         23    2    1    0    0    0 -0.11765831354E+02  0.10267750439E+02  0.29599106915E+02  0.91534067820E+02  0.85196930432E+02 0.  0.
         11    1    3    3    0    0  0.17180455420E+02  0.26746301097E+02 -0.15581994495E+02  0.35402418329E+02  0.51100000000E-03 0. -1.
         22    1    1    0    0    0  0.11765831354E+02 -0.10267750439E+02 -0.29599106915E+02  0.33465932180E+02  0.00000000000E+00 0.  1.
</event>
<event>
 5    1  0.1691138E-003  0.9118800E+02  0.7818608E-02  0.1130116E+00
         25   -1    0    0    0    0  0.00000000000E+00  0.00000000000E+00  0.99999998245E-14  0.12500000000E+03  0.12500000000E+03 0.  0.
        -11    1    3    3    0    0 -0.14001530956E+02  0.43608323551E+01 -0.22528860325E+02  0.26881392742E+02  0.51100000000E-03 0.  1.
         23    2    1    0    0    0 -0.22019139044E+02 -0.25151600666E+02  0.24901467988E+02  0.83316326838E+02  0.72139321521E+02 0.  0.
         11    1    3    3    0    0 -0.80176080884E+01 -0.29512433021E+02  0.47430328313E+02  0.56434934096E+02  0.51100000000E-03 0. -1.
         22    1    1    0    0    0  0.22019139044E+02  0.25151600666E+02 -0.24901467988E+02  0.41683673162E+02  0.00000000000E+00 0. -1.
</event>
<event>
 5    1  0.1691138E-003  0.9118800E+02  0.7818608E-02  0.1130116E+00
         25   -1    0    0    0    0  0.00000000000E+00  0.00000000000E+00  0.99999998245E-14  0.12500000000E+03  0.12500000000E+03 0.  0.
        -11    1    3    3    0    0 -0.28005011815E+02 -0.22202649451E+02 -0.14505328230E+00  0.35738765649E+02  0.51100000000E-03 0. -1.
         23    2    1    0    0    0  0.11140372602E+02  0.19836155951E+02  0.18012100666E+02  0.95982475036E+02  0.91491085680E+02 0.  0.
         11    1    3    3    0    0  0.39145384417E+02  0.42038805402E+02  0.18157153949E+02  0.60243709386E+02  0.51100000000E-03 0.  1.
         22    1    1    0    0    0 -0.11140372602E+02 -0.19836155951E+02 -0.18012100666E+02  0.29017524964E+02  0.00000000000E+00 0.  1.
</event>
<event>
 5    1  0.1691138E-003  0.9118800E+02  0.7818608E-02  0.1130116E+00
         25   -1    0    0    0    0  0.00000000000E+00  0.00000000000E+00  0.99999998245E-14  0.12500000000E+03  0.12500000000E+03 0.  0.
        -11    1    3    3    0    0 -0.20775350728E+02  0.23240914507E+02 -0.12305579913E+02  0.33513916546E+02  0.51100000000E-03 0.  1.
         23    2    1    0    0    0  0.15330395217E+02 -0.24202787174E+02  0.56908460830E+01  0.95790726582E+02  0.91228732565E+02 0.  0.
         11    1    3    3    0    0  0.36105745944E+02 -0.47443701681E+02  0.17996425996E+02  0.62276810036E+02  0.51100000000E-03 0. -1.
         22    1    1    0    0    0 -0.15330395217E+02  0.24202787174E+02 -0.56908460830E+01  0.29209273418E+02  0.00000000000E+00 0. -1.
</event>
<event>
 5    1  0.1691138E-003  0.9118800E+02  0.7818608E-02  0.1130116E+00
         25   -1    0    0    0    0  0.00000000000E+00  0.00000000000E+00  0.99999998245E-14  0.12500000000E+03  0.12500000000E+03 0.  0.
        -11    1    3    3    0    0  0.47511880252E+02 -0.31126273266E+02  0.42849711101E+01  0.56961255518E+02  0.51100000000E-03 0.  1.
         23    2    1    0    0    0  0.13369206174E+02 -0.23128767016E+02 -0.12106688759E+02  0.95670024717E+02  0.91063198819E+02 0.  0.
         11    1    3    3    0    0 -0.34142674077E+02  0.79975062501E+01 -0.16391659869E+02  0.38708769199E+02  0.51100000000E-03 0. -1.
         22    1    1    0    0    0 -0.13369206174E+02  0.23128767016E+02  0.12106688759E+02  0.29329975283E+02  0.00000000000E+00 0.  1.
</event>
<event>
 5    1  0.1691138E-003  0.9118800E+02  0.7818608E-02  0.1130116E+00
         25   -1    0    0    0    0  0.00000000000E+00  0.00000000000E+00  0.99999998245E-14  0.12500000000E+03  0.12500000000E+03 0.  0.
        -11    1    3    3    0    0  0.60670345693E+02  0.35880017653E+01 -0.86429069432E+01  0.61387819996E+02  0.51100000000E-03 0.  1.
         23    2    1    0    0    0  0.26274741043E+02  0.97983590787E+01 -0.47941718905E+01  0.96550853411E+02  0.92264366647E+02 0.  0.
         11    1    3    3    0    0 -0.34395604650E+02  0.62103573134E+01  0.38487350527E+01  0.35163033415E+02  0.51100000000E-03 0. -1.
         22    1    1    0    0    0 -0.26274741043E+02 -0.97983590787E+01  0.47941718905E+01  0.28449146589E+02  0.00000000000E+00 0.  1.
</event>
<event>
 5    1  0.1691138E-003  0.9118800E+02  0.7818608E-02  0.1130116E+00
         25   -1    0    0    0    0  0.00000000000E+00  0.00000000000E+00  0.99999998245E-14  0.12500000000E+03  0.12500000000E+03 0.  0.
        -11    1    3    3    0    0 -0.41611071939E+02  0.76007018461E+00 -0.92577596713E+01  0.42635256878E+02  0.51100000000E-03 0. -1.
         23    2    1    0    0    0 -0.98246997956E+00 -0.24478442717E+02  0.15010082967E+02  0.96269145579E+02  0.91881915494E+02 0.  0.
         11    1    3    3    0    0  0.40628601960E+02 -0.25238512901E+02  0.24267842638E+02  0.53633888701E+02  0.51100000000E-03 0.  1.
         22    1    1    0    0    0  0.98246997956E+00  0.24478442717E+02 -0.15010082967E+02  0.28730854421E+02  0.00000000000E+00 0.  1.
</event>
<event>
 5    1  0.1691138E-003  0.9118800E+02  0.7818608E-02  0.1130116E+00
         25   -1    0    0    0    0  0.00000000000E+00  0.00000000000E+00  0.99999998245E-14  0.12500000000E+03  0.12500000000E+03 0.  0.
        -11    1    3    3    0    0 -0.34329688148E+02 -0.18512644266E+00 -0.95753475606E+01  0.35640553325E+02  0.51100000000E-03 0.  1.
         23    2    1    0    0    0  0.16415825147E+02 -0.14413193089E+02  0.19400787538E+02  0.95783395006E+02  0.91218686416E+02 0.  0.
         11    1    3    3    0    0  0.50745513294E+02 -0.14228066646E+02  0.28976135099E+02  0.60142841682E+02  0.51100000000E-03 0. -1.
         22    1    1    0    0    0 -0.16415825147E+02  0.14413193089E+02 -0.19400787538E+02  0.29216604994E+02  0.00000000000E+00 0. -1.
</event>
<event>
 5    1  0.1691138E-003  0.9118800E+02  0.7818608E-02  0.1130116E+00
         25   -1    0    0    0    0  0.00000000000E+00  0.00000000000E+00  0.99999998245E-14  0.12500000000E+03  0.12500000000E+03 0.  0.
        -11    1    3    3    0    0  0.27430128050E+02  0.10535671957E+02 -0.22255766192E+02  0.36860974451E+02  0.51100000000E-03 0.  1.
         23    2    1    0    0    0 -0.10925299561E+02 -0.28520586066E+02 -0.81485471700E+01  0.93390115138E+02  0.87877919777E+02 0.  0.
         11    1    3    3    0    0 -0.38355427611E+02 -0.39056258022E+02  0.14107219022E+02  0.56529140686E+02  0.51100000000E-03 0. -1.
         22    1    1    0    0    0  0.10925299561E+02  0.28520586066E+02  0.81485471700E+01  0.31609884862E+02  0.00000000000E+00 0. -1.
</event>
<event>
 5    1  0.1691138E-003  0.9118800E+02  0.7818608E-02  0.1130116E+00
         25   -1    0    0    0    0  0.00000000000E+00  0.00000000000E+00  0.99999998245E-14  0.12500000000E+03  0.12500000000E+03 0.  0.
        -11    1    3    3    0    0  0.38083989451E+02 -0.61787185011E+01 -0.77648941994E+01  0.39355563736E+02  0.51100000000E-03 0. -1.
         23    2    1    0    0    0 -0.15940209776E+02  0.81028267737E+01 -0.21635650775E+02  0.96931379195E+02  0.92778471635E+02 0.  0.
         11    1    3    3    0    0 -0.54024199227E+02  0.14281545275E+02 -0.13870756575E+02  0.57575815459E+02  0.51100000000E-03 0.  1.
         22    1    1    0    0    0  0.15940209776E+02 -0.81028267737E+01  0.21635650775E+02  0.28068620805E+02  0.00000000000E+00 0.  1.
</event>
<event>
 5    1  0.1691138E-003  0.9118800E+02  0.7818608E-02  0.1130116E+00
         25   -1    0    0    0    0  0.00000000000E+00  0.00000000000E+00  0.99999998245E-14  0.12500000000E+03  0.12500000000E+03 0.  0.
        -11    1    3    3    0    0 -0.46151458364E+02  0.23935305480E+02  0.76757489698E+01  0.52552574438E+02  0.51100000000E-03 0.  1.
         23    2    1    0    0    0 -0.36076020565E+01  0.28848359394E+02  0.89088059480E+00  0.95913296842E+02  0.91396521874E+02 0.  0.
         11    1    3    3    0    0  0.42543856308E+02  0.49130539148E+01 -0.67848683750E+01  0.43360722405E+02  0.51100000000E-03 0. -1.
         22    1    1    0    0    0  0.36076020565E+01 -0.28848359394E+02 -0.89088059480E+00  0.29086703158E+02  0.00000000000E+00 0.  1.
</event>
<event>
 5    1  0.1691138E-003  0.9118800E+02  0.7818608E-02  0.1130116E+00
         25   -1    0    0    0    0  0.00000000000E+00  0.00000000000E+00  0.99999998245E-14  0.12500000000E+03  0.12500000000E+03 0.  0.
        -11    1    3    3    0    0  0.12741441688E+02 -0.22164518024E+02 -0.46946516613E+02  0.53456389870E+02  0.51100000000E-03 0. -1.
         23    2    1    0    0    0 -0.17862967749E+02 -0.12751032068E+02 -0.20045183654E+02  0.95276544223E+02  0.90521467375E+02 0.  0.
         11    1    3    3    0    0 -0.30604409438E+02  0.94134859560E+01  0.26901332959E+02  0.41820154353E+02  0.51100000000E-03 0.  1.
         22    1    1    0    0    0  0.17862967749E+02  0.12751032068E+02  0.20045183654E+02  0.29723455777E+02  0.00000000000E+00 0. -1.
</event>
<event>
 5    1  0.1691138E-003  0.9118800E+02  0.7818608E-02  0.1130116E+00
         25   -1    0    0    0    0  0.00000000000E+00  0.00000000000E+00  0.99999998245E-14  0.12500000000E+03  0.12500000000E+03 0.  0.
        -11    1    3    3    0    0 -0.31309407079E+02  0.16522658900E+02 -0.12117010368E+02  0.37417899050E+02  0.51100000000E-03 0.  1.
         23    2    1    0    0    0  0.46800076653E+01 -0.27411493334E+02 -0.13192710013E+02  0.94221110545E+02  0.89052106299E+02 0.  0.
         11    1    3    3    0    0  0.35989414745E+02 -0.43934152235E+02 -0.10756996450E+01  0.56803211496E+02  0.51100000000E-03 0. -1.
         22    1    1    0    0    0 -0.46800076653E+01  0.27411493334E+02  0.13192710013E+02  0.30778889455E+02  0.00000000000E+00 0. -1.
</event>
<event>
 5    1  0.1691138E-003  0.9118800E+02  0.7818608E-02  0.1130116E+00
         25   -1    0    0    0    0  0.00000000000E+00  0.00000000000E+00  0.99999998245E-14  0.12500000000E+03  0.12500000000E+03 0.  0.
        -11    1    3    3    0    0 -0.40499995186E+02 -0.21277523270E+02 -0.23829014737E+02  0.51582987022E+02  0.51100000000E-03 0. -1.
         23    2    1    0    0    0 -0.18988626123E+02 -0.21356387580E+02  0.12504193251E+02  0.93806762570E+02  0.88468585625E+02 0.  0.
         11    1    3    3    0    0  0.21511369063E+02 -0.78864309916E-01  0.36333207988E+02  0.42223775547E+02  0.51100000000E-03 0.  1.
         22    1    1    0    0    0  0.18988626123E+02  0.21356387580E+02 -0.12504193251E+02  0.31193237430E+02  0.00000000000E+00 0. -1.
</event>
<event>
 5    1  0.1691138E-003  0.9118800E+02  0.7818608E-02  0.1130116E+00
         25   -1    0    0    0    0  0.00000000000E+00  0.00000000000E+00  0.99999998245E-14  0.12500000000E+03  0.12500000000E+03 0.  0.
        -11    1    3    3    0    0 -0.29673480962E+02 -0.40153238837E+02 -0.30721550091E+02  0.58622621076E+02  0.51100000000E-03 0.  1.
         23    2    1    0    0    0 -0.57287213072E+01 -0.29546879633E+02 -0.66858648176E+01  0.94169217781E+02  0.88979236034E+02 0.  0.
         11    1    3    3    0    0  0.23944759655E+02  0.10606359204E+02  0.24035685274E+02  0.35546596705E+02  0.51100000000E-03 0. -1.
         22    1    1    0    0    0  0.57287213072E+01  0.29546879633E+02  0.66858648176E+01  0.30830782219E+02  0.00000000000E+00 0.  1.
</event>
<event>
 5    1  0.1691138E-003  0.9118800E+02  0.7818608E-02  0.1130116E+00
         25   -1    0    0    0    0  0.00000000000E+00  0.00000000000E+00  0.99999998245E-14  0.12500000000E+03  0.12500000000E+03 0.  0.
        -11    1    3    3    0    0  0.44694723945E+02  0.27535219534E+02  0.12292503502E+02  0.53915789022E+02  0.51100000000E-03 0. -1.
         23    2    1    0    0    0  0.43461458288E+01  0.29076466682E+02  0.23072878658E+01  0.95510112316E+02  0.90843426174E+02 0.  0.
         11    1    3    3    0    0 -0.40348578116E+02  0.15412471487E+01 -0.99852156358E+01  0.41594323294E+02  0.51100000000E-03 0.  1.
         22    1    1    0    0    0 -0.43461458288E+01 -0.29076466682E+02 -0.23072878658E+01  0.29489887684E+02  0.00000000000E+00 0. -1.
</event>
<event>
 5    1  0.1691138E-003  0.9118800E+02  0.7818608E-02  0.1130116E+00
         25   -1    0    0    0    0  0.00000000000E+00  0.00000000000E+00  0.99999998245E-14  0.12500000000E+03  0.12500000000E+03 0.  0.
        -11    1    3    3    0    0  0.16051031847E+02  0.13802771095E+02  0.26187287138E+02  0.33673819522E+02  0.51100000000E-03 0. -1.
         23    2    1    0    0    0 -0.19977992977E+02  0.17500390536E+02 -0.19554859140E+02  0.92018544782E+02  0.85904808919E+02 0.  0.
         11    1    3    3    0    0 -0.36029024824E+02  0.36976194408E+01 -0.45742146278E+02  0.58344725260E+02  0.51100000000E-03 0.  1.
         22    1    1    0    0    0  0.19977992977E+02 -0.17500390536E+02  0.19554859140E+02  0.32981455218E+02  0.00000000000E+00 0.  1.
</event>
<event>
 5    1  0.1691138E-003  0.9118800E+02  0.7818608E-02  0.1130116E+00
         25   -1    0    0    0    0  0.00000000000E+00  0.00000000000E+00  0.99999998245E-14  0.12500000000E+03  0.12500000000E+03 0.  0.
        -11    1    3    3    0    0  0.23815367823E+02  0.13827666493E+02  0.33925006238E+02  0.43695333318E+02  0.51100000000E-03 0. -1.
         23    2    1    0    0    0  0.13812733007E+02  0.18408277499E+02 -0.17376069852E+02  0.96162800464E+02  0.91737125069E+02 0.  0.
         11    1    3    3    0    0 -0.10002634817E+02  0.45806110056E+01 -0.51301076090E+02  0.52467467146E+02  0.51100000000E-03 0.  1.
         22    1    1    0    0    0 -0.13812733007E+02 -0.18408277499E+02  0.17376069852E+02  0.28837199536E+02  0.00000000000E+00 0.  1.
</event>
<event>
 5    1  0.1691138E-003  0.9118800E+02  0.7818608E-02  0.1130116E+00
         25   -1    0    0    0    0  0.00000000000E+00  0.00000000000E+00  0.99999998245E-14  0.12500000000E+03  0.12500000000E+03 0.  0.
        -11    1    3    3    0    0  0.43149843448E+02  0.31639413600E+02 -0.13572596236E+02  0.55201239582E+02  0.51100000000E-03 0.  1.
         23    2    1    0    0    0  0.15759662465E+02  0.25509098686E+02  0.11547619530E+02  0.92868573116E+02  0.87132905834E+02 0.  0.
         11    1    3    3    0    0 -0.27390180983E+02 -0.61303149143E+01  0.25120215766E+02  0.37667333535E+02  0.51100000000E-03 0. -1.
         22    1    1    0    0    0 -0.15759662465E+02 -0.25509098686E+02 -0.11547619530E+02  0.32131426884E+02  0.00000000000E+00 0. -1.
</event>
<event>
 4    1  0.1691138E-003  0.9118800E+02  0.7818608E-02  0.1130116E+00
         25   -1    0    0    0    0  0.00000000000E+00  0.00000000000E+00  0.99999998245E-14  0.12500000000E+03  0.12500000000E+03 0.  0.
        -11    1    1    0    0    0 -0.37193212943E+02 -0.16240341132E+02  0.35126638485E+02  0.53674616912E+02  0.51100000000E-03 0.  1.
         11    1    1    0    0    0  0.99577302139E+00  0.13772634975E+02  0.72032615679E+01  0.15574466782E+02  0.51100000000E-03 0. -1.
         22    1    1    0    0    0  0.36197439921E+02  0.24677061572E+01 -0.42329900053E+02  0.55750916306E+02  0.00000000000E+00 0.  1.
</event>
<event>
 5    1  0.1691138E-003  0.9118800E+02  0.7818608E-02  0.1130116E+00
         25   -1    0    0    0    0  0.00000000000E+00  0.00000000000E+00  0.99999998245E-14  0.12500000000E+03  0.12500000000E+03 0.  0.
        -11    1    3    3    0    0 -0.22551997647E+02 -0.23185015603E+02 -0.83842795900E+01  0.33413076645E+02  0.51100000000E-03 0.  1.
         23    2    1    0    0    0  0.10545790756E+02  0.22280586024E+02  0.16941262636E+02  0.95089389910E+02  0.90262658267E+02 0.  0.
         11    1    3    3    0    0  0.33097788403E+02  0.45465601628E+02  0.25325542226E+02  0.61676313264E+02  0.51100000000E-03 0. -1.
         22    1    1    0    0    0 -0.10545790756E+02 -0.22280586024E+02 -0.16941262636E+02  0.29910610090E+02  0.00000000000E+00 0. -1.
</event>
<event>
 5    1  0.1691138E-003  0.9118800E+02  0.7818608E-02  0.1130116E+00
         25   -1    0    0    0    0  0.00000000000E+00  0.00000000000E+00  0.99999998245E-14  0.12500000000E+03  0.12500000000E+03 0.  0.
        -11    1    3    3    0    0 -0.58540205436E+02  0.26968830405E+01  0.96463927755E+01  0.59390922913E+02  0.51100000000E-03 0. -1.
         23    2    1    0    0    0 -0.22680354851E+02  0.41397812778E+00  0.17715106442E+02  0.96218150332E+02  0.91812513216E+02 0.  0.
         11    1    3    3    0    0  0.35859850586E+02 -0.22829049128E+01  0.80687136665E+01  0.36827227419E+02  0.51100000000E-03 0.  1.
         22    1    1    0    0    0  0.22680354851E+02 -0.41397812778E+00 -0.17715106442E+02  0.28781849668E+02  0.00000000000E+00 0. -1.
</event>
<event>
 5    1  0.1691138E-003  0.9118800E+02  0.7818608E-02  0.1130116E+00
         25   -1    0    0    0    0  0.00000000000E+00  0.00000000000E+00  0.99999998245E-14  0.12500000000E+03  0.12500000000E+03 0.  0.
        -11    1    3    3    0    0 -0.16100716009E+02  0.21105487270E+01  0.47064631750E+02  0.49787217576E+02  0.51100000000E-03 0. -1.
         23    2    1    0    0    0 -0.23642238669E+02 -0.15941331203E+02  0.51757530239E+01  0.96019490874E+02  0.91541644723E+02 0.  0.
         11    1    3    3    0    0 -0.75415226599E+01 -0.18051879930E+02 -0.41888878726E+02  0.46232273298E+02  0.51100000000E-03 0.  1.
         22    1    1    0    0    0  0.23642238669E+02  0.15941331203E+02 -0.51757530239E+01  0.28980509126E+02  0.00000000000E+00 0.  1.
</event>
<event>
 5    1  0.1691138E-003  0.9118800E+02  0.7818608E-02  0.1130116E+00
         25   -1    0    0    0    0  0.00000000000E+00  0.00000000000E+00  0.99999998245E-14  0.12500000000E+03  0.12500000000E+03 0.  0.
        -11    1    3    3    0    0 -0.27202043451E+02 -0.23769292816E+02  0.46872735132E+02  0.59177561186E+02  0.51100000000E-03 0. -1.
         23    2    1    0    0    0 -0.80301519946E+01 -0.23655487068E+02  0.16615259444E+02  0.94997795817E+02  0.90135725182E+02 0.  0.
         11    1    3    3    0    0  0.19171891457E+02  0.11380574796E+00 -0.30257475688E+02  0.35820234631E+02  0.51100000000E-03 0.  1.
         22    1    1    0    0    0  0.80301519946E+01  0.23655487068E+02 -0.16615259444E+02  0.30002204183E+02  0.00000000000E+00 0. -1.
</event>
<event>
 5    1  0.1691138E-003  0.9118800E+02  0.7818608E-02  0.1130116E+00
         25   -1    0    0    0    0  0.00000000000E+00  0.00000000000E+00  0.99999998245E-14  0.12500000000E+03  0.12500000000E+03 0.  0.
        -11    1    3    3    0    0 -0.23131353153E+02 -0.20832591740E+01 -0.52268739275E+02  0.57196333564E+02  0.51100000000E-03 0.  1.
         23    2    1    0    0    0 -0.18986863119E+02 -0.14182138357E+02 -0.14161536551E+02  0.97392335540E+02  0.93397451169E+02 0.  0.
         11    1    3    3    0    0  0.41444900339E+01 -0.12098879183E+02  0.38107202724E+02  0.40196001976E+02  0.51100000000E-03 0. -1.
         22    1    1    0    0    0  0.18986863119E+02  0.14182138357E+02  0.14161536551E+02  0.27607664460E+02  0.00000000000E+00 0.  1.
</event>
<event>
 5    1  0.1691138E-003  0.9118800E+02  0.7818608E-02  0.1130116E+00
         25   -1    0    0    0    0  0.00000000000E+00  0.00000000000E+00  0.99999998245E-14  0.12500000000E+03  0.12500000000E+03 0.  0.
        -11    1    3    3    0    0  0.24176599855E+02  0.22051750612E+02 -0.89329595756E+01  0.33920280846E+02  0.51100000000E-03 0.  1.
         23    2    1    0    0    0 -0.14335384317E+02 -0.24841875771E+02  0.42183239741E+01  0.96010065670E+02  0.91528773713E+02 0.  0.
         11    1    3    3    0    0 -0.38511984172E+02 -0.46893626383E+02  0.13151283550E+02  0.62089784824E+02  0.51100000000E-03 0. -1.
         22    1    1    0    0    0  0.14335384317E+02  0.24841875771E+02 -0.42183239741E+01  0.28989934330E+02  0.00000000000E+00 0. -1.
</event>
<event>
 5    1  0.1691138E-003  0.9118800E+02  0.7818608E-02  0.1130116E+00
         25   -1    0    0    0    0  0.00000000000E+00  0.00000000000E+00  0.99999998245E-14  0.12500000000E+03  0.12500000000E+03 0.  0.
        -11    1    3    3    0    0 -0.23906588400E+02  0.31467495178E+02  0.18121801343E+02  0.43475601270E+02  0.51100000000E-03 0.  1.
         23    2    1    0    0    0 -0.14871625120E+02 -0.20419144185E+02  0.13533110359E+02  0.96342509549E+02  0.91981668757E+02 0.  0.
         11    1    3    3    0    0  0.90349632798E+01 -0.51886639362E+02 -0.45886909838E+01  0.52866908279E+02  0.51100000000E-03 0. -1.
         22    1    1    0    0    0  0.14871625120E+02  0.20419144185E+02 -0.13533110359E+02  0.28657490451E+02  0.00000000000E+00 0.  1.
</event>
<event>
 5    1  0.1691138E-003  0.9118800E+02  0.7818608E-02  0.1130116E+00
         25   -1    0    0    0    0  0.00000000000E+00  0.00000000000E+00  0.99999998245E-14  0.12500000000E+03  0.12500000000E+03 0.  0.
        -11    1    3    3    0    0  0.27511122581E+02 -0.27537057714E+02 -0.33568407701E+02  0.51400286080E+02  0.51100000000E-03 0. -1.
         23    2    1    0    0    0  0.20492881412E+02  0.12888700868E+02 -0.15651852688E+02  0.96171935701E+02  0.91749571799E+02 0.  0.
         11    1    3    3    0    0 -0.70182411693E+01  0.40425758582E+02  0.17916555013E+02  0.44771649622E+02  0.51100000000E-03 0.  1.
         22    1    1    0    0    0 -0.20492881412E+02 -0.12888700868E+02  0.15651852688E+02  0.28828064299E+02  0.00000000000E+00 0. -1.
</event>
<event>
 5    1  0.1691138E-003  0.9118800E+02  0.7818608E-02  0.1130116E+00
         25   -1    0    0    0    0  0.00000000000E+00  0.00000000000E+00  0.99999998245E-14  0.12500000000E+03  0.12500000000E+03 0.  0.
        -11    1    3    3    0    0  0.30306936305E+02  0.13142100112E+02  0.51214502751E+01  0.33428347802E+02  0.51100000000E-03 0. -1.
         23    2    1    0    0    0 -0.28336029930E+02 -0.71992173025E+01 -0.55898985414E+00  0.95758389381E+02  0.91184413938E+02 0.  0.
         11    1    3    3    0    0 -0.58642966235E+02 -0.20341317415E+02 -0.56804401292E+01  0.62330041579E+02  0.51100000000E-03 0.  1.
         22    1    1    0    0    0  0.28336029930E+02  0.71992173025E+01  0.55898985414E+00  0.29241610619E+02  0.00000000000E+00 0.  1.
</event>
<event>
 5    1  0.1691138E-003  0.9118800E+02  0.7818608E-02  0.1130116E+00
         25   -1    0    0    0    0  0.00000000000E+00  0.00000000000E+00  0.99999998245E-14  0.12500000000E+03  0.12500000000E+03 0.  0.
        -11    1    3    3    0    0  0.22144017034E+02  0.25007942772E+02 -0.59088120144E+01  0.33921508689E+02  0.51100000000E-03 0.  1.
         23    2    1    0    0    0 -0.25063129348E+02 -0.13954493901E+02  0.43544604611E+01  0.95985354067E+02  0.91495019082E+02 0.  0.
         11    1    3    3    0    0 -0.47207146381E+02 -0.38962436672E+02  0.10263272475E+02  0.62063845378E+02  0.51100000000E-03 0. -1.
         22    1    1    0    0    0  0.25063129348E+02  0.13954493901E+02 -0.43544604611E+01  0.29014645933E+02  0.00000000000E+00 0. -1.
</event>
<event>
 5    1  0.1691138E-003  0.9118800E+02  0.7818608E-02  0.1130116E+00
         25   -1    0    0    0    0  0.00000000000E+00  0.00000000000E+00  0.99999998245E-14  0.12500000000E+03  0.12500000000E+03 0.  0.
        -11    1    3    3    0    0 -0.29531048275E+02  0.10249521130E+02  0.53733602851E+02  0.62164584542E+02  0.51100000000E-03 0. -1.
         23    2    1    0    0    0 -0.15305732580E+02  0.82537106644E+01  0.22328859787E+02  0.96698636624E+02  0.92464366953E+02 0.  0.
         11    1    3    3    0    0  0.14225315694E+02 -0.19958104653E+01 -0.31404743065E+02  0.34534052083E+02  0.51100000000E-03 0.  1.
         22    1    1    0    0    0  0.15305732580E+02 -0.82537106644E+01 -0.22328859787E+02  0.28301363376E+02  0.00000000000E+00 0. -1.
</event>
<event>
 5    1  0.1691138E-003  0.9118800E+02  0.7818608E-02  0.1130116E+00
         25   -1    0    0    0    0  0.00000000000E+00  0.00000000000E+00  0.99999998245E-14  0.12500000000E+03  0.12500000000E+03 0.  0.
        -11    1    3    3    0    0 -0.13249721318E+02  0.15098192039E+02  0.29201115776E+02  0.35443133054E+02  0.51100000000E-03 0.  1.
         23    2    1    0    0    0  0.50036969710E+01  0.11075798088E+02 -0.27386520827E+02  0.95037827020E+02  0.90191223271E+02 0.  0.
         11    1    3    3    0    0  0.18253418289E+02 -0.40223939514E+01 -0.56587636603E+02  0.59594693966E+02  0.51100000000E-03 0. -1.
         22    1    1    0    0    0 -0.50036969710E+01 -0.11075798088E+02  0.27386520827E+02  0.29962172980E+02  0.00000000000E+00 0. -1.
</event>
<event>
 5    1  0.1691138E-003  0.9118800E+02  0.7818608E-02  0.1130116E+00
         25   -1    0    0    0    0  0.00000000000E+00  0.00000000000E+00  0.99999998245E-14  0.12500000000E+03  0.12500000000E+03 0.  0.
        -11    1    3    3    0    0  0.13597940863E+02 -0.34276997039E+02 -0.18830707673E+02  0.41405459465E+02  0.51100000000E-03 0.  1.
         23    2    1    0    0    0 -0.17916448993E+02 -0.62657317528E+01  0.19065895278E+02  0.98097083770E+02  0.94335947245E+02 0.  0.
         11    1    3    3    0    0 -0.31514389856E+02  0.28011265287E+02  0.37896602950E+02  0.56691624306E+02  0.51100000000E-03 0. -1.
         22    1    1    0    0    0  0.17916448993E+02  0.62657317528E+01 -0.19065895278E+02  0.26902916230E+02  0.00000000000E+00 0. -1.
</event>
<event>
 5    1  0.1691138E-003  0.9118800E+02  0.7818608E-02  0.1130116E+00
         25   -1    0    0    0    0  0.00000000000E+00  0.00000000000E+00  0.99999998245E-14  0.12500000000E+03  0.12500000000E+03 0.  0.
        -11    1    3    3    0    0  0.31005095608E+02 -0.27251760265E+02 -0.62356989123E+01  0.41747554807E+02  0.51100000000E-03 0. -1.
         23    2    1    0    0    0  0.19223383824E+02  0.22882309375E+02  0.56110034521E+01  0.94592403454E+02  0.89571763762E+02 0.  0.
         11    1    3    3    0    0 -0.11781711783E+02  0.50134069640E+02  0.11846702364E+02  0.52844848646E+02  0.51100000000E-03 0.  1.
         22    1    1    0    0    0 -0.19223383824E+02 -0.22882309375E+02 -0.56110034521E+01  0.30407596546E+02  0.00000000000E+00 0.  1.
</event>
<event>
 5    1  0.1691138E-003  0.9118800E+02  0.7818608E-02  0.1130116E+00
         25   -1    0    0    0    0  0.00000000000E+00  0.00000000000E+00  0.99999998245E-14  0.12500000000E+03  0.12500000000E+03 0.  0.
        -11    1    3    3    0    0 -0.35122791427E+02  0.14550636360E+02 -0.27924963601E+02  0.47171337574E+02  0.51100000000E-03 0.  1.
         23    2    1    0    0    0  0.10306088639E+02  0.36163844933E+01 -0.29105665337E+02  0.93912487161E+02  0.88617841263E+02 0.  0.
         11    1    3    3    0    0  0.45428880065E+02 -0.10934251867E+02 -0.11807017355E+01  0.46741149587E+02  0.51100000000E-03 0. -1.
         22    1    1    0    0    0 -0.10306088639E+02 -0.36163844933E+01  0.29105665337E+02  0.31087512839E+02  0.00000000000E+00 0. -1.
</event>
<event>
 5    1  0.1691138E-003  0.9118800E+02  0.7818608E-02  0.1130116E+00
         25   -1    0    0    0    0  0.00000000000E+00  0.00000000000E+00  0.99999998245E-14  0.12500000000E+03  0.12500000000E+03 0.  0.
        -11    1    3    3    0    0  0.23994151449E+02 -0.10256326135E+02  0.31188997896E+02  0.40665281502E+02  0.51100000000E-03 0.  1.
         23    2    1    0    0    0  0.52507849888E+01 -0.13015335619E+02 -0.22991961538E+02  0.98063036555E+02  0.94290822134E+02 0.  0.
         11    1    3    3    0    0 -0.18743366461E+02 -0.27590094847E+01 -0.54180959435E+02  0.57397755053E+02  0.51100000000E-03 0. -1.
         22    1    1    0    0    0 -0.52507849888E+01  0.13015335619E+02  0.22991961538E+02  0.26936963445E+02  0.00000000000E+00 0. -1.
</event>
<event>
 5    1  0.1691138E-003  0.9118800E+02  0.7818608E-02  0.1130116E+00
         25   -1    0    0    0    0  0.00000000000E+00  0.00000000000E+00  0.99999998245E-14  0.12500000000E+03  0.12500000000E+03 0.  0.
        -11    1    3    3    0    0  0.24492922987E+02  0.25378884882E+02  0.36500893469E+01  0.35458626973E+02  0.51100000000E-03 0.  1.
         23    2    1    0    0    0  0.46195623072E+00 -0.29524781988E+02  0.71368086456E+00  0.95462980933E+02  0.90778550513E+02 0.  0.
         11    1    3    3    0    0 -0.24030966757E+02 -0.54903666870E+02 -0.29364084824E+01  0.60004353960E+02  0.51100000000E-03 0. -1.
         22    1    1    0    0    0 -0.46195623072E+00  0.29524781988E+02 -0.71368086456E+00  0.29537019067E+02  0.00000000000E+00 0. -1.
</event>
<event>
 5    1  0.1691138E-003  0.9118800E+02  0.7818608E-02  0.1130116E+00
         25   -1    0    0    0    0  0.00000000000E+00  0.00000000000E+00  0.99999998245E-14  0.12500000000E+03  0.12500000000E+03 0.  0.
        -11    1    3    3    0    0  0.34386952970E+02  0.25172277706E+02  0.29801111112E+02  0.52002041529E+02  0.51100000000E-03 0. -1.
         23    2    1    0    0    0 -0.16561505104E+01 -0.12386099015E+01  0.28210159436E+02  0.96714136315E+02  0.92485318179E+02 0.  0.
         11    1    3    3    0    0 -0.36043103480E+02 -0.26410887607E+02 -0.15909516755E+01  0.44712094786E+02  0.51100000000E-03 0.  1.
         22    1    1    0    0    0  0.16561505104E+01  0.12386099015E+01 -0.28210159436E+02  0.28285863685E+02  0.00000000000E+00 0.  1.
</event>
<event>
 5    1  0.1691138E-003  0.9118800E+02  0.7818608E-02  0.1130116E+00
         25   -1    0    0    0    0  0.00000000000E+00  0.00000000000E+00  0.99999998245E-14  0.12500000000E+03  0.12500000000E+03 0.  0.
        -11    1    3    3    0    0 -0.34377263943E+02  0.50568199154E+02 -0.10430714583E+00  0.61146953498E+02  0.51100000000E-03 0.  1.
         23    2    1    0    0    0 -0.15665585430E+02  0.20090690126E+02 -0.89664177220E+01  0.97991796739E+02  0.94196333182E+02 0.  0.
         11    1    3    3    0    0  0.18711678514E+02 -0.30477509028E+02 -0.88621105762E+01  0.36844843241E+02  0.51100000000E-03 0. -1.
         22    1    1    0    0    0  0.15665585430E+02 -0.20090690126E+02  0.89664177220E+01  0.27008203261E+02  0.00000000000E+00 0.  1.
</event>
<event>
 5    1  0.1691138E-003  0.9118800E+02  0.7818608E-02  0.1130116E+00
         25   -1    0    0    0    0  0.00000000000E+00  0.00000000000E+00  0.99999998245E-14  0.12500000000E+03  0.12500000000E+03 0.  0.
        -11    1    3    3    0    0  0.11034376679E+02 -0.34196231335E+01  0.32840733962E+02  0.34813289108E+02  0.51100000000E-03 0. -1.
         23    2    1    0    0    0  0.61631122223E+01  0.48044755465E+01 -0.27758892030E+02  0.96162125178E+02  0.91736204927E+02 0.  0.
         11    1    3    3    0    0 -0.48712644563E+01  0.82240986800E+01 -0.60599625992E+02  0.61348836070E+02  0.51100000000E-03 0.  1.
         22    1    1    0    0    0 -0.61631122223E+01 -0.48044755465E+01  0.27758892030E+02  0.28837874822E+02  0.00000000000E+00 0.  1.
</event>
<event>
 5    1  0.1691138E-003  0.9118800E+02  0.7818608E-02  0.1130116E+00
         25   -1    0    0    0    0  0.00000000000E+00  0.00000000000E+00  0.99999998245E-14  0.12500000000E+03  0.12500000000E+03 0.  0.
        -11    1    3    3    0    0 -0.73146040277E+01 -0.11594860063E+02 -0.52785160159E+02  0.54536385517E+02  0.51100000000E-03 0.  1.
         23    2    1    0    0    0  0.97731468395E+01  0.12920603920E+02 -0.24113770320E+02  0.95949521108E+02  0.91446051184E+02 0.  0.
         11    1    3    3    0    0  0.17087750867E+02  0.24515463983E+02  0.28671389839E+02  0.41413135592E+02  0.51100000000E-03 0. -1.
         22    1    1    0    0    0 -0.97731468395E+01 -0.12920603920E+02  0.24113770320E+02  0.29050478892E+02  0.00000000000E+00 0. -1.
</event>
<event>
 5    1  0.1691138E-003  0.9118800E+02  0.7818608E-02  0.1130116E+00
         25   -1    0    0    0    0  0.00000000000E+00  0.00000000000E+00  0.99999998245E-14  0.12500000000E+03  0.12500000000E+03 0.  0.
        -11    1    3    3    0    0  0.75635388013E+01  0.43697226336E+02  0.97408505814E+01  0.45404172484E+02  0.51100000000E-03 0.  1.
         23    2    1    0    0    0  0.28752611931E+02 -0.53738994208E+00 -0.30186318355E+01  0.96084370680E+02  0.91630195188E+02 0.  0.
         11    1    3    3    0    0  0.21189073129E+02 -0.44234616278E+02 -0.12759482417E+02  0.50680198196E+02  0.51100000000E-03 0. -1.
         22    1    1    0    0    0 -0.28752611931E+02  0.53738994208E+00  0.30186318355E+01  0.28915629320E+02  0.00000000000E+00 0. -1.
</event>
<event>
 5    1  0.1691138E-003  0.9118800E+02  0.7818608E-02  0.1130116E+00
         25   -1    0    0    0    0  0.00000000000E+00  0.00000000000E+00  0.99999998245E-14  0.12500000000E+03  0.12500000000E+03 0.  0.
        -11    1    3    3    0    0  0.10056466795E+01 -0.99720180387E+01  0.58598422581E+02  0.59449370041E+02  0.51100000000E-03 0. -1.
         23    2    1    0    0    0  0.58326217369E+01 -0.16485769370E+02  0.22199942342E+02  0.96739824699E+02  0.92520031209E+02 0.  0.
         11    1    3    3    0    0  0.48269750574E+01 -0.65137513313E+01 -0.36398480239E+02  0.37290454658E+02  0.51100000000E-03 0.  1.
         22    1    1    0    0    0 -0.58326217369E+01  0.16485769370E+02 -0.22199942342E+02  0.28260175301E+02  0.00000000000E+00 0. -1.
</event>
<event>
 5    1  0.1691138E-003  0.9118800E+02  0.7818608E-02  0.1130116E+00
         25   -1    0    0    0    0  0.00000000000E+00  0.00000000000E+00  0.99999998245E-14  0.12500000000E+03  0.12500000000E+03 0.  0.
        -11    1    3    3    0    0 -0.22528187395E+02 -0.18716258230E+02  0.25998049824E+02  0.39162688165E+02  0.51100000000E-03 0. -1.
         23    2    1    0    0    0 -0.41159391694E+02 -0.24887362065E+02 -0.58235800399E+01  0.76550124874E+02  0.59266611331E+02 0.  0.
         11    1    3    3    0    0 -0.18631204300E+02 -0.61711038351E+01 -0.31821629864E+02  0.37387436709E+02  0.51100000000E-03 0.  1.
         22    1    1    0    0    0  0.41159391694E+02  0.24887362065E+02  0.58235800399E+01  0.48449875126E+02  0.00000000000E+00 0. -1.
</event>
<event>
 5    1  0.1691138E-003  0.9118800E+02  0.7818608E-02  0.1130116E+00
         25   -1    0    0    0    0  0.00000000000E+00  0.00000000000E+00  0.99999998245E-14  0.12500000000E+03  0.12500000000E+03 0.  0.
        -11    1    3    3    0    0  0.37758428823E+02  0.20253813142E+02  0.16724572076E+02  0.45995947706E+02  0.51100000000E-03 0. -1.
         23    2    1    0    0    0  0.23017596488E+02 -0.16039924182E+02 -0.11912795167E+02  0.94520439561E+02  0.89471279695E+02 0.  0.
         11    1    3    3    0    0 -0.14740832335E+02 -0.36293737324E+02 -0.28637367243E+02  0.48524491855E+02  0.51100000000E-03 0.  1.
         22    1    1    0    0    0 -0.23017596488E+02  0.16039924182E+02  0.11912795167E+02  0.30479560439E+02  0.00000000000E+00 0. -1.
</event>
<event>
 5    1  0.1691138E-003  0.9118800E+02  0.7818608E-02  0.1130116E+00
         25   -1    0    0    0    0  0.00000000000E+00  0.00000000000E+00  0.99999998245E-14  0.12500000000E+03  0.12500000000E+03 0.  0.
        -11    1    3    3    0    0 -0.21441732659E+02 -0.55777165368E+02 -0.16176667797E+02  0.61907387743E+02  0.51100000000E-03 0.  1.
         23    2    1    0    0    0 -0.93168708764E+01 -0.25180726604E+02 -0.13555793316E+02  0.94922888975E+02  0.90031784630E+02 0.  0.
         11    1    3    3    0    0  0.12124861782E+02  0.30596438764E+02  0.26208744815E+01  0.33015501232E+02  0.51100000000E-03 0. -1.
         22    1    1    0    0    0  0.93168708764E+01  0.25180726604E+02  0.13555793316E+02  0.30077111025E+02  0.00000000000E+00 0.  1.
</event>
<event>
 5    1  0.1691138E-003  0.9118800E+02  0.7818608E-02  0.1130116E+00
         25   -1    0    0    0    0  0.00000000000E+00  0.00000000000E+00  0.99999998245E-14  0.12500000000E+03  0.12500000000E+03 0.  0.
        -11    1    3    3    0    0  0.22209023102E+02  0.12134723963E+02  0.55072535660E+02  0.60609210662E+02  0.51100000000E-03 0.  1.
         23    2    1    0    0    0  0.94806500000E+01 -0.17656037673E+01  0.37153222786E+02  0.86615601549E+02  0.77645994019E+02 0.  0.
         11    1    3    3    0    0 -0.12728373102E+02 -0.13900327731E+02 -0.17919312874E+02  0.26006390887E+02  0.51100000000E-03 0. -1.
         22    1    1    0    0    0 -0.94806500000E+01  0.17656037673E+01 -0.37153222786E+02  0.38384398451E+02  0.00000000000E+00 0.  1.
</event>
<event>
 5    1  0.1691138E-003  0.9118800E+02  0.7818608E-02  0.1130116E+00
         25   -1    0    0    0    0  0.00000000000E+00  0.00000000000E+00  0.99999998245E-14  0.12500000000E+03  0.12500000000E+03 0.  0.
        -11    1    3    3    0    0 -0.28605520283E+02 -0.20511978606E+02  0.87292589037E+01  0.36265920894E+02  0.51100000000E-03 0.  1.
         23    2    1    0    0    0  0.77621325816E+01  0.60764329297E+01 -0.28585026665E+02  0.94762978176E+02  0.89809490278E+02 0.  0.
         11    1    3    3    0    0  0.36367652865E+02  0.26588411536E+02 -0.37314285569E+02  0.58497057282E+02  0.51100000000E-03 0. -1.
         22    1    1    0    0    0 -0.77621325816E+01 -0.60764329297E+01  0.28585026665E+02  0.30237021824E+02  0.00000000000E+00 0. -1.
</event>
<event>
 5    1  0.1691138E-003  0.9118800E+02  0.7818608E-02  0.1130116E+00
         25   -1    0    0    0    0  0.00000000000E+00  0.00000000000E+00  0.99999998245E-14  0.12500000000E+03  0.12500000000E+03 0.  0.
        -11    1    3    3    0    0 -0.35772799184E+02 -0.47376647520E+02 -0.24989386250E+01  0.59417881030E+02  0.51100000000E-03 0.  1.
         23    2    1    0    0    0 -0.24933540581E+02 -0.12753267238E+02  0.52238310426E+01  0.96511130561E+02  0.92210534324E+02 0.  0.
         11    1    3    3    0    0  0.10839258603E+02  0.34623380281E+02  0.77227696676E+01  0.37093249531E+02  0.51100000000E-03 0. -1.
         22    1    1    0    0    0  0.24933540581E+02  0.12753267238E+02 -0.52238310426E+01  0.28488869439E+02  0.00000000000E+00 0.  1.
</event>
<event>
 5    1  0.1691138E-003  0.9118800E+02  0.7818608E-02  0.1130116E+00
         25   -1    0    0    0    0  0.00000000000E+00  0.00000000000E+00  0.99999998245E-14  0.12500000000E+03  0.12500000000E+03 0.  0.
        -11    1    3    3    0    0  0.10694281687E+02  0.37704464403E+02 -0.18068705966E+02  0.43156371862E+02  0.51100000000E-03 0. -1.
         23    2    1    0    0    0 -0.16340457453E+02 -0.10499679266E+02 -0.18139039705E+02  0.98424097835E+02  0.94768267151E+02 0.  0.
         11    1    3    3    0    0 -0.27034739140E+02 -0.48204143669E+02 -0.70333739625E-01  0.55267725974E+02  0.51100000000E-03 0.  1.
         22    1    1    0    0    0  0.16340457453E+02  0.10499679266E+02  0.18139039705E+02  0.26575902165E+02  0.00000000000E+00 0.  1.
</event>
<event>
 5    1  0.1691138E-003  0.9118800E+02  0.7818608E-02  0.1130116E+00
         25   -1    0    0    0    0  0.00000000000E+00  0.00000000000E+00  0.99999998245E-14  0.12500000000E+03  0.12500000000E+03 0.  0.
        -11    1    3    3    0    0 -0.92665451504E+00  0.12364698886E+02  0.43329510154E+02  0.45068735478E+02  0.51100000000E-03 0.  1.
         23    2    1    0    0    0  0.25324636150E+02 -0.13071443209E+02  0.92682858624E+01  0.95031667605E+02  0.90182686261E+02 0.  0.
         11    1    3    3    0    0  0.26251290665E+02 -0.25436142095E+02 -0.34061224291E+02  0.49962932127E+02  0.51100000000E-03 0. -1.
         22    1    1    0    0    0 -0.25324636150E+02  0.13071443209E+02 -0.92682858624E+01  0.29968332395E+02  0.00000000000E+00 0. -1.
</event>
<event>
 5    1  0.1691138E-003  0.9118800E+02  0.7818608E-02  0.1130116E+00
         25   -1    0    0    0    0  0.00000000000E+00  0.00000000000E+00  0.99999998245E-14  0.12500000000E+03  0.12500000000E+03 0.  0.
        -11    1    3    3    0    0 -0.19597017124E+02 -0.41038101426E+02 -0.80741920970E+01  0.46188325658E+02  0.51100000000E-03 0.  1.
         23    2    1    0    0    0 -0.19052289562E+02  0.78416953116E+01  0.14271980800E+02  0.99936653079E+02  0.96742768566E+02 0.  0.
         11    1    3    3    0    0  0.54472756167E+00  0.48879796737E+02  0.22346172897E+02  0.53748327421E+02  0.51100000000E-03 0. -1.
         22    1    1    0    0    0  0.19052289562E+02 -0.78416953116E+01 -0.14271980800E+02  0.25063346921E+02  0.00000000000E+00 0. -1.
</event>
<event>
 5    1  0.1691138E-003  0.9118800E+02  0.7818608E-02  0.1130116E+00
         25   -1    0    0    0    0  0.00000000000E+00  0.00000000000E+00  0.99999998245E-14  0.12500000000E+03  0.12500000000E+03 0.  0.
        -11    1    3    3    0    0 -0.93681058575E+00 -0.19191111349E+02 -0.27849852426E+02  0.33834755050E+02  0.51100000000E-03 0.  1.
         23    2    1    0    0    0  0.44653173703E+01  0.61300803772E+01  0.28318687974E+02  0.95683365930E+02  0.91081510102E+02 0.  0.
         11    1    3    3    0    0  0.54021279560E+01  0.25321191726E+02  0.56168540400E+02  0.61848610880E+02  0.51100000000E-03 0. -1.
         22    1    1    0    0    0 -0.44653173703E+01 -0.61300803772E+01 -0.28318687974E+02  0.29316634070E+02  0.00000000000E+00 0. -1.
</event>
<event>
 5    1  0.1691138E-003  0.9118800E+02  0.7818608E-02  0.1130116E+00
         25   -1    0    0    0    0  0.00000000000E+00  0.00000000000E+00  0.99999998245E-14  0.12500000000E+03  0.12500000000E+03 0.  0.
        -11    1    3    3    0    0  0.29240966546E+02 -0.20109623265E+02  0.93838829088E+01  0.36708150745E+02  0.51100000000E-03 0.  1.
         23    2    1    0    0    0 -0.44873338714E+01  0.10511228154E+02 -0.27433632630E+02  0.95280876832E+02  0.90527450025E+02 0.  0.
         11    1    3    3    0    0 -0.33728300417E+02  0.30620851419E+02 -0.36817515539E+02  0.58572726088E+02  0.51100000000E-03 0. -1.
         22    1    1    0    0    0  0.44873338714E+01 -0.10511228154E+02  0.27433632630E+02  0.29719123168E+02  0.00000000000E+00 0. -1.
</event>
<event>
 5    1  0.1691138E-003  0.9118800E+02  0.7818608E-02  0.1130116E+00
         25   -1    0    0    0    0  0.00000000000E+00  0.00000000000E+00  0.99999998245E-14  0.12500000000E+03  0.12500000000E+03 0.  0.
        -11    1    3    3    0    0  0.73577438678E+01 -0.10662161765E+02 -0.50262869480E+02  0.51905434561E+02  0.51100000000E-03 0.  1.
         23    2    1    0    0    0 -0.18881344501E+02  0.83657037515E+01 -0.19004854152E+02  0.96934457947E+02  0.92782619529E+02 0.  0.
         11    1    3    3    0    0 -0.26239088369E+02  0.19027865516E+02  0.31258015329E+02  0.45029023386E+02  0.51100000000E-03 0. -1.
         22    1    1    0    0    0  0.18881344501E+02 -0.83657037515E+01  0.19004854152E+02  0.28065542053E+02  0.00000000000E+00 0.  1.
</event>
<event>
 5    1  0.1691138E-003  0.9118800E+02  0.7818608E-02  0.1130116E+00
         25   -1    0    0    0    0  0.00000000000E+00  0.00000000000E+00  0.99999998245E-14  0.12500000000E+03  0.12500000000E+03 0.  0.
        -11    1    3    3    0    0  0.51184310790E+02  0.26976560037E+02  0.50038299477E+01  0.58074148955E+02  0.51100000000E-03 0.  1.
         23    2    1    0    0    0  0.15718904174E+02  0.11563592534E+02  0.17577230435E+02  0.98736724300E+02  0.95179730379E+02 0.  0.
         11    1    3    3    0    0 -0.35465406615E+02 -0.15412967503E+02  0.12573400487E+02  0.40662575345E+02  0.51100000000E-03 0. -1.
         22    1    1    0    0    0 -0.15718904174E+02 -0.11563592534E+02 -0.17577230435E+02  0.26263275700E+02  0.00000000000E+00 0.  1.
</event>
<event>
 5    1  0.1691138E-003  0.9118800E+02  0.7818608E-02  0.1130116E+00
         25   -1    0    0    0    0  0.00000000000E+00  0.00000000000E+00  0.99999998245E-14  0.12500000000E+03  0.12500000000E+03 0.  0.
        -11    1    3    3    0    0 -0.36012422684E+02  0.33740655868E+02  0.21191012657E+02  0.53706475063E+02  0.51100000000E-03 0.  1.
         23    2    1    0    0    0 -0.29329437775E+02 -0.11330020309E+01 -0.10936594437E+01  0.95628317979E+02  0.91005931096E+02 0.  0.
         11    1    3    3    0    0  0.66829849095E+01 -0.34873657899E+02 -0.22284672101E+02  0.41921842916E+02  0.51100000000E-03 0. -1.
         22    1    1    0    0    0  0.29329437775E+02  0.11330020309E+01  0.10936594437E+01  0.29371682021E+02  0.00000000000E+00 0.  1.
</event>
<event>
 5    1  0.1691138E-003  0.9118800E+02  0.7818608E-02  0.1130116E+00
         25   -1    0    0    0    0  0.00000000000E+00  0.00000000000E+00  0.99999998245E-14  0.12500000000E+03  0.12500000000E+03 0.  0.
        -11    1    3    3    0    0  0.19958104013E+02  0.37534186745E+02 -0.21951994421E+02  0.47843820392E+02  0.51100000000E-03 0.  1.
         23    2    1    0    0    0  0.27611298199E+02  0.31743600682E+01  0.10077293734E+02  0.95436302682E+02  0.90741807732E+02 0.  0.
         11    1    3    3    0    0  0.76531941866E+01 -0.34359826677E+02  0.32029288155E+02  0.47592482290E+02  0.51100000000E-03 0. -1.
         22    1    1    0    0    0 -0.27611298199E+02 -0.31743600682E+01 -0.10077293734E+02  0.29563697318E+02  0.00000000000E+00 0. -1.
</event>
<event>
 5    1  0.1691138E-003  0.9118800E+02  0.7818608E-02  0.1130116E+00
         25   -1    0    0    0    0  0.00000000000E+00  0.00000000000E+00  0.99999998245E-14  0.12500000000E+03  0.12500000000E+03 0.  0.
        -11    1    3    3    0    0  0.21297244300E+02 -0.12907044591E+02 -0.26779464434E+02  0.36569169125E+02  0.51100000000E-03 0.  1.
         23    2    1    0    0    0 -0.29005885296E+02 -0.94322896535E+01  0.16498411663E+01  0.94454436561E+02  0.89379019576E+02 0.  0.
         11    1    3    3    0    0 -0.50303129596E+02  0.34747549372E+01  0.28429305600E+02  0.57885267437E+02  0.51100000000E-03 0. -1.
         22    1    1    0    0    0  0.29005885296E+02  0.94322896535E+01 -0.16498411663E+01  0.30545563439E+02  0.00000000000E+00 0. -1.
</event>
<event>
 5    1  0.1691138E-003  0.9118800E+02  0.7818608E-02  0.1130116E+00
         25   -1    0    0    0    0  0.00000000000E+00  0.00000000000E+00  0.99999998245E-14  0.12500000000E+03  0.12500000000E+03 0.  0.
        -11    1    3    3    0    0  0.20224728350E+02  0.46721457920E+02 -0.22890229504E+02  0.55820219222E+02  0.51100000000E-03 0.  1.
         23    2    1    0    0    0 -0.10691999275E+02  0.25848103876E+02 -0.92898117149E+01  0.95525537763E+02  0.90864649015E+02 0.  0.
         11    1    3    3    0    0 -0.30916727625E+02 -0.20873354044E+02  0.13600417789E+02  0.39705318541E+02  0.51100000000E-03 0. -1.
         22    1    1    0    0    0  0.10691999275E+02 -0.25848103876E+02  0.92898117149E+01  0.29474462237E+02  0.00000000000E+00 0.  1.
</event>
<event>
 5    1  0.1691138E-003  0.9118800E+02  0.7818608E-02  0.1130116E+00
         25   -1    0    0    0    0  0.00000000000E+00  0.00000000000E+00  0.99999998245E-14  0.12500000000E+03  0.12500000000E+03 0.  0.
        -11    1    3    3    0    0  0.28878474045E+02  0.31354538858E+02 -0.22536047283E+02  0.48217702119E+02  0.51100000000E-03 0.  1.
         23    2    1    0    0    0 -0.85369103160E+01  0.25766455190E+02  0.78538162171E+01  0.96742762343E+02  0.92524000053E+02 0.  0.
         11    1    3    3    0    0 -0.37415384361E+02 -0.55880836682E+01  0.30389863501E+02  0.48525060225E+02  0.51100000000E-03 0. -1.
         22    1    1    0    0    0  0.85369103160E+01 -0.25766455190E+02 -0.78538162171E+01  0.28257237657E+02  0.00000000000E+00 0.  1.
</event>
<event>
 5    1  0.1691138E-003  0.9118800E+02  0.7818608E-02  0.1130116E+00
         25   -1    0    0    0    0  0.00000000000E+00  0.00000000000E+00  0.99999998245E-14  0.12500000000E+03  0.12500000000E+03 0.  0.
        -11    1    3    3    0    0  0.41899772662E+02  0.28292898157E+02  0.35555630907E+01  0.50682551873E+02  0.51100000000E-03 0.  1.
         23    2    1    0    0    0  0.17819387439E+02  0.19820515924E+02  0.28223052703E+02  0.86180879401E+02  0.76942964916E+02 0.  0.
         11    1    3    3    0    0 -0.24080385223E+02 -0.84723822328E+01  0.24667489613E+02  0.35498327527E+02  0.51100000000E-03 0. -1.
         22    1    1    0    0    0 -0.17819387439E+02 -0.19820515924E+02 -0.28223052703E+02  0.38819120599E+02  0.00000000000E+00 0.  1.
</event>
<event>
 5    1  0.1691138E-003  0.9118800E+02  0.7818608E-02  0.1130116E+00
         25   -1    0    0    0    0  0.00000000000E+00  0.00000000000E+00  0.99999998245E-14  0.12500000000E+03  0.12500000000E+03 0.  0.
        -11    1    3    3    0    0  0.63292666672E+01  0.27881771055E+02  0.28202384934E+02  0.40160021040E+02  0.51100000000E-03 0.  1.
         23    2    1    0    0    0 -0.49156918100E+01  0.18167249319E+02 -0.24036792380E+02  0.94471646594E+02  0.89403085229E+02 0.  0.
         11    1    3    3    0    0 -0.11244958477E+02 -0.97145217364E+01 -0.52239177313E+02  0.54311625554E+02  0.51100000000E-03 0. -1.
         22    1    1    0    0    0  0.49156918100E+01 -0.18167249319E+02  0.24036792380E+02  0.30528353406E+02  0.00000000000E+00 0. -1.
</event>
<event>
 5    1  0.1691138E-003  0.9118800E+02  0.7818608E-02  0.1130116E+00
         25   -1    0    0    0    0  0.00000000000E+00  0.00000000000E+00  0.99999998245E-14  0.12500000000E+03  0.12500000000E+03 0.  0.
        -11    1    3    3    0    0 -0.14775527842E+02  0.56760362584E+02 -0.71614378042E+01  0.59087572089E+02  0.51100000000E-03 0. -1.
         23    2    1    0    0    0 -0.21325571868E+02  0.24065383300E+02 -0.26442203571E+01  0.92736792004E+02  0.86943648423E+02 0.  0.
         11    1    3    3    0    0 -0.65500440261E+01 -0.32694979285E+02  0.45172174471E+01  0.33649219915E+02  0.51100000000E-03 0.  1.
         22    1    1    0    0    0  0.21325571868E+02 -0.24065383300E+02  0.26442203571E+01  0.32263207996E+02  0.00000000000E+00 0. -1.
</event>
<event>
 5    1  0.1691138E-003  0.9118800E+02  0.7818608E-02  0.1130116E+00
         25   -1    0    0    0    0  0.00000000000E+00  0.00000000000E+00  0.99999998245E-14  0.12500000000E+03  0.12500000000E+03 0.  0.
        -11    1    3    3    0    0 -0.23461452202E+02 -0.24743526290E+02 -0.40097957224E+02  0.52635805366E+02  0.51100000000E-03 0.  1.
         23    2    1    0    0    0  0.10266696834E+02 -0.90933878386E+00 -0.27215855481E+02  0.95897856600E+02  0.91375402325E+02 0.  0.
         11    1    3    3    0    0  0.33728149036E+02  0.23834187506E+02  0.12882101743E+02  0.43262051235E+02  0.51100000000E-03 0. -1.
         22    1    1    0    0    0 -0.10266696834E+02  0.90933878386E+00  0.27215855481E+02  0.29102143400E+02  0.00000000000E+00 0.  1.
</event>
<event>
 5    1  0.1691138E-003  0.9118800E+02  0.7818608E-02  0.1130116E+00
         25   -1    0    0    0    0  0.00000000000E+00  0.00000000000E+00  0.99999998245E-14  0.12500000000E+03  0.12500000000E+03 0.  0.
        -11    1    3    3    0    0 -0.19574833545E+02 -0.12388816012E+02  0.21761721266E+02  0.31784105827E+02  0.51100000000E-03 0. -1.
         23    2    1    0    0    0  0.30810849871E+02  0.80549873787E+01 -0.56152273843E+01  0.92662373772E+02  0.86836590462E+02 0.  0.
         11    1    3    3    0    0  0.50385683416E+02  0.20443803391E+02 -0.27376948650E+02  0.60878267946E+02  0.51100000000E-03 0.  1.
         22    1    1    0    0    0 -0.30810849871E+02 -0.80549873787E+01  0.56152273843E+01  0.32337626228E+02  0.00000000000E+00 0.  1.
</event>
<event>
 5    1  0.1691138E-003  0.9118800E+02  0.7818608E-02  0.1130116E+00
         25   -1    0    0    0    0  0.00000000000E+00  0.00000000000E+00  0.99999998245E-14  0.12500000000E+03  0.12500000000E+03 0.  0.
        -11    1    3    3    0    0  0.32177338797E+02 -0.18838201335E+02 -0.12176119101E+02  0.39223931958E+02  0.51100000000E-03 0.  1.
         23    2    1    0    0    0 -0.23211860789E+02 -0.91574225584E+00 -0.14724875841E+02  0.97496345084E+02  0.93536550455E+02 0.  0.
         11    1    3    3    0    0 -0.55389199587E+02  0.17922459080E+02 -0.25487567402E+01  0.58272413126E+02  0.51100000000E-03 0. -1.
         22    1    1    0    0    0  0.23211860789E+02  0.91574225584E+00  0.14724875841E+02  0.27503654916E+02  0.00000000000E+00 0. -1.
</event>
<event>
 5    1  0.1691138E-003  0.9118800E+02  0.7818608E-02  0.1130116E+00
         25   -1    0    0    0    0  0.00000000000E+00  0.00000000000E+00  0.99999998245E-14  0.12500000000E+03  0.12500000000E+03 0.  0.
        -11    1    3    3    0    0  0.25734497888E+02 -0.20101686622E+02  0.42714022922E+02  0.53766438798E+02  0.51100000000E-03 0.  1.
         23    2    1    0    0    0 -0.10910707133E+02 -0.86237971468E+01  0.25722886110E+02  0.95758244287E+02  0.91184215036E+02 0.  0.
         11    1    3    3    0    0 -0.36645205021E+02  0.11477889475E+02 -0.16991136812E+02  0.41991805489E+02  0.51100000000E-03 0. -1.
         22    1    1    0    0    0  0.10910707133E+02  0.86237971468E+01 -0.25722886110E+02  0.29241755713E+02  0.00000000000E+00 0.  1.
</event>
<event>
 5    1  0.1691138E-003  0.9118800E+02  0.7818608E-02  0.1130116E+00
         25   -1    0    0    0    0  0.00000000000E+00  0.00000000000E+00  0.99999998245E-14  0.12500000000E+03  0.12500000000E+03 0.  0.
        -11    1    3    3    0    0  0.13284977045E+02  0.49750630426E+02  0.33553137028E+02  0.61460791140E+02  0.51100000000E-03 0.  1.
         23    2    1    0    0    0  0.22665955011E+01  0.27406781567E+02  0.10020338190E+02  0.95730966731E+02  0.91146813893E+02 0.  0.
         11    1    3    3    0    0 -0.11018381544E+02 -0.22343848858E+02 -0.23532798838E+02  0.34270175591E+02  0.51100000000E-03 0. -1.
         22    1    1    0    0    0 -0.22665955011E+01 -0.27406781567E+02 -0.10020338190E+02  0.29269033269E+02  0.00000000000E+00 0.  1.
</event>
<event>
 5    1  0.1691138E-003  0.9118800E+02  0.7818608E-02  0.1130116E+00
         25   -1    0    0    0    0  0.00000000000E+00  0.00000000000E+00  0.99999998245E-14  0.12500000000E+03  0.12500000000E+03 0.  0.
        -11    1    3    3    0    0  0.11600715843E+02  0.24597015413E+02 -0.28732771724E+02  0.39562127679E+02  0.51100000000E-03 0. -1.
         23    2    1    0    0    0 -0.98534829254E+00 -0.27161461867E+02 -0.89180040846E+01  0.96394987872E+02  0.92052957410E+02 0.  0.
         11    1    3    3    0    0 -0.12586064136E+02 -0.51758477280E+02  0.19814767640E+02  0.56832860192E+02  0.51100000000E-03 0.  1.
         22    1    1    0    0    0  0.98534829254E+00  0.27161461867E+02  0.89180040846E+01  0.28605012128E+02  0.00000000000E+00 0.  1.
</event>
<event>
 5    1  0.1691138E-003  0.9118800E+02  0.7818608E-02  0.1130116E+00
         25   -1    0    0    0    0  0.00000000000E+00  0.00000000000E+00  0.99999998245E-14  0.12500000000E+03  0.12500000000E+03 0.  0.
        -11    1    3    3    0    0 -0.82524564549E+01  0.34310586086E+02  0.12960582793E+02  0.37593830101E+02  0.51100000000E-03 0.  1.
         23    2    1    0    0    0  0.17711502676E+02 -0.60123802766E+01 -0.21389984468E+02  0.96585611406E+02  0.92311444856E+02 0.  0.
         11    1    3    3    0    0  0.25963959131E+02 -0.40322966363E+02 -0.34350567261E+02  0.58991781304E+02  0.51100000000E-03 0. -1.
         22    1    1    0    0    0 -0.17711502676E+02  0.60123802766E+01  0.21389984468E+02  0.28414388594E+02  0.00000000000E+00 0. -1.
</event>
<event>
 5    1  0.1691138E-003  0.9118800E+02  0.7818608E-02  0.1130116E+00
         25   -1    0    0    0    0  0.00000000000E+00  0.00000000000E+00  0.99999998245E-14  0.12500000000E+03  0.12500000000E+03 0.  0.
        -11    1    3    3    0    0  0.17795146787E+02 -0.42646249147E+02 -0.96664267845E+01  0.47210270308E+02  0.51100000000E-03 0. -1.
         23    2    1    0    0    0 -0.27985722833E+01 -0.14972662261E+02  0.24750092098E+02  0.95938346901E+02  0.91430775592E+02 0.  0.
         11    1    3    3    0    0 -0.20593719070E+02  0.27673586886E+02  0.34416518882E+02  0.48728076594E+02  0.51100000000E-03 0.  1.
         22    1    1    0    0    0  0.27985722833E+01  0.14972662261E+02 -0.24750092098E+02  0.29061653099E+02  0.00000000000E+00 0.  1.
</event>
<event>
 5    1  0.1691138E-003  0.9118800E+02  0.7818608E-02  0.1130116E+00
         25   -1    0    0    0    0  0.00000000000E+00  0.00000000000E+00  0.99999998245E-14  0.12500000000E+03  0.12500000000E+03 0.  0.
        -11    1    3    3    0    0 -0.31951976366E+02 -0.34592268360E+02  0.21581774950E+02  0.51800838162E+02  0.51100000000E-03 0. -1.
         23    2    1    0    0    0 -0.35451260184E+01 -0.28040312801E+02 -0.10222454098E+02  0.94944623971E+02  0.90061956412E+02 0.  0.
         11    1    3    3    0    0  0.28406850347E+02  0.65519555591E+01 -0.31804229048E+02  0.43143785809E+02  0.51100000000E-03 0.  1.
         22    1    1    0    0    0  0.35451260184E+01  0.28040312801E+02  0.10222454098E+02  0.30055376029E+02  0.00000000000E+00 0.  1.
</event>
<event>
 5    1  0.1691138E-003  0.9118800E+02  0.7818608E-02  0.1130116E+00
         25   -1    0    0    0    0  0.00000000000E+00  0.00000000000E+00  0.99999998245E-14  0.12500000000E+03  0.12500000000E+03 0.  0.
        -11    1    3    3    0    0 -0.19720444479E+02 -0.10965604104E+02  0.28046990685E+02  0.35996862232E+02  0.51100000000E-03 0. -1.
         23    2    1    0    0    0  0.22271990407E+02  0.73221046297E+00 -0.15689298511E+02  0.97746894184E+02  0.93870781109E+02 0.  0.
         11    1    3    3    0    0  0.41992434886E+02  0.11697814567E+02 -0.43736289195E+02  0.61750031952E+02  0.51100000000E-03 0.  1.
         22    1    1    0    0    0 -0.22271990407E+02 -0.73221046297E+00  0.15689298511E+02  0.27253105816E+02  0.00000000000E+00 0.  1.
</event>
<event>
 5    1  0.1691138E-003  0.9118800E+02  0.7818608E-02  0.1130116E+00
         25   -1    0    0    0    0  0.00000000000E+00  0.00000000000E+00  0.99999998245E-14  0.12500000000E+03  0.12500000000E+03 0.  0.
        -11    1    3    3    0    0  0.32102209594E+02  0.11491438827E+02 -0.31580540792E+02  0.46475107145E+02  0.51100000000E-03 0.  1.
         23    2    1    0    0    0 -0.14228380676E+02  0.18671058342E+02 -0.18392412696E+02  0.95178261602E+02  0.90385648200E+02 0.  0.
         11    1    3    3    0    0 -0.46330590270E+02  0.71796195147E+01  0.13188128096E+02  0.48703154457E+02  0.51100000000E-03 0. -1.
         22    1    1    0    0    0  0.14228380676E+02 -0.18671058342E+02  0.18392412696E+02  0.29821738398E+02  0.00000000000E+00 0.  1.
</event>
<event>
 5    1  0.1691138E-003  0.9118800E+02  0.7818608E-02  0.1130116E+00
         25   -1    0    0    0    0  0.00000000000E+00  0.00000000000E+00  0.99999998245E-14  0.12500000000E+03  0.12500000000E+03 0.  0.
        -11    1    3    3    0    0  0.35100049106E+02  0.90776269542E+01 -0.18332618321E+02  0.40626366477E+02  0.51100000000E-03 0.  1.
         23    2    1    0    0    0 -0.15021196292E+02  0.25124638726E+02 -0.23213146113E+01  0.95635526385E+02  0.91015831569E+02 0.  0.
         11    1    3    3    0    0 -0.50121245398E+02  0.16047011772E+02  0.16011303709E+02  0.55009159908E+02  0.51100000000E-03 0. -1.
         22    1    1    0    0    0  0.15021196292E+02 -0.25124638726E+02  0.23213146113E+01  0.29364473615E+02  0.00000000000E+00 0. -1.
</event>
<event>
 5    1  0.1691138E-003  0.9118800E+02  0.7818608E-02  0.1130116E+00
         25   -1    0    0    0    0  0.00000000000E+00  0.00000000000E+00  0.99999998245E-14  0.12500000000E+03  0.12500000000E+03 0.  0.
        -11    1    3    3    0    0  0.14076678860E+02  0.58286895290E+02 -0.42191702903E+01  0.60110867973E+02  0.51100000000E-03 0. -1.
         23    2    1    0    0    0  0.16066384158E+02  0.17670399363E+02 -0.40509513610E+01  0.10077641809E+03  0.97821799835E+02 0.  0.
         11    1    3    3    0    0  0.19897052974E+01 -0.40616495927E+02  0.16821892934E+00  0.40665550118E+02  0.51100000000E-03 0.  1.
         22    1    1    0    0    0 -0.16066384158E+02 -0.17670399363E+02  0.40509513610E+01  0.24223581908E+02  0.00000000000E+00 0. -1.
</event>
<event>
 5    1  0.1691138E-003  0.9118800E+02  0.7818608E-02  0.1130116E+00
         25   -1    0    0    0    0  0.00000000000E+00  0.00000000000E+00  0.99999998245E-14  0.12500000000E+03  0.12500000000E+03 0.  0.
        -11    1    3    3    0    0  0.38403118304E+02  0.12335013777E+01  0.16353294066E+02  0.41758247667E+02  0.51100000000E-03 0. -1.
         23    2    1    0    0    0 -0.15974363344E+02  0.81529002386E+01  0.21715634127E+02  0.96835859110E+02  0.92649688491E+02 0.  0.
         11    1    3    3    0    0 -0.54377481649E+02  0.69193988609E+01  0.53623400603E+01  0.55077611443E+02  0.51100000000E-03 0.  1.
         22    1    1    0    0    0  0.15974363344E+02 -0.81529002386E+01 -0.21715634127E+02  0.28164140890E+02  0.00000000000E+00 0. -1.
</event>
<event>
 5    1  0.1691138E-003  0.9118800E+02  0.7818608E-02  0.1130116E+00
         25   -1    0    0    0    0  0.00000000000E+00  0.00000000000E+00  0.99999998245E-14  0.12500000000E+03  0.12500000000E+03 0.  0.
        -11    1    3    3    0    0  0.55563723815E+02 -0.29665747162E+01  0.27155730338E+02  0.61915762615E+02  0.51100000000E-03 0. -1.
         23    2    1    0    0    0  0.26744067462E+02 -0.70414780416E+01  0.15726944908E+02  0.93185469459E+02  0.87586342342E+02 0.  0.
         11    1    3    3    0    0 -0.28819656353E+02 -0.40749033254E+01 -0.11428785430E+02  0.31269706844E+02  0.51100000000E-03 0.  1.
         22    1    1    0    0    0 -0.26744067462E+02  0.70414780416E+01 -0.15726944908E+02  0.31814530541E+02  0.00000000000E+00 0. -1.
</event>
<event>
 5    1  0.1691138E-003  0.9118800E+02  0.7818608E-02  0.1130116E+00
         25   -1    0    0    0    0  0.00000000000E+00  0.00000000000E+00  0.99999998245E-14  0.12500000000E+03  0.12500000000E+03 0.  0.
        -11    1    3    3    0    0 -0.47537324750E+02 -0.33267649922E+01  0.26100030450E+02  0.54333012059E+02  0.51100000000E-03 0. -1.
         23    2    1    0    0    0 -0.44107382291E+02 -0.98185399755E+01  0.17356028769E+01  0.79779681368E+02  0.65726100920E+02 0.  0.
         11    1    3    3    0    0  0.34299424589E+01 -0.64917749833E+01 -0.24364427573E+02  0.25446669309E+02  0.51100000000E-03 0.  1.
         22    1    1    0    0    0  0.44107382291E+02  0.98185399755E+01 -0.17356028769E+01  0.45220318632E+02  0.00000000000E+00 0. -1.
</event>
<event>
 5    1  0.1691138E-003  0.9118800E+02  0.7818608E-02  0.1130116E+00
         25   -1    0    0    0    0  0.00000000000E+00  0.00000000000E+00  0.99999998245E-14  0.12500000000E+03  0.12500000000E+03 0.  0.
        -11    1    3    3    0    0  0.52441017255E+02  0.39455047899E+01 -0.25529941823E+02  0.58458577031E+02  0.51100000000E-03 0.  1.
         23    2    1    0    0    0  0.30427356658E+02  0.41812829690E+01  0.25974931903E+01  0.94177051872E+02  0.88990240858E+02 0.  0.
         11    1    3    3    0    0 -0.22013660597E+02  0.23577817908E+00  0.28127435013E+02  0.35718474841E+02  0.51100000000E-03 0. -1.
         22    1    1    0    0    0 -0.30427356658E+02 -0.41812829690E+01 -0.25974931903E+01  0.30822948128E+02  0.00000000000E+00 0.  1.
</event>
<event>
 5    1  0.1691138E-003  0.9118800E+02  0.7818608E-02  0.1130116E+00
         25   -1    0    0    0    0  0.00000000000E+00  0.00000000000E+00  0.99999998245E-14  0.12500000000E+03  0.12500000000E+03 0.  0.
        -11    1    3    3    0    0  0.22856580466E+02  0.66667530935E+01  0.27332407915E+02  0.36248163955E+02  0.51100000000E-03 0. -1.
         23    2    1    0    0    0 -0.27874847161E+02 -0.10535587475E+02  0.31098032856E+01  0.95038748621E+02  0.90192500549E+02 0.  0.
         11    1    3    3    0    0 -0.50731427627E+02 -0.17202340569E+02 -0.24222604629E+02  0.58790584666E+02  0.51100000000E-03 0.  1.
         22    1    1    0    0    0  0.27874847161E+02  0.10535587475E+02 -0.31098032856E+01  0.29961251379E+02  0.00000000000E+00 0.  1.
</event>
<event>
 5    1  0.1691138E-003  0.9118800E+02  0.7818608E-02  0.1130116E+00
         25   -1    0    0    0    0  0.00000000000E+00  0.00000000000E+00  0.99999998245E-14  0.12500000000E+03  0.12500000000E+03 0.  0.
        -11    1    3    3    0    0  0.41523890370E+01 -0.37280018063E+02 -0.14429794312E+01  0.37538304056E+02  0.51100000000E-03 0.  1.
         23    2    1    0    0    0  0.15706536410E+02  0.15145860300E+02  0.20052289086E+02  0.95365785521E+02  0.90644615837E+02 0.  0.
         11    1    3    3    0    0  0.11554147373E+02  0.52425878363E+02  0.21495268517E+02  0.57827481464E+02  0.51100000000E-03 0. -1.
         22    1    1    0    0    0 -0.15706536410E+02 -0.15145860300E+02 -0.20052289086E+02  0.29634214479E+02  0.00000000000E+00 0. -1.
</event>
<event>
 5    1  0.1691138E-003  0.9118800E+02  0.7818608E-02  0.1130116E+00
         25   -1    0    0    0    0  0.00000000000E+00  0.00000000000E+00  0.99999998245E-14  0.12500000000E+03  0.12500000000E+03 0.  0.
        -11    1    3    3    0    0 -0.23850602458E+02  0.56718250667E+02 -0.22589927350E+01  0.61570400720E+02  0.51100000000E-03 0.  1.
         23    2    1    0    0    0 -0.39278167167E+01  0.27930386600E+02 -0.33482165337E+01  0.96596746776E+02  0.92326522159E+02 0.  0.
         11    1    3    3    0    0  0.19922785742E+02 -0.28787864067E+02 -0.10892237986E+01  0.35026346056E+02  0.51100000000E-03 0. -1.
         22    1    1    0    0    0  0.39278167167E+01 -0.27930386600E+02  0.33482165337E+01  0.28403253224E+02  0.00000000000E+00 0.  1.
</event>
<event>
 5    1  0.1691138E-003  0.9118800E+02  0.7818608E-02  0.1130116E+00
         25   -1    0    0    0    0  0.00000000000E+00  0.00000000000E+00  0.99999998245E-14  0.12500000000E+03  0.12500000000E+03 0.  0.
        -11    1    3    3    0    0 -0.29630083537E+02  0.12916679318E+02 -0.10011201918E+02  0.33837946438E+02  0.51100000000E-03 0.  1.
         23    2    1    0    0    0  0.59876813088E+01 -0.16075603835E+02  0.27129171778E+02  0.92902191236E+02  0.87181120714E+02 0.  0.
         11    1    3    3    0    0  0.35617764846E+02 -0.28992283153E+02  0.37140373696E+02  0.59064244798E+02  0.51100000000E-03 0. -1.
         22    1    1    0    0    0 -0.59876813088E+01  0.16075603835E+02 -0.27129171778E+02  0.32097808764E+02  0.00000000000E+00 0. -1.
</event>
<event>
 5    1  0.1691138E-003  0.9118800E+02  0.7818608E-02  0.1130116E+00
         25   -1    0    0    0    0  0.00000000000E+00  0.00000000000E+00  0.99999998245E-14  0.12500000000E+03  0.12500000000E+03 0.  0.
        -11    1    3    3    0    0  0.19447863187E+02  0.27203265311E+02 -0.94265826881E+01  0.34743308530E+02  0.51100000000E-03 0.  1.
         23    2    1    0    0    0 -0.27054163500E+02 -0.10286268000E+02 -0.96948006491E+01  0.94475841835E+02  0.89408950663E+02 0.  0.
         11    1    3    3    0    0 -0.46502026688E+02 -0.37489533311E+02 -0.26821796095E+00  0.59732533305E+02  0.51100000000E-03 0. -1.
         22    1    1    0    0    0  0.27054163500E+02  0.10286268000E+02  0.96948006491E+01  0.30524158165E+02  0.00000000000E+00 0. -1.
</event>
<event>
 5    1  0.1691138E-003  0.9118800E+02  0.7818608E-02  0.1130116E+00
         25   -1    0    0    0    0  0.00000000000E+00  0.00000000000E+00  0.99999998245E-14  0.12500000000E+03  0.12500000000E+03 0.  0.
        -11    1    3    3    0    0  0.20573583576E+02  0.17948949201E+02 -0.14613494004E+02  0.30967585082E+02  0.51100000000E-03 0. -1.
         23    2    1    0    0    0 -0.17062971553E+02 -0.14609076683E+02  0.22621530688E+02  0.93120480393E+02  0.87493543180E+02 0.  0.
         11    1    3    3    0    0 -0.37636555128E+02 -0.32558025884E+02  0.37235024692E+02  0.62152895310E+02  0.51100000000E-03 0.  1.
         22    1    1    0    0    0  0.17062971553E+02  0.14609076683E+02 -0.22621530688E+02  0.31879519607E+02  0.00000000000E+00 0.  1.
</event>
<event>
 5    1  0.1691138E-003  0.9118800E+02  0.7818608E-02  0.1130116E+00
         25   -1    0    0    0    0  0.00000000000E+00  0.00000000000E+00  0.99999998245E-14  0.12500000000E+03  0.12500000000E+03 0.  0.
        -11    1    3    3    0    0 -0.32387514593E+02 -0.18368536976E+02  0.19508242879E+01  0.37284849038E+02  0.51100000000E-03 0. -1.
         23    2    1    0    0    0  0.17591621986E+02 -0.12156359064E+02 -0.23089368695E+02  0.93529995606E+02  0.88076664909E+02 0.  0.
         11    1    3    3    0    0  0.49979136579E+02  0.62121779117E+01 -0.25040192983E+02  0.56245146568E+02  0.51100000000E-03 0.  1.
         22    1    1    0    0    0 -0.17591621986E+02  0.12156359064E+02  0.23089368695E+02  0.31470004394E+02  0.00000000000E+00 0.  1.
</event>
<event>
 4    1  0.1691138E-003  0.9118800E+02  0.7818608E-02  0.1130116E+00
         25   -1    0    0    0    0  0.00000000000E+00  0.00000000000E+00  0.99999998245E-14  0.12500000000E+03  0.12500000000E+03 0.  0.
        -11    1    1    0    0    0  0.43863754788E+01  0.63438762694E+01  0.98910610770E+01  0.12542653047E+02  0.51100000000E-03 0. -1.
         11    1    1    0    0    0  0.71140207465E+01  0.25971791896E+02 -0.51751554944E+02  0.58338381062E+02  0.51100000000E-03 0.  1.
         22    1    1    0    0    0 -0.11500396225E+02 -0.32315668166E+02  0.41860493867E+02  0.54118965891E+02  0.00000000000E+00 0.  1.
</event>
<event>
 5    1  0.1691138E-003  0.9118800E+02  0.7818608E-02  0.1130116E+00
         25   -1    0    0    0    0  0.00000000000E+00  0.00000000000E+00  0.99999998245E-14  0.12500000000E+03  0.12500000000E+03 0.  0.
        -11    1    3    3    0    0 -0.14878632916E+02 -0.46779768964E+02 -0.11222587125E+02  0.50355406501E+02  0.51100000000E-03 0.  1.
         23    2    1    0    0    0  0.19914176574E+02 -0.26500887671E+02 -0.13289917978E+01  0.91824139873E+02  0.85621463245E+02 0.  0.
         11    1    3    3    0    0  0.34792809490E+02  0.20278881293E+02  0.98935953272E+01  0.41468733372E+02  0.51100000000E-03 0. -1.
         22    1    1    0    0    0 -0.19914176574E+02  0.26500887671E+02  0.13289917978E+01  0.33175860127E+02  0.00000000000E+00 0.  1.
</event>
<event>
 5    1  0.1691138E-003  0.9118800E+02  0.7818608E-02  0.1130116E+00
         25   -1    0    0    0    0  0.00000000000E+00  0.00000000000E+00  0.99999998245E-14  0.12500000000E+03  0.12500000000E+03 0.  0.
        -11    1    3    3    0    0 -0.10600411579E+02 -0.56010604315E+02  0.58881721294E+01  0.57308176490E+02  0.51100000000E-03 0. -1.
         23    2    1    0    0    0 -0.69697876977E+01 -0.29641415186E+02  0.21088595965E+02  0.87960557313E+02  0.79781823295E+02 0.  0.
         11    1    3    3    0    0  0.36306238813E+01  0.26369189129E+02  0.15200423836E+02  0.30652380823E+02  0.51100000000E-03 0.  1.
         22    1    1    0    0    0  0.69697876977E+01  0.29641415186E+02 -0.21088595965E+02  0.37039442687E+02  0.00000000000E+00 0. -1.
</event>
<event>
 5    1  0.1691138E-003  0.9118800E+02  0.7818608E-02  0.1130116E+00
         25   -1    0    0    0    0  0.00000000000E+00  0.00000000000E+00  0.99999998245E-14  0.12500000000E+03  0.12500000000E+03 0.  0.
        -11    1    3    3    0    0  0.27784349533E+02 -0.41800745054E+01 -0.20516198498E+02  0.34790192626E+02  0.51100000000E-03 0.  1.
         23    2    1    0    0    0  0.58763494956E+01  0.11264469806E+02  0.30245470832E+02  0.92194386619E+02  0.86160296279E+02 0.  0.
         11    1    3    3    0    0 -0.21908000038E+02  0.15444544312E+02  0.50761669330E+02  0.57404193994E+02  0.51100000000E-03 0. -1.
         22    1    1    0    0    0 -0.58763494956E+01 -0.11264469806E+02 -0.30245470832E+02  0.32805613381E+02  0.00000000000E+00 0. -1.
</event>
<event>
 5    1  0.1691138E-003  0.9118800E+02  0.7818608E-02  0.1130116E+00
         25   -1    0    0    0    0  0.00000000000E+00  0.00000000000E+00  0.99999998245E-14  0.12500000000E+03  0.12500000000E+03 0.  0.
        -11    1    3    3    0    0 -0.24407533797E+02  0.50253095469E+02  0.78247262392E+01  0.56412123265E+02  0.51100000000E-03 0.  1.
         23    2    1    0    0    0 -0.24593768798E+02  0.11565923429E+02 -0.53873454907E+01  0.97293546963E+02  0.93265142152E+02 0.  0.
         11    1    3    3    0    0 -0.18623500176E+00 -0.38687172040E+02 -0.13212071730E+02  0.40881423698E+02  0.51100000000E-03 0. -1.
         22    1    1    0    0    0  0.24593768798E+02 -0.11565923429E+02  0.53873454907E+01  0.27706453037E+02  0.00000000000E+00 0.  1.
</event>
<event>
 5    1  0.1691138E-003  0.9118800E+02  0.7818608E-02  0.1130116E+00
         25   -1    0    0    0    0  0.00000000000E+00  0.00000000000E+00  0.99999998245E-14  0.12500000000E+03  0.12500000000E+03 0.  0.
        -11    1    3    3    0    0  0.20139854359E+02 -0.57647905523E+01 -0.28593898796E+02  0.35446545562E+02  0.51100000000E-03 0.  1.
         23    2    1    0    0    0 -0.67542174164E+01  0.22140886861E+02  0.17728101709E+02  0.95843115494E+02  0.91300486710E+02 0.  0.
         11    1    3    3    0    0 -0.26894071775E+02  0.27905677413E+02  0.46322000505E+02  0.60396569932E+02  0.51100000000E-03 0. -1.
         22    1    1    0    0    0  0.67542174164E+01 -0.22140886861E+02 -0.17728101709E+02  0.29156884506E+02  0.00000000000E+00 0. -1.
</event>
<event>
 5    1  0.1691138E-003  0.9118800E+02  0.7818608E-02  0.1130116E+00
         25   -1    0    0    0    0  0.00000000000E+00  0.00000000000E+00  0.99999998245E-14  0.12500000000E+03  0.12500000000E+03 0.  0.
        -11    1    3    3    0    0 -0.30760781713E+02 -0.19346043653E+02 -0.14172861310E+02  0.39004680419E+02  0.51100000000E-03 0. -1.
         23    2    1    0    0    0  0.22600872569E+02 -0.25422802605E+01 -0.19282710585E+02  0.95182462253E+02  0.90391457358E+02 0.  0.
         11    1    3    3    0    0  0.53361654282E+02  0.16803763392E+02 -0.51098492752E+01  0.56177781834E+02  0.51100000000E-03 0.  1.
         22    1    1    0    0    0 -0.22600872569E+02  0.25422802605E+01  0.19282710585E+02  0.29817537747E+02  0.00000000000E+00 0.  1.
</event>
<event>
 5    1  0.1691138E-003  0.9118800E+02  0.7818608E-02  0.1130116E+00
         25   -1    0    0    0    0  0.00000000000E+00  0.00000000000E+00  0.99999998245E-14  0.12500000000E+03  0.12500000000E+03 0.  0.
        -11    1    3    3    0    0  0.23089665949E+02  0.16439689193E+01  0.33311335779E+02  0.40564521433E+02  0.51100000000E-03 0.  1.
         23    2    1    0    0    0  0.42161503720E+01 -0.27977472431E+02 -0.87708932925E+01  0.95378327922E+02  0.90661910306E+02 0.  0.
         11    1    3    3    0    0 -0.18873515577E+02 -0.29621441350E+02 -0.42082229071E+02  0.54813806489E+02  0.51100000000E-03 0. -1.
         22    1    1    0    0    0 -0.42161503720E+01  0.27977472431E+02  0.87708932925E+01  0.29621672078E+02  0.00000000000E+00 0. -1.
</event>
<event>
 5    1  0.1691138E-003  0.9118800E+02  0.7818608E-02  0.1130116E+00
         25   -1    0    0    0    0  0.00000000000E+00  0.00000000000E+00  0.99999998245E-14  0.12500000000E+03  0.12500000000E+03 0.  0.
        -11    1    3    3    0    0  0.45557634782E+02 -0.70530096656E+01 -0.34369357266E+02  0.57502136929E+02  0.51100000000E-03 0. -1.
         23    2    1    0    0    0  0.26912831098E+02 -0.10387777420E+02 -0.68806660513E+00  0.96143807717E+02  0.91711242109E+02 0.  0.
         11    1    3    3    0    0 -0.18644803685E+02 -0.33347677546E+01  0.33681290661E+02  0.38641670787E+02  0.51100000000E-03 0.  1.
         22    1    1    0    0    0 -0.26912831098E+02  0.10387777420E+02  0.68806660513E+00  0.28856192283E+02  0.00000000000E+00 0. -1.
</event>
<event>
 5    1  0.1691138E-003  0.9118800E+02  0.7818608E-02  0.1130116E+00
         25   -1    0    0    0    0  0.00000000000E+00  0.00000000000E+00  0.99999998245E-14  0.12500000000E+03  0.12500000000E+03 0.  0.
        -11    1    3    3    0    0  0.18871390369E+02 -0.14465164040E+02  0.35797378736E+02  0.42974674749E+02  0.51100000000E-03 0. -1.
         23    2    1    0    0    0 -0.21794972075E+02  0.12228622448E+02  0.14777877481E+02  0.95966473215E+02  0.91469220527E+02 0.  0.
         11    1    3    3    0    0 -0.40666362444E+02  0.26693786487E+02 -0.21019501255E+02  0.52991798466E+02  0.51100000000E-03 0.  1.
         22    1    1    0    0    0  0.21794972075E+02 -0.12228622448E+02 -0.14777877481E+02  0.29033526785E+02  0.00000000000E+00 0.  1.
</event>
<event>
 5    1  0.1691138E-003  0.9118800E+02  0.7818608E-02  0.1130116E+00
         25   -1    0    0    0    0  0.00000000000E+00  0.00000000000E+00  0.99999998245E-14  0.12500000000E+03  0.12500000000E+03 0.  0.
        -11    1    3    3    0    0 -0.11003389935E+02 -0.92954896426E+01 -0.38512898971E+02  0.41118415645E+02  0.51100000000E-03 0.  1.
         23    2    1    0    0    0 -0.46337211034E+01  0.22927158327E+02  0.98822326643E+01  0.99607393150E+02  0.96316396773E+02 0.  0.
         11    1    3    3    0    0  0.63696688319E+01  0.32222647970E+02  0.48395131636E+02  0.58488977504E+02  0.51100000000E-03 0. -1.
         22    1    1    0    0    0  0.46337211034E+01 -0.22927158327E+02 -0.98822326643E+01  0.25392606850E+02  0.00000000000E+00 0. -1.
</event>
<event>
 5    1  0.1691138E-003  0.9118800E+02  0.7818608E-02  0.1130116E+00
         25   -1    0    0    0    0  0.00000000000E+00  0.00000000000E+00  0.99999998245E-14  0.12500000000E+03  0.12500000000E+03 0.  0.
        -11    1    3    3    0    0  0.28031391655E+02 -0.22540238904E+02 -0.50020157063E+02  0.61610367641E+02  0.51100000000E-03 0.  1.
         23    2    1    0    0    0  0.12538680327E+02 -0.17487828985E+02 -0.20773645816E+02  0.95090352268E+02  0.90263990977E+02 0.  0.
         11    1    3    3    0    0 -0.15492711327E+02  0.50524099187E+01  0.29246511248E+02  0.33479984628E+02  0.51100000000E-03 0. -1.
         22    1    1    0    0    0 -0.12538680327E+02  0.17487828985E+02  0.20773645816E+02  0.29909647732E+02  0.00000000000E+00 0.  1.
</event>
<event>
 5    1  0.1691138E-003  0.9118800E+02  0.7818608E-02  0.1130116E+00
         25   -1    0    0    0    0  0.00000000000E+00  0.00000000000E+00  0.99999998245E-14  0.12500000000E+03  0.12500000000E+03 0.  0.
        -11    1    3    3    0    0  0.15035426047E+02 -0.29098324099E+01 -0.48507970401E+02  0.50868009139E+02  0.51100000000E-03 0. -1.
         23    2    1    0    0    0  0.25180137059E+02  0.12112315958E+02 -0.69506798228E+01  0.96206607525E+02  0.91796796683E+02 0.  0.
         11    1    3    3    0    0  0.10144711012E+02  0.15022148368E+02  0.41557290579E+02  0.45338598386E+02  0.51100000000E-03 0.  1.
         22    1    1    0    0    0 -0.25180137059E+02 -0.12112315958E+02  0.69506798228E+01  0.28793392475E+02  0.00000000000E+00 0. -1.
</event>
<event>
 5    1  0.1691138E-003  0.9118800E+02  0.7818608E-02  0.1130116E+00
         25   -1    0    0    0    0  0.00000000000E+00  0.00000000000E+00  0.99999998245E-14  0.12500000000E+03  0.12500000000E+03 0.  0.
        -11    1    3    3    0    0 -0.47225780874E+02  0.25610087647E+02  0.10079124250E+02  0.54660220585E+02  0.51100000000E-03 0.  1.
         23    2    1    0    0    0 -0.21371540874E+02 -0.19064750439E+01 -0.13942879218E+02  0.99411305479E+02  0.96061575928E+02 0.  0.
         11    1    3    3    0    0  0.25854240001E+02 -0.27516562691E+02 -0.24022003468E+02  0.44751084894E+02  0.51100000000E-03 0. -1.
         22    1    1    0    0    0  0.21371540874E+02  0.19064750439E+01  0.13942879218E+02  0.25588694521E+02  0.00000000000E+00 0.  1.
</event>
<event>
 5    1  0.1691138E-003  0.9118800E+02  0.7818608E-02  0.1130116E+00
         25   -1    0    0    0    0  0.00000000000E+00  0.00000000000E+00  0.99999998245E-14  0.12500000000E+03  0.12500000000E+03 0.  0.
        -11    1    3    3    0    0 -0.30522660658E+02 -0.29301468774E+02 -0.19762212967E+02  0.46698543313E+02  0.51100000000E-03 0. -1.
         23    2    1    0    0    0 -0.14994239145E+02  0.18770039158E+02 -0.13052079751E+02  0.97659583702E+02  0.93754444831E+02 0.  0.
         11    1    3    3    0    0  0.15528421513E+02  0.48071507931E+02  0.67101332167E+01  0.50961040389E+02  0.51100000000E-03 0.  1.
         22    1    1    0    0    0  0.14994239145E+02 -0.18770039158E+02  0.13052079751E+02  0.27340416298E+02  0.00000000000E+00 0.  1.
</event>
<event>
 5    1  0.1691138E-003  0.9118800E+02  0.7818608E-02  0.1130116E+00
         25   -1    0    0    0    0  0.00000000000E+00  0.00000000000E+00  0.99999998245E-14  0.12500000000E+03  0.12500000000E+03 0.  0.
        -11    1    3    3    0    0  0.25186246769E+02 -0.17737054658E+02 -0.12687634586E+02  0.33315555014E+02  0.51100000000E-03 0. -1.
         23    2    1    0    0    0 -0.13690674338E+02  0.22867590462E+02  0.13260931791E+02  0.95230660582E+02  0.90458085021E+02 0.  0.
         11    1    3    3    0    0 -0.38876921108E+02  0.40604645121E+02  0.25948566377E+02  0.61915105568E+02  0.51100000000E-03 0.  1.
         22    1    1    0    0    0  0.13690674338E+02 -0.22867590462E+02 -0.13260931791E+02  0.29769339418E+02  0.00000000000E+00 0.  1.
</event>
<event>
 5    1  0.1691138E-003  0.9118800E+02  0.7818608E-02  0.1130116E+00
         25   -1    0    0    0    0  0.00000000000E+00  0.00000000000E+00  0.99999998245E-14  0.12500000000E+03  0.12500000000E+03 0.  0.
        -11    1    3    3    0    0 -0.22424317188E+02  0.34302305757E+00 -0.26273005366E+02  0.34543284114E+02  0.51100000000E-03 0.  1.
         23    2    1    0    0    0  0.16205702431E+02 -0.15787095926E+02  0.18453456437E+02  0.95804328342E+02  0.91247367554E+02 0.  0.
         11    1    3    3    0    0  0.38630019619E+02 -0.16130118984E+02  0.44726461803E+02  0.61261044228E+02  0.51100000000E-03 0. -1.
         22    1    1    0    0    0 -0.16205702431E+02  0.15787095926E+02 -0.18453456437E+02  0.29195671658E+02  0.00000000000E+00 0. -1.
</event>
<event>
 5    1  0.1691138E-003  0.9118800E+02  0.7818608E-02  0.1130116E+00
         25   -1    0    0    0    0  0.00000000000E+00  0.00000000000E+00  0.99999998245E-14  0.12500000000E+03  0.12500000000E+03 0.  0.
        -11    1    3    3    0    0 -0.17712753298E+02 -0.32804434239E+02 -0.44000320945E+01  0.37539749837E+02  0.51100000000E-03 0. -1.
         23    2    1    0    0    0  0.39147558869E+01  0.13544135699E+02 -0.27834113751E+02  0.93798929285E+02  0.88457517042E+02 0.  0.
         11    1    3    3    0    0  0.21627509185E+02  0.46348569937E+02 -0.23434081657E+02  0.56259179448E+02  0.51100000000E-03 0.  1.
         22    1    1    0    0    0 -0.39147558869E+01 -0.13544135699E+02  0.27834113751E+02  0.31201070715E+02  0.00000000000E+00 0.  1.
</event>
<event>
 5    1  0.1691138E-003  0.9118800E+02  0.7818608E-02  0.1130116E+00
         25   -1    0    0    0    0  0.00000000000E+00  0.00000000000E+00  0.99999998245E-14  0.12500000000E+03  0.12500000000E+03 0.  0.
        -11    1    3    3    0    0  0.53314690608E+02  0.28794824441E+01 -0.20109437169E+01  0.53430249379E+02  0.51100000000E-03 0. -1.
         23    2    1    0    0    0  0.21675312172E+02 -0.83660388199E+01 -0.22410286316E+02  0.92719499755E+02  0.86918783578E+02 0.  0.
         11    1    3    3    0    0 -0.31639378436E+02 -0.11245521264E+02 -0.20399342599E+02  0.39289250376E+02  0.51100000000E-03 0.  1.
         22    1    1    0    0    0 -0.21675312172E+02  0.83660388199E+01  0.22410286316E+02  0.32280500245E+02  0.00000000000E+00 0. -1.
</event>
<event>
 5    1  0.1691138E-003  0.9118800E+02  0.7818608E-02  0.1130116E+00
         25   -1    0    0    0    0  0.00000000000E+00  0.00000000000E+00  0.99999998245E-14  0.12500000000E+03  0.12500000000E+03 0.  0.
        -11    1    3    3    0    0  0.45505411229E+02 -0.29351375061E+02 -0.24456879145E+02  0.59417039702E+02  0.51100000000E-03 0.  1.
         23    2    1    0    0    0  0.26585648390E+02 -0.11750765202E+01 -0.13999601481E+02  0.94930641064E+02  0.90042546977E+02 0.  0.
         11    1    3    3    0    0 -0.18919762839E+02  0.28176298541E+02  0.10457277664E+02  0.35513601363E+02  0.51100000000E-03 0. -1.
         22    1    1    0    0    0 -0.26585648390E+02  0.11750765202E+01  0.13999601481E+02  0.30069358936E+02  0.00000000000E+00 0.  1.
</event>
<event>
 5    1  0.1691138E-003  0.9118800E+02  0.7818608E-02  0.1130116E+00
         25   -1    0    0    0    0  0.00000000000E+00  0.00000000000E+00  0.99999998245E-14  0.12500000000E+03  0.12500000000E+03 0.  0.
        -11    1    3    3    0    0  0.37426506383E+02 -0.95663757533E+01 -0.40622297683E+02  0.56057381266E+02  0.51100000000E-03 0.  1.
         23    2    1    0    0    0  0.21451812604E+01 -0.53848204491E+00 -0.31263002286E+02  0.93658859665E+02  0.88259361635E+02 0.  0.
         11    1    3    3    0    0 -0.35281325122E+02  0.90278937084E+01  0.93592953974E+01  0.37601478399E+02  0.51100000000E-03 0. -1.
         22    1    1    0    0    0 -0.21451812604E+01  0.53848204491E+00  0.31263002286E+02  0.31341140335E+02  0.00000000000E+00 0.  1.
</event>
<event>
 5    1  0.1691138E-003  0.9118800E+02  0.7818608E-02  0.1130116E+00
         25   -1    0    0    0    0  0.00000000000E+00  0.00000000000E+00  0.99999998245E-14  0.12500000000E+03  0.12500000000E+03 0.  0.
        -11    1    3    3    0    0  0.32781841410E+02  0.17246783473E+02 -0.57996720547E+01  0.37493157544E+02  0.51100000000E-03 0. -1.
         23    2    1    0    0    0 -0.82768348904E+01 -0.23669087398E+02  0.10665925468E+02  0.97751263146E+02  0.93876598716E+02 0.  0.
         11    1    3    3    0    0 -0.41058676300E+02 -0.40915870871E+02  0.16465597523E+02  0.60258105602E+02  0.51100000000E-03 0.  1.
         22    1    1    0    0    0  0.82768348904E+01  0.23669087398E+02 -0.10665925468E+02  0.27248736854E+02  0.00000000000E+00 0.  1.
</event>
<event>
 5    1  0.1691138E-003  0.9118800E+02  0.7818608E-02  0.1130116E+00
         25   -1    0    0    0    0  0.00000000000E+00  0.00000000000E+00  0.99999998245E-14  0.12500000000E+03  0.12500000000E+03 0.  0.
        -11    1    3    3    0    0 -0.26877517578E+02  0.38213236717E+02  0.24209253993E+02  0.52618821639E+02  0.51100000000E-03 0.  1.
         23    2    1    0    0    0  0.41463111830E+01  0.90408550312E+01  0.27915906119E+02  0.95365108899E+02  0.90643682762E+02 0.  0.
         11    1    3    3    0    0  0.31023828761E+02 -0.29172381686E+02  0.37066521266E+01  0.42746287260E+02  0.51100000000E-03 0. -1.
         22    1    1    0    0    0 -0.41463111830E+01 -0.90408550312E+01 -0.27915906119E+02  0.29634891101E+02  0.00000000000E+00 0. -1.
</event>
<event>
 5    1  0.1691138E-003  0.9118800E+02  0.7818608E-02  0.1130116E+00
         25   -1    0    0    0    0  0.00000000000E+00  0.00000000000E+00  0.99999998245E-14  0.12500000000E+03  0.12500000000E+03 0.  0.
        -11    1    3    3    0    0  0.42044569281E+02  0.39864632251E+01  0.18223237165E+01  0.42272432613E+02  0.51100000000E-03 0. -1.
         23    2    1    0    0    0 -0.44148319193E+01 -0.10955460341E+01  0.28535283878E+02  0.96104439995E+02  0.91657569239E+02 0.  0.
         11    1    3    3    0    0 -0.46459401200E+02 -0.50820092592E+01  0.26712960161E+02  0.53832007382E+02  0.51100000000E-03 0.  1.
         22    1    1    0    0    0  0.44148319193E+01  0.10955460341E+01 -0.28535283878E+02  0.28895560005E+02  0.00000000000E+00 0. -1.
</event>
<event>
 5    1  0.1691138E-003  0.9118800E+02  0.7818608E-02  0.1130116E+00
         25   -1    0    0    0    0  0.00000000000E+00  0.00000000000E+00  0.99999998245E-14  0.12500000000E+03  0.12500000000E+03 0.  0.
        -11    1    3    3    0    0  0.23287290505E+02  0.30955590412E+02 -0.10908854999E+02  0.40243627999E+02  0.51100000000E-03 0. -1.
         23    2    1    0    0    0 -0.10159569119E+02 -0.15546815216E+02 -0.19391161496E+02  0.98149721562E+02  0.94405669271E+02 0.  0.
         11    1    3    3    0    0 -0.33446859624E+02 -0.46502405628E+02 -0.84823064966E+01  0.57906093563E+02  0.51100000000E-03 0.  1.
         22    1    1    0    0    0  0.10159569119E+02  0.15546815216E+02  0.19391161496E+02  0.26850278438E+02  0.00000000000E+00 0.  1.
</event>
<event>
 5    1  0.1691138E-003  0.9118800E+02  0.7818608E-02  0.1130116E+00
         25   -1    0    0    0    0  0.00000000000E+00  0.00000000000E+00  0.99999998245E-14  0.12500000000E+03  0.12500000000E+03 0.  0.
        -11    1    3    3    0    0 -0.78182039419E+01 -0.24496385116E+02  0.34145788880E+02  0.42744965728E+02  0.51100000000E-03 0. -1.
         23    2    1    0    0    0 -0.28148381293E+02  0.12332510343E+02  0.51435647078E+01  0.93841077704E+02  0.88517057260E+02 0.  0.
         11    1    3    3    0    0 -0.20330177351E+02  0.36828895459E+02 -0.29002224172E+02  0.51096111976E+02  0.51100000000E-03 0.  1.
         22    1    1    0    0    0  0.28148381293E+02 -0.12332510343E+02 -0.51435647078E+01  0.31158922296E+02  0.00000000000E+00 0.  1.
</event>
<event>
 5    1  0.1691138E-003  0.9118800E+02  0.7818608E-02  0.1130116E+00
         25   -1    0    0    0    0  0.00000000000E+00  0.00000000000E+00  0.99999998245E-14  0.12500000000E+03  0.12500000000E+03 0.  0.
        -11    1    3    3    0    0 -0.91886775411E+00  0.58161151403E+02  0.11545336446E+01  0.58179865921E+02  0.51100000000E-03 0. -1.
         23    2    1    0    0    0  0.38756767676E+01  0.25502285948E+02 -0.15243501535E+02  0.95037493463E+02  0.90190760977E+02 0.  0.
         11    1    3    3    0    0  0.47945445217E+01 -0.32658865455E+02 -0.16398035179E+02  0.36857627541E+02  0.51100000000E-03 0.  1.
         22    1    1    0    0    0 -0.38756767676E+01 -0.25502285948E+02  0.15243501535E+02  0.29962506537E+02  0.00000000000E+00 0. -1.
</event>
<event>
 5    1  0.1691138E-003  0.9118800E+02  0.7818608E-02  0.1130116E+00
         25   -1    0    0    0    0  0.00000000000E+00  0.00000000000E+00  0.99999998245E-14  0.12500000000E+03  0.12500000000E+03 0.  0.
        -11    1    3    3    0    0  0.19883329899E+02 -0.22423546117E+02  0.45572294200E+02  0.54543525988E+02  0.51100000000E-03 0. -1.
         23    2    1    0    0    0  0.26597789556E+02 -0.25788479600E+01  0.87983480879E+01  0.96866322758E+02  0.92690779959E+02 0.  0.
         11    1    3    3    0    0  0.67144596579E+01  0.19844698157E+02 -0.36773946112E+02  0.42322796769E+02  0.51100000000E-03 0.  1.
         22    1    1    0    0    0 -0.26597789556E+02  0.25788479600E+01 -0.87983480879E+01  0.28133677242E+02  0.00000000000E+00 0. -1.
</event>
<event>
 5    1  0.1691138E-003  0.9118800E+02  0.7818608E-02  0.1130116E+00
         25   -1    0    0    0    0  0.00000000000E+00  0.00000000000E+00  0.99999998245E-14  0.12500000000E+03  0.12500000000E+03 0.  0.
        -11    1    3    3    0    0  0.55959419603E+02 -0.11547506005E+02  0.24597192214E+02  0.62207904661E+02  0.51100000000E-03 0.  1.
         23    2    1    0    0    0  0.25971673092E+02 -0.23650759828E+01  0.14530737471E+02  0.95145959753E+02  0.90340964896E+02 0.  0.
         11    1    3    3    0    0 -0.29987746511E+02  0.91824300218E+01 -0.10066454743E+02  0.32938055092E+02  0.51100000000E-03 0. -1.
         22    1    1    0    0    0 -0.25971673092E+02  0.23650759828E+01 -0.14530737471E+02  0.29854040247E+02  0.00000000000E+00 0.  1.
</event>
<event>
 5    1  0.1691138E-003  0.9118800E+02  0.7818608E-02  0.1130116E+00
         25   -1    0    0    0    0  0.00000000000E+00  0.00000000000E+00  0.99999998245E-14  0.12500000000E+03  0.12500000000E+03 0.  0.
        -11    1    3    3    0    0  0.23431838189E+01  0.21351525661E+01  0.59921839877E+02  0.60005635414E+02  0.51100000000E-03 0.  1.
         23    2    1    0    0    0  0.15556247535E+01 -0.11453203460E+02  0.27044268755E+02  0.95589316391E+02  0.90952345202E+02 0.  0.
         11    1    3    3    0    0 -0.78755906546E+00 -0.13588356026E+02 -0.32877571122E+02  0.35583680977E+02  0.51100000000E-03 0. -1.
         22    1    1    0    0    0 -0.15556247535E+01  0.11453203460E+02 -0.27044268755E+02  0.29410683609E+02  0.00000000000E+00 0.  1.
</event>
<event>
 5    1  0.1691138E-003  0.9118800E+02  0.7818608E-02  0.1130116E+00
         25   -1    0    0    0    0  0.00000000000E+00  0.00000000000E+00  0.99999998245E-14  0.12500000000E+03  0.12500000000E+03 0.  0.
        -11    1    3    3    0    0  0.11674922065E+02  0.33245127003E+02 -0.35672656980E+01  0.35415641453E+02  0.51100000000E-03 0. -1.
         23    2    1    0    0    0 -0.19091475907E+02 -0.17957803437E+02 -0.12751089130E+02  0.95852831517E+02  0.91313788002E+02 0.  0.
         11    1    3    3    0    0 -0.30766397972E+02 -0.51202930440E+02 -0.91838234317E+01  0.60437190064E+02  0.51100000000E-03 0.  1.
         22    1    1    0    0    0  0.19091475907E+02  0.17957803437E+02  0.12751089130E+02  0.29147168483E+02  0.00000000000E+00 0.  1.
</event>
<event>
 5    1  0.1691138E-003  0.9118800E+02  0.7818608E-02  0.1130116E+00
         25   -1    0    0    0    0  0.00000000000E+00  0.00000000000E+00  0.99999998245E-14  0.12500000000E+03  0.12500000000E+03 0.  0.
        -11    1    3    3    0    0 -0.33953539932E+02  0.29243454976E+02  0.11381470026E+02  0.46233758154E+02  0.51100000000E-03 0.  1.
         23    2    1    0    0    0 -0.25199870159E+01  0.13395726047E+02 -0.24791422686E+02  0.96708473890E+02  0.92477664722E+02 0.  0.
         11    1    3    3    0    0  0.31433552916E+02 -0.15847728929E+02 -0.36172892712E+02  0.50474715735E+02  0.51100000000E-03 0. -1.
         22    1    1    0    0    0  0.25199870159E+01 -0.13395726047E+02  0.24791422686E+02  0.28291526110E+02  0.00000000000E+00 0. -1.
</event>
<event>
 5    1  0.1691138E-003  0.9118800E+02  0.7818608E-02  0.1130116E+00
         25   -1    0    0    0    0  0.00000000000E+00  0.00000000000E+00  0.99999998245E-14  0.12500000000E+03  0.12500000000E+03 0.  0.
        -11    1    3    3    0    0 -0.23275981975E+02  0.20958133835E+02 -0.13090745334E+02  0.33946757200E+02  0.51100000000E-03 0. -1.
         23    2    1    0    0    0  0.27170315708E+02  0.73049156537E+00  0.13723301630E+02  0.94551869003E+02  0.89515178884E+02 0.  0.
         11    1    3    3    0    0  0.50446297683E+02 -0.20227642269E+02  0.26814046964E+02  0.60605111802E+02  0.51100000000E-03 0.  1.
         22    1    1    0    0    0 -0.27170315708E+02 -0.73049156537E+00 -0.13723301630E+02  0.30448130997E+02  0.00000000000E+00 0.  1.
</event>
<event>
 5    1  0.1691138E-003  0.9118800E+02  0.7818608E-02  0.1130116E+00
         25   -1    0    0    0    0  0.00000000000E+00  0.00000000000E+00  0.99999998245E-14  0.12500000000E+03  0.12500000000E+03 0.  0.
        -11    1    3    3    0    0  0.41108285887E+02 -0.27376789728E+02 -0.20129708788E+02  0.53334650655E+02  0.51100000000E-03 0. -1.
         23    2    1    0    0    0  0.95420127767E+01 -0.26508585051E+02  0.80932149440E+01  0.95686944591E+02  0.91086421314E+02 0.  0.
         11    1    3    3    0    0 -0.31566273110E+02  0.86820467651E+00  0.28222923732E+02  0.42352293936E+02  0.51100000000E-03 0.  1.
         22    1    1    0    0    0 -0.95420127767E+01  0.26508585051E+02 -0.80932149440E+01  0.29313055409E+02  0.00000000000E+00 0. -1.
</event>
<event>
 5    1  0.1691138E-003  0.9118800E+02  0.7818608E-02  0.1130116E+00
         25   -1    0    0    0    0  0.00000000000E+00  0.00000000000E+00  0.99999998245E-14  0.12500000000E+03  0.12500000000E+03 0.  0.
        -11    1    3    3    0    0  0.18089670110E+02 -0.19604531899E+01 -0.54418797144E+02  0.57380179716E+02  0.51100000000E-03 0.  1.
         23    2    1    0    0    0  0.27438728258E+02  0.14730870118E+01 -0.27318388339E+02  0.86252766096E+02  0.77059662107E+02 0.  0.
         11    1    3    3    0    0  0.93490581484E+01  0.34335402017E+01  0.27100408805E+02  0.28872586380E+02  0.51100000000E-03 0. -1.
         22    1    1    0    0    0 -0.27438728258E+02 -0.14730870118E+01  0.27318388339E+02  0.38747233904E+02  0.00000000000E+00 0.  1.
</event>
<event>
 5    1  0.1691138E-003  0.9118800E+02  0.7818608E-02  0.1130116E+00
         25   -1    0    0    0    0  0.00000000000E+00  0.00000000000E+00  0.99999998245E-14  0.12500000000E+03  0.12500000000E+03 0.  0.
        -11    1    3    3    0    0 -0.20960957381E+02 -0.25189652464E+02 -0.21271691792E+02  0.39068724032E+02  0.51100000000E-03 0.  1.
         23    2    1    0    0    0  0.26128659390E+02  0.58998496882E+01 -0.81491928739E+01  0.97001349812E+02  0.92872694873E+02 0.  0.
         11    1    3    3    0    0  0.47089616770E+02  0.31089502152E+02  0.13122498918E+02  0.57932625780E+02  0.51100000000E-03 0. -1.
         22    1    1    0    0    0 -0.26128659390E+02 -0.58998496882E+01  0.81491928739E+01  0.27998650188E+02  0.00000000000E+00 0. -1.
</event>
<event>
 5    1  0.1691138E-003  0.9118800E+02  0.7818608E-02  0.1130116E+00
         25   -1    0    0    0    0  0.00000000000E+00  0.00000000000E+00  0.99999998245E-14  0.12500000000E+03  0.12500000000E+03 0.  0.
        -11    1    3    3    0    0  0.13631189330E+02  0.46616953107E+02  0.37017651461E+02  0.61067635942E+02  0.51100000000E-03 0.  1.
         23    2    1    0    0    0  0.14997988477E+02  0.17968645620E+02  0.17866401149E+02  0.95554793704E+02  0.90904886701E+02 0.  0.
         11    1    3    3    0    0  0.13667991469E+01 -0.28648307487E+02 -0.19151250312E+02  0.34487157763E+02  0.51100000000E-03 0. -1.
         22    1    1    0    0    0 -0.14997988477E+02 -0.17968645620E+02 -0.17866401149E+02  0.29445206296E+02  0.00000000000E+00 0.  1.
</event>
<event>
 5    1  0.1691138E-003  0.9118800E+02  0.7818608E-02  0.1130116E+00
         25   -1    0    0    0    0  0.00000000000E+00  0.00000000000E+00  0.99999998245E-14  0.12500000000E+03  0.12500000000E+03 0.  0.
        -11    1    3    3    0    0 -0.10483430363E+02  0.59743989483E+02 -0.46203671805E+01  0.60832510919E+02  0.51100000000E-03 0.  1.
         23    2    1    0    0    0 -0.10953360001E+02  0.27511509359E+02 -0.10463852223E+02  0.93593767404E+02  0.88167124548E+02 0.  0.
         11    1    3    3    0    0 -0.46992963729E+00 -0.32232480124E+02 -0.58434850425E+01  0.32761256485E+02  0.51100000000E-03 0. -1.
         22    1    1    0    0    0  0.10953360001E+02 -0.27511509359E+02  0.10463852223E+02  0.31406232596E+02  0.00000000000E+00 0.  1.
</event>
<event>
 5    1  0.1691138E-003  0.9118800E+02  0.7818608E-02  0.1130116E+00
         25   -1    0    0    0    0  0.00000000000E+00  0.00000000000E+00  0.99999998245E-14  0.12500000000E+03  0.12500000000E+03 0.  0.
        -11    1    3    3    0    0  0.25453134695E+02 -0.38469840420E+02  0.33548460258E+02  0.57037618058E+02  0.51100000000E-03 0. -1.
         23    2    1    0    0    0 -0.17529887006E+01 -0.14279804341E+02  0.27530734331E+02  0.93936724026E+02  0.88652022010E+02 0.  0.
         11    1    3    3    0    0 -0.27206123395E+02  0.24190036079E+02 -0.60177259268E+01  0.36899105968E+02  0.51100000000E-03 0.  1.
         22    1    1    0    0    0  0.17529887006E+01  0.14279804341E+02 -0.27530734331E+02  0.31063275974E+02  0.00000000000E+00 0. -1.
</event>
<event>
 5    1  0.1691138E-003  0.9118800E+02  0.7818608E-02  0.1130116E+00
         25   -1    0    0    0    0  0.00000000000E+00  0.00000000000E+00  0.99999998245E-14  0.12500000000E+03  0.12500000000E+03 0.  0.
        -11    1    3    3    0    0  0.39343707273E+02  0.16448913622E+02 -0.76632866551E+01  0.43326897234E+02  0.51100000000E-03 0. -1.
         23    2    1    0    0    0  0.10950617809E+02 -0.21078210849E+02  0.16355948135E+02  0.96160373748E+02  0.91733818393E+02 0.  0.
         11    1    3    3    0    0 -0.28393089464E+02 -0.37527124471E+02  0.24019234790E+02  0.52833476514E+02  0.51100000000E-03 0.  1.
         22    1    1    0    0    0 -0.10950617809E+02  0.21078210849E+02 -0.16355948135E+02  0.28839626252E+02  0.00000000000E+00 0.  1.
</event>
<event>
 5    1  0.1691138E-003  0.9118800E+02  0.7818608E-02  0.1130116E+00
         25   -1    0    0    0    0  0.00000000000E+00  0.00000000000E+00  0.99999998245E-14  0.12500000000E+03  0.12500000000E+03 0.  0.
        -11    1    3    3    0    0  0.31863275336E+02 -0.18503902429E+02 -0.11634007522E+02  0.38639524473E+02  0.51100000000E-03 0.  1.
         23    2    1    0    0    0 -0.22112682310E+02 -0.21362145114E+01 -0.19313343646E+02  0.95562959147E+02  0.90916114011E+02 0.  0.
         11    1    3    3    0    0 -0.53975957646E+02  0.16367687917E+02 -0.76793361239E+01  0.56923434674E+02  0.51100000000E-03 0. -1.
         22    1    1    0    0    0  0.22112682310E+02  0.21362145114E+01  0.19313343646E+02  0.29437040853E+02  0.00000000000E+00 0. -1.
</event>
<event>
 5    1  0.1691138E-003  0.9118800E+02  0.7818608E-02  0.1130116E+00
         25   -1    0    0    0    0  0.00000000000E+00  0.00000000000E+00  0.99999998245E-14  0.12500000000E+03  0.12500000000E+03 0.  0.
        -11    1    3    3    0    0 -0.24947949897E+02  0.16649077072E+02  0.37939196704E+02  0.48362946748E+02  0.51100000000E-03 0. -1.
         23    2    1    0    0    0  0.10914762303E+02 -0.11009765946E+02  0.25205127913E+02  0.95408692908E+02  0.90703766333E+02 0.  0.
         11    1    3    3    0    0  0.35862712200E+02 -0.27658843018E+02 -0.12734068791E+02  0.47045746159E+02  0.51100000000E-03 0.  1.
         22    1    1    0    0    0 -0.10914762303E+02  0.11009765946E+02 -0.25205127913E+02  0.29591307092E+02  0.00000000000E+00 0.  1.
</event>
<event>
 5    1  0.1691138E-003  0.9118800E+02  0.7818608E-02  0.1130116E+00
         25   -1    0    0    0    0  0.00000000000E+00  0.00000000000E+00  0.99999998245E-14  0.12500000000E+03  0.12500000000E+03 0.  0.
        -11    1    3    3    0    0  0.10865928630E+02  0.31908638063E+02  0.19320218288E+02  0.38852289804E+02  0.51100000000E-03 0.  1.
         23    2    1    0    0    0 -0.35192257170E+01 -0.18105024003E+02  0.27858443831E+02  0.91589376892E+02  0.85278040685E+02 0.  0.
         11    1    3    3    0    0 -0.14385154347E+02 -0.50013662066E+02  0.85382255431E+01  0.52737087088E+02  0.51100000000E-03 0. -1.
         22    1    1    0    0    0  0.35192257170E+01  0.18105024003E+02 -0.27858443831E+02  0.33410623108E+02  0.00000000000E+00 0. -1.
</event>
<event>
 5    1  0.1691138E-003  0.9118800E+02  0.7818608E-02  0.1130116E+00
         25   -1    0    0    0    0  0.00000000000E+00  0.00000000000E+00  0.99999998245E-14  0.12500000000E+03  0.12500000000E+03 0.  0.
        -11    1    3    3    0    0  0.17465853210E+01 -0.31974600940E+02 -0.35533901407E+02  0.47833919085E+02  0.51100000000E-03 0. -1.
         23    2    1    0    0    0 -0.27237762939E+02 -0.74126342430E+01 -0.55529732932E+01  0.96230599785E+02  0.91829461211E+02 0.  0.
         11    1    3    3    0    0 -0.28984348260E+02  0.24561966697E+02  0.29980928113E+02  0.48396680701E+02  0.51100000000E-03 0.  1.
         22    1    1    0    0    0  0.27237762939E+02  0.74126342430E+01  0.55529732932E+01  0.28769400215E+02  0.00000000000E+00 0. -1.
</event>
<event>
 5    1  0.1691138E-003  0.9118800E+02  0.7818608E-02  0.1130116E+00
         25   -1    0    0    0    0  0.00000000000E+00  0.00000000000E+00  0.99999998245E-14  0.12500000000E+03  0.12500000000E+03 0.  0.
        -11    1    3    3    0    0 -0.85750561465E+01  0.79441186608E+01  0.40235196935E+02  0.41898826736E+02  0.51100000000E-03 0. -1.
         23    2    1    0    0    0 -0.10037319083E+02 -0.26103664419E+02 -0.29126707195E+01  0.96881808003E+02  0.92711660543E+02 0.  0.
         11    1    3    3    0    0 -0.14622629363E+01 -0.34047783080E+02 -0.43147867654E+02  0.54982981266E+02  0.51100000000E-03 0.  1.
         22    1    1    0    0    0  0.10037319083E+02  0.26103664419E+02  0.29126707195E+01  0.28118191997E+02  0.00000000000E+00 0.  1.
</event>
<event>
 5    1  0.1691138E-003  0.9118800E+02  0.7818608E-02  0.1130116E+00
         25   -1    0    0    0    0  0.00000000000E+00  0.00000000000E+00  0.99999998245E-14  0.12500000000E+03  0.12500000000E+03 0.  0.
        -11    1    3    3    0    0 -0.55339565191E+02  0.12395916594E+02 -0.10101259365E+02  0.57603486567E+02  0.51100000000E-03 0.  1.
         23    2    1    0    0    0 -0.25225254175E+02  0.31210036644E+01  0.12785082802E+02  0.96548067652E+02  0.92260592416E+02 0.  0.
         11    1    3    3    0    0  0.30114311016E+02 -0.92749129301E+01  0.22886342167E+02  0.38944581085E+02  0.51100000000E-03 0. -1.
         22    1    1    0    0    0  0.25225254175E+02 -0.31210036644E+01 -0.12785082802E+02  0.28451932348E+02  0.00000000000E+00 0.  1.
</event>
<event>
 5    1  0.1691138E-003  0.9118800E+02  0.7818608E-02  0.1130116E+00
         25   -1    0    0    0    0  0.00000000000E+00  0.00000000000E+00  0.99999998245E-14  0.12500000000E+03  0.12500000000E+03 0.  0.
        -11    1    3    3    0    0  0.51582133069E+01 -0.58239468933E+02  0.16673537045E+02  0.60798435375E+02  0.51100000000E-03 0. -1.
         23    2    1    0    0    0  0.87688922671E+01 -0.29034386174E+02 -0.99066620579E-01  0.94670165409E+02  0.89680217173E+02 0.  0.
         11    1    3    3    0    0  0.36106789602E+01  0.29205082759E+02 -0.16772603666E+02  0.33871730034E+02  0.51100000000E-03 0.  1.
         22    1    1    0    0    0 -0.87688922671E+01  0.29034386174E+02  0.99066620579E-01  0.30329834591E+02  0.00000000000E+00 0. -1.
</event>
<event>
 5    1  0.1691138E-003  0.9118800E+02  0.7818608E-02  0.1130116E+00
         25   -1    0    0    0    0  0.00000000000E+00  0.00000000000E+00  0.99999998245E-14  0.12500000000E+03  0.12500000000E+03 0.  0.
        -11    1    3    3    0    0  0.39178300225E+02 -0.36573002432E+02  0.22551251839E+02  0.58147077959E+02  0.51100000000E-03 0.  1.
         23    2    1    0    0    0  0.35646875303E+01 -0.22226417347E+02  0.16668869017E+02  0.96989790797E+02  0.92857135963E+02 0.  0.
         11    1    3    3    0    0 -0.35613612694E+02  0.14346585085E+02 -0.58823828216E+01  0.38842712839E+02  0.51100000000E-03 0. -1.
         22    1    1    0    0    0 -0.35646875303E+01  0.22226417347E+02 -0.16668869017E+02  0.28010209203E+02  0.00000000000E+00 0.  1.
</event>
<event>
 5    1  0.1691138E-003  0.9118800E+02  0.7818608E-02  0.1130116E+00
         25   -1    0    0    0    0  0.00000000000E+00  0.00000000000E+00  0.99999998245E-14  0.12500000000E+03  0.12500000000E+03 0.  0.
        -11    1    3    3    0    0 -0.44222629459E+02 -0.26826506275E+02  0.34891324231E+02  0.62391561145E+02  0.51100000000E-03 0.  1.
         23    2    1    0    0    0 -0.19137209875E+02 -0.14225912829E+02  0.17611549469E+02  0.95355842526E+02  0.90630903292E+02 0.  0.
         11    1    3    3    0    0  0.25085419584E+02  0.12600593446E+02 -0.17279774762E+02  0.32964281381E+02  0.51100000000E-03 0. -1.
         22    1    1    0    0    0  0.19137209875E+02  0.14225912829E+02 -0.17611549469E+02  0.29644157474E+02  0.00000000000E+00 0.  1.
</event>
<event>
 5    1  0.1691138E-003  0.9118800E+02  0.7818608E-02  0.1130116E+00
         25   -1    0    0    0    0  0.00000000000E+00  0.00000000000E+00  0.99999998245E-14  0.12500000000E+03  0.12500000000E+03 0.  0.
        -11    1    3    3    0    0  0.41547431184E+02 -0.74020843032E+01 -0.10978594773E+02  0.43606300387E+02  0.51100000000E-03 0. -1.
         23    2    1    0    0    0  0.40948769841E+01  0.28192582471E+02 -0.82227747911E+01  0.95348629894E+02  0.90620954936E+02 0.  0.
         11    1    3    3    0    0 -0.37452554200E+02  0.35594666774E+02  0.27558199815E+01  0.51742329507E+02  0.51100000000E-03 0.  1.
         22    1    1    0    0    0 -0.40948769841E+01 -0.28192582471E+02  0.82227747911E+01  0.29651370106E+02  0.00000000000E+00 0.  1.
</event>
<event>
 5    1  0.1691138E-003  0.9118800E+02  0.7818608E-02  0.1130116E+00
         25   -1    0    0    0    0  0.00000000000E+00  0.00000000000E+00  0.99999998245E-14  0.12500000000E+03  0.12500000000E+03 0.  0.
        -11    1    3    3    0    0  0.12482349121E+02 -0.47139561516E+02  0.36611589673E+01  0.48901445631E+02  0.51100000000E-03 0.  1.
         23    2    1    0    0    0 -0.16473712927E+02 -0.17652757223E+02 -0.17354272888E+02  0.95264939169E+02  0.90505440677E+02 0.  0.
         11    1    3    3    0    0 -0.28956062048E+02  0.29486804293E+02 -0.21015431855E+02  0.46363493538E+02  0.51100000000E-03 0. -1.
         22    1    1    0    0    0  0.16473712927E+02  0.17652757223E+02  0.17354272888E+02  0.29735060831E+02  0.00000000000E+00 0. -1.
</event>
<event>
 5    1  0.1691138E-003  0.9118800E+02  0.7818608E-02  0.1130116E+00
         25   -1    0    0    0    0  0.00000000000E+00  0.00000000000E+00  0.99999998245E-14  0.12500000000E+03  0.12500000000E+03 0.  0.
        -11    1    3    3    0    0 -0.14426597259E+02  0.10017616987E+02  0.37144627073E+02  0.41087743662E+02  0.51100000000E-03 0. -1.
         23    2    1    0    0    0  0.13797892745E+02 -0.24403123720E+02  0.37895324439E+01  0.96711223999E+02  0.92481381908E+02 0.  0.
         11    1    3    3    0    0  0.28224490004E+02 -0.34420740707E+02 -0.33355094629E+02  0.55623480337E+02  0.51100000000E-03 0.  1.
         22    1    1    0    0    0 -0.13797892745E+02  0.24403123720E+02 -0.37895324439E+01  0.28288776001E+02  0.00000000000E+00 0.  1.
</event>
<event>
 5    1  0.1691138E-003  0.9118800E+02  0.7818608E-02  0.1130116E+00
         25   -1    0    0    0    0  0.00000000000E+00  0.00000000000E+00  0.99999998245E-14  0.12500000000E+03  0.12500000000E+03 0.  0.
        -11    1    3    3    0    0 -0.65985795065E+01 -0.22906449241E+02  0.33205154194E+02  0.40875774411E+02  0.51100000000E-03 0. -1.
         23    2    1    0    0    0 -0.15089988057E+02 -0.14680795465E+02 -0.20349447602E+02  0.95719741928E+02  0.91131418742E+02 0.  0.
         11    1    3    3    0    0 -0.84914085510E+01  0.82256537763E+01 -0.53554601796E+02  0.54843967517E+02  0.51100000000E-03 0.  1.
         22    1    1    0    0    0  0.15089988057E+02  0.14680795465E+02  0.20349447602E+02  0.29280258072E+02  0.00000000000E+00 0.  1.
</event>
<event>
 5    1  0.1691138E-003  0.9118800E+02  0.7818608E-02  0.1130116E+00
         25   -1    0    0    0    0  0.00000000000E+00  0.00000000000E+00  0.99999998245E-14  0.12500000000E+03  0.12500000000E+03 0.  0.
        -11    1    3    3    0    0 -0.84968391192E+01  0.27689455808E+02  0.47207172705E+02  0.55384288323E+02  0.51100000000E-03 0.  1.
         23    2    1    0    0    0  0.15924182929E+02  0.18237010550E+02  0.16704808760E+02  0.95585398329E+02  0.90946960269E+02 0.  0.
         11    1    3    3    0    0  0.24421022048E+02 -0.94524452582E+01 -0.30502363945E+02  0.40201110006E+02  0.51100000000E-03 0. -1.
         22    1    1    0    0    0 -0.15924182929E+02 -0.18237010550E+02 -0.16704808760E+02  0.29414601671E+02  0.00000000000E+00 0. -1.
</event>
<event>
 5    1  0.1691138E-003  0.9118800E+02  0.7818608E-02  0.1130116E+00
         25   -1    0    0    0    0  0.00000000000E+00  0.00000000000E+00  0.99999998245E-14  0.12500000000E+03  0.12500000000E+03 0.  0.
        -11    1    3    3    0    0 -0.35997919328E+02  0.20873820546E+02  0.18833836804E+02  0.45675814050E+02  0.51100000000E-03 0. -1.
         23    2    1    0    0    0 -0.17787322738E+02 -0.23208959126E+02  0.50287311880E+01  0.95329597724E+02  0.90594698691E+02 0.  0.
         11    1    3    3    0    0  0.18210596590E+02 -0.44082779672E+02 -0.13805105616E+02  0.49653783674E+02  0.51100000000E-03 0.  1.
         22    1    1    0    0    0  0.17787322738E+02  0.23208959126E+02 -0.50287311880E+01  0.29670402276E+02  0.00000000000E+00 0.  1.
</event>
<event>
 5    1  0.1691138E-003  0.9118800E+02  0.7818608E-02  0.1130116E+00
         25   -1    0    0    0    0  0.00000000000E+00  0.00000000000E+00  0.99999998245E-14  0.12500000000E+03  0.12500000000E+03 0.  0.
        -11    1    3    3    0    0  0.33003782709E+02 -0.24867096501E+02  0.27986039140E+02  0.49908321436E+02  0.51100000000E-03 0.  1.
         23    2    1    0    0    0  0.20800151981E+02  0.16429344078E+02  0.12757476930E+02  0.95583628930E+02  0.90944528327E+02 0.  0.
         11    1    3    3    0    0 -0.12203630728E+02  0.41296440579E+02 -0.15228562210E+02  0.45675307495E+02  0.51100000000E-03 0. -1.
         22    1    1    0    0    0 -0.20800151981E+02 -0.16429344078E+02 -0.12757476930E+02  0.29416371070E+02  0.00000000000E+00 0.  1.
</event>
<event>
 5    1  0.1691138E-003  0.9118800E+02  0.7818608E-02  0.1130116E+00
         25   -1    0    0    0    0  0.00000000000E+00  0.00000000000E+00  0.99999998245E-14  0.12500000000E+03  0.12500000000E+03 0.  0.
        -11    1    3    3    0    0 -0.12879145108E+02  0.86373622216E+01 -0.34875538447E+02  0.38167782056E+02  0.51100000000E-03 0. -1.
         23    2    1    0    0    0  0.56917077852E+01  0.22997563727E+02  0.17488317377E+02  0.95553018498E+02  0.90902445646E+02 0.  0.
         11    1    3    3    0    0  0.18570852893E+02  0.14360201506E+02  0.52363855824E+02  0.57385236442E+02  0.51100000000E-03 0.  1.
         22    1    1    0    0    0 -0.56917077852E+01 -0.22997563727E+02 -0.17488317377E+02  0.29446981502E+02  0.00000000000E+00 0.  1.
</event>
<event>
 5    1  0.1691138E-003  0.9118800E+02  0.7818608E-02  0.1130116E+00
         25   -1    0    0    0    0  0.00000000000E+00  0.00000000000E+00  0.99999998245E-14  0.12500000000E+03  0.12500000000E+03 0.  0.
        -11    1    3    3    0    0  0.16448239364E+02 -0.10969073965E+02  0.28708587128E+02  0.34857540604E+02  0.51100000000E-03 0.  1.
         23    2    1    0    0    0 -0.17482008003E+02  0.10395066724E+02 -0.18992611080E+02  0.97172005253E+02  0.93102101551E+02 0.  0.
         11    1    3    3    0    0 -0.33930247367E+02  0.21364140689E+02 -0.47701198207E+02  0.62314464649E+02  0.51100000000E-03 0. -1.
         22    1    1    0    0    0  0.17482008003E+02 -0.10395066724E+02  0.18992611080E+02  0.27827994747E+02  0.00000000000E+00 0. -1.
</event>
<event>
 5    1  0.1691138E-003  0.9118800E+02  0.7818608E-02  0.1130116E+00
         25   -1    0    0    0    0  0.00000000000E+00  0.00000000000E+00  0.99999998245E-14  0.12500000000E+03  0.12500000000E+03 0.  0.
        -11    1    3    3    0    0 -0.32299403726E+02 -0.14348176086E+01  0.27165630100E+02  0.42228919494E+02  0.51100000000E-03 0.  1.
         23    2    1    0    0    0 -0.10689568449E+02  0.20578509266E+02 -0.17103449137E+02  0.96185595796E+02  0.91768180482E+02 0.  0.
         11    1    3    3    0    0  0.21609835277E+02  0.22013326875E+02 -0.44269079237E+02  0.53956676302E+02  0.51100000000E-03 0. -1.
         22    1    1    0    0    0  0.10689568449E+02 -0.20578509266E+02  0.17103449137E+02  0.28814404204E+02  0.00000000000E+00 0. -1.
</event>
<event>
 5    1  0.1691138E-003  0.9118800E+02  0.7818608E-02  0.1130116E+00
         25   -1    0    0    0    0  0.00000000000E+00  0.00000000000E+00  0.99999998245E-14  0.12500000000E+03  0.12500000000E+03 0.  0.
        -11    1    3    3    0    0  0.44983414046E+02  0.26920288792E+02  0.21994474879E+02  0.56850386220E+02  0.51100000000E-03 0. -1.
         23    2    1    0    0    0  0.95603664654E+01  0.11172290305E+02  0.25279240042E+02  0.95755160203E+02  0.91179987118E+02 0.  0.
         11    1    3    3    0    0 -0.35423047581E+02 -0.15747998487E+02  0.32847651633E+01  0.38904773983E+02  0.51100000000E-03 0.  1.
         22    1    1    0    0    0 -0.95603664654E+01 -0.11172290305E+02 -0.25279240042E+02  0.29244839797E+02  0.00000000000E+00 0. -1.
</event>
<event>
 5    1  0.1691138E-003  0.9118800E+02  0.7818608E-02  0.1130116E+00
         25   -1    0    0    0    0  0.00000000000E+00  0.00000000000E+00  0.99999998245E-14  0.12500000000E+03  0.12500000000E+03 0.  0.
        -11    1    3    3    0    0  0.10445370673E+02  0.19385796110E+02  0.31709566027E+02  0.38605847189E+02  0.51100000000E-03 0.  1.
         23    2    1    0    0    0 -0.16094176071E+01  0.16005795698E+02 -0.24222750947E+02  0.95922218372E+02  0.91408722741E+02 0.  0.
         11    1    3    3    0    0 -0.12054788280E+02 -0.33800004125E+01 -0.55932316974E+02  0.57316371183E+02  0.51100000000E-03 0. -1.
         22    1    1    0    0    0  0.16094176071E+01 -0.16005795698E+02  0.24222750947E+02  0.29077781628E+02  0.00000000000E+00 0. -1.
</event>
<event>
 5    1  0.1691138E-003  0.9118800E+02  0.7818608E-02  0.1130116E+00
         25   -1    0    0    0    0  0.00000000000E+00  0.00000000000E+00  0.99999998245E-14  0.12500000000E+03  0.12500000000E+03 0.  0.
        -11    1    3    3    0    0  0.16833450689E+02  0.36016269330E+02 -0.28155937319E+02  0.48716460516E+02  0.51100000000E-03 0.  1.
         23    2    1    0    0    0 -0.97486549780E+01  0.26549275613E+02  0.89521507602E+01  0.95334509734E+02  0.90601475891E+02 0.  0.
         11    1    3    3    0    0 -0.26582105667E+02 -0.94669937169E+01  0.37108088080E+02  0.46618049219E+02  0.51100000000E-03 0. -1.
         22    1    1    0    0    0  0.97486549780E+01 -0.26549275613E+02 -0.89521507602E+01  0.29665490266E+02  0.00000000000E+00 0.  1.
</event>
<event>
 5    1  0.1691138E-003  0.9118800E+02  0.7818608E-02  0.1130116E+00
         25   -1    0    0    0    0  0.00000000000E+00  0.00000000000E+00  0.99999998245E-14  0.12500000000E+03  0.12500000000E+03 0.  0.
        -11    1    3    3    0    0 -0.55084377803E+02 -0.21375445516E+02 -0.14338331982E+02  0.60801201577E+02  0.51100000000E-03 0. -1.
         23    2    1    0    0    0 -0.27381758792E+02 -0.10134618828E+02  0.34665398223E+01  0.95597821310E+02  0.90964033154E+02 0.  0.
         11    1    3    3    0    0  0.27702619010E+02  0.11240826688E+02  0.17804871804E+02  0.34796619733E+02  0.51100000000E-03 0.  1.
         22    1    1    0    0    0  0.27381758792E+02  0.10134618828E+02 -0.34665398223E+01  0.29402178690E+02  0.00000000000E+00 0. -1.
</event>
<event>
 5    1  0.1691138E-003  0.9118800E+02  0.7818608E-02  0.1130116E+00
         25   -1    0    0    0    0  0.00000000000E+00  0.00000000000E+00  0.99999998245E-14  0.12500000000E+03  0.12500000000E+03 0.  0.
        -11    1    3    3    0    0 -0.13518674168E+02  0.19020571510E+02 -0.37799539265E+02  0.44422312645E+02  0.51100000000E-03 0. -1.
         23    2    1    0    0    0 -0.18052418765E+02 -0.22258433056E+02 -0.89905731240E+01  0.94964053695E+02  0.90088919539E+02 0.  0.
         11    1    3    3    0    0 -0.45337445968E+01 -0.41279004566E+02  0.28808966141E+02  0.50541741050E+02  0.51100000000E-03 0.  1.
         22    1    1    0    0    0  0.18052418765E+02  0.22258433056E+02  0.89905731240E+01  0.30035946305E+02  0.00000000000E+00 0.  1.
</event>
<event>
 5    1  0.1691138E-003  0.9118800E+02  0.7818608E-02  0.1130116E+00
         25   -1    0    0    0    0  0.00000000000E+00  0.00000000000E+00  0.99999998245E-14  0.12500000000E+03  0.12500000000E+03 0.  0.
        -11    1    3    3    0    0 -0.77088689222E+01 -0.36621383265E+02 -0.42902113211E+02  0.56931043294E+02  0.51100000000E-03 0.  1.
         23    2    1    0    0    0 -0.74252914912E+01 -0.28582436232E+02 -0.57878804008E+01  0.94906974658E+02  0.90009686504E+02 0.  0.
         11    1    3    3    0    0  0.28357743095E+00  0.80389470332E+01  0.37114232810E+02  0.37975931364E+02  0.51100000000E-03 0. -1.
         22    1    1    0    0    0  0.74252914912E+01  0.28582436232E+02  0.57878804008E+01  0.30093025342E+02  0.00000000000E+00 0.  1.
</event>
<event>
 5    1  0.1691138E-003  0.9118800E+02  0.7818608E-02  0.1130116E+00
         25   -1    0    0    0    0  0.00000000000E+00  0.00000000000E+00  0.99999998245E-14  0.12500000000E+03  0.12500000000E+03 0.  0.
        -11    1    3    3    0    0 -0.11130897977E+01  0.55218216222E+02  0.18456474443E+02  0.58231708036E+02  0.51100000000E-03 0.  1.
         23    2    1    0    0    0  0.10332221355E+02  0.19286443798E+02  0.19112755452E+02  0.95947992608E+02  0.91443961813E+02 0.  0.
         11    1    3    3    0    0  0.11445311153E+02 -0.35931772424E+02  0.65628100915E+00  0.37716284572E+02  0.51100000000E-03 0. -1.
         22    1    1    0    0    0 -0.10332221355E+02 -0.19286443798E+02 -0.19112755452E+02  0.29052007392E+02  0.00000000000E+00 0.  1.
</event>
<event>
 5    1  0.1691138E-003  0.9118800E+02  0.7818608E-02  0.1130116E+00
         25   -1    0    0    0    0  0.00000000000E+00  0.00000000000E+00  0.99999998245E-14  0.12500000000E+03  0.12500000000E+03 0.  0.
        -11    1    3    3    0    0  0.13839489553E+02  0.23559730297E+02 -0.20923375420E+02  0.34414822417E+02  0.51100000000E-03 0. -1.
         23    2    1    0    0    0 -0.65461281424E+01 -0.11128982364E+02  0.25845258555E+02  0.96109111611E+02  0.91663940035E+02 0.  0.
         11    1    3    3    0    0 -0.20385617695E+02 -0.34688712661E+02  0.46768633976E+02  0.61694289194E+02  0.51100000000E-03 0.  1.
         22    1    1    0    0    0  0.65461281424E+01  0.11128982364E+02 -0.25845258555E+02  0.28890888389E+02  0.00000000000E+00 0.  1.
</event>
<event>
 5    1  0.1691138E-003  0.9118800E+02  0.7818608E-02  0.1130116E+00
         25   -1    0    0    0    0  0.00000000000E+00  0.00000000000E+00  0.99999998245E-14  0.12500000000E+03  0.12500000000E+03 0.  0.
        -11    1    3    3    0    0  0.55722768787E+01 -0.15489281720E+02  0.31502832332E+02  0.35544290161E+02  0.51100000000E-03 0. -1.
         23    2    1    0    0    0 -0.25215694525E+00 -0.57749544992E+01 -0.28149851997E+02  0.96262779361E+02  0.91873254216E+02 0.  0.
         11    1    3    3    0    0 -0.58244338240E+01  0.97143272207E+01 -0.59652684330E+02  0.60718489200E+02  0.51100000000E-03 0.  1.
         22    1    1    0    0    0  0.25215694525E+00  0.57749544992E+01  0.28149851997E+02  0.28737220639E+02  0.00000000000E+00 0.  1.
</event>
<event>
 5    1  0.1691138E-003  0.9118800E+02  0.7818608E-02  0.1130116E+00
         25   -1    0    0    0    0  0.00000000000E+00  0.00000000000E+00  0.99999998245E-14  0.12500000000E+03  0.12500000000E+03 0.  0.
        -11    1    3    3    0    0 -0.20679909524E+02  0.22412377260E+02  0.15366171027E+02  0.34148096941E+02  0.51100000000E-03 0.  1.
         23    2    1    0    0    0  0.14954235950E+02 -0.14190971750E+02 -0.19997662747E+02  0.96278590435E+02  0.91894763772E+02 0.  0.
         11    1    3    3    0    0  0.35634145475E+02 -0.36603349009E+02 -0.35363833774E+02  0.62130493494E+02  0.51100000000E-03 0. -1.
         22    1    1    0    0    0 -0.14954235950E+02  0.14190971750E+02  0.19997662747E+02  0.28721409565E+02  0.00000000000E+00 0. -1.
</event>
<event>
 5    1  0.1691138E-003  0.9118800E+02  0.7818608E-02  0.1130116E+00
         25   -1    0    0    0    0  0.00000000000E+00  0.00000000000E+00  0.99999998245E-14  0.12500000000E+03  0.12500000000E+03 0.  0.
        -11    1    3    3    0    0  0.27193439258E+02  0.72735855599E+01 -0.18195481660E+02  0.33518110607E+02  0.51100000000E-03 0. -1.
         23    2    1    0    0    0 -0.20165166301E+02 -0.17442588081E+02  0.12954690541E+02  0.95357094982E+02  0.90632630688E+02 0.  0.
         11    1    3    3    0    0 -0.47358605560E+02 -0.24716173641E+02  0.31150172201E+02  0.61838984374E+02  0.51100000000E-03 0.  1.
         22    1    1    0    0    0  0.20165166301E+02  0.17442588081E+02 -0.12954690541E+02  0.29642905018E+02  0.00000000000E+00 0.  1.
</event>
<event>
 5    1  0.1691138E-003  0.9118800E+02  0.7818608E-02  0.1130116E+00
         25   -1    0    0    0    0  0.00000000000E+00  0.00000000000E+00  0.99999998245E-14  0.12500000000E+03  0.12500000000E+03 0.  0.
        -11    1    3    3    0    0 -0.30501828860E+02 -0.75286523309E+01  0.17999435726E+02  0.36208035799E+02  0.51100000000E-03 0. -1.
         23    2    1    0    0    0  0.10152128070E+02 -0.13643430312E+02 -0.24394971900E+02  0.95262421937E+02  0.90501963980E+02 0.  0.
         11    1    3    3    0    0  0.40653956930E+02 -0.61147779816E+01 -0.42394407626E+02  0.59054386138E+02  0.51100000000E-03 0.  1.
         22    1    1    0    0    0 -0.10152128070E+02  0.13643430312E+02  0.24394971900E+02  0.29737578063E+02  0.00000000000E+00 0.  1.
</event>
<event>
 5    1  0.1691138E-003  0.9118800E+02  0.7818608E-02  0.1130116E+00
         25   -1    0    0    0    0  0.00000000000E+00  0.00000000000E+00  0.99999998245E-14  0.12500000000E+03  0.12500000000E+03 0.  0.
        -11    1    3    3    0    0  0.31226463621E+02  0.10823494588E+02  0.39900635141E+02  0.51810237891E+02  0.51100000000E-03 0. -1.
         23    2    1    0    0    0  0.14458471621E+02 -0.20935647566E+02  0.16585703828E+02  0.94628396287E+02  0.89621978732E+02 0.  0.
         11    1    3    3    0    0 -0.16767992000E+02 -0.31759142154E+02 -0.23314931313E+02  0.42818158396E+02  0.51100000000E-03 0.  1.
         22    1    1    0    0    0 -0.14458471621E+02  0.20935647566E+02 -0.16585703828E+02  0.30371603713E+02  0.00000000000E+00 0. -1.
</event>
<event>
 5    1  0.1691138E-003  0.9118800E+02  0.7818608E-02  0.1130116E+00
         25   -1    0    0    0    0  0.00000000000E+00  0.00000000000E+00  0.99999998245E-14  0.12500000000E+03  0.12500000000E+03 0.  0.
        -11    1    3    3    0    0  0.23586519092E+02  0.24790632477E+02  0.45114265533E+02  0.56623284047E+02  0.51100000000E-03 0.  1.
         23    2    1    0    0    0  0.19012397461E+02 -0.60651066070E+01  0.20815744599E+02  0.96163356670E+02  0.91737882946E+02 0.  0.
         11    1    3    3    0    0 -0.45741216307E+01 -0.30855739084E+02 -0.24298520934E+02  0.39540072622E+02  0.51100000000E-03 0. -1.
         22    1    1    0    0    0 -0.19012397461E+02  0.60651066070E+01 -0.20815744599E+02  0.28836643330E+02  0.00000000000E+00 0.  1.
</event>
<event>
 5    1  0.1691138E-003  0.9118800E+02  0.7818608E-02  0.1130116E+00
         25   -1    0    0    0    0  0.00000000000E+00  0.00000000000E+00  0.99999998245E-14  0.12500000000E+03  0.12500000000E+03 0.  0.
        -11    1    3    3    0    0 -0.16299246230E+02  0.38199792060E+02  0.16381949295E+01  0.41564085747E+02  0.51100000000E-03 0.  1.
         23    2    1    0    0    0 -0.15974974152E+02 -0.11928906788E+02 -0.20534904210E+02  0.96378663427E+02  0.92030787548E+02 0.  0.
         11    1    3    3    0    0  0.32427207876E+00 -0.50128698848E+02 -0.22173099140E+02  0.54814577680E+02  0.51100000000E-03 0. -1.
         22    1    1    0    0    0  0.15974974152E+02  0.11928906788E+02  0.20534904210E+02  0.28621336573E+02  0.00000000000E+00 0. -1.
</event>
<event>
 5    1  0.1691138E-003  0.9118800E+02  0.7818608E-02  0.1130116E+00
         25   -1    0    0    0    0  0.00000000000E+00  0.00000000000E+00  0.99999998245E-14  0.12500000000E+03  0.12500000000E+03 0.  0.
        -11    1    3    3    0    0 -0.12809272580E+02  0.32158839973E+02 -0.36442498216E+01  0.34807312586E+02  0.51100000000E-03 0.  1.
         23    2    1    0    0    0 -0.75041904687E+01 -0.23540191998E+02 -0.20123232431E+02  0.93134689749E+02  0.87513841404E+02 0.  0.
         11    1    3    3    0    0  0.53050821117E+01 -0.55699031971E+02 -0.16478982610E+02  0.58327377164E+02  0.51100000000E-03 0. -1.
         22    1    1    0    0    0  0.75041904687E+01  0.23540191998E+02  0.20123232431E+02  0.31865310251E+02  0.00000000000E+00 0. -1.
</event>
<event>
 5    1  0.1691138E-003  0.9118800E+02  0.7818608E-02  0.1130116E+00
         25   -1    0    0    0    0  0.00000000000E+00  0.00000000000E+00  0.99999998245E-14  0.12500000000E+03  0.12500000000E+03 0.  0.
        -11    1    3    3    0    0 -0.47518885808E+01  0.13399869071E+02 -0.30943568080E+02  0.34053507044E+02  0.51100000000E-03 0.  1.
         23    2    1    0    0    0  0.85582371143E+01 -0.18734760078E+02  0.20361572813E+02  0.96037467218E+02  0.91566188108E+02 0.  0.
         11    1    3    3    0    0  0.13310125695E+02 -0.32134629149E+02  0.51305140893E+02  0.61983960175E+02  0.51100000000E-03 0. -1.
         22    1    1    0    0    0 -0.85582371143E+01  0.18734760078E+02 -0.20361572813E+02  0.28962532782E+02  0.00000000000E+00 0. -1.
</event>
<event>
 5    1  0.1691138E-003  0.9118800E+02  0.7818608E-02  0.1130116E+00
         25   -1    0    0    0    0  0.00000000000E+00  0.00000000000E+00  0.99999998245E-14  0.12500000000E+03  0.12500000000E+03 0.  0.
        -11    1    3    3    0    0 -0.18058559426E+02 -0.27885029856E+02 -0.28493134205E+02  0.43766941357E+02  0.51100000000E-03 0.  1.
         23    2    1    0    0    0  0.24174937339E+02 -0.56798959020E-01 -0.16451839384E+02  0.95758012370E+02  0.91183897112E+02 0.  0.
         11    1    3    3    0    0  0.42233496765E+02  0.27828230897E+02  0.12041294821E+02  0.51991071013E+02  0.51100000000E-03 0. -1.
         22    1    1    0    0    0 -0.24174937339E+02  0.56798959020E-01  0.16451839384E+02  0.29241987630E+02  0.00000000000E+00 0. -1.
</event>
<event>
 5    1  0.1691138E-003  0.9118800E+02  0.7818608E-02  0.1130116E+00
         25   -1    0    0    0    0  0.00000000000E+00  0.00000000000E+00  0.99999998245E-14  0.12500000000E+03  0.12500000000E+03 0.  0.
        -11    1    3    3    0    0 -0.30960244860E+02  0.48104529910E+02  0.66637477048E+01  0.57593299032E+02  0.51100000000E-03 0. -1.
         23    2    1    0    0    0 -0.46760799929E+01  0.23252746630E+02  0.17692279789E+02  0.95409922033E+02  0.90705460190E+02 0.  0.
         11    1    3    3    0    0  0.26284164867E+02 -0.24851783280E+02  0.11028532085E+02  0.37816623001E+02  0.51100000000E-03 0.  1.
         22    1    1    0    0    0  0.46760799929E+01 -0.23252746630E+02 -0.17692279789E+02  0.29590077967E+02  0.00000000000E+00 0. -1.
</event>
<event>
 5    1  0.1691138E-003  0.9118800E+02  0.7818608E-02  0.1130116E+00
         25   -1    0    0    0    0  0.00000000000E+00  0.00000000000E+00  0.99999998245E-14  0.12500000000E+03  0.12500000000E+03 0.  0.
        -11    1    3    3    0    0  0.34925494915E+01  0.33376519630E+02  0.20995501212E+02  0.39585363911E+02  0.51100000000E-03 0. -1.
         23    2    1    0    0    0 -0.30399645771E+02 -0.57488714275E+01  0.98071060170E+01  0.92544379314E+02  0.86666572728E+02 0.  0.
         11    1    3    3    0    0 -0.33892195263E+02 -0.39125391058E+02 -0.11188395195E+02  0.52959015403E+02  0.51100000000E-03 0.  1.
         22    1    1    0    0    0  0.30399645771E+02  0.57488714275E+01 -0.98071060170E+01  0.32455620686E+02  0.00000000000E+00 0.  1.
</event>
<event>
 5    1  0.1691138E-003  0.9118800E+02  0.7818608E-02  0.1130116E+00
         25   -1    0    0    0    0  0.00000000000E+00  0.00000000000E+00  0.99999998245E-14  0.12500000000E+03  0.12500000000E+03 0.  0.
        -11    1    3    3    0    0  0.29817879075E+02  0.25607729220E+02 -0.11230818695E+02  0.40877781216E+02  0.51100000000E-03 0.  1.
         23    2    1    0    0    0 -0.12816967497E+02 -0.68507665222E+01 -0.24891902699E+02  0.96176147417E+02  0.91755309679E+02 0.  0.
         11    1    3    3    0    0 -0.42634846572E+02 -0.32458495742E+02 -0.13661084003E+02  0.55298366201E+02  0.51100000000E-03 0. -1.
         22    1    1    0    0    0  0.12816967497E+02  0.68507665222E+01  0.24891902699E+02  0.28823852583E+02  0.00000000000E+00 0. -1.
</event>
<event>
 5    1  0.1691138E-003  0.9118800E+02  0.7818608E-02  0.1130116E+00
         25   -1    0    0    0    0  0.00000000000E+00  0.00000000000E+00  0.99999998245E-14  0.12500000000E+03  0.12500000000E+03 0.  0.
        -11    1    3    3    0    0 -0.52784314381E+01 -0.34737853909E+02 -0.47113183572E+02  0.58772718154E+02  0.51100000000E-03 0. -1.
         23    2    1    0    0    0 -0.17425755278E+02 -0.14042849079E+02 -0.19931531368E+02  0.95031274636E+02  0.90182141575E+02 0.  0.
         11    1    3    3    0    0 -0.12147323840E+02  0.20695004830E+02  0.27181652204E+02  0.36258556482E+02  0.51100000000E-03 0.  1.
         22    1    1    0    0    0  0.17425755278E+02  0.14042849079E+02  0.19931531368E+02  0.29968725364E+02  0.00000000000E+00 0. -1.
</event>
<event>
 5    1  0.1691138E-003  0.9118800E+02  0.7818608E-02  0.1130116E+00
         25   -1    0    0    0    0  0.00000000000E+00  0.00000000000E+00  0.99999998245E-14  0.12500000000E+03  0.12500000000E+03 0.  0.
        -11    1    3    3    0    0  0.18074464680E+02  0.13232828345E+02  0.25142576679E+02  0.33674072843E+02  0.51100000000E-03 0. -1.
         23    2    1    0    0    0 -0.91895410496E+01 -0.13665946252E+02 -0.23947006746E+02  0.95936881038E+02  0.91428771509E+02 0.  0.
         11    1    3    3    0    0 -0.27264005729E+02 -0.26898774598E+02 -0.49089583426E+02  0.62262808196E+02  0.51100000000E-03 0.  1.
         22    1    1    0    0    0  0.91895410496E+01  0.13665946252E+02  0.23947006746E+02  0.29063118962E+02  0.00000000000E+00 0.  1.
</event>
<event>
 5    1  0.1691138E-003  0.9118800E+02  0.7818608E-02  0.1130116E+00
         25   -1    0    0    0    0  0.00000000000E+00  0.00000000000E+00  0.99999998245E-14  0.12500000000E+03  0.12500000000E+03 0.  0.
        -11    1    3    3    0    0 -0.11053273451E+02 -0.38944852259E+02  0.42026986535E+02  0.58353611447E+02  0.51100000000E-03 0.  1.
         23    2    1    0    0    0 -0.13284336045E+02 -0.24318622334E+02  0.69381905623E+01  0.96434155629E+02  0.92106128499E+02 0.  0.
         11    1    3    3    0    0 -0.22310625942E+01  0.14626229925E+02 -0.35088795972E+02  0.38080544182E+02  0.51100000000E-03 0. -1.
         22    1    1    0    0    0  0.13284336045E+02  0.24318622334E+02 -0.69381905623E+01  0.28565844371E+02  0.00000000000E+00 0.  1.
</event>
<event>
 5    1  0.1691138E-003  0.9118800E+02  0.7818608E-02  0.1130116E+00
         25   -1    0    0    0    0  0.00000000000E+00  0.00000000000E+00  0.99999998245E-14  0.12500000000E+03  0.12500000000E+03 0.  0.
        -11    1    3    3    0    0 -0.45476047664E+02 -0.32937546911E+02 -0.24942599087E+02  0.61441729770E+02  0.51100000000E-03 0. -1.
         23    2    1    0    0    0 -0.22795563052E+02 -0.84164781010E+01 -0.15593332096E+02  0.96127403921E+02  0.91688881443E+02 0.  0.
         11    1    3    3    0    0  0.22680484612E+02  0.24521068810E+02  0.93492669906E+01  0.34685674151E+02  0.51100000000E-03 0.  1.
         22    1    1    0    0    0  0.22795563052E+02  0.84164781010E+01  0.15593332096E+02  0.28872596079E+02  0.00000000000E+00 0. -1.
</event>
<event>
 5    1  0.1691138E-003  0.9118800E+02  0.7818608E-02  0.1130116E+00
         25   -1    0    0    0    0  0.00000000000E+00  0.00000000000E+00  0.99999998245E-14  0.12500000000E+03  0.12500000000E+03 0.  0.
        -11    1    3    3    0    0 -0.39215340714E+02 -0.27630642558E+02 -0.19457987348E+02  0.51767833907E+02  0.51100000000E-03 0.  1.
         23    2    1    0    0    0 -0.40932479963E+01 -0.30529610515E+02  0.37575663847E+01  0.93968868817E+02  0.88697334820E+02 0.  0.
         11    1    3    3    0    0  0.35122092718E+02 -0.28989679572E+01  0.23215553733E+02  0.42201034910E+02  0.51100000000E-03 0. -1.
         22    1    1    0    0    0  0.40932479963E+01  0.30529610515E+02 -0.37575663847E+01  0.31031131183E+02  0.00000000000E+00 0.  1.
</event>
<event>
 5    1  0.1691138E-003  0.9118800E+02  0.7818608E-02  0.1130116E+00
         25   -1    0    0    0    0  0.00000000000E+00  0.00000000000E+00  0.99999998245E-14  0.12500000000E+03  0.12500000000E+03 0.  0.
        -11    1    3    3    0    0  0.27745973781E+02 -0.25536944730E+02 -0.22499670573E+01  0.37776142726E+02  0.51100000000E-03 0. -1.
         23    2    1    0    0    0 -0.13301913206E+02 -0.97248685732E+00  0.27728839989E+02  0.94230287737E+02  0.89064987140E+02 0.  0.
         11    1    3    3    0    0 -0.41047886987E+02  0.24564457873E+02  0.29978807046E+02  0.56454145011E+02  0.51100000000E-03 0.  1.
         22    1    1    0    0    0  0.13301913206E+02  0.97248685732E+00 -0.27728839989E+02  0.30769712263E+02  0.00000000000E+00 0.  1.
</event>
<event>
 5    1  0.1691138E-003  0.9118800E+02  0.7818608E-02  0.1130116E+00
         25   -1    0    0    0    0  0.00000000000E+00  0.00000000000E+00  0.99999998245E-14  0.12500000000E+03  0.12500000000E+03 0.  0.
        -11    1    3    3    0    0  0.22602451206E+02  0.20380529597E+02 -0.18299119561E+02  0.35511893278E+02  0.51100000000E-03 0.  1.
         23    2    1    0    0    0 -0.58390880868E+01 -0.82747743261E+01  0.26982910882E+02  0.96179099259E+02  0.91759330941E+02 0.  0.
         11    1    3    3    0    0 -0.28441539293E+02 -0.28655303923E+02  0.45282030443E+02  0.60667205982E+02  0.51100000000E-03 0. -1.
         22    1    1    0    0    0  0.58390880868E+01  0.82747743261E+01 -0.26982910882E+02  0.28820900741E+02  0.00000000000E+00 0. -1.
</event>
<event>
 5    1  0.1691138E-003  0.9118800E+02  0.7818608E-02  0.1130116E+00
         25   -1    0    0    0    0  0.00000000000E+00  0.00000000000E+00  0.99999998245E-14  0.12500000000E+03  0.12500000000E+03 0.  0.
        -11    1    3    3    0    0 -0.61956678192E+01 -0.48246959750E+01  0.39460225298E+02  0.40233982798E+02  0.51100000000E-03 0.  1.
         23    2    1    0    0    0  0.16318875827E+02  0.23293692403E+02 -0.35524461526E+01  0.96337800369E+02  0.91975268917E+02 0.  0.
         11    1    3    3    0    0  0.22514543646E+02  0.28118388378E+02 -0.43012671450E+02  0.56103817571E+02  0.51100000000E-03 0. -1.
         22    1    1    0    0    0 -0.16318875827E+02 -0.23293692403E+02  0.35524461526E+01  0.28662199631E+02  0.00000000000E+00 0. -1.
</event>
<event>
 5    1  0.1691138E-003  0.9118800E+02  0.7818608E-02  0.1130116E+00
         25   -1    0    0    0    0  0.00000000000E+00  0.00000000000E+00  0.99999998245E-14  0.12500000000E+03  0.12500000000E+03 0.  0.
        -11    1    3    3    0    0  0.46469966579E+01 -0.46103747221E+02 -0.11313369880E+02  0.47698453057E+02  0.51100000000E-03 0.  1.
         23    2    1    0    0    0  0.10654300851E+02 -0.18449994849E+01 -0.27692335607E+02  0.95271501870E+02  0.90514504183E+02 0.  0.
         11    1    3    3    0    0  0.60073041927E+01  0.44258747736E+02 -0.16378965727E+02  0.47573048813E+02  0.51100000000E-03 0. -1.
         22    1    1    0    0    0 -0.10654300851E+02  0.18449994849E+01  0.27692335607E+02  0.29728498130E+02  0.00000000000E+00 0.  1.
</event>
<event>
 5    1  0.1691138E-003  0.9118800E+02  0.7818608E-02  0.1130116E+00
         25   -1    0    0    0    0  0.00000000000E+00  0.00000000000E+00  0.99999998245E-14  0.12500000000E+03  0.12500000000E+03 0.  0.
        -11    1    3    3    0    0  0.21606991705E+02 -0.45702729611E+02 -0.51527258782E+01  0.50814881370E+02  0.51100000000E-03 0. -1.
         23    2    1    0    0    0  0.81814461645E+01 -0.16816727365E+02  0.24394184318E+02  0.94262163232E+02  0.89109712198E+02 0.  0.
         11    1    3    3    0    0 -0.13425545540E+02  0.28886002246E+02  0.29546910196E+02  0.43447281862E+02  0.51100000000E-03 0.  1.
         22    1    1    0    0    0 -0.81814461645E+01  0.16816727365E+02 -0.24394184318E+02  0.30737836768E+02  0.00000000000E+00 0. -1.
</event>
<event>
 5    1  0.1691138E-003  0.9118800E+02  0.7818608E-02  0.1130116E+00
         25   -1    0    0    0    0  0.00000000000E+00  0.00000000000E+00  0.99999998245E-14  0.12500000000E+03  0.12500000000E+03 0.  0.
        -11    1    3    3    0    0  0.98902630648E+01  0.18981533245E+02  0.49260687542E+02  0.53709694146E+02  0.51100000000E-03 0.  1.
         23    2    1    0    0    0  0.25813130539E+02  0.39067470392E+01  0.13623836921E+02  0.95551921742E+02  0.90900937485E+02 0.  0.
         11    1    3    3    0    0  0.15922867474E+02 -0.15074786206E+02 -0.35636850622E+02  0.41842227596E+02  0.51100000000E-03 0. -1.
         22    1    1    0    0    0 -0.25813130539E+02 -0.39067470392E+01 -0.13623836921E+02  0.29448078258E+02  0.00000000000E+00 0.  1.
</event>
<event>
 5    1  0.1691138E-003  0.9118800E+02  0.7818608E-02  0.1130116E+00
         25   -1    0    0    0    0  0.00000000000E+00  0.00000000000E+00  0.99999998245E-14  0.12500000000E+03  0.12500000000E+03 0.  0.
        -11    1    3    3    0    0 -0.61521081060E+01  0.56022757777E+02  0.67764072627E+00  0.56363614330E+02  0.51100000000E-03 0. -1.
         23    2    1    0    0    0  0.12774508293E+01  0.21498533327E+02  0.19117341223E+02  0.96202577350E+02  0.91791308616E+02 0.  0.
         11    1    3    3    0    0  0.74295589352E+01 -0.34524224450E+02  0.18439700497E+02  0.39838963020E+02  0.51100000000E-03 0.  1.
         22    1    1    0    0    0 -0.12774508293E+01 -0.21498533327E+02 -0.19117341223E+02  0.28797422650E+02  0.00000000000E+00 0. -1.
</event>
<event>
 5    1  0.1691138E-003  0.9118800E+02  0.7818608E-02  0.1130116E+00
         25   -1    0    0    0    0  0.00000000000E+00  0.00000000000E+00  0.99999998245E-14  0.12500000000E+03  0.12500000000E+03 0.  0.
        -11    1    3    3    0    0 -0.28741720873E+02 -0.36262134776E+01  0.38792261314E+02  0.48415653265E+02  0.51100000000E-03 0. -1.
         23    2    1    0    0    0 -0.34166444819E+01 -0.28424674829E+02  0.82454795154E+01  0.95206988553E+02  0.90425367781E+02 0.  0.
         11    1    3    3    0    0  0.25325076391E+02 -0.24798461351E+02 -0.30546781799E+02  0.46791335289E+02  0.51100000000E-03 0.  1.
         22    1    1    0    0    0  0.34166444819E+01  0.28424674829E+02 -0.82454795154E+01  0.29793011447E+02  0.00000000000E+00 0. -1.
</event>
<event>
 5    1  0.1691138E-003  0.9118800E+02  0.7818608E-02  0.1130116E+00
         25   -1    0    0    0    0  0.00000000000E+00  0.00000000000E+00  0.99999998245E-14  0.12500000000E+03  0.12500000000E+03 0.  0.
        -11    1    3    3    0    0  0.39116922254E+02 -0.18510489404E+02  0.18882926183E+02  0.47215852487E+02  0.51100000000E-03 0.  1.
         23    2    1    0    0    0  0.19940685190E+02 -0.58705233973E+01 -0.22389692443E+02  0.94448530339E+02  0.89370759114E+02 0.  0.
         11    1    3    3    0    0 -0.19176237064E+02  0.12639966007E+02 -0.41272618625E+02  0.47232677852E+02  0.51100000000E-03 0. -1.
         22    1    1    0    0    0 -0.19940685190E+02  0.58705233973E+01  0.22389692443E+02  0.30551469661E+02  0.00000000000E+00 0.  1.
</event>
<event>
 5    1  0.1691138E-003  0.9118800E+02  0.7818608E-02  0.1130116E+00
         25   -1    0    0    0    0  0.00000000000E+00  0.00000000000E+00  0.99999998245E-14  0.12500000000E+03  0.12500000000E+03 0.  0.
        -11    1    3    3    0    0 -0.27617346457E+02 -0.34599767474E+00  0.32859264004E+02  0.42925153126E+02  0.51100000000E-03 0. -1.
         23    2    1    0    0    0 -0.19946701315E+02  0.11829583361E+02 -0.17912554320E+02  0.95696936370E+02  0.91100132230E+02 0.  0.
         11    1    3    3    0    0  0.76706451420E+01  0.12175581036E+02 -0.50771818325E+02  0.52771783244E+02  0.51100000000E-03 0.  1.
         22    1    1    0    0    0  0.19946701315E+02 -0.11829583361E+02  0.17912554320E+02  0.29303063630E+02  0.00000000000E+00 0.  1.
</event>
<event>
 5    1  0.1691138E-003  0.9118800E+02  0.7818608E-02  0.1130116E+00
         25   -1    0    0    0    0  0.00000000000E+00  0.00000000000E+00  0.99999998245E-14  0.12500000000E+03  0.12500000000E+03 0.  0.
        -11    1    3    3    0    0 -0.52102310229E+02  0.23855581086E+02  0.82764470413E+01  0.57898523781E+02  0.51100000000E-03 0.  1.
         23    2    1    0    0    0 -0.25636772851E+02  0.13316275857E+02 -0.12867683806E+02  0.93374936973E+02  0.87856327281E+02 0.  0.
         11    1    3    3    0    0  0.26465537378E+02 -0.10539305229E+02 -0.21144130847E+02  0.35476413192E+02  0.51100000000E-03 0. -1.
         22    1    1    0    0    0  0.25636772851E+02 -0.13316275857E+02  0.12867683806E+02  0.31625063027E+02  0.00000000000E+00 0.  1.
</event>
<event>
 5    1  0.1691138E-003  0.9118800E+02  0.7818608E-02  0.1130116E+00
         25   -1    0    0    0    0  0.00000000000E+00  0.00000000000E+00  0.99999998245E-14  0.12500000000E+03  0.12500000000E+03 0.  0.
        -11    1    3    3    0    0 -0.26436550033E+02 -0.43571866211E+02  0.44770685398E+01  0.51160950399E+02  0.51100000000E-03 0.  1.
         23    2    1    0    0    0 -0.30373713081E+02 -0.43091476470E+00  0.23164602404E+01  0.94535034517E+02  0.89491667932E+02 0.  0.
         11    1    3    3    0    0 -0.39371630472E+01  0.43140951446E+02 -0.21606082994E+01  0.43374084118E+02  0.51100000000E-03 0. -1.
         22    1    1    0    0    0  0.30373713081E+02  0.43091476470E+00 -0.23164602404E+01  0.30464965483E+02  0.00000000000E+00 0.  1.
</event>
<event>
 5    1  0.1691138E-003  0.9118800E+02  0.7818608E-02  0.1130116E+00
         25   -1    0    0    0    0  0.00000000000E+00  0.00000000000E+00  0.99999998245E-14  0.12500000000E+03  0.12500000000E+03 0.  0.
        -11    1    3    3    0    0  0.31622895115E+02 -0.41000980399E+02  0.20935958278E+02  0.55851609094E+02  0.51100000000E-03 0.  1.
         23    2    1    0    0    0  0.20328058674E+02 -0.58477061776E+01  0.24128313490E+02  0.92912601401E+02  0.87196045496E+02 0.  0.
         11    1    3    3    0    0 -0.11294836441E+02  0.35153274221E+02  0.31923552124E+01  0.37060992307E+02  0.51100000000E-03 0. -1.
         22    1    1    0    0    0 -0.20328058674E+02  0.58477061776E+01 -0.24128313490E+02  0.32087398599E+02  0.00000000000E+00 0.  1.
</event>
<event>
 5    1  0.1691138E-003  0.9118800E+02  0.7818608E-02  0.1130116E+00
         25   -1    0    0    0    0  0.00000000000E+00  0.00000000000E+00  0.99999998245E-14  0.12500000000E+03  0.12500000000E+03 0.  0.
        -11    1    3    3    0    0  0.95860262556E+01  0.66277273023E+01 -0.31861056373E+02  0.33925588897E+02  0.51100000000E-03 0. -1.
         23    2    1    0    0    0 -0.87930586663E+01 -0.12522298068E+02  0.24437521966E+02  0.96167408902E+02  0.91743404261E+02 0.  0.
         11    1    3    3    0    0 -0.18379084922E+02 -0.19150025370E+02  0.56298578339E+02  0.62241820004E+02  0.51100000000E-03 0.  1.
         22    1    1    0    0    0  0.87930586663E+01  0.12522298068E+02 -0.24437521966E+02  0.28832591098E+02  0.00000000000E+00 0.  1.
</event>
<event>
 5    1  0.1691138E-003  0.9118800E+02  0.7818608E-02  0.1130116E+00
         25   -1    0    0    0    0  0.00000000000E+00  0.00000000000E+00  0.99999998245E-14  0.12500000000E+03  0.12500000000E+03 0.  0.
        -11    1    3    3    0    0 -0.38047289437E+02 -0.31744307690E+01  0.31738307278E+02  0.49648699815E+02  0.51100000000E-03 0.  1.
         23    2    1    0    0    0 -0.13834754068E+02 -0.25849152210E+02 -0.17677489602E+00  0.95680887812E+02  0.91078109077E+02 0.  0.
         11    1    3    3    0    0  0.24212535369E+02 -0.22674721441E+02 -0.31915082174E+02  0.46032187997E+02  0.51100000000E-03 0. -1.
         22    1    1    0    0    0  0.13834754068E+02  0.25849152210E+02  0.17677489602E+00  0.29319112188E+02  0.00000000000E+00 0. -1.
</event>
<event>
 5    1  0.1691138E-003  0.9118800E+02  0.7818608E-02  0.1130116E+00
         25   -1    0    0    0    0  0.00000000000E+00  0.00000000000E+00  0.99999998245E-14  0.12500000000E+03  0.12500000000E+03 0.  0.
        -11    1    3    3    0    0 -0.15325120666E+02 -0.19417379132E+02 -0.26675120713E+02  0.36379334808E+02  0.51100000000E-03 0.  1.
         23    2    1    0    0    0 -0.11358227309E+02  0.20308467858E+02  0.17472366545E+02  0.95901429811E+02  0.91380290286E+02 0.  0.
         11    1    3    3    0    0  0.39668933565E+01  0.39725846991E+02  0.44147487258E+02  0.59522095003E+02  0.51100000000E-03 0. -1.
         22    1    1    0    0    0  0.11358227309E+02 -0.20308467858E+02 -0.17472366545E+02  0.29098570189E+02  0.00000000000E+00 0. -1.
</event>
<event>
 5    1  0.1691138E-003  0.9118800E+02  0.7818608E-02  0.1130116E+00
         25   -1    0    0    0    0  0.00000000000E+00  0.00000000000E+00  0.99999998245E-14  0.12500000000E+03  0.12500000000E+03 0.  0.
        -11    1    3    3    0    0 -0.12926356732E+02 -0.28931016111E+02  0.19278117450E+02  0.37090972005E+02  0.51100000000E-03 0.  1.
         23    2    1    0    0    0  0.11873064084E+02  0.12319369234E+01 -0.25705038996E+02  0.96658575387E+02  0.92410193413E+02 0.  0.
         11    1    3    3    0    0  0.24799420816E+02  0.30162953034E+02 -0.44983156446E+02  0.59567603382E+02  0.51100000000E-03 0. -1.
         22    1    1    0    0    0 -0.11873064084E+02 -0.12319369234E+01  0.25705038996E+02  0.28341424613E+02  0.00000000000E+00 0. -1.
</event>
<event>
 5    1  0.1691138E-003  0.9118800E+02  0.7818608E-02  0.1130116E+00
         25   -1    0    0    0    0  0.00000000000E+00  0.00000000000E+00  0.99999998245E-14  0.12500000000E+03  0.12500000000E+03 0.  0.
        -11    1    3    3    0    0  0.27148470912E+02  0.24690860873E+01  0.22966796016E+02  0.35645610928E+02  0.51100000000E-03 0.  1.
         23    2    1    0    0    0 -0.29029481687E+02 -0.39091787341E+01  0.32274527988E+01  0.95531220980E+02  0.90872466924E+02 0.  0.
         11    1    3    3    0    0 -0.56177952599E+02 -0.63782648214E+01 -0.19739343217E+02  0.59885610051E+02  0.51100000000E-03 0. -1.
         22    1    1    0    0    0  0.29029481687E+02  0.39091787341E+01 -0.32274527988E+01  0.29468779020E+02  0.00000000000E+00 0. -1.
</event>
<event>
 5    1  0.1691138E-003  0.9118800E+02  0.7818608E-02  0.1130116E+00
         25   -1    0    0    0    0  0.00000000000E+00  0.00000000000E+00  0.99999998245E-14  0.12500000000E+03  0.12500000000E+03 0.  0.
        -11    1    3    3    0    0  0.34346987498E+02 -0.22530472251E+02  0.97617144544E+00  0.41088814061E+02  0.51100000000E-03 0. -1.
         23    2    1    0    0    0  0.11529028527E+02 -0.21779426718E+02  0.35080401954E+02  0.82129304552E+02  0.70052310012E+02 0.  0.
         11    1    3    3    0    0 -0.22817958970E+02  0.75104553277E+00  0.34104230508E+02  0.41040490491E+02  0.51100000000E-03 0.  1.
         22    1    1    0    0    0 -0.11529028527E+02  0.21779426718E+02 -0.35080401954E+02  0.42870695448E+02  0.00000000000E+00 0. -1.
</event>
<event>
 5    1  0.1691138E-003  0.9118800E+02  0.7818608E-02  0.1130116E+00
         25   -1    0    0    0    0  0.00000000000E+00  0.00000000000E+00  0.99999998245E-14  0.12500000000E+03  0.12500000000E+03 0.  0.
        -11    1    3    3    0    0 -0.28024151925E+02 -0.22040196559E+02  0.28278232066E+02  0.45505843191E+02  0.51100000000E-03 0.  1.
         23    2    1    0    0    0  0.18529234413E+02 -0.61968756217E+01  0.22781874946E+02  0.94987542229E+02  0.90121504411E+02 0.  0.
         11    1    3    3    0    0  0.46553386338E+02  0.15843320937E+02 -0.54963571194E+01  0.49481699038E+02  0.51100000000E-03 0. -1.
         22    1    1    0    0    0 -0.18529234413E+02  0.61968756217E+01 -0.22781874946E+02  0.30012457771E+02  0.00000000000E+00 0.  1.
</event>
<event>
 5    1  0.1691138E-003  0.9118800E+02  0.7818608E-02  0.1130116E+00
         25   -1    0    0    0    0  0.00000000000E+00  0.00000000000E+00  0.99999998245E-14  0.12500000000E+03  0.12500000000E+03 0.  0.
        -11    1    3    3    0    0 -0.29824713435E+02  0.14260030806E+02 -0.41109681871E+01  0.33313091567E+02  0.51100000000E-03 0.  1.
         23    2    1    0    0    0  0.25499429166E+02 -0.13432976297E+02 -0.73177066135E+01  0.95264254338E+02  0.90504494830E+02 0.  0.
         11    1    3    3    0    0  0.55324142601E+02 -0.27693007103E+02 -0.32067384264E+01  0.61951162770E+02  0.51100000000E-03 0. -1.
         22    1    1    0    0    0 -0.25499429166E+02  0.13432976297E+02  0.73177066135E+01  0.29735745662E+02  0.00000000000E+00 0. -1.
</event>
<event>
 5    1  0.1691138E-003  0.9118800E+02  0.7818608E-02  0.1130116E+00
         25   -1    0    0    0    0  0.00000000000E+00  0.00000000000E+00  0.99999998245E-14  0.12500000000E+03  0.12500000000E+03 0.  0.
        -11    1    3    3    0    0 -0.68222159358E+01 -0.23601772238E+02 -0.41851635609E+02  0.48529843256E+02  0.51100000000E-03 0.  1.
         23    2    1    0    0    0  0.13288566272E+02 -0.31308251908E+02 -0.58394055397E+01  0.90490707221E+02  0.83652117757E+02 0.  0.
         11    1    3    3    0    0  0.20110782208E+02 -0.77064796698E+01  0.36012230069E+02  0.41960863965E+02  0.51100000000E-03 0. -1.
         22    1    1    0    0    0 -0.13288566272E+02  0.31308251908E+02  0.58394055397E+01  0.34509292779E+02  0.00000000000E+00 0.  1.
</event>
<event>
 5    1  0.1691138E-003  0.9118800E+02  0.7818608E-02  0.1130116E+00
         25   -1    0    0    0    0  0.00000000000E+00  0.00000000000E+00  0.99999998245E-14  0.12500000000E+03  0.12500000000E+03 0.  0.
        -11    1    3    3    0    0 -0.23544149115E+02  0.14735948195E+02 -0.23067076853E+02  0.36104918800E+02  0.51100000000E-03 0.  1.
         23    2    1    0    0    0 -0.24366714793E+01 -0.37861337888E+01  0.29208931025E+02  0.95446086070E+02  0.90755283689E+02 0.  0.
         11    1    3    3    0    0  0.21107477636E+02 -0.18522081984E+02  0.52276007877E+02  0.59341167270E+02  0.51100000000E-03 0. -1.
         22    1    1    0    0    0  0.24366714793E+01  0.37861337888E+01 -0.29208931025E+02  0.29553913930E+02  0.00000000000E+00 0. -1.
</event>
<event>
 5    1  0.1691138E-003  0.9118800E+02  0.7818608E-02  0.1130116E+00
         25   -1    0    0    0    0  0.00000000000E+00  0.00000000000E+00  0.99999998245E-14  0.12500000000E+03  0.12500000000E+03 0.  0.
        -11    1    3    3    0    0 -0.87262511609E+01  0.54118242177E+02  0.23067741537E+02  0.59473122463E+02  0.51100000000E-03 0.  1.
         23    2    1    0    0    0  0.61379762519E+01  0.32024570237E+02  0.21072117212E+02  0.86176270463E+02  0.76935476964E+02 0.  0.
         11    1    3    3    0    0  0.14864227413E+02 -0.22093671940E+02 -0.19956243242E+01  0.26703147999E+02  0.51100000000E-03 0. -1.
         22    1    1    0    0    0 -0.61379762519E+01 -0.32024570237E+02 -0.21072117212E+02  0.38823729537E+02  0.00000000000E+00 0.  1.
</event>
<event>
 5    1  0.1691138E-003  0.9118800E+02  0.7818608E-02  0.1130116E+00
         25   -1    0    0    0    0  0.00000000000E+00  0.00000000000E+00  0.99999998245E-14  0.12500000000E+03  0.12500000000E+03 0.  0.
        -11    1    3    3    0    0 -0.36481892229E+02  0.41573208489E+02 -0.30518654603E+01  0.55394711008E+02  0.51100000000E-03 0.  1.
         23    2    1    0    0    0 -0.26958138929E+02  0.51576907419E+01  0.10802298734E+02  0.95503683514E+02  0.90834579751E+02 0.  0.
         11    1    3    3    0    0  0.95237533000E+01 -0.36415517747E+02  0.13854164194E+02  0.40108972506E+02  0.51100000000E-03 0. -1.
         22    1    1    0    0    0  0.26958138929E+02 -0.51576907419E+01 -0.10802298734E+02  0.29496316486E+02  0.00000000000E+00 0.  1.
</event>
<event>
 5    1  0.1691138E-003  0.9118800E+02  0.7818608E-02  0.1130116E+00
         25   -1    0    0    0    0  0.00000000000E+00  0.00000000000E+00  0.99999998245E-14  0.12500000000E+03  0.12500000000E+03 0.  0.
        -11    1    3    3    0    0  0.54751475949E+01  0.11383969912E+02 -0.29405081085E+02  0.32003606141E+02  0.51100000000E-03 0.  1.
         23    2    1    0    0    0  0.26440859646E+02  0.30526448632E+02  0.12592634538E+02  0.82696837358E+02  0.71057788732E+02 0.  0.
         11    1    3    3    0    0  0.20965712051E+02  0.19142478721E+02  0.41997715623E+02  0.50693231217E+02  0.51100000000E-03 0. -1.
         22    1    1    0    0    0 -0.26440859646E+02 -0.30526448632E+02 -0.12592634538E+02  0.42303162642E+02  0.00000000000E+00 0. -1.
</event>
<event>
 5    1  0.1691138E-003  0.9118800E+02  0.7818608E-02  0.1130116E+00
         25   -1    0    0    0    0  0.00000000000E+00  0.00000000000E+00  0.99999998245E-14  0.12500000000E+03  0.12500000000E+03 0.  0.
        -11    1    3    3    0    0 -0.66520711540E+01 -0.12320424052E+02  0.52342273228E+02  0.54182621443E+02  0.51100000000E-03 0.  1.
         23    2    1    0    0    0 -0.12353368198E+02 -0.23268018103E+02  0.12599467300E+02  0.95798066014E+02  0.91238788371E+02 0.  0.
         11    1    3    3    0    0 -0.57012970442E+01 -0.10947594052E+02 -0.39742805929E+02  0.41615444571E+02  0.51100000000E-03 0. -1.
         22    1    1    0    0    0  0.12353368198E+02  0.23268018103E+02 -0.12599467300E+02  0.29201933986E+02  0.00000000000E+00 0.  1.
</event>
<event>
 5    1  0.1691138E-003  0.9118800E+02  0.7818608E-02  0.1130116E+00
         25   -1    0    0    0    0  0.00000000000E+00  0.00000000000E+00  0.99999998245E-14  0.12500000000E+03  0.12500000000E+03 0.  0.
        -11    1    3    3    0    0 -0.21388970517E+02 -0.59608404557E+01 -0.32253214386E+02  0.39157240929E+02  0.51100000000E-03 0. -1.
         23    2    1    0    0    0  0.55147149127E+01  0.28277299497E+02  0.41235613047E+01  0.95896366117E+02  0.91373363346E+02 0.  0.
         11    1    3    3    0    0  0.26903685430E+02  0.34238139952E+02  0.36376775690E+02  0.56739125187E+02  0.51100000000E-03 0.  1.
         22    1    1    0    0    0 -0.55147149127E+01 -0.28277299497E+02 -0.41235613047E+01  0.29103633883E+02  0.00000000000E+00 0.  1.
</event>
<event>
 5    1  0.1691138E-003  0.9118800E+02  0.7818608E-02  0.1130116E+00
         25   -1    0    0    0    0  0.00000000000E+00  0.00000000000E+00  0.99999998245E-14  0.12500000000E+03  0.12500000000E+03 0.  0.
        -11    1    3    3    0    0  0.54806535032E+00 -0.23434885510E+02  0.24615238074E+02  0.33991236815E+02  0.51100000000E-03 0.  1.
         23    2    1    0    0    0 -0.78782033125E+01  0.18762482240E+02 -0.20344806043E+02  0.96224872543E+02  0.91821664849E+02 0.  0.
         11    1    3    3    0    0 -0.84262686628E+01  0.42197367751E+02 -0.44960044117E+02  0.62233635728E+02  0.51100000000E-03 0. -1.
         22    1    1    0    0    0  0.78782033125E+01 -0.18762482240E+02  0.20344806043E+02  0.28775127457E+02  0.00000000000E+00 0. -1.
</event>
<event>
 5    1  0.1691138E-003  0.9118800E+02  0.7818608E-02  0.1130116E+00
         25   -1    0    0    0    0  0.00000000000E+00  0.00000000000E+00  0.99999998245E-14  0.12500000000E+03  0.12500000000E+03 0.  0.
        -11    1    3    3    0    0 -0.31105189832E+02  0.44661720443E+02 -0.26696530731E+01  0.54491551228E+02  0.51100000000E-03 0.  1.
         23    2    1    0    0    0  0.18206432514E+01  0.25459835600E+02  0.13765558577E+02  0.95999852180E+02  0.91514824182E+02 0.  0.
         11    1    3    3    0    0  0.32925833083E+02 -0.19201884842E+02  0.16435211650E+02  0.41508300953E+02  0.51100000000E-03 0. -1.
         22    1    1    0    0    0 -0.18206432514E+01 -0.25459835600E+02 -0.13765558577E+02  0.29000147820E+02  0.00000000000E+00 0.  1.
</event>
<event>
 5    1  0.1691138E-003  0.9118800E+02  0.7818608E-02  0.1130116E+00
         25   -1    0    0    0    0  0.00000000000E+00  0.00000000000E+00  0.99999998245E-14  0.12500000000E+03  0.12500000000E+03 0.  0.
        -11    1    3    3    0    0 -0.49380353351E+02  0.14240065974E+02 -0.82647829146E+01  0.52052909744E+02  0.51100000000E-03 0.  1.
         23    2    1    0    0    0 -0.98386233383E+01  0.23885261449E+02 -0.17512236845E+02  0.93791304689E+02  0.88446742011E+02 0.  0.
         11    1    3    3    0    0  0.39541730012E+02  0.96451954753E+01 -0.92474539300E+01  0.41738394945E+02  0.51100000000E-03 0. -1.
         22    1    1    0    0    0  0.98386233383E+01 -0.23885261449E+02  0.17512236845E+02  0.31208695311E+02  0.00000000000E+00 0.  1.
</event>
<event>
 5    1  0.1691138E-003  0.9118800E+02  0.7818608E-02  0.1130116E+00
         25   -1    0    0    0    0  0.00000000000E+00  0.00000000000E+00  0.99999998245E-14  0.12500000000E+03  0.12500000000E+03 0.  0.
        -11    1    3    3    0    0 -0.14292277827E+02 -0.78793821191E+01 -0.36988258810E+02  0.40428766468E+02  0.51100000000E-03 0. -1.
         23    2    1    0    0    0  0.27702939488E+02 -0.15709178261E+02 -0.76645082357E+01  0.92243690312E+02  0.86231795632E+02 0.  0.
         11    1    3    3    0    0  0.41995217315E+02 -0.78297961419E+01  0.29323750574E+02  0.51814923844E+02  0.51100000000E-03 0.  1.
         22    1    1    0    0    0 -0.27702939488E+02  0.15709178261E+02  0.76645082357E+01  0.32756309688E+02  0.00000000000E+00 0.  1.
</event>
<event>
 5    1  0.1691138E-003  0.9118800E+02  0.7818608E-02  0.1130116E+00
         25   -1    0    0    0    0  0.00000000000E+00  0.00000000000E+00  0.99999998245E-14  0.12500000000E+03  0.12500000000E+03 0.  0.
        -11    1    3    3    0    0 -0.99157588415E+01 -0.36088868562E+02  0.33467897213E+02  0.50207856473E+02  0.51100000000E-03 0.  1.
         23    2    1    0    0    0 -0.19949914655E+02  0.65726541552E+01  0.19848152188E+02  0.96101072292E+02  0.91652976346E+02 0.  0.
         11    1    3    3    0    0 -0.10034155813E+02  0.42661522717E+02 -0.13619745025E+02  0.45893215819E+02  0.51100000000E-03 0. -1.
         22    1    1    0    0    0  0.19949914655E+02 -0.65726541552E+01 -0.19848152188E+02  0.28898927708E+02  0.00000000000E+00 0. -1.
</event>
<event>
 5    1  0.1691138E-003  0.9118800E+02  0.7818608E-02  0.1130116E+00
         25   -1    0    0    0    0  0.00000000000E+00  0.00000000000E+00  0.99999998245E-14  0.12500000000E+03  0.12500000000E+03 0.  0.
        -11    1    3    3    0    0 -0.24048807045E+02  0.54455688949E+02  0.17684408696E+02  0.62100768839E+02  0.51100000000E-03 0.  1.
         23    2    1    0    0    0 -0.15688161526E+02  0.23585018895E+02  0.69908086725E+01  0.95823932166E+02  0.91274218931E+02 0.  0.
         11    1    3    3    0    0  0.83606455195E+01 -0.30870670054E+02 -0.10693600023E+02  0.33723163327E+02  0.51100000000E-03 0. -1.
         22    1    1    0    0    0  0.15688161526E+02 -0.23585018895E+02 -0.69908086725E+01  0.29176067834E+02  0.00000000000E+00 0.  1.
</event>
<event>
 5    1  0.1691138E-003  0.9118800E+02  0.7818608E-02  0.1130116E+00
         25   -1    0    0    0    0  0.00000000000E+00  0.00000000000E+00  0.99999998245E-14  0.12500000000E+03  0.12500000000E+03 0.  0.
        -11    1    3    3    0    0 -0.19697405848E+02 -0.30939208800E+02  0.50850571010E+01  0.37028100738E+02  0.51100000000E-03 0. -1.
         23    2    1    0    0    0 -0.13679329162E+02  0.25519898634E+02 -0.72932097942E+01  0.95140660059E+02  0.90333631693E+02 0.  0.
         11    1    3    3    0    0  0.60180766861E+01  0.56459107434E+02 -0.12378266895E+02  0.58112559321E+02  0.51100000000E-03 0.  1.
         22    1    1    0    0    0  0.13679329162E+02 -0.25519898634E+02  0.72932097942E+01  0.29859339941E+02  0.00000000000E+00 0.  1.
</event>
<event>
 5    1  0.1691138E-003  0.9118800E+02  0.7818608E-02  0.1130116E+00
         25   -1    0    0    0    0  0.00000000000E+00  0.00000000000E+00  0.99999998245E-14  0.12500000000E+03  0.12500000000E+03 0.  0.
        -11    1    3    3    0    0  0.23994042753E+02 -0.29514692864E+02 -0.27459756401E+02  0.46913424565E+02  0.51100000000E-03 0.  1.
         23    2    1    0    0    0 -0.20589179226E+02 -0.13396763877E+02 -0.15995337877E+02  0.95687231155E+02  0.91086814571E+02 0.  0.
         11    1    3    3    0    0 -0.44583221979E+02  0.16117928988E+02  0.11464418524E+02  0.48773806590E+02  0.51100000000E-03 0. -1.
         22    1    1    0    0    0  0.20589179226E+02  0.13396763877E+02  0.15995337877E+02  0.29312768845E+02  0.00000000000E+00 0. -1.
</event>
<event>
 5    1  0.1691138E-003  0.9118800E+02  0.7818608E-02  0.1130116E+00
         25   -1    0    0    0    0  0.00000000000E+00  0.00000000000E+00  0.99999998245E-14  0.12500000000E+03  0.12500000000E+03 0.  0.
        -11    1    3    3    0    0  0.20967241549E+02  0.51157963273E+02 -0.28051376522E+01  0.55359111463E+02  0.51100000000E-03 0. -1.
         23    2    1    0    0    0 -0.53220471627E+01  0.24966330188E+02  0.13762489722E+02  0.95999173246E+02  0.91513896822E+02 0.  0.
         11    1    3    3    0    0 -0.26289288712E+02 -0.26191633085E+02  0.16567627374E+02  0.40640061783E+02  0.51100000000E-03 0.  1.
         22    1    1    0    0    0  0.53220471627E+01 -0.24966330188E+02 -0.13762489722E+02  0.29000826754E+02  0.00000000000E+00 0.  1.
</event>
<event>
 5    1  0.1691138E-003  0.9118800E+02  0.7818608E-02  0.1130116E+00
         25   -1    0    0    0    0  0.00000000000E+00  0.00000000000E+00  0.99999998245E-14  0.12500000000E+03  0.12500000000E+03 0.  0.
        -11    1    3    3    0    0 -0.15438649341E+02  0.22791204487E+02  0.32465440786E+02  0.42565194010E+02  0.51100000000E-03 0.  1.
         23    2    1    0    0    0  0.10766041558E+02  0.22661002668E+02 -0.14263545969E+02  0.96140383988E+02  0.91706575538E+02 0.  0.
         11    1    3    3    0    0  0.26204690899E+02 -0.13020181879E+00 -0.46728986756E+02  0.53575189977E+02  0.51100000000E-03 0. -1.
         22    1    1    0    0    0 -0.10766041558E+02 -0.22661002668E+02  0.14263545969E+02  0.28859616012E+02  0.00000000000E+00 0. -1.
</event>
<event>
 5    1  0.1691138E-003  0.9118800E+02  0.7818608E-02  0.1130116E+00
         25   -1    0    0    0    0  0.00000000000E+00  0.00000000000E+00  0.99999998245E-14  0.12500000000E+03  0.12500000000E+03 0.  0.
        -11    1    3    3    0    0 -0.35285010864E+02 -0.13960991825E+01  0.21534185100E+01  0.35378217820E+02  0.51100000000E-03 0. -1.
         23    2    1    0    0    0  0.22143444164E+02  0.69188362510E+01 -0.16726519348E+02  0.96399670212E+02  0.92059315405E+02 0.  0.
         11    1    3    3    0    0  0.57428455028E+02  0.83149354335E+01 -0.18879937858E+02  0.61021452391E+02  0.51100000000E-03 0.  1.
         22    1    1    0    0    0 -0.22143444164E+02 -0.69188362510E+01  0.16726519348E+02  0.28600329788E+02  0.00000000000E+00 0.  1.
</event>
<event>
 5    1  0.1691138E-003  0.9118800E+02  0.7818608E-02  0.1130116E+00
         25   -1    0    0    0    0  0.00000000000E+00  0.00000000000E+00  0.99999998245E-14  0.12500000000E+03  0.12500000000E+03 0.  0.
        -11    1    3    3    0    0 -0.32962422728E+02  0.16620242103E+02 -0.24771450191E+02  0.44456478768E+02  0.51100000000E-03 0. -1.
         23    2    1    0    0    0  0.17971123860E+02  0.94878763227E+01 -0.20611528199E+02  0.96054945421E+02  0.91590045066E+02 0.  0.
         11    1    3    3    0    0  0.50933546588E+02 -0.71323657801E+01  0.41599219920E+01  0.51598466653E+02  0.51100000000E-03 0.  1.
         22    1    1    0    0    0 -0.17971123860E+02 -0.94878763227E+01  0.20611528199E+02  0.28945054579E+02  0.00000000000E+00 0. -1.
</event>
<event>
 5    1  0.1691138E-003  0.9118800E+02  0.7818608E-02  0.1130116E+00
         25   -1    0    0    0    0  0.00000000000E+00  0.00000000000E+00  0.99999998245E-14  0.12500000000E+03  0.12500000000E+03 0.  0.
        -11    1    3    3    0    0  0.40324427575E+02 -0.18262836274E+02  0.10647767275E+01  0.44280067725E+02  0.51100000000E-03 0.  1.
         23    2    1    0    0    0 -0.14128602799E+02 -0.14666531565E+02 -0.13257775010E+02  0.10069993491E+03  0.97724018170E+02 0.  0.
         11    1    3    3    0    0 -0.54453030374E+02  0.35963047086E+01 -0.14322551737E+02  0.56419867184E+02  0.51100000000E-03 0. -1.
         22    1    1    0    0    0  0.14128602799E+02  0.14666531565E+02  0.13257775010E+02  0.24300065091E+02  0.00000000000E+00 0. -1.
</event>
<event>
 5    1  0.1691138E-003  0.9118800E+02  0.7818608E-02  0.1130116E+00
         25   -1    0    0    0    0  0.00000000000E+00  0.00000000000E+00  0.99999998245E-14  0.12500000000E+03  0.12500000000E+03 0.  0.
        -11    1    3    3    0    0 -0.33726830120E+02  0.36202482428E+02  0.30904104149E+02  0.58336801913E+02  0.51100000000E-03 0.  1.
         23    2    1    0    0    0 -0.27835223685E+01  0.15709365677E+02  0.24143211976E+02  0.96061671588E+02  0.91599224326E+02 0.  0.
         11    1    3    3    0    0  0.30943307752E+02 -0.20493116751E+02 -0.67608921734E+01  0.37724869675E+02  0.51100000000E-03 0. -1.
         22    1    1    0    0    0  0.27835223685E+01 -0.15709365677E+02 -0.24143211976E+02  0.28938328412E+02  0.00000000000E+00 0.  1.
</event>
<event>
 5    1  0.1691138E-003  0.9118800E+02  0.7818608E-02  0.1130116E+00
         25   -1    0    0    0    0  0.00000000000E+00  0.00000000000E+00  0.99999998245E-14  0.12500000000E+03  0.12500000000E+03 0.  0.
        -11    1    3    3    0    0  0.26714863364E+02  0.15442122440E+02 -0.40476809882E+02  0.50897104127E+02  0.51100000000E-03 0.  1.
         23    2    1    0    0    0  0.15039380811E+02 -0.19840072054E+02 -0.16942180832E+02  0.94886067583E+02  0.89980647340E+02 0.  0.
         11    1    3    3    0    0 -0.11675482554E+02 -0.35282194494E+02  0.23534629050E+02  0.43988963456E+02  0.51100000000E-03 0. -1.
         22    1    1    0    0    0 -0.15039380811E+02  0.19840072054E+02  0.16942180832E+02  0.30113932417E+02  0.00000000000E+00 0.  1.
</event>
<event>
 5    1  0.1691138E-003  0.9118800E+02  0.7818608E-02  0.1130116E+00
         25   -1    0    0    0    0  0.00000000000E+00  0.00000000000E+00  0.99999998245E-14  0.12500000000E+03  0.12500000000E+03 0.  0.
        -11    1    3    3    0    0 -0.23018077583E+02  0.37189291854E+02 -0.15474836756E+02  0.46393382040E+02  0.51100000000E-03 0. -1.
         23    2    1    0    0    0  0.21666621664E+02  0.18965306880E+02 -0.65536071405E+01  0.95469081864E+02  0.90786950968E+02 0.  0.
         11    1    3    3    0    0  0.44684699247E+02 -0.18223984974E+02  0.89212296158E+01  0.49075699824E+02  0.51100000000E-03 0.  1.
         22    1    1    0    0    0 -0.21666621664E+02 -0.18965306880E+02  0.65536071405E+01  0.29530918136E+02  0.00000000000E+00 0.  1.
</event>
<event>
 5    1  0.1691138E-003  0.9118800E+02  0.7818608E-02  0.1130116E+00
         25   -1    0    0    0    0  0.00000000000E+00  0.00000000000E+00  0.99999998245E-14  0.12500000000E+03  0.12500000000E+03 0.  0.
        -11    1    3    3    0    0  0.13628822103E+02  0.21876355446E+02  0.29352527772E+02  0.39062649762E+02  0.51100000000E-03 0.  1.
         23    2    1    0    0    0  0.10901655651E+02 -0.27852959050E+02  0.44006194529E+01  0.94767585684E+02  0.89815902941E+02 0.  0.
         11    1    3    3    0    0 -0.27271664516E+01 -0.49729314496E+02 -0.24951908319E+02  0.55704935923E+02  0.51100000000E-03 0. -1.
         22    1    1    0    0    0 -0.10901655651E+02  0.27852959050E+02 -0.44006194529E+01  0.30232414316E+02  0.00000000000E+00 0. -1.
</event>
<event>
 5    1  0.1691138E-003  0.9118800E+02  0.7818608E-02  0.1130116E+00
         25   -1    0    0    0    0  0.00000000000E+00  0.00000000000E+00  0.99999998245E-14  0.12500000000E+03  0.12500000000E+03 0.  0.
        -11    1    3    3    0    0  0.52392417212E+02  0.13065401227E+02 -0.24307108643E+02  0.59215754841E+02  0.51100000000E-03 0.  1.
         23    2    1    0    0    0  0.19410134707E+02  0.17526459365E+02 -0.31376070608E+01  0.98660397017E+02  0.95079436548E+02 0.  0.
         11    1    3    3    0    0 -0.32982282504E+02  0.44610581381E+01  0.21169501582E+02  0.39444642176E+02  0.51100000000E-03 0. -1.
         22    1    1    0    0    0 -0.19410134707E+02 -0.17526459365E+02  0.31376070608E+01  0.26339602983E+02  0.00000000000E+00 0.  1.
</event>
<event>
 5    1  0.1691138E-003  0.9118800E+02  0.7818608E-02  0.1130116E+00
         25   -1    0    0    0    0  0.00000000000E+00  0.00000000000E+00  0.99999998245E-14  0.12500000000E+03  0.12500000000E+03 0.  0.
        -11    1    3    3    0    0 -0.31559348950E+02  0.41671888060E+02 -0.31451913458E+02  0.61006242476E+02  0.51100000000E-03 0.  1.
         23    2    1    0    0    0 -0.21738973573E+02  0.12783408130E+02 -0.14329948881E+02  0.95994036297E+02  0.91506879928E+02 0.  0.
         11    1    3    3    0    0  0.98203753767E+01 -0.28888479931E+02  0.17121964577E+02  0.34987793821E+02  0.51100000000E-03 0. -1.
         22    1    1    0    0    0  0.21738973573E+02 -0.12783408130E+02  0.14329948881E+02  0.29005963703E+02  0.00000000000E+00 0.  1.
</event>
<event>
 5    1  0.1691138E-003  0.9118800E+02  0.7818608E-02  0.1130116E+00
         25   -1    0    0    0    0  0.00000000000E+00  0.00000000000E+00  0.99999998245E-14  0.12500000000E+03  0.12500000000E+03 0.  0.
        -11    1    3    3    0    0  0.51486542213E+02  0.70533695126E+01  0.20368275936E+02  0.55816491429E+02  0.51100000000E-03 0.  1.
         23    2    1    0    0    0  0.16713088764E+02 -0.13316181147E+02  0.19415006130E+02  0.96128032983E+02  0.91689739043E+02 0.  0.
         11    1    3    3    0    0 -0.34773453450E+02 -0.20369550660E+02 -0.95326980582E+00  0.40311541554E+02  0.51100000000E-03 0. -1.
         22    1    1    0    0    0 -0.16713088764E+02  0.13316181147E+02 -0.19415006130E+02  0.28871967017E+02  0.00000000000E+00 0.  1.
</event>
<event>
 5    1  0.1691138E-003  0.9118800E+02  0.7818608E-02  0.1130116E+00
         25   -1    0    0    0    0  0.00000000000E+00  0.00000000000E+00  0.99999998245E-14  0.12500000000E+03  0.12500000000E+03 0.  0.
        -11    1    3    3    0    0 -0.51144386042E+02  0.31414792903E+02  0.11927662634E+02  0.61195641781E+02  0.51100000000E-03 0.  1.
         23    2    1    0    0    0 -0.22895733875E+02  0.12279253879E+02  0.14201900782E+02  0.95391070750E+02  0.90679477764E+02 0.  0.
         11    1    3    3    0    0  0.28248652167E+02 -0.19135539024E+02  0.22742381480E+01  0.34195428970E+02  0.51100000000E-03 0. -1.
         22    1    1    0    0    0  0.22895733875E+02 -0.12279253879E+02 -0.14201900782E+02  0.29608929250E+02  0.00000000000E+00 0.  1.
</event>
<event>
 5    1  0.1691138E-003  0.9118800E+02  0.7818608E-02  0.1130116E+00
         25   -1    0    0    0    0  0.00000000000E+00  0.00000000000E+00  0.99999998245E-14  0.12500000000E+03  0.12500000000E+03 0.  0.
        -11    1    3    3    0    0 -0.56438804496E+02  0.11962187292E+02  0.20557502146E+02  0.61245762894E+02  0.51100000000E-03 0. -1.
         23    2    1    0    0    0 -0.26719737948E+02 -0.72069849736E+00  0.15919143461E+02  0.93889183057E+02  0.88584963534E+02 0.  0.
         11    1    3    3    0    0  0.29719066548E+02 -0.12682885789E+02 -0.46383586845E+01  0.32643420163E+02  0.51100000000E-03 0.  1.
         22    1    1    0    0    0  0.26719737948E+02  0.72069849736E+00 -0.15919143461E+02  0.31110816943E+02  0.00000000000E+00 0. -1.
</event>
<event>
 5    1  0.1691138E-003  0.9118800E+02  0.7818608E-02  0.1130116E+00
         25   -1    0    0    0    0  0.00000000000E+00  0.00000000000E+00  0.99999998245E-14  0.12500000000E+03  0.12500000000E+03 0.  0.
        -11    1    3    3    0    0  0.31803786983E+02  0.40659383740E+01  0.53601851331E+02  0.62459356286E+02  0.51100000000E-03 0.  1.
         23    2    1    0    0    0  0.14649345996E+02  0.34381309783E+01  0.25707056811E+02  0.95212807238E+02  0.90433410914E+02 0.  0.
         11    1    3    3    0    0 -0.17154440987E+02 -0.62780739574E+00 -0.27894794519E+02  0.32753450952E+02  0.51100000000E-03 0. -1.
         22    1    1    0    0    0 -0.14649345996E+02 -0.34381309783E+01 -0.25707056811E+02  0.29787192762E+02  0.00000000000E+00 0.  1.
</event>
<event>
 5    1  0.1691138E-003  0.9118800E+02  0.7818608E-02  0.1130116E+00
         25   -1    0    0    0    0  0.00000000000E+00  0.00000000000E+00  0.99999998245E-14  0.12500000000E+03  0.12500000000E+03 0.  0.
        -11    1    3    3    0    0  0.25532079066E+02  0.37963978742E+02 -0.32497300771E+02  0.56117958809E+02  0.51100000000E-03 0. -1.
         23    2    1    0    0    0  0.26828338642E+02  0.85091969376E+01 -0.50393233723E+01  0.96406976954E+02  0.92069236114E+02 0.  0.
         11    1    3    3    0    0  0.12962595768E+01 -0.29454781804E+02  0.27457977398E+02  0.40289018145E+02  0.51100000000E-03 0.  1.
         22    1    1    0    0    0 -0.26828338642E+02 -0.85091969376E+01  0.50393233723E+01  0.28593023046E+02  0.00000000000E+00 0. -1.
</event>
<event>
 5    1  0.1691138E-003  0.9118800E+02  0.7818608E-02  0.1130116E+00
         25   -1    0    0    0    0  0.00000000000E+00  0.00000000000E+00  0.99999998245E-14  0.12500000000E+03  0.12500000000E+03 0.  0.
        -11    1    3    3    0    0 -0.10076605333E+02  0.50177089539E+02  0.34401198217E+02  0.61666204104E+02  0.51100000000E-03 0.  1.
         23    2    1    0    0    0  0.22940413754E+01  0.22722326686E+02  0.17742970304E+02  0.96079769173E+02  0.91623917693E+02 0.  0.
         11    1    3    3    0    0  0.12370646708E+02 -0.27454762853E+02 -0.16658227913E+02  0.34413565069E+02  0.51100000000E-03 0. -1.
         22    1    1    0    0    0 -0.22940413754E+01 -0.22722326686E+02 -0.17742970304E+02  0.28920230827E+02  0.00000000000E+00 0.  1.
</event>
<event>
 5    1  0.1691138E-003  0.9118800E+02  0.7818608E-02  0.1130116E+00
         25   -1    0    0    0    0  0.00000000000E+00  0.00000000000E+00  0.99999998245E-14  0.12500000000E+03  0.12500000000E+03 0.  0.
        -11    1    3    3    0    0  0.18575005264E+01 -0.10643177993E+02  0.38019901640E+02  0.39525187754E+02  0.51100000000E-03 0. -1.
         23    2    1    0    0    0  0.26392608131E+02 -0.43802471490E+01 -0.12068391936E+02  0.95650342200E+02  0.91036177150E+02 0.  0.
         11    1    3    3    0    0  0.24535107605E+02  0.62629308442E+01 -0.50088293577E+02  0.56125154446E+02  0.51100000000E-03 0.  1.
         22    1    1    0    0    0 -0.26392608131E+02  0.43802471490E+01  0.12068391936E+02  0.29349657800E+02  0.00000000000E+00 0.  1.
</event>
<event>
 5    1  0.1691138E-003  0.9118800E+02  0.7818608E-02  0.1130116E+00
         25   -1    0    0    0    0  0.00000000000E+00  0.00000000000E+00  0.99999998245E-14  0.12500000000E+03  0.12500000000E+03 0.  0.
        -11    1    3    3    0    0  0.14060513769E+02 -0.17728462258E+02  0.27173819150E+02  0.35361177426E+02  0.51100000000E-03 0.  1.
         23    2    1    0    0    0  0.10739408682E+02  0.15917498719E+02 -0.22481874891E+02  0.95434202820E+02  0.90738915053E+02 0.  0.
         11    1    3    3    0    0 -0.33211050877E+01  0.33645960977E+02 -0.49655694040E+02  0.60073025394E+02  0.51100000000E-03 0. -1.
         22    1    1    0    0    0 -0.10739408682E+02 -0.15917498719E+02  0.22481874891E+02  0.29565797180E+02  0.00000000000E+00 0. -1.
</event>
<event>
 5    1  0.1691138E-003  0.9118800E+02  0.7818608E-02  0.1130116E+00
         25   -1    0    0    0    0  0.00000000000E+00  0.00000000000E+00  0.99999998245E-14  0.12500000000E+03  0.12500000000E+03 0.  0.
        -11    1    3    3    0    0 -0.67841459037E+01  0.90236109788E+01 -0.44187694854E+02  0.45607045152E+02  0.51100000000E-03 0. -1.
         23    2    1    0    0    0  0.22881508571E+02  0.17048451185E+02 -0.40182626917E+01  0.96184039885E+02  0.91766061108E+02 0.  0.
         11    1    3    3    0    0  0.29665654475E+02  0.80248402061E+01  0.40169432162E+02  0.50576994733E+02  0.51100000000E-03 0.  1.
         22    1    1    0    0    0 -0.22881508571E+02 -0.17048451185E+02  0.40182626917E+01  0.28815960115E+02  0.00000000000E+00 0. -1.
</event>
<event>
 5    1  0.1691138E-003  0.9118800E+02  0.7818608E-02  0.1130116E+00
         25   -1    0    0    0    0  0.00000000000E+00  0.00000000000E+00  0.99999998245E-14  0.12500000000E+03  0.12500000000E+03 0.  0.
        -11    1    3    3    0    0  0.23550221938E+02  0.25269885653E+02  0.10361241863E+01  0.34557974881E+02  0.51100000000E-03 0. -1.
         23    2    1    0    0    0 -0.19341704290E+02 -0.16037107801E+02  0.15021685568E+02  0.95726438742E+02  0.91140603934E+02 0.  0.
         11    1    3    3    0    0 -0.42891926228E+02 -0.41306993454E+02  0.13985561381E+02  0.61168463861E+02  0.51100000000E-03 0.  1.
         22    1    1    0    0    0  0.19341704290E+02  0.16037107801E+02 -0.15021685568E+02  0.29273561258E+02  0.00000000000E+00 0.  1.
</event>
<event>
 5    1  0.1691138E-003  0.9118800E+02  0.7818608E-02  0.1130116E+00
         25   -1    0    0    0    0  0.00000000000E+00  0.00000000000E+00  0.99999998245E-14  0.12500000000E+03  0.12500000000E+03 0.  0.
        -11    1    3    3    0    0 -0.35151789239E+02 -0.44064997684E+02  0.43844287598E+01  0.56538442881E+02  0.51100000000E-03 0. -1.
         23    2    1    0    0    0 -0.11915957054E+02 -0.11764460291E+02  0.19674048322E+02  0.99164738518E+02  0.95740193386E+02 0.  0.
         11    1    3    3    0    0  0.23235832185E+02  0.32300537393E+02  0.15289619562E+02  0.42626295638E+02  0.51100000000E-03 0.  1.
         22    1    1    0    0    0  0.11915957054E+02  0.11764460291E+02 -0.19674048322E+02  0.25835261482E+02  0.00000000000E+00 0. -1.
</event>
<event>
 5    1  0.1691138E-003  0.9118800E+02  0.7818608E-02  0.1130116E+00
         25   -1    0    0    0    0  0.00000000000E+00  0.00000000000E+00  0.99999998245E-14  0.12500000000E+03  0.12500000000E+03 0.  0.
        -11    1    3    3    0    0  0.12302815894E+02 -0.15549917536E+02 -0.54256394522E+02  0.57766041591E+02  0.51100000000E-03 0.  1.
         23    2    1    0    0    0 -0.10793187492E+02 -0.11321341751E+02 -0.27489800334E+02  0.93371614052E+02  0.87851599376E+02 0.  0.
         11    1    3    3    0    0 -0.23096003386E+02  0.42285757851E+01  0.26766594188E+02  0.35605572461E+02  0.51100000000E-03 0. -1.
         22    1    1    0    0    0  0.10793187492E+02  0.11321341751E+02  0.27489800334E+02  0.31628385948E+02  0.00000000000E+00 0.  1.
</event>
<event>
 5    1  0.1691138E-003  0.9118800E+02  0.7818608E-02  0.1130116E+00
         25   -1    0    0    0    0  0.00000000000E+00  0.00000000000E+00  0.99999998245E-14  0.12500000000E+03  0.12500000000E+03 0.  0.
        -11    1    3    3    0    0  0.48349110001E+01  0.42903659702E+02  0.17017673829E+02  0.46407990724E+02  0.51100000000E-03 0.  1.
         23    2    1    0    0    0 -0.25470999408E+02  0.12115235309E+02 -0.71395344147E+01  0.95904919847E+02  0.91385064216E+02 0.  0.
         11    1    3    3    0    0 -0.30305910408E+02 -0.30788424393E+02 -0.24157208244E+02  0.49496929124E+02  0.51100000000E-03 0. -1.
         22    1    1    0    0    0  0.25470999408E+02 -0.12115235309E+02  0.71395344147E+01  0.29095080153E+02  0.00000000000E+00 0. -1.
</event>
<event>
 5    1  0.1691138E-003  0.9118800E+02  0.7818608E-02  0.1130116E+00
         25   -1    0    0    0    0  0.00000000000E+00  0.00000000000E+00  0.99999998245E-14  0.12500000000E+03  0.12500000000E+03 0.  0.
        -11    1    3    3    0    0  0.19185890232E+02 -0.34052656755E+02  0.40489172021E+01  0.39294726705E+02  0.51100000000E-03 0. -1.
         23    2    1    0    0    0 -0.28402248329E+02 -0.67895630610E+01 -0.63470182368E+01  0.95115714544E+02  0.90299106508E+02 0.  0.
         11    1    3    3    0    0 -0.47588138560E+02  0.27263093694E+02 -0.10395935439E+02  0.55820987839E+02  0.51100000000E-03 0.  1.
         22    1    1    0    0    0  0.28402248329E+02  0.67895630610E+01  0.63470182368E+01  0.29884285456E+02  0.00000000000E+00 0.  1.
</event>
<event>
 5    1  0.1691138E-003  0.9118800E+02  0.7818608E-02  0.1130116E+00
         25   -1    0    0    0    0  0.00000000000E+00  0.00000000000E+00  0.99999998245E-14  0.12500000000E+03  0.12500000000E+03 0.  0.
        -11    1    3    3    0    0  0.53553610646E+00  0.16587074692E+02  0.37641211692E+02  0.41137314736E+02  0.51100000000E-03 0.  1.
         23    2    1    0    0    0 -0.47660624624E+01  0.24054188053E+02 -0.16107827190E+02  0.95660923480E+02  0.91050704939E+02 0.  0.
         11    1    3    3    0    0 -0.53015985688E+01  0.74671133604E+01 -0.53749038883E+02  0.54523608743E+02  0.51100000000E-03 0. -1.
         22    1    1    0    0    0  0.47660624624E+01 -0.24054188053E+02  0.16107827190E+02  0.29339076520E+02  0.00000000000E+00 0. -1.
</event>
<event>
 5    1  0.1691138E-003  0.9118800E+02  0.7818608E-02  0.1130116E+00
         25   -1    0    0    0    0  0.00000000000E+00  0.00000000000E+00  0.99999998245E-14  0.12500000000E+03  0.12500000000E+03 0.  0.
        -11    1    3    3    0    0  0.47835704881E+02  0.26867322530E+02 -0.26332989040E+02  0.60856667617E+02  0.51100000000E-03 0. -1.
         23    2    1    0    0    0  0.18396540532E+02  0.95936832939E+01 -0.21135352079E+02  0.95382866948E+02  0.90668168268E+02 0.  0.
         11    1    3    3    0    0 -0.29439164349E+02 -0.17273639236E+02  0.51976369602E+01  0.34526199331E+02  0.51100000000E-03 0.  1.
         22    1    1    0    0    0 -0.18396540532E+02 -0.95936832939E+01  0.21135352079E+02  0.29617133052E+02  0.00000000000E+00 0. -1.
</event>
<event>
 5    1  0.1691138E-003  0.9118800E+02  0.7818608E-02  0.1130116E+00
         25   -1    0    0    0    0  0.00000000000E+00  0.00000000000E+00  0.99999998245E-14  0.12500000000E+03  0.12500000000E+03 0.  0.
        -11    1    3    3    0    0  0.15139696051E+02 -0.11655902555E+02  0.37650713379E+02  0.42221400724E+02  0.51100000000E-03 0. -1.
         23    2    1    0    0    0  0.14304766849E+00 -0.26230031833E+02 -0.12043895197E+02  0.96136693811E+02  0.91701545531E+02 0.  0.
         11    1    3    3    0    0 -0.14996648382E+02 -0.14574129278E+02 -0.49694608576E+02  0.53915293087E+02  0.51100000000E-03 0.  1.
         22    1    1    0    0    0 -0.14304766849E+00  0.26230031833E+02  0.12043895197E+02  0.28863306189E+02  0.00000000000E+00 0. -1.
</event>
<event>
 5    1  0.1691138E-003  0.9118800E+02  0.7818608E-02  0.1130116E+00
         25   -1    0    0    0    0  0.00000000000E+00  0.00000000000E+00  0.99999998245E-14  0.12500000000E+03  0.12500000000E+03 0.  0.
        -11    1    3    3    0    0  0.61860747510E+01  0.16426696422E+02  0.35602949949E+02  0.39694759370E+02  0.51100000000E-03 0.  1.
         23    2    1    0    0    0 -0.17835482894E+02 -0.22916528692E+02  0.37649603150E+01  0.95717809789E+02  0.91128768494E+02 0.  0.
         11    1    3    3    0    0 -0.24021557645E+02 -0.39343225114E+02 -0.31837989634E+02  0.56023050419E+02  0.51100000000E-03 0. -1.
         22    1    1    0    0    0  0.17835482894E+02  0.22916528692E+02 -0.37649603150E+01  0.29282190211E+02  0.00000000000E+00 0. -1.
</event>
<event>
 5    1  0.1691138E-003  0.9118800E+02  0.7818608E-02  0.1130116E+00
         25   -1    0    0    0    0  0.00000000000E+00  0.00000000000E+00  0.99999998245E-14  0.12500000000E+03  0.12500000000E+03 0.  0.
        -11    1    3    3    0    0 -0.15537778563E+02 -0.25581644269E+02  0.26167622604E+02  0.39756603969E+02  0.51100000000E-03 0. -1.
         23    2    1    0    0    0  0.26733827827E+02 -0.12977527427E+02 -0.64175716049E+01  0.94597714005E+02  0.89579174485E+02 0.  0.
         11    1    3    3    0    0  0.42271606390E+02  0.12604116843E+02 -0.32585194208E+02  0.54841110036E+02  0.51100000000E-03 0.  1.
         22    1    1    0    0    0 -0.26733827827E+02  0.12977527427E+02  0.64175716049E+01  0.30402285995E+02  0.00000000000E+00 0.  1.
</event>
<event>
 5    1  0.1691138E-003  0.9118800E+02  0.7818608E-02  0.1130116E+00
         25   -1    0    0    0    0  0.00000000000E+00  0.00000000000E+00  0.99999998245E-14  0.12500000000E+03  0.12500000000E+03 0.  0.
        -11    1    3    3    0    0  0.30178538542E+02  0.37729375084E+02  0.32586161050E+02  0.58276134266E+02  0.51100000000E-03 0.  1.
         23    2    1    0    0    0  0.97988316955E+01  0.80783817835E+01  0.27624786658E+02  0.94595951047E+02  0.89576714395E+02 0.  0.
         11    1    3    3    0    0 -0.20379706846E+02 -0.29650993301E+02 -0.49613743921E+01  0.36319816781E+02  0.51100000000E-03 0. -1.
         22    1    1    0    0    0 -0.97988316955E+01 -0.80783817835E+01 -0.27624786658E+02  0.30404048953E+02  0.00000000000E+00 0.  1.
</event>
<event>
 5    1  0.1691138E-003  0.9118800E+02  0.7818608E-02  0.1130116E+00
         25   -1    0    0    0    0  0.00000000000E+00  0.00000000000E+00  0.99999998245E-14  0.12500000000E+03  0.12500000000E+03 0.  0.
        -11    1    3    3    0    0 -0.40397627315E+02 -0.83706781784E+01 -0.81610620542E+01  0.42055195636E+02  0.51100000000E-03 0.  1.
         23    2    1    0    0    0  0.62859734419E+01  0.12025758360E+02 -0.25702511002E+02  0.95935392690E+02  0.91426736640E+02 0.  0.
         11    1    3    3    0    0  0.46683600757E+02  0.20396436539E+02 -0.17541448948E+02  0.53880197054E+02  0.51100000000E-03 0. -1.
         22    1    1    0    0    0 -0.62859734419E+01 -0.12025758360E+02  0.25702511002E+02  0.29064607310E+02  0.00000000000E+00 0. -1.
</event>
<event>
 5    1  0.1691138E-003  0.9118800E+02  0.7818608E-02  0.1130116E+00
         25   -1    0    0    0    0  0.00000000000E+00  0.00000000000E+00  0.99999998245E-14  0.12500000000E+03  0.12500000000E+03 0.  0.
        -11    1    3    3    0    0 -0.19893494716E+02  0.12719649079E+02 -0.29170413676E+02  0.37529370352E+02  0.51100000000E-03 0.  1.
         23    2    1    0    0    0 -0.13952091287E+02  0.27745473401E+02  0.19173576816E+02  0.88502079601E+02  0.80625801703E+02 0.  0.
         11    1    3    3    0    0  0.59414034296E+01  0.15025824322E+02  0.48343990492E+02  0.50972709249E+02  0.51100000000E-03 0. -1.
         22    1    1    0    0    0  0.13952091287E+02 -0.27745473401E+02 -0.19173576816E+02  0.36497920399E+02  0.00000000000E+00 0.  1.
</event>
<event>
 5    1  0.1691138E-003  0.9118800E+02  0.7818608E-02  0.1130116E+00
         25   -1    0    0    0    0  0.00000000000E+00  0.00000000000E+00  0.99999998245E-14  0.12500000000E+03  0.12500000000E+03 0.  0.
        -11    1    3    3    0    0 -0.12099156658E+02 -0.50664576693E+02  0.20269284257E+02  0.55893942497E+02  0.51100000000E-03 0. -1.
         23    2    1    0    0    0  0.14867177214E+02 -0.20806910206E+02  0.10888761226E+02  0.97205655401E+02  0.93147269688E+02 0.  0.
         11    1    3    3    0    0  0.26966333871E+02  0.29857666487E+02 -0.93805230308E+01  0.41311712904E+02  0.51100000000E-03 0.  1.
         22    1    1    0    0    0 -0.14867177214E+02  0.20806910206E+02 -0.10888761226E+02  0.27794344599E+02  0.00000000000E+00 0. -1.
</event>
<event>
 5    1  0.1691138E-003  0.9118800E+02  0.7818608E-02  0.1130116E+00
         25   -1    0    0    0    0  0.00000000000E+00  0.00000000000E+00  0.99999998245E-14  0.12500000000E+03  0.12500000000E+03 0.  0.
        -11    1    3    3    0    0 -0.42181015888E+00 -0.26974425603E+02  0.45919687637E+02  0.53258006659E+02  0.51100000000E-03 0.  1.
         23    2    1    0    0    0 -0.13486238038E+02 -0.25834693648E+02  0.60411005308E+01  0.95237525172E+02  0.90467570394E+02 0.  0.
         11    1    3    3    0    0 -0.13064427879E+02  0.11397319549E+01 -0.39878587106E+02  0.41979518513E+02  0.51100000000E-03 0. -1.
         22    1    1    0    0    0  0.13486238038E+02  0.25834693648E+02 -0.60411005308E+01  0.29762474828E+02  0.00000000000E+00 0.  1.
</event>
<event>
 5    1  0.1691138E-003  0.9118800E+02  0.7818608E-02  0.1130116E+00
         25   -1    0    0    0    0  0.00000000000E+00  0.00000000000E+00  0.99999998245E-14  0.12500000000E+03  0.12500000000E+03 0.  0.
        -11    1    3    3    0    0 -0.24055777586E+02 -0.19957165287E+02  0.35445132914E+02  0.47258082156E+02  0.51100000000E-03 0.  1.
         23    2    1    0    0    0 -0.23497703563E+02 -0.10733103897E+02 -0.12652197150E+02  0.96235096302E+02  0.91835581751E+02 0.  0.
         11    1    3    3    0    0  0.55807402249E+00  0.92240613896E+01 -0.48097330064E+02  0.48977014146E+02  0.51100000000E-03 0. -1.
         22    1    1    0    0    0  0.23497703563E+02  0.10733103897E+02  0.12652197150E+02  0.28764903698E+02  0.00000000000E+00 0. -1.
</event>
<event>
 5    1  0.1691138E-003  0.9118800E+02  0.7818608E-02  0.1130116E+00
         25   -1    0    0    0    0  0.00000000000E+00  0.00000000000E+00  0.99999998245E-14  0.12500000000E+03  0.12500000000E+03 0.  0.
        -11    1    3    3    0    0  0.13526139561E+02 -0.29572231613E+02  0.16984307663E+02  0.36687055497E+02  0.51100000000E-03 0.  1.
         23    2    1    0    0    0 -0.23817825373E+02  0.15282310004E+02  0.55125010687E+01  0.96169018876E+02  0.91745597818E+02 0.  0.
         11    1    3    3    0    0 -0.37343964933E+02  0.44854541617E+02 -0.11471806594E+02  0.59481963379E+02  0.51100000000E-03 0. -1.
         22    1    1    0    0    0  0.23817825373E+02 -0.15282310004E+02 -0.55125010687E+01  0.28830981124E+02  0.00000000000E+00 0. -1.
</event>
<event>
 5    1  0.1691138E-003  0.9118800E+02  0.7818608E-02  0.1130116E+00
         25   -1    0    0    0    0  0.00000000000E+00  0.00000000000E+00  0.99999998245E-14  0.12500000000E+03  0.12500000000E+03 0.  0.
        -11    1    3    3    0    0 -0.22830986567E+02  0.97125335180E+01  0.46197766893E+02  0.52438734931E+02  0.51100000000E-03 0. -1.
         23    2    1    0    0    0  0.65418557319E+01 -0.13419020210E+02  0.26217011619E+02  0.94830517438E+02  0.89903444647E+02 0.  0.
         11    1    3    3    0    0  0.29372842299E+02 -0.23131553728E+02 -0.19980755274E+02  0.42391782507E+02  0.51100000000E-03 0.  1.
         22    1    1    0    0    0 -0.65418557319E+01  0.13419020210E+02 -0.26217011619E+02  0.30169482562E+02  0.00000000000E+00 0.  1.
</event>
<event>
 5    1  0.1691138E-003  0.9118800E+02  0.7818608E-02  0.1130116E+00
         25   -1    0    0    0    0  0.00000000000E+00  0.00000000000E+00  0.99999998245E-14  0.12500000000E+03  0.12500000000E+03 0.  0.
        -11    1    3    3    0    0  0.10408108451E+02  0.50435732566E+02  0.31830716509E+02  0.60541608458E+02  0.51100000000E-03 0.  1.
         23    2    1    0    0    0 -0.33854347430E+01  0.28348396258E+02  0.93076381869E+01  0.94971265970E+02  0.90098926146E+02 0.  0.
         11    1    3    3    0    0 -0.13793543194E+02 -0.22087336308E+02 -0.22523078323E+02  0.34429657512E+02  0.51100000000E-03 0. -1.
         22    1    1    0    0    0  0.33854347430E+01 -0.28348396258E+02 -0.93076381869E+01  0.30028734030E+02  0.00000000000E+00 0.  1.
</event>
<event>
 5    1  0.1691138E-003  0.9118800E+02  0.7818608E-02  0.1130116E+00
         25   -1    0    0    0    0  0.00000000000E+00  0.00000000000E+00  0.99999998245E-14  0.12500000000E+03  0.12500000000E+03 0.  0.
        -11    1    3    3    0    0  0.27168857384E+02  0.28750387659E+02 -0.22331996798E+02  0.45425209778E+02  0.51100000000E-03 0.  1.
         23    2    1    0    0    0 -0.13828657296E+02  0.24248282790E+02  0.72241172146E+01  0.96166012235E+02  0.91741501289E+02 0.  0.
         11    1    3    3    0    0 -0.40997514681E+02 -0.45021048683E+01  0.29556114012E+02  0.50740802457E+02  0.51100000000E-03 0. -1.
         22    1    1    0    0    0  0.13828657296E+02 -0.24248282790E+02 -0.72241172146E+01  0.28833987765E+02  0.00000000000E+00 0.  1.
</event>
<event>
 5    1  0.1691138E-003  0.9118800E+02  0.7818608E-02  0.1130116E+00
         25   -1    0    0    0    0  0.00000000000E+00  0.00000000000E+00  0.99999998245E-14  0.12500000000E+03  0.12500000000E+03 0.  0.
        -11    1    3    3    0    0  0.13122612624E+02  0.25152659941E+02  0.33599269095E+02  0.43974653474E+02  0.51100000000E-03 0. -1.
         23    2    1    0    0    0 -0.10975545743E+01 -0.21688858169E+02  0.21587459618E+02  0.94379261807E+02  0.89273822880E+02 0.  0.
         11    1    3    3    0    0 -0.14220167198E+02 -0.46841518110E+02 -0.12011809477E+02  0.50404608333E+02  0.51100000000E-03 0.  1.
         22    1    1    0    0    0  0.10975545743E+01  0.21688858169E+02 -0.21587459618E+02  0.30620738193E+02  0.00000000000E+00 0.  1.
</event>
<event>
 5    1  0.1691138E-003  0.9118800E+02  0.7818608E-02  0.1130116E+00
         25   -1    0    0    0    0  0.00000000000E+00  0.00000000000E+00  0.99999998245E-14  0.12500000000E+03  0.12500000000E+03 0.  0.
        -11    1    3    3    0    0  0.15027130909E+01  0.49731647514E+02 -0.14079564871E+02  0.51708114047E+02  0.51100000000E-03 0.  1.
         23    2    1    0    0    0  0.42884573321E+01  0.93477312787E+01 -0.28516679908E+02  0.94685449379E+02  0.89701518074E+02 0.  0.
         11    1    3    3    0    0  0.27857442413E+01 -0.40383916235E+02 -0.14437115037E+02  0.42977335333E+02  0.51100000000E-03 0. -1.
         22    1    1    0    0    0 -0.42884573321E+01 -0.93477312787E+01  0.28516679908E+02  0.30314550621E+02  0.00000000000E+00 0. -1.
</event>
<event>
 5    1  0.1691138E-003  0.9118800E+02  0.7818608E-02  0.1130116E+00
         25   -1    0    0    0    0  0.00000000000E+00  0.00000000000E+00  0.99999998245E-14  0.12500000000E+03  0.12500000000E+03 0.  0.
        -11    1    3    3    0    0 -0.10345738512E+02  0.28913899030E+02  0.46705002636E+02  0.55896378541E+02  0.51100000000E-03 0. -1.
         23    2    1    0    0    0  0.13098795832E+02  0.45510105168E+01  0.25971490774E+02  0.95558388597E+02  0.90909829772E+02 0.  0.
         11    1    3    3    0    0  0.23444534344E+02 -0.24362888513E+02 -0.20733511862E+02  0.39662010056E+02  0.51100000000E-03 0.  1.
         22    1    1    0    0    0 -0.13098795832E+02 -0.45510105168E+01 -0.25971490774E+02  0.29441611403E+02  0.00000000000E+00 0. -1.
</event>
<event>
 5    1  0.1691138E-003  0.9118800E+02  0.7818608E-02  0.1130116E+00
         25   -1    0    0    0    0  0.00000000000E+00  0.00000000000E+00  0.99999998245E-14  0.12500000000E+03  0.12500000000E+03 0.  0.
        -11    1    3    3    0    0  0.14501042315E+02 -0.24888037566E+02  0.30394594193E+02  0.41875123863E+02  0.51100000000E-03 0. -1.
         23    2    1    0    0    0  0.23766334686E+02 -0.29684427440E+02 -0.11677079274E+02  0.85221135295E+02  0.75367657678E+02 0.  0.
         11    1    3    3    0    0  0.92652923707E+01 -0.47963898735E+01 -0.42071673467E+02  0.43346011433E+02  0.51100000000E-03 0.  1.
         22    1    1    0    0    0 -0.23766334686E+02  0.29684427440E+02  0.11677079274E+02  0.39778864705E+02  0.00000000000E+00 0. -1.
</event>
<event>
 5    1  0.1691138E-003  0.9118800E+02  0.7818608E-02  0.1130116E+00
         25   -1    0    0    0    0  0.00000000000E+00  0.00000000000E+00  0.99999998245E-14  0.12500000000E+03  0.12500000000E+03 0.  0.
        -11    1    3    3    0    0 -0.49373488338E+01 -0.38062217386E+02 -0.24239383243E+02  0.45394465589E+02  0.51100000000E-03 0. -1.
         23    2    1    0    0    0 -0.27557446062E+02  0.42025212184E+01 -0.96007571152E+01  0.95516978526E+02  0.90852873546E+02 0.  0.
         11    1    3    3    0    0 -0.22620097228E+02  0.42264738605E+02  0.14638626127E+02  0.50122512937E+02  0.51100000000E-03 0.  1.
         22    1    1    0    0    0  0.27557446062E+02 -0.42025212184E+01  0.96007571152E+01  0.29483021474E+02  0.00000000000E+00 0. -1.
</event>
<event>
 5    1  0.1691138E-003  0.9118800E+02  0.7818608E-02  0.1130116E+00
         25   -1    0    0    0    0  0.00000000000E+00  0.00000000000E+00  0.99999998245E-14  0.12500000000E+03  0.12500000000E+03 0.  0.
        -11    1    3    3    0    0 -0.95571032047E+01  0.30080401688E+02  0.20455222797E+02  0.37610968179E+02  0.51100000000E-03 0.  1.
         23    2    1    0    0    0  0.22447280188E+02  0.29611875827E+01 -0.19182534528E+02  0.95324780529E+02  0.90588051819E+02 0.  0.
         11    1    3    3    0    0  0.32004383393E+02 -0.27119214106E+02 -0.39637757325E+02  0.57713812351E+02  0.51100000000E-03 0. -1.
         22    1    1    0    0    0 -0.22447280188E+02 -0.29611875827E+01  0.19182534528E+02  0.29675219471E+02  0.00000000000E+00 0. -1.
</event>
<event>
 5    1  0.1691138E-003  0.9118800E+02  0.7818608E-02  0.1130116E+00
         25   -1    0    0    0    0  0.00000000000E+00  0.00000000000E+00  0.99999998245E-14  0.12500000000E+03  0.12500000000E+03 0.  0.
        -11    1    3    3    0    0  0.15000165976E+02 -0.27607038848E+02  0.22694788802E+02  0.38758315396E+02  0.51100000000E-03 0.  1.
         23    2    1    0    0    0  0.67150107779E+01  0.27073249614E+02  0.80091245452E+01  0.95979347175E+02  0.91486812130E+02 0.  0.
         11    1    3    3    0    0 -0.82851551983E+01  0.54680288462E+02 -0.14685664257E+02  0.57221031779E+02  0.51100000000E-03 0. -1.
         22    1    1    0    0    0 -0.67150107779E+01 -0.27073249614E+02 -0.80091245452E+01  0.29020652825E+02  0.00000000000E+00 0. -1.
</event>
<event>
 5    1  0.1691138E-003  0.9118800E+02  0.7818608E-02  0.1130116E+00
         25   -1    0    0    0    0  0.00000000000E+00  0.00000000000E+00  0.99999998245E-14  0.12500000000E+03  0.12500000000E+03 0.  0.
        -11    1    3    3    0    0 -0.40230148299E+02 -0.69042212941E+01 -0.10996603664E+02  0.42273613475E+02  0.51100000000E-03 0. -1.
         23    2    1    0    0    0  0.61064712847E+01 -0.28816459027E+02 -0.11075775387E+02  0.93530171547E+02  0.88076914608E+02 0.  0.
         11    1    3    3    0    0  0.46336619584E+02 -0.21912237733E+02 -0.79171722435E-01  0.51256558072E+02  0.51100000000E-03 0.  1.
         22    1    1    0    0    0 -0.61064712847E+01  0.28816459027E+02  0.11075775387E+02  0.31469828453E+02  0.00000000000E+00 0.  1.
</event>
<event>
 5    1  0.1691138E-003  0.9118800E+02  0.7818608E-02  0.1130116E+00
         25   -1    0    0    0    0  0.00000000000E+00  0.00000000000E+00  0.99999998245E-14  0.12500000000E+03  0.12500000000E+03 0.  0.
        -11    1    3    3    0    0  0.53830085775E+02  0.15716671886E+02  0.30083232294E+00  0.56078359552E+02  0.51100000000E-03 0. -1.
         23    2    1    0    0    0  0.21932857158E+02  0.44308185630E+01  0.19792822173E+02  0.95126296081E+02  0.90313753218E+02 0.  0.
         11    1    3    3    0    0 -0.31897228617E+02 -0.11285853323E+02  0.19491989850E+02  0.39047936530E+02  0.51100000000E-03 0.  1.
         22    1    1    0    0    0 -0.21932857158E+02 -0.44308185630E+01 -0.19792822173E+02  0.29873703919E+02  0.00000000000E+00 0. -1.
</event>
<event>
 5    1  0.1691138E-003  0.9118800E+02  0.7818608E-02  0.1130116E+00
         25   -1    0    0    0    0  0.00000000000E+00  0.00000000000E+00  0.99999998245E-14  0.12500000000E+03  0.12500000000E+03 0.  0.
        -11    1    3    3    0    0 -0.24801533774E+02 -0.20687959253E+02  0.13489229640E+02  0.35000957875E+02  0.51100000000E-03 0. -1.
         23    2    1    0    0    0  0.75628907121E+01  0.28836565014E+02  0.51123861516E+01  0.94752995357E+02  0.89795594765E+02 0.  0.
         11    1    3    3    0    0  0.32364424487E+02  0.49524524266E+02 -0.83768434885E+01  0.59752037482E+02  0.51100000000E-03 0.  1.
         22    1    1    0    0    0 -0.75628907121E+01 -0.28836565014E+02 -0.51123861516E+01  0.30247004643E+02  0.00000000000E+00 0.  1.
</event>
<event>
 5    1  0.1691138E-003  0.9118800E+02  0.7818608E-02  0.1130116E+00
         25   -1    0    0    0    0  0.00000000000E+00  0.00000000000E+00  0.99999998245E-14  0.12500000000E+03  0.12500000000E+03 0.  0.
        -11    1    3    3    0    0  0.42238479050E+00 -0.27272071864E+02  0.37113405176E+02  0.46058106308E+02  0.51100000000E-03 0.  1.
         23    2    1    0    0    0 -0.18626708689E+02  0.14167106907E+02  0.17850381293E+02  0.95567071042E+02  0.90921767254E+02 0.  0.
         11    1    3    3    0    0 -0.19049093480E+02  0.41439178772E+02 -0.19263023883E+02  0.49508964734E+02  0.51100000000E-03 0. -1.
         22    1    1    0    0    0  0.18626708689E+02 -0.14167106907E+02 -0.17850381293E+02  0.29432928958E+02  0.00000000000E+00 0. -1.
</event>
<event>
 5    1  0.1691138E-003  0.9118800E+02  0.7818608E-02  0.1130116E+00
         25   -1    0    0    0    0  0.00000000000E+00  0.00000000000E+00  0.99999998245E-14  0.12500000000E+03  0.12500000000E+03 0.  0.
        -11    1    3    3    0    0 -0.27133362316E+02  0.15609302244E+02  0.93276024376E+01  0.32663034682E+02  0.51100000000E-03 0.  1.
         23    2    1    0    0    0  0.26928512213E+02 -0.79447810725E+01 -0.10718876623E+02  0.94947402236E+02  0.90065812376E+02 0.  0.
         11    1    3    3    0    0  0.54061874530E+02 -0.23554083317E+02 -0.20046479061E+02  0.62284367554E+02  0.51100000000E-03 0. -1.
         22    1    1    0    0    0 -0.26928512213E+02  0.79447810725E+01  0.10718876623E+02  0.30052597764E+02  0.00000000000E+00 0. -1.
</event>
<event>
 5    1  0.1691138E-003  0.9118800E+02  0.7818608E-02  0.1130116E+00
         25   -1    0    0    0    0  0.00000000000E+00  0.00000000000E+00  0.99999998245E-14  0.12500000000E+03  0.12500000000E+03 0.  0.
        -11    1    3    3    0    0  0.77927420229E+01 -0.36084638349E+02  0.20027352323E+02  0.41999080875E+02  0.51100000000E-03 0.  1.
         23    2    1    0    0    0 -0.23065504108E+02  0.67058571040E+01 -0.51156818608E+01  0.10044076141E+03  0.97391941927E+02 0.  0.
         11    1    3    3    0    0 -0.30858246131E+02  0.42790495453E+02 -0.25143034183E+02  0.58441680534E+02  0.51100000000E-03 0. -1.
         22    1    1    0    0    0  0.23065504108E+02 -0.67058571040E+01  0.51156818608E+01  0.24559238591E+02  0.00000000000E+00 0. -1.
</event>
<event>
 5    1  0.1691138E-003  0.9118800E+02  0.7818608E-02  0.1130116E+00
         25   -1    0    0    0    0  0.00000000000E+00  0.00000000000E+00  0.99999998245E-14  0.12500000000E+03  0.12500000000E+03 0.  0.
        -11    1    3    3    0    0  0.36754245123E+01 -0.29382779141E+02 -0.12112981878E+02  0.31993449105E+02  0.51100000000E-03 0.  1.
         23    2    1    0    0    0  0.89274104653E+01  0.16767001996E+02  0.26500049079E+02  0.92395036961E+02  0.86450906532E+02 0.  0.
         11    1    3    3    0    0  0.52519859529E+01  0.46149781138E+02  0.38613030957E+02  0.60401587856E+02  0.51100000000E-03 0. -1.
         22    1    1    0    0    0 -0.89274104653E+01 -0.16767001996E+02 -0.26500049079E+02  0.32604963039E+02  0.00000000000E+00 0. -1.
</event>
<event>
 5    1  0.1691138E-003  0.9118800E+02  0.7818608E-02  0.1130116E+00
         25   -1    0    0    0    0  0.00000000000E+00  0.00000000000E+00  0.99999998245E-14  0.12500000000E+03  0.12500000000E+03 0.  0.
        -11    1    3    3    0    0  0.46448088379E+01 -0.38212953011E+02  0.17737389232E+01  0.38535051278E+02  0.51100000000E-03 0. -1.
         23    2    1    0    0    0  0.10387499935E+02  0.12734437042E+02 -0.23995238424E+02  0.95916714273E+02  0.91401195661E+02 0.  0.
         11    1    3    3    0    0  0.57426910973E+01  0.50947390053E+02 -0.25768977347E+02  0.57381662995E+02  0.51100000000E-03 0.  1.
         22    1    1    0    0    0 -0.10387499935E+02 -0.12734437042E+02  0.23995238424E+02  0.29083285727E+02  0.00000000000E+00 0.  1.
</event>
<event>
 5    1  0.1691138E-003  0.9118800E+02  0.7818608E-02  0.1130116E+00
         25   -1    0    0    0    0  0.00000000000E+00  0.00000000000E+00  0.99999998245E-14  0.12500000000E+03  0.12500000000E+03 0.  0.
        -11    1    3    3    0    0 -0.78892187511E+01  0.11148267732E+02  0.35053356068E+02  0.37619960364E+02  0.51100000000E-03 0. -1.
         23    2    1    0    0    0 -0.16130390850E+02 -0.22649632222E+02 -0.10794371800E+02  0.95171929138E+02  0.90376890213E+02 0.  0.
         11    1    3    3    0    0 -0.82411720991E+01 -0.33797899954E+02 -0.45847727868E+02  0.57551968774E+02  0.51100000000E-03 0.  1.
         22    1    1    0    0    0  0.16130390850E+02  0.22649632222E+02  0.10794371800E+02  0.29828070862E+02  0.00000000000E+00 0.  1.
</event>
<event>
 5    1  0.1691138E-003  0.9118800E+02  0.7818608E-02  0.1130116E+00
         25   -1    0    0    0    0  0.00000000000E+00  0.00000000000E+00  0.99999998245E-14  0.12500000000E+03  0.12500000000E+03 0.  0.
        -11    1    3    3    0    0  0.59619931452E+02 -0.50439237403E+01 -0.17094747250E+02  0.62227066272E+02  0.51100000000E-03 0.  1.
         23    2    1    0    0    0  0.25939373750E+02 -0.44184362976E+01 -0.11094817610E+02  0.96443587977E+02  0.92118928534E+02 0.  0.
         11    1    3    3    0    0 -0.33680557702E+02  0.62548744279E+00  0.59999296401E+01  0.34216521705E+02  0.51100000000E-03 0. -1.
         22    1    1    0    0    0 -0.25939373750E+02  0.44184362976E+01  0.11094817610E+02  0.28556412023E+02  0.00000000000E+00 0.  1.
</event>
<event>
 5    1  0.1691138E-003  0.9118800E+02  0.7818608E-02  0.1130116E+00
         25   -1    0    0    0    0  0.00000000000E+00  0.00000000000E+00  0.99999998245E-14  0.12500000000E+03  0.12500000000E+03 0.  0.
        -11    1    3    3    0    0  0.21468777778E+02 -0.19792276555E+02 -0.26303820770E+02  0.39300554931E+02  0.51100000000E-03 0.  1.
         23    2    1    0    0    0 -0.56893083832E+01 -0.15323782289E+02  0.23600567509E+02  0.96291581021E+02  0.91912432539E+02 0.  0.
         11    1    3    3    0    0 -0.27158086161E+02  0.44684942660E+01  0.49904388279E+02  0.56991026090E+02  0.51100000000E-03 0. -1.
         22    1    1    0    0    0  0.56893083832E+01  0.15323782289E+02 -0.23600567509E+02  0.28708418979E+02  0.00000000000E+00 0. -1.
</event>
<event>
 5    1  0.1691138E-003  0.9118800E+02  0.7818608E-02  0.1130116E+00
         25   -1    0    0    0    0  0.00000000000E+00  0.00000000000E+00  0.99999998245E-14  0.12500000000E+03  0.12500000000E+03 0.  0.
        -11    1    3    3    0    0 -0.14070892968E+02  0.24009056336E+02 -0.19103039007E+02  0.33754272539E+02  0.51100000000E-03 0. -1.
         23    2    1    0    0    0  0.23250179141E+01 -0.29283911086E+02  0.61866393292E+01  0.94979545923E+02  0.90110412721E+02 0.  0.
         11    1    3    3    0    0  0.16395910882E+02 -0.53292967422E+02  0.25289678336E+02  0.61225273384E+02  0.51100000000E-03 0.  1.
         22    1    1    0    0    0 -0.23250179141E+01  0.29283911086E+02 -0.61866393292E+01  0.30020454077E+02  0.00000000000E+00 0.  1.
</event>
<event>
 5    1  0.1691138E-003  0.9118800E+02  0.7818608E-02  0.1130116E+00
         25   -1    0    0    0    0  0.00000000000E+00  0.00000000000E+00  0.99999998245E-14  0.12500000000E+03  0.12500000000E+03 0.  0.
        -11    1    3    3    0    0  0.17553129069E+01  0.30439909412E+02  0.17205139908E+02  0.35009799313E+02  0.51100000000E-03 0.  1.
         23    2    1    0    0    0 -0.10279838786E+02 -0.25966376465E+02 -0.46512636504E+01  0.96688128890E+02  0.92450160749E+02 0.  0.
         11    1    3    3    0    0 -0.12035151693E+02 -0.56406285877E+02 -0.21856403559E+02  0.61678329577E+02  0.51100000000E-03 0. -1.
         22    1    1    0    0    0  0.10279838786E+02  0.25966376465E+02  0.46512636504E+01  0.28311871110E+02  0.00000000000E+00 0. -1.
</event>
<event>
 5    1  0.1691138E-003  0.9118800E+02  0.7818608E-02  0.1130116E+00
         25   -1    0    0    0    0  0.00000000000E+00  0.00000000000E+00  0.99999998245E-14  0.12500000000E+03  0.12500000000E+03 0.  0.
        -11    1    3    3    0    0  0.40214182208E+02  0.29778778297E+02 -0.62409844186E+01  0.50427234450E+02  0.51100000000E-03 0. -1.
         23    2    1    0    0    0 -0.10427583547E+02  0.19604157406E+02  0.18806992686E+01  0.10271559927E+03  0.10026913691E+03 0.  0.
         11    1    3    3    0    0 -0.50641765756E+02 -0.10174620891E+02  0.81216836872E+01  0.52288364818E+02  0.51100000000E-03 0.  1.
         22    1    1    0    0    0  0.10427583547E+02 -0.19604157406E+02 -0.18806992686E+01  0.22284400732E+02  0.00000000000E+00 0.  1.
</event>
<event>
 5    1  0.1691138E-003  0.9118800E+02  0.7818608E-02  0.1130116E+00
         25   -1    0    0    0    0  0.00000000000E+00  0.00000000000E+00  0.99999998245E-14  0.12500000000E+03  0.12500000000E+03 0.  0.
        -11    1    3    3    0    0 -0.36212205188E+02  0.50652170631E+00  0.10074262962E+02  0.37590838555E+02  0.51100000000E-03 0.  1.
         23    2    1    0    0    0  0.19867793109E+02 -0.10390500627E+02  0.19246541699E+02  0.95451377804E+02  0.90762571862E+02 0.  0.
         11    1    3    3    0    0  0.56079998296E+02 -0.10897022334E+02  0.91722787376E+01  0.57860539249E+02  0.51100000000E-03 0. -1.
         22    1    1    0    0    0 -0.19867793109E+02  0.10390500627E+02 -0.19246541699E+02  0.29548622196E+02  0.00000000000E+00 0. -1.
</event>
<event>
 5    1  0.1691138E-003  0.9118800E+02  0.7818608E-02  0.1130116E+00
         25   -1    0    0    0    0  0.00000000000E+00  0.00000000000E+00  0.99999998245E-14  0.12500000000E+03  0.12500000000E+03 0.  0.
        -11    1    3    3    0    0 -0.23202253321E+02  0.12733014442E+02 -0.44658943158E+02  0.51912382147E+02  0.51100000000E-03 0. -1.
         23    2    1    0    0    0 -0.29822026911E+02  0.35458513861E+01 -0.33073893695E+01  0.94786341242E+02  0.89842001928E+02 0.  0.
         11    1    3    3    0    0 -0.66197735901E+01 -0.91871630558E+01  0.41351553789E+02  0.42873959094E+02  0.51100000000E-03 0.  1.
         22    1    1    0    0    0  0.29822026911E+02 -0.35458513861E+01  0.33073893695E+01  0.30213658758E+02  0.00000000000E+00 0.  1.
</event>
<event>
 5    1  0.1691138E-003  0.9118800E+02  0.7818608E-02  0.1130116E+00
         25   -1    0    0    0    0  0.00000000000E+00  0.00000000000E+00  0.99999998245E-14  0.12500000000E+03  0.12500000000E+03 0.  0.
        -11    1    3    3    0    0  0.27130601577E+02  0.19583511557E+02  0.11125620415E+02  0.35261351318E+02  0.51100000000E-03 0. -1.
         23    2    1    0    0    0 -0.14001696438E+02  0.12550704658E+02 -0.27208996749E+02  0.91925883313E+02  0.85769871331E+02 0.  0.
         11    1    3    3    0    0 -0.41132298015E+02 -0.70328068991E+01 -0.38334617163E+02  0.56664531995E+02  0.51100000000E-03 0.  1.
         22    1    1    0    0    0  0.14001696438E+02 -0.12550704658E+02  0.27208996749E+02  0.33074116687E+02  0.00000000000E+00 0.  1.
</event>
<event>
 5    1  0.1691138E-003  0.9118800E+02  0.7818608E-02  0.1130116E+00
         25   -1    0    0    0    0  0.00000000000E+00  0.00000000000E+00  0.99999998245E-14  0.12500000000E+03  0.12500000000E+03 0.  0.
        -11    1    3    3    0    0  0.96097223853E+01 -0.33086984095E+02  0.41210777477E+00  0.34456713626E+02  0.51100000000E-03 0. -1.
         23    2    1    0    0    0 -0.27477116360E+02  0.54225383151E+01 -0.18800200728E+02  0.91268065684E+02  0.84805757005E+02 0.  0.
         11    1    3    3    0    0 -0.37086838745E+02  0.38509522410E+02 -0.19212308503E+02  0.56811352058E+02  0.51100000000E-03 0.  1.
         22    1    1    0    0    0  0.27477116360E+02 -0.54225383151E+01  0.18800200728E+02  0.33731934316E+02  0.00000000000E+00 0.  1.
</event>
<event>
 5    1  0.1691138E-003  0.9118800E+02  0.7818608E-02  0.1130116E+00
         25   -1    0    0    0    0  0.00000000000E+00  0.00000000000E+00  0.99999998245E-14  0.12500000000E+03  0.12500000000E+03 0.  0.
        -11    1    3    3    0    0  0.40204759217E+01  0.46374040413E+02 -0.18140986089E+02  0.49958094714E+02  0.51100000000E-03 0. -1.
         23    2    1    0    0    0  0.19085645436E+02  0.36766719082E+01 -0.22291142561E+02  0.95425098230E+02  0.90726371896E+02 0.  0.
         11    1    3    3    0    0  0.15065169514E+02 -0.42697368505E+02 -0.41501564720E+01  0.45467003516E+02  0.51100000000E-03 0.  1.
         22    1    1    0    0    0 -0.19085645436E+02 -0.36766719082E+01  0.22291142561E+02  0.29574901770E+02  0.00000000000E+00 0.  1.
</event>
<event>
 5    1  0.1691138E-003  0.9118800E+02  0.7818608E-02  0.1130116E+00
         25   -1    0    0    0    0  0.00000000000E+00  0.00000000000E+00  0.99999998245E-14  0.12500000000E+03  0.12500000000E+03 0.  0.
        -11    1    3    3    0    0 -0.55143354024E+02 -0.30768604506E+01 -0.24055823127E+01  0.55281492290E+02  0.51100000000E-03 0. -1.
         23    2    1    0    0    0 -0.24348777198E+02 -0.10355623537E+02 -0.20315049048E+02  0.91641296372E+02  0.85354109995E+02 0.  0.
         11    1    3    3    0    0  0.30794576826E+02 -0.72787630859E+01 -0.17909466735E+02  0.36359804083E+02  0.51100000000E-03 0.  1.
         22    1    1    0    0    0  0.24348777198E+02  0.10355623537E+02  0.20315049048E+02  0.33358703628E+02  0.00000000000E+00 0. -1.
</event>
<event>
 5    1  0.1691138E-003  0.9118800E+02  0.7818608E-02  0.1130116E+00
         25   -1    0    0    0    0  0.00000000000E+00  0.00000000000E+00  0.99999998245E-14  0.12500000000E+03  0.12500000000E+03 0.  0.
        -11    1    3    3    0    0 -0.20051956541E+01 -0.95880574718E+01  0.37443779016E+02  0.38703853077E+02  0.51100000000E-03 0. -1.
         23    2    1    0    0    0 -0.15357257345E+02  0.15371365542E+02 -0.15205174061E+02  0.98479789782E+02  0.94841696766E+02 0.  0.
         11    1    3    3    0    0 -0.13352061691E+02  0.24959423013E+02 -0.52648953078E+02  0.59775936705E+02  0.51100000000E-03 0.  1.
         22    1    1    0    0    0  0.15357257345E+02 -0.15371365542E+02  0.15205174061E+02  0.26520210218E+02  0.00000000000E+00 0.  1.
</event>
<event>
 5    1  0.1691138E-003  0.9118800E+02  0.7818608E-02  0.1130116E+00
         25   -1    0    0    0    0  0.00000000000E+00  0.00000000000E+00  0.99999998245E-14  0.12500000000E+03  0.12500000000E+03 0.  0.
        -11    1    3    3    0    0 -0.43346912126E+02  0.22955321684E+02  0.32639131018E+02  0.58917013319E+02  0.51100000000E-03 0.  1.
         23    2    1    0    0    0 -0.96833848509E+01  0.88403488734E+01  0.25806011184E+02  0.96054017142E+02  0.91588778164E+02 0.  0.
         11    1    3    3    0    0  0.33663527275E+02 -0.14114972811E+02 -0.68331198343E+01  0.37137003824E+02  0.51100000000E-03 0. -1.
         22    1    1    0    0    0  0.96833848509E+01 -0.88403488734E+01 -0.25806011184E+02  0.28945982858E+02  0.00000000000E+00 0.  1.
</event>
<event>
 5    1  0.1691138E-003  0.9118800E+02  0.7818608E-02  0.1130116E+00
         25   -1    0    0    0    0  0.00000000000E+00  0.00000000000E+00  0.99999998245E-14  0.12500000000E+03  0.12500000000E+03 0.  0.
        -11    1    3    3    0    0  0.11818106047E+02  0.74687123535E+01 -0.27101964034E+02  0.30495339800E+02  0.51100000000E-03 0.  1.
         23    2    1    0    0    0 -0.18324691888E+02 -0.20423300207E+02  0.18533038030E+02  0.91888385380E+02  0.85715204865E+02 0.  0.
         11    1    3    3    0    0 -0.30142797935E+02 -0.27892012560E+02  0.45635002064E+02  0.61393045580E+02  0.51100000000E-03 0. -1.
         22    1    1    0    0    0  0.18324691888E+02  0.20423300207E+02 -0.18533038030E+02  0.33111614620E+02  0.00000000000E+00 0. -1.
</event>
<event>
 5    1  0.1691138E-003  0.9118800E+02  0.7818608E-02  0.1130116E+00
         25   -1    0    0    0    0  0.00000000000E+00  0.00000000000E+00  0.99999998245E-14  0.12500000000E+03  0.12500000000E+03 0.  0.
        -11    1    3    3    0    0  0.31025002626E+01 -0.41676365037E+02 -0.58805211627E+01  0.42203381854E+02  0.51100000000E-03 0. -1.
         23    2    1    0    0    0 -0.27819619696E+02  0.15189906366E+01  0.56714287984E+01  0.96567559422E+02  0.92286997218E+02 0.  0.
         11    1    3    3    0    0 -0.30922119959E+02  0.43195355673E+02  0.11551949961E+02  0.54364177568E+02  0.51100000000E-03 0.  1.
         22    1    1    0    0    0  0.27819619696E+02 -0.15189906366E+01 -0.56714287984E+01  0.28432440578E+02  0.00000000000E+00 0.  1.
</event>
<event>
 5    1  0.1691138E-003  0.9118800E+02  0.7818608E-02  0.1130116E+00
         25   -1    0    0    0    0  0.00000000000E+00  0.00000000000E+00  0.99999998245E-14  0.12500000000E+03  0.12500000000E+03 0.  0.
        -11    1    3    3    0    0 -0.88882119222E+00 -0.26924411789E+02  0.38283043547E+02  0.46811380847E+02  0.51100000000E-03 0.  1.
         23    2    1    0    0    0 -0.27741373565E+02 -0.91258560540E+01  0.14287582296E+01  0.95761217432E+02  0.91188290685E+02 0.  0.
         11    1    3    3    0    0 -0.26852552373E+02  0.17798555735E+02 -0.36854285317E+02  0.48949836585E+02  0.51100000000E-03 0. -1.
         22    1    1    0    0    0  0.27741373565E+02  0.91258560540E+01 -0.14287582296E+01  0.29238782568E+02  0.00000000000E+00 0.  1.
</event>
<event>
 5    1  0.1691138E-003  0.9118800E+02  0.7818608E-02  0.1130116E+00
         25   -1    0    0    0    0  0.00000000000E+00  0.00000000000E+00  0.99999998245E-14  0.12500000000E+03  0.12500000000E+03 0.  0.
        -11    1    3    3    0    0 -0.51992670890E+02  0.23692531340E+00 -0.12786376060E+02  0.53542369885E+02  0.51100000000E-03 0.  1.
         23    2    1    0    0    0 -0.16332959973E+02  0.22732074967E+02 -0.73989753387E+01  0.96047320507E+02  0.91579638167E+02 0.  0.
         11    1    3    3    0    0  0.35659710917E+02  0.22495149653E+02  0.53874007208E+01  0.42504950622E+02  0.51100000000E-03 0. -1.
         22    1    1    0    0    0  0.16332959973E+02 -0.22732074967E+02  0.73989753387E+01  0.28952679493E+02  0.00000000000E+00 0.  1.
</event>
<event>
 5    1  0.1691138E-003  0.9118800E+02  0.7818608E-02  0.1130116E+00
         25   -1    0    0    0    0  0.00000000000E+00  0.00000000000E+00  0.99999998245E-14  0.12500000000E+03  0.12500000000E+03 0.  0.
        -11    1    3    3    0    0 -0.11645596505E+01  0.51256918833E+02 -0.25035959330E+02  0.57056350981E+02  0.51100000000E-03 0. -1.
         23    2    1    0    0    0  0.12545723617E+02  0.16523569192E+02 -0.22366316276E+02  0.94493023361E+02  0.89432968419E+02 0.  0.
         11    1    3    3    0    0  0.13710283268E+02 -0.34733349641E+02  0.26696430547E+01  0.37436672380E+02  0.51100000000E-03 0.  1.
         22    1    1    0    0    0 -0.12545723617E+02 -0.16523569192E+02  0.22366316276E+02  0.30506976639E+02  0.00000000000E+00 0. -1.
</event>
<event>
 5    1  0.1691138E-003  0.9118800E+02  0.7818608E-02  0.1130116E+00
         25   -1    0    0    0    0  0.00000000000E+00  0.00000000000E+00  0.99999998245E-14  0.12500000000E+03  0.12500000000E+03 0.  0.
        -11    1    3    3    0    0  0.34817737548E+01  0.30102485589E+02  0.24161807862E+02  0.38756616810E+02  0.51100000000E-03 0.  1.
         23    2    1    0    0    0  0.21074309032E+02 -0.92166185972E+01 -0.15461888697E+02  0.97284615074E+02  0.93253170286E+02 0.  0.
         11    1    3    3    0    0  0.17592535277E+02 -0.39319104187E+02 -0.39623696559E+02  0.58527998264E+02  0.51100000000E-03 0. -1.
         22    1    1    0    0    0 -0.21074309032E+02  0.92166185972E+01  0.15461888697E+02  0.27715384926E+02  0.00000000000E+00 0. -1.
</event>
<event>
 5    1  0.1691138E-003  0.9118800E+02  0.7818608E-02  0.1130116E+00
         25   -1    0    0    0    0  0.00000000000E+00  0.00000000000E+00  0.99999998245E-14  0.12500000000E+03  0.12500000000E+03 0.  0.
        -11    1    3    3    0    0 -0.47210663961E+02 -0.12794000689E+02 -0.27025442468E+02  0.55882982974E+02  0.51100000000E-03 0.  1.
         23    2    1    0    0    0 -0.17774954426E+02  0.13267892614E+02 -0.18511538004E+02  0.96109464897E+02  0.91664421802E+02 0.  0.
         11    1    3    3    0    0  0.29435709535E+02  0.26061893303E+02  0.85139044637E+01  0.40226481923E+02  0.51100000000E-03 0. -1.
         22    1    1    0    0    0  0.17774954426E+02 -0.13267892614E+02  0.18511538004E+02  0.28890535103E+02  0.00000000000E+00 0.  1.
</event>
<event>
 5    1  0.1691138E-003  0.9118800E+02  0.7818608E-02  0.1130116E+00
         25   -1    0    0    0    0  0.00000000000E+00  0.00000000000E+00  0.99999998245E-14  0.12500000000E+03  0.12500000000E+03 0.  0.
        -11    1    3    3    0    0 -0.23014096961E+02 -0.31138991752E+02 -0.48204670662E+02  0.61830217048E+02  0.51100000000E-03 0.  1.
         23    2    1    0    0    0 -0.81957362045E+01 -0.20012317565E+02 -0.20219659259E+02  0.95394298407E+02  0.90683926921E+02 0.  0.
         11    1    3    3    0    0  0.14818360757E+02  0.11126674187E+02  0.27985011403E+02  0.33564081359E+02  0.51100000000E-03 0. -1.
         22    1    1    0    0    0  0.81957362045E+01  0.20012317565E+02  0.20219659259E+02  0.29605701593E+02  0.00000000000E+00 0.  1.
</event>
<event>
 5    1  0.1691138E-003  0.9118800E+02  0.7818608E-02  0.1130116E+00
         25   -1    0    0    0    0  0.00000000000E+00  0.00000000000E+00  0.99999998245E-14  0.12500000000E+03  0.12500000000E+03 0.  0.
        -11    1    3    3    0    0  0.33240991689E+02  0.76083046876E+01 -0.41907326841E+02  0.54028454280E+02  0.51100000000E-03 0. -1.
         23    2    1    0    0    0  0.29742986222E+02  0.64395412576E+01 -0.15769993841E+01  0.94527063679E+02  0.89480533747E+02 0.  0.
         11    1    3    3    0    0 -0.34980054677E+01 -0.11687634300E+01  0.40330327457E+02  0.40498609399E+02  0.51100000000E-03 0.  1.
         22    1    1    0    0    0 -0.29742986222E+02 -0.64395412576E+01  0.15769993841E+01  0.30472936321E+02  0.00000000000E+00 0. -1.
</event>
<event>
 5    1  0.1691138E-003  0.9118800E+02  0.7818608E-02  0.1130116E+00
         25   -1    0    0    0    0  0.00000000000E+00  0.00000000000E+00  0.99999998245E-14  0.12500000000E+03  0.12500000000E+03 0.  0.
        -11    1    3    3    0    0  0.26426286014E+02 -0.50463572511E+02  0.11853555424E+02  0.58184426778E+02  0.51100000000E-03 0.  1.
         23    2    1    0    0    0 -0.28883404149E+01 -0.27300054474E+02 -0.52263809325E+00  0.97542603269E+02  0.93598348368E+02 0.  0.
         11    1    3    3    0    0 -0.29314626429E+02  0.23163518036E+02 -0.12376193517E+02  0.39358176491E+02  0.51100000000E-03 0. -1.
         22    1    1    0    0    0  0.28883404149E+01  0.27300054474E+02  0.52263809325E+00  0.27457396731E+02  0.00000000000E+00 0.  1.
</event>
<event>
 5    1  0.1691138E-003  0.9118800E+02  0.7818608E-02  0.1130116E+00
         25   -1    0    0    0    0  0.00000000000E+00  0.00000000000E+00  0.99999998245E-14  0.12500000000E+03  0.12500000000E+03 0.  0.
        -11    1    3    3    0    0  0.43366410454E+01 -0.44090232231E+01  0.33893061418E+02  0.34452656703E+02  0.51100000000E-03 0.  1.
         23    2    1    0    0    0  0.48872097576E+01 -0.65151425534E+01 -0.27722112331E+02  0.96106273799E+02  0.91660070094E+02 0.  0.
         11    1    3    3    0    0  0.55056871221E+00 -0.21061193302E+01 -0.61615173749E+02  0.61653617096E+02  0.51100000000E-03 0. -1.
         22    1    1    0    0    0 -0.48872097576E+01  0.65151425534E+01  0.27722112331E+02  0.28893726201E+02  0.00000000000E+00 0. -1.
</event>
<event>
 5    1  0.1691138E-003  0.9118800E+02  0.7818608E-02  0.1130116E+00
         25   -1    0    0    0    0  0.00000000000E+00  0.00000000000E+00  0.99999998245E-14  0.12500000000E+03  0.12500000000E+03 0.  0.
        -11    1    3    3    0    0  0.25105090818E+02 -0.26990364354E+02  0.13686825001E+02  0.39320154270E+02  0.51100000000E-03 0.  1.
         23    2    1    0    0    0 -0.27489489026E+02 -0.77714859940E+01  0.54287562217E+01  0.95921839887E+02  0.91408205166E+02 0.  0.
         11    1    3    3    0    0 -0.52594579844E+02  0.19218878360E+02 -0.82580687793E+01  0.56601685616E+02  0.51100000000E-03 0. -1.
         22    1    1    0    0    0  0.27489489026E+02  0.77714859940E+01 -0.54287562217E+01  0.29078160113E+02  0.00000000000E+00 0. -1.
</event>
<event>
 5    1  0.1691138E-003  0.9118800E+02  0.7818608E-02  0.1130116E+00
         25   -1    0    0    0    0  0.00000000000E+00  0.00000000000E+00  0.99999998245E-14  0.12500000000E+03  0.12500000000E+03 0.  0.
        -11    1    3    3    0    0 -0.32928601333E+02 -0.38677180102E+02 -0.15888217293E+02  0.53222668999E+02  0.51100000000E-03 0. -1.
         23    2    1    0    0    0 -0.28180314134E+02 -0.22632494024E+01  0.61740206432E+01  0.96062637759E+02  0.91600542792E+02 0.  0.
         11    1    3    3    0    0  0.47482871988E+01  0.36413930700E+02  0.22062237936E+02  0.42839968760E+02  0.51100000000E-03 0.  1.
         22    1    1    0    0    0  0.28180314134E+02  0.22632494024E+01 -0.61740206432E+01  0.28937362241E+02  0.00000000000E+00 0. -1.
</event>
<event>
 5    1  0.1691138E-003  0.9118800E+02  0.7818608E-02  0.1130116E+00
         25   -1    0    0    0    0  0.00000000000E+00  0.00000000000E+00  0.99999998245E-14  0.12500000000E+03  0.12500000000E+03 0.  0.
        -11    1    3    3    0    0 -0.27984322056E+02  0.22055045952E+02  0.28440998366E+02  0.45589886172E+02  0.51100000000E-03 0.  1.
         23    2    1    0    0    0 -0.23134488879E+02  0.36762129500E+01 -0.17796342742E+02  0.95581826496E+02  0.90942050911E+02 0.  0.
         11    1    3    3    0    0  0.48498331769E+01 -0.18378833002E+02 -0.46237341108E+02  0.49991940324E+02  0.51100000000E-03 0. -1.
         22    1    1    0    0    0  0.23134488879E+02 -0.36762129500E+01  0.17796342742E+02  0.29418173504E+02  0.00000000000E+00 0.  1.
</event>
<event>
 5    1  0.1691138E-003  0.9118800E+02  0.7818608E-02  0.1130116E+00
         25   -1    0    0    0    0  0.00000000000E+00  0.00000000000E+00  0.99999998245E-14  0.12500000000E+03  0.12500000000E+03 0.  0.
        -11    1    3    3    0    0  0.36339676751E+02  0.31955255256E+02  0.22491092666E+02  0.53362530809E+02  0.51100000000E-03 0.  1.
         23    2    1    0    0    0  0.17321378336E+02  0.28588671652E+02 -0.90703028825E+01  0.90364574658E+02  0.83463427107E+02 0.  0.
         11    1    3    3    0    0 -0.19018298415E+02 -0.33665836042E+01 -0.31561395548E+02  0.37002043848E+02  0.51100000000E-03 0. -1.
         22    1    1    0    0    0 -0.17321378336E+02 -0.28588671652E+02  0.90703028825E+01  0.34635425342E+02  0.00000000000E+00 0.  1.
</event>
<event>
 5    1  0.1691138E-003  0.9118800E+02  0.7818608E-02  0.1130116E+00
         25   -1    0    0    0    0  0.00000000000E+00  0.00000000000E+00  0.99999998245E-14  0.12500000000E+03  0.12500000000E+03 0.  0.
        -11    1    3    3    0    0  0.32635157678E+01 -0.39859865736E+02 -0.10769270696E+02  0.41417829775E+02  0.51100000000E-03 0.  1.
         23    2    1    0    0    0 -0.22594316023E+02  0.11090734732E+02 -0.78731394385E+01  0.98627782838E+02  0.95036549335E+02 0.  0.
         11    1    3    3    0    0 -0.25857831791E+02  0.50950600468E+02  0.28961312579E+01  0.57209953063E+02  0.51100000000E-03 0. -1.
         22    1    1    0    0    0  0.22594316023E+02 -0.11090734732E+02  0.78731394385E+01  0.26372217162E+02  0.00000000000E+00 0. -1.
</event>
<event>
 5    1  0.1691138E-003  0.9118800E+02  0.7818608E-02  0.1130116E+00
         25   -1    0    0    0    0  0.00000000000E+00  0.00000000000E+00  0.99999998245E-14  0.12500000000E+03  0.12500000000E+03 0.  0.
        -11    1    3    3    0    0 -0.12398702852E+02  0.33904516002E+02  0.19576910972E+02  0.41067012080E+02  0.51100000000E-03 0.  1.
         23    2    1    0    0    0  0.63455098041E+01 -0.19023395616E+02 -0.77349694819E+01  0.10350616767E+03  0.10124989836E+03 0.  0.
         11    1    3    3    0    0  0.18744212656E+02 -0.52927911618E+02 -0.27311880454E+02  0.62439155588E+02  0.51100000000E-03 0. -1.
         22    1    1    0    0    0 -0.63455098041E+01  0.19023395616E+02  0.77349694819E+01  0.21493832332E+02  0.00000000000E+00 0. -1.
</event>
<event>
 5    1  0.1691138E-003  0.9118800E+02  0.7818608E-02  0.1130116E+00
         25   -1    0    0    0    0  0.00000000000E+00  0.00000000000E+00  0.99999998245E-14  0.12500000000E+03  0.12500000000E+03 0.  0.
        -11    1    3    3    0    0 -0.82479291544E+00 -0.27889761468E+02  0.25334331994E+02  0.37687497343E+02  0.51100000000E-03 0.  1.
         23    2    1    0    0    0  0.39083462358E+01  0.27512006555E+02  0.58773540705E+01  0.96597025405E+02  0.92326899392E+02 0.  0.
         11    1    3    3    0    0  0.47331391512E+01  0.55401768023E+02 -0.19456977924E+02  0.58909528062E+02  0.51100000000E-03 0. -1.
         22    1    1    0    0    0 -0.39083462358E+01 -0.27512006555E+02 -0.58773540705E+01  0.28402974595E+02  0.00000000000E+00 0.  1.
</event>
<event>
 5    1  0.1691138E-003  0.9118800E+02  0.7818608E-02  0.1130116E+00
         25   -1    0    0    0    0  0.00000000000E+00  0.00000000000E+00  0.99999998245E-14  0.12500000000E+03  0.12500000000E+03 0.  0.
        -11    1    3    3    0    0 -0.66938293871E+01  0.40500675371E+02 -0.12512762048E+02  0.42914814129E+02  0.51100000000E-03 0. -1.
         23    2    1    0    0    0  0.12681364351E+01  0.10601765041E+02  0.28658905133E+02  0.94416696787E+02  0.89326223455E+02 0.  0.
         11    1    3    3    0    0  0.79619658222E+01 -0.29898910330E+02  0.41171667181E+02  0.51501882659E+02  0.51100000000E-03 0.  1.
         22    1    1    0    0    0 -0.12681364351E+01 -0.10601765041E+02 -0.28658905133E+02  0.30583303213E+02  0.00000000000E+00 0. -1.
</event>
<event>
 5    1  0.1691138E-003  0.9118800E+02  0.7818608E-02  0.1130116E+00
         25   -1    0    0    0    0  0.00000000000E+00  0.00000000000E+00  0.99999998245E-14  0.12500000000E+03  0.12500000000E+03 0.  0.
        -11    1    3    3    0    0 -0.27623863857E+02 -0.12542292190E+02 -0.33163538019E+02  0.44946715141E+02  0.51100000000E-03 0.  1.
         23    2    1    0    0    0  0.38939595724E+01  0.23629473397E+02 -0.17220831711E+02  0.95503017460E+02  0.90833663170E+02 0.  0.
         11    1    3    3    0    0  0.31517823430E+02  0.36171765587E+02  0.15942706308E+02  0.50556302318E+02  0.51100000000E-03 0. -1.
         22    1    1    0    0    0 -0.38939595724E+01 -0.23629473397E+02  0.17220831711E+02  0.29496982540E+02  0.00000000000E+00 0. -1.
</event>
<event>
 5    1  0.1691138E-003  0.9118800E+02  0.7818608E-02  0.1130116E+00
         25   -1    0    0    0    0  0.00000000000E+00  0.00000000000E+00  0.99999998245E-14  0.12500000000E+03  0.12500000000E+03 0.  0.
        -11    1    3    3    0    0 -0.10601433245E+02  0.19433735738E+02  0.28468677822E+02  0.36062807555E+02  0.51100000000E-03 0.  1.
         23    2    1    0    0    0  0.13125981735E+02  0.62978340900E+01 -0.25030390482E+02  0.96043574834E+02  0.91574525434E+02 0.  0.
         11    1    3    3    0    0  0.23727414980E+02 -0.13135901648E+02 -0.53499068304E+02  0.59980767279E+02  0.51100000000E-03 0. -1.
         22    1    1    0    0    0 -0.13125981735E+02 -0.62978340900E+01  0.25030390482E+02  0.28956425166E+02  0.00000000000E+00 0. -1.
</event>
<event>
 5    1  0.1691138E-003  0.9118800E+02  0.7818608E-02  0.1130116E+00
         25   -1    0    0    0    0  0.00000000000E+00  0.00000000000E+00  0.99999998245E-14  0.12500000000E+03  0.12500000000E+03 0.  0.
        -11    1    3    3    0    0  0.39208872737E+02 -0.37300719758E+02  0.14301739691E+02  0.55975165513E+02  0.51100000000E-03 0.  1.
         23    2    1    0    0    0  0.17003069298E+02 -0.60032389270E+01  0.23443589102E+02  0.95423909772E+02  0.90724734462E+02 0.  0.
         11    1    3    3    0    0 -0.22205803439E+02  0.31297480831E+02  0.91418494116E+01  0.39448744260E+02  0.51100000000E-03 0. -1.
         22    1    1    0    0    0 -0.17003069298E+02  0.60032389270E+01 -0.23443589102E+02  0.29576090228E+02  0.00000000000E+00 0.  1.
</event>
<event>
 5    1  0.1691138E-003  0.9118800E+02  0.7818608E-02  0.1130116E+00
         25   -1    0    0    0    0  0.00000000000E+00  0.00000000000E+00  0.99999998245E-14  0.12500000000E+03  0.12500000000E+03 0.  0.
        -11    1    3    3    0    0 -0.10086239361E+02 -0.54002663729E+02  0.20358938508E+02  0.58587595033E+02  0.51100000000E-03 0.  1.
         23    2    1    0    0    0  0.10818076520E+02 -0.26171594670E+02  0.10879599120E+02  0.94662748573E+02  0.89669878684E+02 0.  0.
         11    1    3    3    0    0  0.20904315881E+02  0.27831069059E+02 -0.94793393884E+01  0.36075153540E+02  0.51100000000E-03 0. -1.
         22    1    1    0    0    0 -0.10818076520E+02  0.26171594670E+02 -0.10879599120E+02  0.30337251427E+02  0.00000000000E+00 0.  1.
</event>
<event>
 5    1  0.1691138E-003  0.9118800E+02  0.7818608E-02  0.1130116E+00
         25   -1    0    0    0    0  0.00000000000E+00  0.00000000000E+00  0.99999998245E-14  0.12500000000E+03  0.12500000000E+03 0.  0.
        -11    1    3    3    0    0 -0.60897186822E+01 -0.43421763082E+01 -0.34364666879E+02  0.35169155501E+02  0.51100000000E-03 0. -1.
         23    2    1    0    0    0 -0.39101451388E+01  0.15392169893E+02  0.23664339391E+02  0.96500717766E+02  0.92196417726E+02 0.  0.
         11    1    3    3    0    0  0.21795735434E+01  0.19734346201E+02  0.58029006270E+02  0.61331562265E+02  0.51100000000E-03 0.  1.
         22    1    1    0    0    0  0.39101451388E+01 -0.15392169893E+02 -0.23664339391E+02  0.28499282234E+02  0.00000000000E+00 0.  1.
</event>
<event>
 5    1  0.1691138E-003  0.9118800E+02  0.7818608E-02  0.1130116E+00
         25   -1    0    0    0    0  0.00000000000E+00  0.00000000000E+00  0.99999998245E-14  0.12500000000E+03  0.12500000000E+03 0.  0.
        -11    1    3    3    0    0  0.13924849658E+02  0.58132003509E+01 -0.33118652484E+02  0.36394228649E+02  0.51100000000E-03 0. -1.
         23    2    1    0    0    0 -0.16094785574E+02  0.19892394086E+02  0.15381174951E+02  0.95144849557E+02  0.90339428763E+02 0.  0.
         11    1    3    3    0    0 -0.30019635232E+02  0.14079193735E+02  0.48499827435E+02  0.58750620908E+02  0.51100000000E-03 0.  1.
         22    1    1    0    0    0  0.16094785574E+02 -0.19892394086E+02 -0.15381174951E+02  0.29855150443E+02  0.00000000000E+00 0.  1.
</event>
<event>
 5    1  0.1691138E-003  0.9118800E+02  0.7818608E-02  0.1130116E+00
         25   -1    0    0    0    0  0.00000000000E+00  0.00000000000E+00  0.99999998245E-14  0.12500000000E+03  0.12500000000E+03 0.  0.
        -11    1    3    3    0    0 -0.54524615897E+01 -0.21304751708E+02 -0.37898229977E+02  0.43816636320E+02  0.51100000000E-03 0. -1.
         23    2    1    0    0    0 -0.13001873855E+02 -0.40880096293E+02 -0.64517914618E+01  0.81619628751E+02  0.69136872851E+02 0.  0.
         11    1    3    3    0    0 -0.75494122657E+01 -0.19575344585E+02  0.31446438515E+02  0.37802992431E+02  0.51100000000E-03 0.  1.
         22    1    1    0    0    0  0.13001873855E+02  0.40880096293E+02  0.64517914618E+01  0.43380371249E+02  0.00000000000E+00 0. -1.
</event>
<event>
 5    1  0.1691138E-003  0.9118800E+02  0.7818608E-02  0.1130116E+00
         25   -1    0    0    0    0  0.00000000000E+00  0.00000000000E+00  0.99999998245E-14  0.12500000000E+03  0.12500000000E+03 0.  0.
        -11    1    3    3    0    0 -0.21848444408E+02  0.47096932799E+02  0.25865383549E+02  0.58004255607E+02  0.51100000000E-03 0.  1.
         23    2    1    0    0    0 -0.10396568214E+02  0.11464515716E+02  0.25187229930E+02  0.95437856932E+02  0.90743948741E+02 0.  0.
         11    1    3    3    0    0  0.11451876194E+02 -0.35632417083E+02 -0.67815361904E+00  0.37433601325E+02  0.51100000000E-03 0. -1.
         22    1    1    0    0    0  0.10396568214E+02 -0.11464515716E+02 -0.25187229930E+02  0.29562143068E+02  0.00000000000E+00 0.  1.
</event>
<event>
 5    1  0.1691138E-003  0.9118800E+02  0.7818608E-02  0.1130116E+00
         25   -1    0    0    0    0  0.00000000000E+00  0.00000000000E+00  0.99999998245E-14  0.12500000000E+03  0.12500000000E+03 0.  0.
        -11    1    3    3    0    0  0.15690552888E+02  0.50688745642E+01 -0.58421198749E+02  0.60703569934E+02  0.51100000000E-03 0. -1.
         23    2    1    0    0    0  0.18182967924E+02 -0.57378304476E-02 -0.28220327617E+02  0.91429071412E+02  0.85042741330E+02 0.  0.
         11    1    3    3    0    0  0.24924150369E+01 -0.50746123946E+01  0.30200871132E+02  0.30725501477E+02  0.51100000000E-03 0.  1.
         22    1    1    0    0    0 -0.18182967924E+02  0.57378304476E-02  0.28220327617E+02  0.33570928588E+02  0.00000000000E+00 0. -1.
</event>
<event>
 5    1  0.1691138E-003  0.9118800E+02  0.7818608E-02  0.1130116E+00
         25   -1    0    0    0    0  0.00000000000E+00  0.00000000000E+00  0.99999998245E-14  0.12500000000E+03  0.12500000000E+03 0.  0.
        -11    1    3    3    0    0  0.21689339765E+02 -0.58782934082E+00  0.39053510921E+02  0.44676053075E+02  0.51100000000E-03 0. -1.
         23    2    1    0    0    0  0.15897525320E+02 -0.28233841523E+02  0.34298961785E+00  0.92596315637E+02  0.86741448623E+02 0.  0.
         11    1    3    3    0    0 -0.57918144456E+01 -0.27646012182E+02 -0.38710521303E+02  0.47920262562E+02  0.51100000000E-03 0.  1.
         22    1    1    0    0    0 -0.15897525320E+02  0.28233841523E+02 -0.34298961785E+00  0.32403684363E+02  0.00000000000E+00 0. -1.
</event>
<event>
 5    1  0.1691138E-003  0.9118800E+02  0.7818608E-02  0.1130116E+00
         25   -1    0    0    0    0  0.00000000000E+00  0.00000000000E+00  0.99999998245E-14  0.12500000000E+03  0.12500000000E+03 0.  0.
        -11    1    3    3    0    0 -0.19832284728E+02 -0.11454109171E+02  0.25777796095E+02  0.34482037443E+02  0.51100000000E-03 0. -1.
         23    2    1    0    0    0 -0.39789834832E-01  0.16317080778E+02 -0.24698226392E+02  0.95398461268E+02  0.90689664886E+02 0.  0.
         11    1    3    3    0    0  0.19792494893E+02  0.27771189949E+02 -0.50476022487E+02  0.60916423826E+02  0.51100000000E-03 0.  1.
         22    1    1    0    0    0  0.39789834832E-01 -0.16317080778E+02  0.24698226392E+02  0.29601538732E+02  0.00000000000E+00 0.  1.
</event>
<event>
 5    1  0.1691138E-003  0.9118800E+02  0.7818608E-02  0.1130116E+00
         25   -1    0    0    0    0  0.00000000000E+00  0.00000000000E+00  0.99999998245E-14  0.12500000000E+03  0.12500000000E+03 0.  0.
        -11    1    3    3    0    0  0.18212888839E+02 -0.51037050133E+02 -0.16322780147E+02  0.56594372142E+02  0.51100000000E-03 0.  1.
         23    2    1    0    0    0  0.21153618640E+01 -0.27943393770E+02  0.10109101868E+02  0.95209029023E+02  0.90428188391E+02 0.  0.
         11    1    3    3    0    0 -0.16097526975E+02  0.23093656363E+02  0.26431882015E+02  0.38614656881E+02  0.51100000000E-03 0. -1.
         22    1    1    0    0    0 -0.21153618640E+01  0.27943393770E+02 -0.10109101868E+02  0.29790970977E+02  0.00000000000E+00 0.  1.
</event>
<event>
 5    1  0.1691138E-003  0.9118800E+02  0.7818608E-02  0.1130116E+00
         25   -1    0    0    0    0  0.00000000000E+00  0.00000000000E+00  0.99999998245E-14  0.12500000000E+03  0.12500000000E+03 0.  0.
        -11    1    3    3    0    0 -0.55275117825E+02 -0.74715494149E+01  0.16516991500E+02  0.58171932319E+02  0.51100000000E-03 0.  1.
         23    2    1    0    0    0 -0.18869541743E+02 -0.11402136935E+02  0.20359801619E+02  0.94990170706E+02  0.90125150078E+02 0.  0.
         11    1    3    3    0    0  0.36405576082E+02 -0.39305875206E+01  0.38428101182E+01  0.36818238388E+02  0.51100000000E-03 0. -1.
         22    1    1    0    0    0  0.18869541743E+02  0.11402136935E+02 -0.20359801619E+02  0.30009829294E+02  0.00000000000E+00 0.  1.
</event>
<event>
 5    1  0.1691138E-003  0.9118800E+02  0.7818608E-02  0.1130116E+00
         25   -1    0    0    0    0  0.00000000000E+00  0.00000000000E+00  0.99999998245E-14  0.12500000000E+03  0.12500000000E+03 0.  0.
        -11    1    3    3    0    0  0.13275316727E+02  0.34145437008E+01  0.36631486483E+02  0.39112132965E+02  0.51100000000E-03 0.  1.
         23    2    1    0    0    0 -0.22082977951E+02  0.22586933031E+02  0.15408209543E+00  0.93411217177E+02  0.87907930782E+02 0.  0.
         11    1    3    3    0    0 -0.35358294678E+02  0.19172389330E+02 -0.36477404387E+02  0.54299084212E+02  0.51100000000E-03 0. -1.
         22    1    1    0    0    0  0.22082977951E+02 -0.22586933031E+02 -0.15408209543E+00  0.31588782823E+02  0.00000000000E+00 0. -1.
</event>
<event>
 5    1  0.1691138E-003  0.9118800E+02  0.7818608E-02  0.1130116E+00
         25   -1    0    0    0    0  0.00000000000E+00  0.00000000000E+00  0.99999998245E-14  0.12500000000E+03  0.12500000000E+03 0.  0.
        -11    1    3    3    0    0 -0.21190724888E+02 -0.19749214150E+02  0.98403676948E+01  0.30592664439E+02  0.51100000000E-03 0.  1.
         23    2    1    0    0    0  0.23489498840E+02  0.11584621450E+02 -0.19307882535E+02  0.92461494535E+02  0.86546944682E+02 0.  0.
         11    1    3    3    0    0  0.44680223728E+02  0.31333835600E+02 -0.29148250229E+02  0.61868830097E+02  0.51100000000E-03 0. -1.
         22    1    1    0    0    0 -0.23489498840E+02 -0.11584621450E+02  0.19307882535E+02  0.32538505465E+02  0.00000000000E+00 0. -1.
</event>
<event>
 5    1  0.1691138E-003  0.9118800E+02  0.7818608E-02  0.1130116E+00
         25   -1    0    0    0    0  0.00000000000E+00  0.00000000000E+00  0.99999998245E-14  0.12500000000E+03  0.12500000000E+03 0.  0.
        -11    1    3    3    0    0  0.34471690489E+01 -0.34552380873E+02  0.70813649496E+01  0.35438619164E+02  0.51100000000E-03 0. -1.
         23    2    1    0    0    0 -0.13746594926E+02  0.18437819436E+02 -0.17271257863E+02  0.96238595205E+02  0.91840344083E+02 0.  0.
         11    1    3    3    0    0 -0.17193763975E+02  0.52990200309E+02 -0.24352622812E+02  0.60799976041E+02  0.51100000000E-03 0.  1.
         22    1    1    0    0    0  0.13746594926E+02 -0.18437819436E+02  0.17271257863E+02  0.28761404795E+02  0.00000000000E+00 0.  1.
</event>
<event>
 5    1  0.1691138E-003  0.9118800E+02  0.7818608E-02  0.1130116E+00
         25   -1    0    0    0    0  0.00000000000E+00  0.00000000000E+00  0.99999998245E-14  0.12500000000E+03  0.12500000000E+03 0.  0.
        -11    1    3    3    0    0  0.35433522555E+02  0.11662849301E+02 -0.21171786678E+02  0.42892902978E+02  0.51100000000E-03 0.  1.
         23    2    1    0    0    0  0.12146896381E+02  0.67215173706E+01  0.25884386612E+02  0.95627779149E+02  0.91005190991E+02 0.  0.
         11    1    3    3    0    0 -0.23286626174E+02 -0.49413319302E+01  0.47056173290E+02  0.52734876171E+02  0.51100000000E-03 0. -1.
         22    1    1    0    0    0 -0.12146896381E+02 -0.67215173706E+01 -0.25884386612E+02  0.29372220851E+02  0.00000000000E+00 0.  1.
</event>
<event>
 5    1  0.1691138E-003  0.9118800E+02  0.7818608E-02  0.1130116E+00
         25   -1    0    0    0    0  0.00000000000E+00  0.00000000000E+00  0.99999998245E-14  0.12500000000E+03  0.12500000000E+03 0.  0.
        -11    1    3    3    0    0 -0.11173732326E+01 -0.24465534457E+02 -0.41806931141E+02  0.48452351758E+02  0.51100000000E-03 0.  1.
         23    2    1    0    0    0  0.24182460975E+02 -0.15556549873E+02 -0.23673215278E+01  0.96148624400E+02  0.91717806886E+02 0.  0.
         11    1    3    3    0    0  0.25299834208E+02  0.89089845836E+01  0.39439609613E+02  0.47696272642E+02  0.51100000000E-03 0. -1.
         22    1    1    0    0    0 -0.24182460975E+02  0.15556549873E+02  0.23673215278E+01  0.28851375600E+02  0.00000000000E+00 0.  1.
</event>
<event>
 5    1  0.1691138E-003  0.9118800E+02  0.7818608E-02  0.1130116E+00
         25   -1    0    0    0    0  0.00000000000E+00  0.00000000000E+00  0.99999998245E-14  0.12500000000E+03  0.12500000000E+03 0.  0.
        -11    1    3    3    0    0  0.15584408312E+02 -0.34493326183E+02 -0.68818057047E+01  0.38471061639E+02  0.51100000000E-03 0. -1.
         23    2    1    0    0    0 -0.17351123482E+02  0.54260421857E+01 -0.25683927389E+02  0.93533072187E+02  0.88081031140E+02 0.  0.
         11    1    3    3    0    0 -0.32935531794E+02  0.39919368368E+02 -0.18802121685E+02  0.55062010548E+02  0.51100000000E-03 0.  1.
         22    1    1    0    0    0  0.17351123482E+02 -0.54260421857E+01  0.25683927389E+02  0.31466927813E+02  0.00000000000E+00 0.  1.
</event>
<event>
 5    1  0.1691138E-003  0.9118800E+02  0.7818608E-02  0.1130116E+00
         25   -1    0    0    0    0  0.00000000000E+00  0.00000000000E+00  0.99999998245E-14  0.12500000000E+03  0.12500000000E+03 0.  0.
        -11    1    3    3    0    0 -0.26046294857E+02  0.42109888955E+02  0.11308258088E-01  0.49514163143E+02  0.51100000000E-03 0.  1.
         23    2    1    0    0    0 -0.23949917086E+02 -0.24017164735E+01 -0.15121084958E+02  0.96574413273E+02  0.92296280089E+02 0.  0.
         11    1    3    3    0    0  0.20963777710E+01 -0.44511605429E+02 -0.15132393216E+02  0.47060250130E+02  0.51100000000E-03 0. -1.
         22    1    1    0    0    0  0.23949917086E+02  0.24017164735E+01  0.15121084958E+02  0.28425586727E+02  0.00000000000E+00 0. -1.
</event>
<event>
 5    1  0.1691138E-003  0.9118800E+02  0.7818608E-02  0.1130116E+00
         25   -1    0    0    0    0  0.00000000000E+00  0.00000000000E+00  0.99999998245E-14  0.12500000000E+03  0.12500000000E+03 0.  0.
        -11    1    3    3    0    0 -0.50622209044E+02 -0.21120447839E+02 -0.13852826419E+02  0.56573687925E+02  0.51100000000E-03 0. -1.
         23    2    1    0    0    0 -0.11080299054E+02 -0.23265440685E+02 -0.12893000937E+02  0.96185364299E+02  0.91767865154E+02 0.  0.
         11    1    3    3    0    0  0.39541909990E+02 -0.21449928463E+01  0.95982548255E+00  0.39611676374E+02  0.51100000000E-03 0.  1.
         22    1    1    0    0    0  0.11080299054E+02  0.23265440685E+02  0.12893000937E+02  0.28814635701E+02  0.00000000000E+00 0. -1.
</event>
<event>
 5    1  0.1691138E-003  0.9118800E+02  0.7818608E-02  0.1130116E+00
         25   -1    0    0    0    0  0.00000000000E+00  0.00000000000E+00  0.99999998245E-14  0.12500000000E+03  0.12500000000E+03 0.  0.
        -11    1    3    3    0    0 -0.36998609871E+02  0.24758920729E+02  0.29902776126E+01  0.44618864268E+02  0.51100000000E-03 0. -1.
         23    2    1    0    0    0  0.12201956158E+02  0.21782120530E+02  0.15681218975E+02  0.95516968653E+02  0.90852859962E+02 0.  0.
         11    1    3    3    0    0  0.49200566030E+02 -0.29768001989E+01  0.12690941363E+02  0.50898104385E+02  0.51100000000E-03 0.  1.
         22    1    1    0    0    0 -0.12201956158E+02 -0.21782120530E+02 -0.15681218975E+02  0.29483031347E+02  0.00000000000E+00 0.  1.
</event>
<event>
 5    1  0.1691138E-003  0.9118800E+02  0.7818608E-02  0.1130116E+00
         25   -1    0    0    0    0  0.00000000000E+00  0.00000000000E+00  0.99999998245E-14  0.12500000000E+03  0.12500000000E+03 0.  0.
        -11    1    3    3    0    0  0.19121621574E+02  0.10422013817E+02 -0.31041264021E+02  0.37918529190E+02  0.51100000000E-03 0.  1.
         23    2    1    0    0    0 -0.25665175468E+02  0.59829341085E+01  0.79582972066E+01  0.97471265434E+02  0.93503028606E+02 0.  0.
         11    1    3    3    0    0 -0.44786797043E+02 -0.44390797087E+01  0.38999561228E+02  0.59552736244E+02  0.51100000000E-03 0. -1.
         22    1    1    0    0    0  0.25665175468E+02 -0.59829341085E+01 -0.79582972066E+01  0.27528734566E+02  0.00000000000E+00 0. -1.
</event>
<event>
 5    1  0.1691138E-003  0.9118800E+02  0.7818608E-02  0.1130116E+00
         25   -1    0    0    0    0  0.00000000000E+00  0.00000000000E+00  0.99999998245E-14  0.12500000000E+03  0.12500000000E+03 0.  0.
        -11    1    3    3    0    0 -0.23381332820E+02  0.19263176848E+02  0.50517541494E+02  0.58904827523E+02  0.51100000000E-03 0.  1.
         23    2    1    0    0    0 -0.70371188118E+01  0.23311036559E+02  0.21196860915E+02  0.92716375990E+02  0.86914291100E+02 0.  0.
         11    1    3    3    0    0  0.16344214008E+02  0.40478597106E+01 -0.29320680579E+02  0.33811548466E+02  0.51100000000E-03 0. -1.
         22    1    1    0    0    0  0.70371188118E+01 -0.23311036559E+02 -0.21196860915E+02  0.32283624010E+02  0.00000000000E+00 0.  1.
</event>
<event>
 5    1  0.1691138E-003  0.9118800E+02  0.7818608E-02  0.1130116E+00
         25   -1    0    0    0    0  0.00000000000E+00  0.00000000000E+00  0.99999998245E-14  0.12500000000E+03  0.12500000000E+03 0.  0.
        -11    1    3    3    0    0 -0.45132143590E+02 -0.32627533220E+02  0.16020066106E+02  0.57949191775E+02  0.51100000000E-03 0.  1.
         23    2    1    0    0    0 -0.15699369717E+02 -0.24720543389E+02 -0.54288294025E+01  0.95216654593E+02  0.90438728696E+02 0.  0.
         11    1    3    3    0    0  0.29432773874E+02  0.79069898307E+01 -0.21448895508E+02  0.37267462818E+02  0.51100000000E-03 0. -1.
         22    1    1    0    0    0  0.15699369717E+02  0.24720543389E+02  0.54288294025E+01  0.29783345407E+02  0.00000000000E+00 0.  1.
</event>
<event>
 5    1  0.1691138E-003  0.9118800E+02  0.7818608E-02  0.1130116E+00
         25   -1    0    0    0    0  0.00000000000E+00  0.00000000000E+00  0.99999998245E-14  0.12500000000E+03  0.12500000000E+03 0.  0.
        -11    1    3    3    0    0 -0.60196541965E+01  0.48873327171E+01 -0.51547306884E+02  0.52127220385E+02  0.51100000000E-03 0.  1.
         23    2    1    0    0    0 -0.18785292245E+02 -0.16183030446E+02 -0.15600762684E+02  0.95705606757E+02  0.91112028236E+02 0.  0.
         11    1    3    3    0    0 -0.12765638048E+02 -0.21070363163E+02  0.35946544200E+02  0.43578386372E+02  0.51100000000E-03 0. -1.
         22    1    1    0    0    0  0.18785292245E+02  0.16183030446E+02  0.15600762684E+02  0.29294393243E+02  0.00000000000E+00 0.  1.
</event>
<event>
 5    1  0.1691138E-003  0.9118800E+02  0.7818608E-02  0.1130116E+00
         25   -1    0    0    0    0  0.00000000000E+00  0.00000000000E+00  0.99999998245E-14  0.12500000000E+03  0.12500000000E+03 0.  0.
        -11    1    3    3    0    0 -0.41936520707E+02  0.30781832103E+01  0.13976045971E+02  0.44311136773E+02  0.51100000000E-03 0.  1.
         23    2    1    0    0    0  0.85436697828E+01  0.13109508287E+02  0.23613012243E+02  0.96672842570E+02  0.92429490112E+02 0.  0.
         11    1    3    3    0    0  0.50480190490E+02  0.10031325077E+02  0.96369662725E+01  0.52361705796E+02  0.51100000000E-03 0. -1.
         22    1    1    0    0    0 -0.85436697828E+01 -0.13109508287E+02 -0.23613012243E+02  0.28327157430E+02  0.00000000000E+00 0. -1.
</event>
<event>
 5    1  0.1691138E-003  0.9118800E+02  0.7818608E-02  0.1130116E+00
         25   -1    0    0    0    0  0.00000000000E+00  0.00000000000E+00  0.99999998245E-14  0.12500000000E+03  0.12500000000E+03 0.  0.
        -11    1    3    3    0    0 -0.71734598786E+01 -0.14937730064E+00 -0.45026103655E+02  0.45594197556E+02  0.51100000000E-03 0. -1.
         23    2    1    0    0    0  0.26988781441E+02  0.81053688301E+01 -0.10313157770E+02  0.94992458436E+02  0.90128323012E+02 0.  0.
         11    1    3    3    0    0  0.34162241320E+02  0.82547461307E+01  0.34712945885E+02  0.49398260880E+02  0.51100000000E-03 0.  1.
         22    1    1    0    0    0 -0.26988781441E+02 -0.81053688301E+01  0.10313157770E+02  0.30007541564E+02  0.00000000000E+00 0. -1.
</event>
<event>
 5    1  0.1691138E-003  0.9118800E+02  0.7818608E-02  0.1130116E+00
         25   -1    0    0    0    0  0.00000000000E+00  0.00000000000E+00  0.99999998245E-14  0.12500000000E+03  0.12500000000E+03 0.  0.
        -11    1    3    3    0    0 -0.81659156552E+01  0.25218007558E+02 -0.26067335033E+02  0.37177090253E+02  0.51100000000E-03 0.  1.
         23    2    1    0    0    0 -0.28465788378E+01  0.56367150723E+01  0.28716238665E+02  0.95597654329E+02  0.90963803692E+02 0.  0.
         11    1    3    3    0    0  0.53193368174E+01 -0.19581292486E+02  0.54783573698E+02  0.58420564076E+02  0.51100000000E-03 0. -1.
         22    1    1    0    0    0  0.28465788378E+01 -0.56367150723E+01 -0.28716238665E+02  0.29402345671E+02  0.00000000000E+00 0. -1.
</event>
<event>
 5    1  0.1691138E-003  0.9118800E+02  0.7818608E-02  0.1130116E+00
         25   -1    0    0    0    0  0.00000000000E+00  0.00000000000E+00  0.99999998245E-14  0.12500000000E+03  0.12500000000E+03 0.  0.
        -11    1    3    3    0    0  0.26221397537E+02  0.52311757189E+02  0.39253798854E+01  0.58647167335E+02  0.51100000000E-03 0. -1.
         23    2    1    0    0    0 -0.21997453801E+01  0.28747514696E+02 -0.22558027369E+01  0.96080333215E+02  0.91624687197E+02 0.  0.
         11    1    3    3    0    0 -0.28421142917E+02 -0.23564242492E+02 -0.61811826223E+01  0.37433165880E+02  0.51100000000E-03 0.  1.
         22    1    1    0    0    0  0.21997453801E+01 -0.28747514696E+02  0.22558027369E+01  0.28919666785E+02  0.00000000000E+00 0. -1.
</event>
<event>
 5    1  0.1691138E-003  0.9118800E+02  0.7818608E-02  0.1130116E+00
         25   -1    0    0    0    0  0.00000000000E+00  0.00000000000E+00  0.99999998245E-14  0.12500000000E+03  0.12500000000E+03 0.  0.
        -11    1    3    3    0    0 -0.14775876751E+02 -0.29609175304E+02  0.25991293202E+02  0.42078226181E+02  0.51100000000E-03 0.  1.
         23    2    1    0    0    0 -0.24610852775E+02  0.15512346668E+02 -0.15834140497E+01  0.95865241145E+02  0.91330774038E+02 0.  0.
         11    1    3    3    0    0 -0.98349760245E+01  0.45121521972E+02 -0.27574707252E+02  0.53787014964E+02  0.51100000000E-03 0. -1.
         22    1    1    0    0    0  0.24610852775E+02 -0.15512346668E+02  0.15834140497E+01  0.29134758855E+02  0.00000000000E+00 0. -1.
</event>
<event>
 5    1  0.1691138E-003  0.9118800E+02  0.7818608E-02  0.1130116E+00
         25   -1    0    0    0    0  0.00000000000E+00  0.00000000000E+00  0.99999998245E-14  0.12500000000E+03  0.12500000000E+03 0.  0.
        -11    1    3    3    0    0  0.13202503949E+02  0.29740865156E+02 -0.19703893472E+02  0.38040354743E+02  0.51100000000E-03 0.  1.
         23    2    1    0    0    0 -0.21380269319E+02  0.15474674247E+02  0.19466313836E+02  0.92204896195E+02  0.86175542057E+02 0.  0.
         11    1    3    3    0    0 -0.34582773268E+02 -0.14266190909E+02  0.39170207308E+02  0.54164541453E+02  0.51100000000E-03 0. -1.
         22    1    1    0    0    0  0.21380269319E+02 -0.15474674247E+02 -0.19466313836E+02  0.32795103805E+02  0.00000000000E+00 0. -1.
</event>
<event>
 5    1  0.1691138E-003  0.9118800E+02  0.7818608E-02  0.1130116E+00
         25   -1    0    0    0    0  0.00000000000E+00  0.00000000000E+00  0.99999998245E-14  0.12500000000E+03  0.12500000000E+03 0.  0.
        -11    1    3    3    0    0 -0.16071804067E+02  0.49439548984E+02  0.11076998852E+01  0.51998066204E+02  0.51100000000E-03 0. -1.
         23    2    1    0    0    0  0.75437131859E+01  0.16795833030E+02  0.21116949935E+02  0.96983340842E+02  0.92848452925E+02 0.  0.
         11    1    3    3    0    0  0.23615517253E+02 -0.32643715954E+02  0.20009250050E+02  0.44985274638E+02  0.51100000000E-03 0.  1.
         22    1    1    0    0    0 -0.75437131859E+01 -0.16795833030E+02 -0.21116949935E+02  0.28016659158E+02  0.00000000000E+00 0.  1.
</event>
<event>
 5    1  0.1691138E-003  0.9118800E+02  0.7818608E-02  0.1130116E+00
         25   -1    0    0    0    0  0.00000000000E+00  0.00000000000E+00  0.99999998245E-14  0.12500000000E+03  0.12500000000E+03 0.  0.
        -11    1    3    3    0    0  0.41766710212E+02 -0.36140165879E+00 -0.35298245570E+02  0.54685965600E+02  0.51100000000E-03 0. -1.
         23    2    1    0    0    0  0.25698098487E+02 -0.99628542344E+01  0.29617383500E+01  0.97279563055E+02  0.93246398128E+02 0.  0.
         11    1    3    3    0    0 -0.16068611725E+02 -0.96014525756E+01  0.38259983920E+02  0.42593597455E+02  0.51100000000E-03 0.  1.
         22    1    1    0    0    0 -0.25698098487E+02  0.99628542344E+01 -0.29617383500E+01  0.27720436945E+02  0.00000000000E+00 0. -1.
</event>
<event>
 5    1  0.1691138E-003  0.9118800E+02  0.7818608E-02  0.1130116E+00
         25   -1    0    0    0    0  0.00000000000E+00  0.00000000000E+00  0.99999998245E-14  0.12500000000E+03  0.12500000000E+03 0.  0.
        -11    1    3    3    0    0  0.14241454419E+02 -0.56607614397E+01 -0.52938133230E+02  0.55111788160E+02  0.51100000000E-03 0. -1.
         23    2    1    0    0    0 -0.15036466579E+02 -0.18985701262E+01 -0.25056490643E+02  0.95716427489E+02  0.91126872393E+02 0.  0.
         11    1    3    3    0    0 -0.29277920998E+02  0.37621913135E+01  0.27881642587E+02  0.40604639329E+02  0.51100000000E-03 0.  1.
         22    1    1    0    0    0  0.15036466579E+02  0.18985701262E+01  0.25056490643E+02  0.29283572511E+02  0.00000000000E+00 0.  1.
</event>
<event>
 5    1  0.1691138E-003  0.9118800E+02  0.7818608E-02  0.1130116E+00
         25   -1    0    0    0    0  0.00000000000E+00  0.00000000000E+00  0.99999998245E-14  0.12500000000E+03  0.12500000000E+03 0.  0.
        -11    1    3    3    0    0  0.45435778600E+02 -0.18535986152E+02  0.26970875110E+02  0.55994828905E+02  0.51100000000E-03 0.  1.
         23    2    1    0    0    0  0.72281660728E+01 -0.23659639354E+02  0.13410080683E+02  0.96860078482E+02  0.92682358733E+02 0.  0.
         11    1    3    3    0    0 -0.38207612527E+02 -0.51236532025E+01 -0.13560794428E+02  0.40865249577E+02  0.51100000000E-03 0. -1.
         22    1    1    0    0    0 -0.72281660728E+01  0.23659639354E+02 -0.13410080683E+02  0.28139921518E+02  0.00000000000E+00 0.  1.
</event>
<event>
 5    1  0.1691138E-003  0.9118800E+02  0.7818608E-02  0.1130116E+00
         25   -1    0    0    0    0  0.00000000000E+00  0.00000000000E+00  0.99999998245E-14  0.12500000000E+03  0.12500000000E+03 0.  0.
        -11    1    3    3    0    0 -0.24245330670E+02  0.19737294648E+02 -0.20430641586E+02  0.37347128072E+02  0.51100000000E-03 0.  1.
         23    2    1    0    0    0 -0.11078040570E+02 -0.22765573005E+02  0.16167386619E+02  0.94960381374E+02  0.90083823984E+02 0.  0.
         11    1    3    3    0    0  0.13167290100E+02 -0.42502867653E+02  0.36598028205E+02  0.57613253302E+02  0.51100000000E-03 0. -1.
         22    1    1    0    0    0  0.11078040570E+02  0.22765573005E+02 -0.16167386619E+02  0.30039618626E+02  0.00000000000E+00 0. -1.
</event>
<event>
 5    1  0.1691138E-003  0.9118800E+02  0.7818608E-02  0.1130116E+00
         25   -1    0    0    0    0  0.00000000000E+00  0.00000000000E+00  0.99999998245E-14  0.12500000000E+03  0.12500000000E+03 0.  0.
        -11    1    3    3    0    0 -0.22956649143E+02 -0.35841812203E+01 -0.28560622963E+02  0.36817974946E+02  0.51100000000E-03 0. -1.
         23    2    1    0    0    0  0.20795546712E+02  0.21171997484E+02  0.13117234494E+01  0.95294295852E+02  0.90545977066E+02 0.  0.
         11    1    3    3    0    0  0.43752195855E+02  0.24756178704E+02  0.29872346412E+02  0.58476320905E+02  0.51100000000E-03 0.  1.
         22    1    1    0    0    0 -0.20795546712E+02 -0.21171997484E+02 -0.13117234494E+01  0.29705704148E+02  0.00000000000E+00 0.  1.
</event>
<event>
 5    1  0.1691138E-003  0.9118800E+02  0.7818608E-02  0.1130116E+00
         25   -1    0    0    0    0  0.00000000000E+00  0.00000000000E+00  0.99999998245E-14  0.12500000000E+03  0.12500000000E+03 0.  0.
        -11    1    3    3    0    0 -0.16803013674E+02  0.12393372994E+00 -0.26775403753E+02  0.31611372550E+02  0.51100000000E-03 0. -1.
         23    2    1    0    0    0  0.73718787860E+01 -0.61339185256E+01  0.29929660517E+02  0.93571444004E+02  0.88135469596E+02 0.  0.
         11    1    3    3    0    0  0.24174892460E+02 -0.62578522555E+01  0.56705064271E+02  0.61960071453E+02  0.51100000000E-03 0.  1.
         22    1    1    0    0    0 -0.73718787860E+01  0.61339185256E+01 -0.29929660517E+02  0.31428555996E+02  0.00000000000E+00 0.  1.
</event>
<event>
 5    1  0.1691138E-003  0.9118800E+02  0.7818608E-02  0.1130116E+00
         25   -1    0    0    0    0  0.00000000000E+00  0.00000000000E+00  0.99999998245E-14  0.12500000000E+03  0.12500000000E+03 0.  0.
        -11    1    3    3    0    0 -0.43928753969E+02  0.32667024459E+02  0.21508361899E+02  0.58817340505E+02  0.51100000000E-03 0.  1.
         23    2    1    0    0    0 -0.26683729710E+02  0.24159532371E+01  0.36229999122E+01  0.97963277017E+02  0.94158479461E+02 0.  0.
         11    1    3    3    0    0  0.17245024259E+02 -0.30251071222E+02 -0.17885361987E+02  0.39145936512E+02  0.51100000000E-03 0. -1.
         22    1    1    0    0    0  0.26683729710E+02 -0.24159532371E+01 -0.36229999122E+01  0.27036722983E+02  0.00000000000E+00 0.  1.
</event>
<event>
 5    1  0.1691138E-003  0.9118800E+02  0.7818608E-02  0.1130116E+00
         25   -1    0    0    0    0  0.00000000000E+00  0.00000000000E+00  0.99999998245E-14  0.12500000000E+03  0.12500000000E+03 0.  0.
        -11    1    3    3    0    0 -0.24184206520E+02 -0.33486344690E+02  0.18394608016E+02  0.45216951799E+02  0.51100000000E-03 0.  1.
         23    2    1    0    0    0 -0.16643478943E+01  0.10062587017E+02  0.28021317777E+02  0.95180208563E+02  0.90388340735E+02 0.  0.
         11    1    3    3    0    0  0.22519858626E+02  0.43548931707E+02  0.96267097611E+01  0.49963256764E+02  0.51100000000E-03 0. -1.
         22    1    1    0    0    0  0.16643478943E+01 -0.10062587017E+02 -0.28021317777E+02  0.29819791437E+02  0.00000000000E+00 0.  1.
</event>
<event>
 5    1  0.1691138E-003  0.9118800E+02  0.7818608E-02  0.1130116E+00
         25   -1    0    0    0    0  0.00000000000E+00  0.00000000000E+00  0.99999998245E-14  0.12500000000E+03  0.12500000000E+03 0.  0.
        -11    1    3    3    0    0  0.12179495655E+02  0.15489212462E+02 -0.30787514477E+02  0.36553069161E+02  0.51100000000E-03 0.  1.
         23    2    1    0    0    0  0.47211349730E+01  0.10051885480E+02  0.27382717623E+02  0.95451011159E+02  0.90762066909E+02 0.  0.
         11    1    3    3    0    0 -0.74583606824E+01 -0.54373269823E+01  0.58170232100E+02  0.58897941998E+02  0.51100000000E-03 0. -1.
         22    1    1    0    0    0 -0.47211349730E+01 -0.10051885480E+02 -0.27382717623E+02  0.29548988841E+02  0.00000000000E+00 0. -1.
</event>
<event>
 5    1  0.1691138E-003  0.9118800E+02  0.7818608E-02  0.1130116E+00
         25   -1    0    0    0    0  0.00000000000E+00  0.00000000000E+00  0.99999998245E-14  0.12500000000E+03  0.12500000000E+03 0.  0.
        -11    1    3    3    0    0 -0.22195077426E+02 -0.31912383688E+02  0.13602022230E+02  0.41182966182E+02  0.51100000000E-03 0. -1.
         23    2    1    0    0    0  0.23379057520E+02  0.38624845370E+00  0.15281478783E+02  0.97066988844E+02  0.92960998333E+02 0.  0.
         11    1    3    3    0    0  0.45574134946E+02  0.32298632141E+02  0.16794565537E+01  0.55884022662E+02  0.51100000000E-03 0.  1.
         22    1    1    0    0    0 -0.23379057520E+02 -0.38624845370E+00 -0.15281478783E+02  0.27933011156E+02  0.00000000000E+00 0.  1.
</event>
<event>
 5    1  0.1691138E-003  0.9118800E+02  0.7818608E-02  0.1130116E+00
         25   -1    0    0    0    0  0.00000000000E+00  0.00000000000E+00  0.99999998245E-14  0.12500000000E+03  0.12500000000E+03 0.  0.
        -11    1    3    3    0    0  0.20221520106E+02 -0.40242479678E+02 -0.37485292210E+02  0.58596195938E+02  0.51100000000E-03 0.  1.
         23    2    1    0    0    0  0.10348059733E+02 -0.31243325782E+02 -0.77605457293E+01  0.91185006045E+02  0.84683242210E+02 0.  0.
         11    1    3    3    0    0 -0.98734603735E+01  0.89991538958E+01  0.29724746481E+02  0.32588810107E+02  0.51100000000E-03 0. -1.
         22    1    1    0    0    0 -0.10348059733E+02  0.31243325782E+02  0.77605457293E+01  0.33814993955E+02  0.00000000000E+00 0.  1.
</event>
<event>
 5    1  0.1691138E-003  0.9118800E+02  0.7818608E-02  0.1130116E+00
         25   -1    0    0    0    0  0.00000000000E+00  0.00000000000E+00  0.99999998245E-14  0.12500000000E+03  0.12500000000E+03 0.  0.
        -11    1    3    3    0    0 -0.35257968848E+02 -0.11576316833E+02  0.28761827543E+02  0.46950806197E+02  0.51100000000E-03 0. -1.
         23    2    1    0    0    0  0.10512274043E+02  0.24865142668E+01  0.28162877996E+02  0.94836473088E+02  0.89911724886E+02 0.  0.
         11    1    3    3    0    0  0.45770242890E+02  0.14062831100E+02 -0.59894954663E+00  0.47885666891E+02  0.51100000000E-03 0.  1.
         22    1    1    0    0    0 -0.10512274043E+02 -0.24865142668E+01 -0.28162877996E+02  0.30163526912E+02  0.00000000000E+00 0. -1.
</event>
<event>
 5    1  0.1691138E-003  0.9118800E+02  0.7818608E-02  0.1130116E+00
         25   -1    0    0    0    0  0.00000000000E+00  0.00000000000E+00  0.99999998245E-14  0.12500000000E+03  0.12500000000E+03 0.  0.
        -11    1    3    3    0    0 -0.10868702673E+02  0.18669265140E+02 -0.27332186988E+02  0.34838464439E+02  0.51100000000E-03 0. -1.
         23    2    1    0    0    0 -0.11049854996E+02 -0.29976853277E+02  0.41495668107E+01  0.92783080027E+02  0.87010171858E+02 0.  0.
         11    1    3    3    0    0 -0.18115232361E+00 -0.48646118417E+02  0.31481753799E+02  0.57944615588E+02  0.51100000000E-03 0.  1.
         22    1    1    0    0    0  0.11049854996E+02  0.29976853277E+02 -0.41495668107E+01  0.32216919973E+02  0.00000000000E+00 0.  1.
</event>
<event>
 5    1  0.1691138E-003  0.9118800E+02  0.7818608E-02  0.1130116E+00
         25   -1    0    0    0    0  0.00000000000E+00  0.00000000000E+00  0.99999998245E-14  0.12500000000E+03  0.12500000000E+03 0.  0.
        -11    1    3    3    0    0 -0.24963653015E+02 -0.33176879427E+02 -0.48648082614E+01  0.41803775667E+02  0.51100000000E-03 0.  1.
         23    2    1    0    0    0  0.24725788171E+02 -0.81659761849E+01 -0.86502893122E+01  0.97561427280E+02  0.93623484340E+02 0.  0.
         11    1    3    3    0    0  0.49689441186E+02  0.25010903242E+02 -0.37854810508E+01  0.55757651613E+02  0.51100000000E-03 0. -1.
         22    1    1    0    0    0 -0.24725788171E+02  0.81659761849E+01  0.86502893122E+01  0.27438572720E+02  0.00000000000E+00 0. -1.
</event>
<event>
 5    1  0.1691138E-003  0.9118800E+02  0.7818608E-02  0.1130116E+00
         25   -1    0    0    0    0  0.00000000000E+00  0.00000000000E+00  0.99999998245E-14  0.12500000000E+03  0.12500000000E+03 0.  0.
        -11    1    3    3    0    0  0.32407870825E+01  0.28784555529E+02  0.24363226345E+02  0.37849968773E+02  0.51100000000E-03 0.  1.
         23    2    1    0    0    0 -0.29754409254E+02  0.98442861308E+01 -0.12904248684E+02  0.91106719345E+02  0.84567605123E+02 0.  0.
         11    1    3    3    0    0 -0.32995196336E+02 -0.18940269399E+02 -0.37267475029E+02  0.53256750572E+02  0.51100000000E-03 0. -1.
         22    1    1    0    0    0  0.29754409254E+02 -0.98442861308E+01  0.12904248684E+02  0.33893280655E+02  0.00000000000E+00 0. -1.
</event>
<event>
 5    1  0.1691138E-003  0.9118800E+02  0.7818608E-02  0.1130116E+00
         25   -1    0    0    0    0  0.00000000000E+00  0.00000000000E+00  0.99999998245E-14  0.12500000000E+03  0.12500000000E+03 0.  0.
        -11    1    3    3    0    0 -0.55129796677E+02 -0.15409498432E+02  0.75553457504E+01  0.57739331250E+02  0.51100000000E-03 0.  1.
         23    2    1    0    0    0 -0.18335184401E+02 -0.14347050470E+02  0.17506986356E+02  0.95870780727E+02  0.91338355479E+02 0.  0.
         11    1    3    3    0    0  0.36794612276E+02  0.10624479625E+01  0.99516406056E+01  0.38131449477E+02  0.51100000000E-03 0. -1.
         22    1    1    0    0    0  0.18335184401E+02  0.14347050470E+02 -0.17506986356E+02  0.29129219273E+02  0.00000000000E+00 0.  1.
</event>
<event>
 5    1  0.1691138E-003  0.9118800E+02  0.7818608E-02  0.1130116E+00
         25   -1    0    0    0    0  0.00000000000E+00  0.00000000000E+00  0.99999998245E-14  0.12500000000E+03  0.12500000000E+03 0.  0.
        -11    1    3    3    0    0  0.17651350902E+02 -0.28049395617E+02  0.13935348682E+02  0.35951811169E+02  0.51100000000E-03 0.  1.
         23    2    1    0    0    0 -0.11828921701E+02  0.22037643193E+02  0.17957321302E+02  0.94209636338E+02  0.89035998813E+02 0.  0.
         11    1    3    3    0    0 -0.29480272603E+02  0.50087038810E+02  0.40219726197E+01  0.58257825170E+02  0.51100000000E-03 0. -1.
         22    1    1    0    0    0  0.11828921701E+02 -0.22037643193E+02 -0.17957321302E+02  0.30790363662E+02  0.00000000000E+00 0. -1.
</event>
<event>
 5    1  0.1691138E-003  0.9118800E+02  0.7818608E-02  0.1130116E+00
         25   -1    0    0    0    0  0.00000000000E+00  0.00000000000E+00  0.99999998245E-14  0.12500000000E+03  0.12500000000E+03 0.  0.
        -11    1    3    3    0    0  0.25540385875E+02 -0.34203689006E+02 -0.55239909021E+01  0.43043212334E+02  0.51100000000E-03 0. -1.
         23    2    1    0    0    0  0.16915960299E+02  0.86150825684E+00  0.27973644117E+02  0.92298063138E+02  0.86310577478E+02 0.  0.
         11    1    3    3    0    0 -0.86244255764E+01  0.35065197263E+02  0.33497635019E+02  0.49254850804E+02  0.51100000000E-03 0.  1.
         22    1    1    0    0    0 -0.16915960299E+02 -0.86150825684E+00 -0.27973644117E+02  0.32701936862E+02  0.00000000000E+00 0.  1.
</event>
<event>
 5    1  0.1691138E-003  0.9118800E+02  0.7818608E-02  0.1130116E+00
         25   -1    0    0    0    0  0.00000000000E+00  0.00000000000E+00  0.99999998245E-14  0.12500000000E+03  0.12500000000E+03 0.  0.
        -11    1    3    3    0    0 -0.35917157982E+02 -0.13840350191E+02 -0.31499675875E+02  0.49737582485E+02  0.51100000000E-03 0. -1.
         23    2    1    0    0    0 -0.26604290254E+02 -0.35738974871E+02 -0.20859500000E+02  0.75804661552E+02  0.57672917283E+02 0.  0.
         11    1    3    3    0    0  0.93128677282E+01 -0.21898624680E+02  0.10640175875E+02  0.26067079067E+02  0.51100000000E-03 0.  1.
         22    1    1    0    0    0  0.26604290254E+02  0.35738974871E+02  0.20859500000E+02  0.49195338448E+02  0.00000000000E+00 0.  1.
</event>
<event>
 5    1  0.1691138E-003  0.9118800E+02  0.7818608E-02  0.1130116E+00
         25   -1    0    0    0    0  0.00000000000E+00  0.00000000000E+00  0.99999998245E-14  0.12500000000E+03  0.12500000000E+03 0.  0.
        -11    1    3    3    0    0 -0.18976937141E+02 -0.98964471509E+01  0.17680917080E+02  0.27761099375E+02  0.51100000000E-03 0.  1.
         23    2    1    0    0    0  0.18566078966E+02  0.11479592064E+02 -0.27245158076E+02  0.90088985109E+02  0.83049661512E+02 0.  0.
         11    1    3    3    0    0  0.37543016108E+02  0.21376039215E+02 -0.44926075155E+02  0.62327885734E+02  0.51100000000E-03 0. -1.
         22    1    1    0    0    0 -0.18566078966E+02 -0.11479592064E+02  0.27245158076E+02  0.34911014891E+02  0.00000000000E+00 0. -1.
</event>
<event>
 5    1  0.1691138E-003  0.9118800E+02  0.7818608E-02  0.1130116E+00
         25   -1    0    0    0    0  0.00000000000E+00  0.00000000000E+00  0.99999998245E-14  0.12500000000E+03  0.12500000000E+03 0.  0.
        -11    1    3    3    0    0 -0.15439568533E+02 -0.23982865227E+02 -0.24230436100E+02  0.37425554570E+02  0.51100000000E-03 0.  1.
         23    2    1    0    0    0  0.59035453641E+01  0.27582854002E+02 -0.10532630357E+02  0.94890167968E+02  0.89986343363E+02 0.  0.
         11    1    3    3    0    0  0.21343113898E+02  0.51565719230E+02  0.13697805743E+02  0.57464613398E+02  0.51100000000E-03 0. -1.
         22    1    1    0    0    0 -0.59035453641E+01 -0.27582854002E+02  0.10532630357E+02  0.30109832032E+02  0.00000000000E+00 0. -1.
</event>
<event>
 5    1  0.1691138E-003  0.9118800E+02  0.7818608E-02  0.1130116E+00
         25   -1    0    0    0    0  0.00000000000E+00  0.00000000000E+00  0.99999998245E-14  0.12500000000E+03  0.12500000000E+03 0.  0.
        -11    1    3    3    0    0  0.31153845912E+02  0.19083706837E+02 -0.53858246848E+01  0.36929081895E+02  0.51100000000E-03 0. -1.
         23    2    1    0    0    0 -0.82711587116E+01 -0.26407626887E+02 -0.53434476916E+00  0.97322204775E+02  0.93303543307E+02 0.  0.
         11    1    3    3    0    0 -0.39425004624E+02 -0.45491333724E+02  0.48514799157E+01  0.60393122880E+02  0.51100000000E-03 0.  1.
         22    1    1    0    0    0  0.82711587116E+01  0.26407626887E+02  0.53434476916E+00  0.27677795225E+02  0.00000000000E+00 0.  1.
</event>
<event>
 5    1  0.1691138E-003  0.9118800E+02  0.7818608E-02  0.1130116E+00
         25   -1    0    0    0    0  0.00000000000E+00  0.00000000000E+00  0.99999998245E-14  0.12500000000E+03  0.12500000000E+03 0.  0.
        -11    1    3    3    0    0  0.32001037486E+02 -0.25088379017E+02 -0.31864413838E+02  0.51660759105E+02  0.51100000000E-03 0.  1.
         23    2    1    0    0    0  0.97826241968E+01  0.12835558314E+02 -0.23639644972E+02  0.96376860623E+02  0.92028338873E+02 0.  0.
         11    1    3    3    0    0 -0.22218413289E+02  0.37923937331E+02  0.82247688655E+01  0.44716101517E+02  0.51100000000E-03 0. -1.
         22    1    1    0    0    0 -0.97826241968E+01 -0.12835558314E+02  0.23639644972E+02  0.28623139377E+02  0.00000000000E+00 0.  1.
</event>
<event>
 5    1  0.1691138E-003  0.9118800E+02  0.7818608E-02  0.1130116E+00
         25   -1    0    0    0    0  0.00000000000E+00  0.00000000000E+00  0.99999998245E-14  0.12500000000E+03  0.12500000000E+03 0.  0.
        -11    1    3    3    0    0  0.12912427001E+02 -0.27388774628E+02 -0.44759367748E+02  0.54039585011E+02  0.51100000000E-03 0.  1.
         23    2    1    0    0    0 -0.15629855220E+02 -0.18965486035E+02 -0.14575661585E+02  0.96426726729E+02  0.92096045965E+02 0.  0.
         11    1    3    3    0    0 -0.28542282221E+02  0.84232885926E+01  0.30183706163E+02  0.42387141719E+02  0.51100000000E-03 0. -1.
         22    1    1    0    0    0  0.15629855220E+02  0.18965486035E+02  0.14575661585E+02  0.28573273271E+02  0.00000000000E+00 0.  1.
</event>
<event>
 5    1  0.1691138E-003  0.9118800E+02  0.7818608E-02  0.1130116E+00
         25   -1    0    0    0    0  0.00000000000E+00  0.00000000000E+00  0.99999998245E-14  0.12500000000E+03  0.12500000000E+03 0.  0.
        -11    1    3    3    0    0 -0.98558598393E+01  0.21384503658E+02 -0.28551899558E+02  0.37008727869E+02  0.51100000000E-03 0. -1.
         23    2    1    0    0    0  0.29777527032E+02  0.73203800432E+01  0.86313216764E+01  0.93144250220E+02  0.87527495995E+02 0.  0.
         11    1    3    3    0    0  0.39633386872E+02 -0.14064123615E+02  0.37183221235E+02  0.56135522351E+02  0.51100000000E-03 0.  1.
         22    1    1    0    0    0 -0.29777527032E+02 -0.73203800432E+01 -0.86313216764E+01  0.31855749780E+02  0.00000000000E+00 0.  1.
</event>
<event>
 5    1  0.1691138E-003  0.9118800E+02  0.7818608E-02  0.1130116E+00
         25   -1    0    0    0    0  0.00000000000E+00  0.00000000000E+00  0.99999998245E-14  0.12500000000E+03  0.12500000000E+03 0.  0.
        -11    1    3    3    0    0 -0.50045876527E+02 -0.32244475813E+01 -0.28158311048E+02  0.57514148702E+02  0.51100000000E-03 0.  1.
         23    2    1    0    0    0 -0.29291217721E+02 -0.87656018583E+01  0.17932813781E+01  0.94372772414E+02  0.89264736058E+02 0.  0.
         11    1    3    3    0    0  0.20754658807E+02 -0.55411542770E+01  0.29951592426E+02  0.36858623713E+02  0.51100000000E-03 0. -1.
         22    1    1    0    0    0  0.29291217721E+02  0.87656018583E+01 -0.17932813781E+01  0.30627227586E+02  0.00000000000E+00 0.  1.
</event>
<event>
 5    1  0.1691138E-003  0.9118800E+02  0.7818608E-02  0.1130116E+00
         25   -1    0    0    0    0  0.00000000000E+00  0.00000000000E+00  0.99999998245E-14  0.12500000000E+03  0.12500000000E+03 0.  0.
        -11    1    3    3    0    0 -0.46139556530E+01 -0.26149706611E+02  0.48078571768E+02  0.54923991170E+02  0.51100000000E-03 0. -1.
         23    2    1    0    0    0  0.11124023015E+01 -0.28005174094E+02  0.74453188735E+01  0.96000689869E+02  0.91515968374E+02 0.  0.
         11    1    3    3    0    0  0.57263579545E+01 -0.18554674831E+01 -0.40633252894E+02  0.41076698699E+02  0.51100000000E-03 0.  1.
         22    1    1    0    0    0 -0.11124023015E+01  0.28005174094E+02 -0.74453188735E+01  0.28999310131E+02  0.00000000000E+00 0. -1.
</event>
<event>
 5    1  0.1691138E-003  0.9118800E+02  0.7818608E-02  0.1130116E+00
         25   -1    0    0    0    0  0.00000000000E+00  0.00000000000E+00  0.99999998245E-14  0.12500000000E+03  0.12500000000E+03 0.  0.
        -11    1    3    3    0    0 -0.35349004032E+02 -0.73591910546E+01 -0.48885640259E+02  0.60774300513E+02  0.51100000000E-03 0.  1.
         23    2    1    0    0    0 -0.24342143107E+02  0.39448887730E+01 -0.21972133282E+02  0.91971577097E+02  0.85836439082E+02 0.  0.
         11    1    3    3    0    0  0.11006860925E+02  0.11304079828E+02  0.26913506977E+02  0.31197276584E+02  0.51100000000E-03 0. -1.
         22    1    1    0    0    0  0.24342143107E+02 -0.39448887730E+01  0.21972133282E+02  0.33028422903E+02  0.00000000000E+00 0.  1.
</event>
<event>
 5    1  0.1691138E-003  0.9118800E+02  0.7818608E-02  0.1130116E+00
         25   -1    0    0    0    0  0.00000000000E+00  0.00000000000E+00  0.99999998245E-14  0.12500000000E+03  0.12500000000E+03 0.  0.
        -11    1    3    3    0    0  0.27879467045E+02 -0.31703520348E+02  0.30755607327E+02  0.52232990221E+02  0.51100000000E-03 0.  1.
         23    2    1    0    0    0 -0.11574784603E+02 -0.22646811227E+02  0.13012089082E+02  0.96431343055E+02  0.92102311392E+02 0.  0.
         11    1    3    3    0    0 -0.39454251648E+02  0.90567091206E+01 -0.17743518246E+02  0.44198352834E+02  0.51100000000E-03 0. -1.
         22    1    1    0    0    0  0.11574784603E+02  0.22646811227E+02 -0.13012089082E+02  0.28568656945E+02  0.00000000000E+00 0.  1.
</event>
<event>
 5    1  0.1691138E-003  0.9118800E+02  0.7818608E-02  0.1130116E+00
         25   -1    0    0    0    0  0.00000000000E+00  0.00000000000E+00  0.99999998245E-14  0.12500000000E+03  0.12500000000E+03 0.  0.
        -11    1    3    3    0    0  0.33345629079E+02  0.35560628388E+02 -0.36596564263E+02  0.60957343989E+02  0.51100000000E-03 0.  1.
         23    2    1    0    0    0  0.10163590130E+02  0.23198769113E+02 -0.11894641687E+02  0.97018506946E+02  0.92895784278E+02 0.  0.
         11    1    3    3    0    0 -0.23182038950E+02 -0.12361859275E+02  0.24701922576E+02  0.36061162957E+02  0.51100000000E-03 0. -1.
         22    1    1    0    0    0 -0.10163590130E+02 -0.23198769113E+02  0.11894641687E+02  0.27981493054E+02  0.00000000000E+00 0.  1.
</event>
<event>
 4    1  0.1691138E-003  0.9118800E+02  0.7818608E-02  0.1130116E+00
         25   -1    0    0    0    0  0.00000000000E+00  0.00000000000E+00  0.99999998245E-14  0.12500000000E+03  0.12500000000E+03 0.  0.
        -11    1    1    0    0    0  0.15938203939E+02  0.26936882216E+02  0.17101828074E+02  0.35666433689E+02  0.51100000000E-03 0.  1.
         11    1    1    0    0    0  0.20138454363E+02  0.10886180381E+02 -0.27766888790E+02  0.35987030730E+02  0.51100000000E-03 0. -1.
         22    1    1    0    0    0 -0.36076658303E+02 -0.37823062597E+02  0.10665060715E+02  0.53346535581E+02  0.00000000000E+00 0. -1.
</event>
<event>
 5    1  0.1691138E-003  0.9118800E+02  0.7818608E-02  0.1130116E+00
         25   -1    0    0    0    0  0.00000000000E+00  0.00000000000E+00  0.99999998245E-14  0.12500000000E+03  0.12500000000E+03 0.  0.
        -11    1    3    3    0    0  0.20948146172E+02 -0.37738266668E+02  0.55414616224E+01  0.43516771437E+02  0.51100000000E-03 0.  1.
         23    2    1    0    0    0  0.24623147446E+02  0.11275187148E+02  0.15685397591E+02  0.93703659432E+02  0.88322787874E+02 0.  0.
         11    1    3    3    0    0  0.36750012747E+01  0.49013453816E+02  0.10143935969E+02  0.50186887994E+02  0.51100000000E-03 0. -1.
         22    1    1    0    0    0 -0.24623147446E+02 -0.11275187148E+02 -0.15685397591E+02  0.31296340568E+02  0.00000000000E+00 0.  1.
</event>
<event>
 5    1  0.1691138E-003  0.9118800E+02  0.7818608E-02  0.1130116E+00
         25   -1    0    0    0    0  0.00000000000E+00  0.00000000000E+00  0.99999998245E-14  0.12500000000E+03  0.12500000000E+03 0.  0.
        -11    1    3    3    0    0 -0.10922088345E+02  0.34704806167E+02  0.12782140592E+02  0.38562918760E+02  0.51100000000E-03 0. -1.
         23    2    1    0    0    0 -0.12406889437E+02 -0.83651679669E+01 -0.24992498701E+02  0.95870428566E+02  0.91337873533E+02 0.  0.
         11    1    3    3    0    0 -0.14848010920E+01 -0.43069974134E+02 -0.37774639293E+02  0.57307509806E+02  0.51100000000E-03 0.  1.
         22    1    1    0    0    0  0.12406889437E+02  0.83651679669E+01  0.24992498701E+02  0.29129571434E+02  0.00000000000E+00 0.  1.
</event>
<event>
 5    1  0.1691138E-003  0.9118800E+02  0.7818608E-02  0.1130116E+00
         25   -1    0    0    0    0  0.00000000000E+00  0.00000000000E+00  0.99999998245E-14  0.12500000000E+03  0.12500000000E+03 0.  0.
        -11    1    3    3    0    0  0.44174791508E+01  0.41103897362E+02 -0.41716848888E+02  0.58731081906E+02  0.51100000000E-03 0.  1.
         23    2    1    0    0    0 -0.53655578098E+01  0.91201121219E+01 -0.28332194487E+02  0.94756341158E+02  0.89800252168E+02 0.  0.
         11    1    3    3    0    0 -0.97830369605E+01 -0.31983785240E+02  0.13384654402E+02  0.36025259252E+02  0.51100000000E-03 0. -1.
         22    1    1    0    0    0  0.53655578098E+01 -0.91201121219E+01  0.28332194487E+02  0.30243658842E+02  0.00000000000E+00 0.  1.
</event>
<event>
 5    1  0.1691138E-003  0.9118800E+02  0.7818608E-02  0.1130116E+00
         25   -1    0    0    0    0  0.00000000000E+00  0.00000000000E+00  0.99999998245E-14  0.12500000000E+03  0.12500000000E+03 0.  0.
        -11    1    3    3    0    0 -0.33054070673E+02  0.76483971125E+01  0.93779217725E+01  0.35199644650E+02  0.51100000000E-03 0.  1.
         23    2    1    0    0    0  0.22880716748E+02 -0.14295112425E+02  0.12285954497E+02  0.95355065929E+02  0.90629832188E+02 0.  0.
         11    1    3    3    0    0  0.55934787422E+02 -0.21943509537E+02  0.29080327240E+01  0.60155421279E+02  0.51100000000E-03 0. -1.
         22    1    1    0    0    0 -0.22880716748E+02  0.14295112425E+02 -0.12285954497E+02  0.29644934071E+02  0.00000000000E+00 0. -1.
</event>
<event>
 5    1  0.1691138E-003  0.9118800E+02  0.7818608E-02  0.1130116E+00
         25   -1    0    0    0    0  0.00000000000E+00  0.00000000000E+00  0.99999998245E-14  0.12500000000E+03  0.12500000000E+03 0.  0.
        -11    1    3    3    0    0  0.41206898185E+02 -0.35068073375E+01  0.30220067549E+02  0.51220685652E+02  0.51100000000E-03 0.  1.
         23    2    1    0    0    0  0.19543111970E+02 -0.20776423415E+02 -0.50104212681E+01  0.96039728650E+02  0.91569275209E+02 0.  0.
         11    1    3    3    0    0 -0.21663786215E+02 -0.17269616078E+02 -0.35230488817E+02  0.44819042997E+02  0.51100000000E-03 0. -1.
         22    1    1    0    0    0 -0.19543111970E+02  0.20776423415E+02  0.50104212681E+01  0.28960271350E+02  0.00000000000E+00 0.  1.
</event>
<event>
 5    1  0.1691138E-003  0.9118800E+02  0.7818608E-02  0.1130116E+00
         25   -1    0    0    0    0  0.00000000000E+00  0.00000000000E+00  0.99999998245E-14  0.12500000000E+03  0.12500000000E+03 0.  0.
        -11    1    3    3    0    0  0.27534780540E+02  0.82627355082E+01  0.20179263812E+02  0.35123206370E+02  0.51100000000E-03 0. -1.
         23    2    1    0    0    0 -0.29427447249E+02  0.48275643039E+01  0.16036569348E+01  0.95136113041E+02  0.90327339495E+02 0.  0.
         11    1    3    3    0    0 -0.56962227790E+02 -0.34351712043E+01 -0.18575606877E+02  0.60012906671E+02  0.51100000000E-03 0.  1.
         22    1    1    0    0    0  0.29427447249E+02 -0.48275643039E+01 -0.16036569348E+01  0.29863886959E+02  0.00000000000E+00 0.  1.
</event>
<event>
 5    1  0.1691138E-003  0.9118800E+02  0.7818608E-02  0.1130116E+00
         25   -1    0    0    0    0  0.00000000000E+00  0.00000000000E+00  0.99999998245E-14  0.12500000000E+03  0.12500000000E+03 0.  0.
        -11    1    3    3    0    0  0.23307839999E+02  0.43496428921E+02 -0.99793165457E+01  0.50346613524E+02  0.51100000000E-03 0.  1.
         23    2    1    0    0    0  0.28400687605E+02 -0.17106032315E+01 -0.50085365940E+01  0.96110371088E+02  0.91665657539E+02 0.  0.
         11    1    3    3    0    0  0.50928476066E+01 -0.45207032153E+02  0.49707799517E+01  0.45763757564E+02  0.51100000000E-03 0. -1.
         22    1    1    0    0    0 -0.28400687605E+02  0.17106032315E+01  0.50085365940E+01  0.28889628912E+02  0.00000000000E+00 0.  1.
</event>
<event>
 5    1  0.1691138E-003  0.9118800E+02  0.7818608E-02  0.1130116E+00
         25   -1    0    0    0    0  0.00000000000E+00  0.00000000000E+00  0.99999998245E-14  0.12500000000E+03  0.12500000000E+03 0.  0.
        -11    1    3    3    0    0  0.15672438061E+02  0.28711754652E+02  0.57906024640E+01  0.33219290287E+02  0.51100000000E-03 0. -1.
         23    2    1    0    0    0 -0.30277813411E+02  0.91107455407E+01 -0.18070654789E+02  0.88581594849E+02  0.80748985828E+02 0.  0.
         11    1    3    3    0    0 -0.45950251471E+02 -0.19601009112E+02 -0.23861257254E+02  0.55362304562E+02  0.51100000000E-03 0.  1.
         22    1    1    0    0    0  0.30277813411E+02 -0.91107455407E+01  0.18070654789E+02  0.36418405151E+02  0.00000000000E+00 0.  1.
</event>
<event>
 5    1  0.1691138E-003  0.9118800E+02  0.7818608E-02  0.1130116E+00
         25   -1    0    0    0    0  0.00000000000E+00  0.00000000000E+00  0.99999998245E-14  0.12500000000E+03  0.12500000000E+03 0.  0.
        -11    1    3    3    0    0 -0.17039618219E+02  0.31096340879E+02  0.78326359766E+01  0.36313650212E+02  0.51100000000E-03 0. -1.
         23    2    1    0    0    0  0.10921370742E+02 -0.64500061954E+01 -0.27335141073E+02  0.94865487290E+02  0.89952052909E+02 0.  0.
         11    1    3    3    0    0  0.27960988961E+02 -0.37546347075E+02 -0.35167777049E+02  0.58551837078E+02  0.51100000000E-03 0.  1.
         22    1    1    0    0    0 -0.10921370742E+02  0.64500061954E+01  0.27335141073E+02  0.30134512710E+02  0.00000000000E+00 0.  1.
</event>
<event>
 5    1  0.1691138E-003  0.9118800E+02  0.7818608E-02  0.1130116E+00
         25   -1    0    0    0    0  0.00000000000E+00  0.00000000000E+00  0.99999998245E-14  0.12500000000E+03  0.12500000000E+03 0.  0.
        -11    1    3    3    0    0  0.17328964436E+02 -0.41909527157E+02 -0.35599492213E+02  0.57654360816E+02  0.51100000000E-03 0.  1.
         23    2    1    0    0    0  0.23771025734E+02 -0.12110297831E+02 -0.16871988435E+02  0.93434433764E+02  0.87940937231E+02 0.  0.
         11    1    3    3    0    0  0.64420612989E+01  0.29799229326E+02  0.18727503778E+02  0.35780072949E+02  0.51100000000E-03 0. -1.
         22    1    1    0    0    0 -0.23771025734E+02  0.12110297831E+02  0.16871988435E+02  0.31565566236E+02  0.00000000000E+00 0. -1.
</event>
<event>
 5    1  0.1691138E-003  0.9118800E+02  0.7818608E-02  0.1130116E+00
         25   -1    0    0    0    0  0.00000000000E+00  0.00000000000E+00  0.99999998245E-14  0.12500000000E+03  0.12500000000E+03 0.  0.
        -11    1    3    3    0    0 -0.14565132819E+01 -0.55603059057E+01 -0.60890805284E+02  0.61161496066E+02  0.51100000000E-03 0.  1.
         23    2    1    0    0    0 -0.54034326559E+01 -0.10260297341E+02 -0.26823743699E+02  0.95776995158E+02  0.91209916070E+02 0.  0.
         11    1    3    3    0    0 -0.39469193740E+01 -0.46999914353E+01  0.34067061585E+02  0.34615499091E+02  0.51100000000E-03 0. -1.
         22    1    1    0    0    0  0.54034326559E+01  0.10260297341E+02  0.26823743699E+02  0.29223004842E+02  0.00000000000E+00 0.  1.
</event>
<event>
 5    1  0.1691138E-003  0.9118800E+02  0.7818608E-02  0.1130116E+00
         25   -1    0    0    0    0  0.00000000000E+00  0.00000000000E+00  0.99999998245E-14  0.12500000000E+03  0.12500000000E+03 0.  0.
        -11    1    3    3    0    0  0.24302830627E+01 -0.40130057493E+02 -0.13643204317E+02  0.42455445051E+02  0.51100000000E-03 0. -1.
         23    2    1    0    0    0 -0.26228887897E+02  0.55606583820E+01 -0.95212127750E+01  0.96547777334E+02  0.92260199075E+02 0.  0.
         11    1    3    3    0    0 -0.28659170960E+02  0.45690715875E+02  0.41219915419E+01  0.54092332283E+02  0.51100000000E-03 0.  1.
         22    1    1    0    0    0  0.26228887897E+02 -0.55606583820E+01  0.95212127750E+01  0.28452222666E+02  0.00000000000E+00 0.  1.
</event>
<event>
 5    1  0.1691138E-003  0.9118800E+02  0.7818608E-02  0.1130116E+00
         25   -1    0    0    0    0  0.00000000000E+00  0.00000000000E+00  0.99999998245E-14  0.12500000000E+03  0.12500000000E+03 0.  0.
        -11    1    3    3    0    0 -0.31303563108E+02 -0.19129133977E+02  0.67682340714E+01  0.37304769436E+02  0.51100000000E-03 0.  1.
         23    2    1    0    0    0  0.16469222187E+02  0.43949107551E+01  0.25990536115E+02  0.93918518575E+02  0.88626348474E+02 0.  0.
         11    1    3    3    0    0  0.47772785295E+02  0.23524044732E+02  0.19222302044E+02  0.56613749139E+02  0.51100000000E-03 0. -1.
         22    1    1    0    0    0 -0.16469222187E+02 -0.43949107551E+01 -0.25990536115E+02  0.31081481425E+02  0.00000000000E+00 0. -1.
</event>
<event>
 5    1  0.1691138E-003  0.9118800E+02  0.7818608E-02  0.1130116E+00
         25   -1    0    0    0    0  0.00000000000E+00  0.00000000000E+00  0.99999998245E-14  0.12500000000E+03  0.12500000000E+03 0.  0.
        -11    1    3    3    0    0 -0.19248365696E+02 -0.27570437957E+02 -0.82664237415E+01  0.34626036343E+02  0.51100000000E-03 0.  1.
         23    2    1    0    0    0  0.18985035980E+02  0.18901218258E+02  0.81407280215E+01  0.97000730446E+02  0.92871861247E+02 0.  0.
         11    1    3    3    0    0  0.38233401677E+02  0.46471656215E+02  0.16407151763E+02  0.62374694103E+02  0.51100000000E-03 0. -1.
         22    1    1    0    0    0 -0.18985035980E+02 -0.18901218258E+02 -0.81407280215E+01  0.27999269554E+02  0.00000000000E+00 0. -1.
</event>
<event>
 5    1  0.1691138E-003  0.9118800E+02  0.7818608E-02  0.1130116E+00
         25   -1    0    0    0    0  0.00000000000E+00  0.00000000000E+00  0.99999998245E-14  0.12500000000E+03  0.12500000000E+03 0.  0.
        -11    1    3    3    0    0  0.34556151654E+02  0.71694928253E+01  0.14741119146E+02  0.38246958552E+02  0.51100000000E-03 0. -1.
         23    2    1    0    0    0 -0.21132477083E+02 -0.24113386471E+01  0.21013484979E+02  0.95100791102E+02  0.90278445797E+02 0.  0.
         11    1    3    3    0    0 -0.55688628737E+02 -0.95808314724E+01  0.62723658329E+01  0.56853832551E+02  0.51100000000E-03 0.  1.
         22    1    1    0    0    0  0.21132477083E+02  0.24113386471E+01 -0.21013484979E+02  0.29899208898E+02  0.00000000000E+00 0.  1.
</event>
<event>
 5    1  0.1691138E-003  0.9118800E+02  0.7818608E-02  0.1130116E+00
         25   -1    0    0    0    0  0.00000000000E+00  0.00000000000E+00  0.99999998245E-14  0.12500000000E+03  0.12500000000E+03 0.  0.
        -11    1    3    3    0    0 -0.46468608176E+02  0.48514434819E+01 -0.19714078955E+02  0.50710087350E+02  0.51100000000E-03 0.  1.
         23    2    1    0    0    0 -0.14880947710E+02 -0.24373220438E+02 -0.90235368230E+01  0.95051365706E+02  0.90209985182E+02 0.  0.
         11    1    3    3    0    0  0.31587660467E+02 -0.29224663920E+02  0.10690542132E+02  0.44341278357E+02  0.51100000000E-03 0. -1.
         22    1    1    0    0    0  0.14880947710E+02  0.24373220438E+02  0.90235368230E+01  0.29948634294E+02  0.00000000000E+00 0.  1.
</event>
<event>
 5    1  0.1691138E-003  0.9118800E+02  0.7818608E-02  0.1130116E+00
         25   -1    0    0    0    0  0.00000000000E+00  0.00000000000E+00  0.99999998245E-14  0.12500000000E+03  0.12500000000E+03 0.  0.
        -11    1    3    3    0    0  0.13571291394E+02 -0.21246637256E+02 -0.25344177784E+02  0.35748103343E+02  0.51100000000E-03 0.  1.
         23    2    1    0    0    0  0.51371849650E+01  0.30716349191E+02 -0.76212406160E+00  0.93847702973E+02  0.88526412687E+02 0.  0.
         11    1    3    3    0    0 -0.84341064291E+01  0.51962986447E+02  0.24582053722E+02  0.58099599630E+02  0.51100000000E-03 0. -1.
         22    1    1    0    0    0 -0.51371849650E+01 -0.30716349191E+02  0.76212406160E+00  0.31152297027E+02  0.00000000000E+00 0. -1.
</event>
<event>
 5    1  0.1691138E-003  0.9118800E+02  0.7818608E-02  0.1130116E+00
         25   -1    0    0    0    0  0.00000000000E+00  0.00000000000E+00  0.99999998245E-14  0.12500000000E+03  0.12500000000E+03 0.  0.
        -11    1    3    3    0    0  0.19447731093E+02 -0.98507123429E+01  0.58378963146E+02  0.62316563741E+02  0.51100000000E-03 0.  1.
         23    2    1    0    0    0  0.49658795822E+01 -0.60946262577E+01  0.19476162262E+02  0.10399701627E+03  0.10185408223E+03 0.  0.
         11    1    3    3    0    0 -0.14481851511E+02  0.37560860852E+01 -0.38902800884E+02  0.41680452525E+02  0.51100000000E-03 0. -1.
         22    1    1    0    0    0 -0.49658795822E+01  0.60946262577E+01 -0.19476162262E+02  0.21002983733E+02  0.00000000000E+00 0.  1.
</event>
<event>
 5    1  0.1691138E-003  0.9118800E+02  0.7818608E-02  0.1130116E+00
         25   -1    0    0    0    0  0.00000000000E+00  0.00000000000E+00  0.99999998245E-14  0.12500000000E+03  0.12500000000E+03 0.  0.
        -11    1    3    3    0    0 -0.26002049043E+02 -0.22957480365E+02  0.74967270315E+01  0.35487369240E+02  0.51100000000E-03 0. -1.
         23    2    1    0    0    0  0.25516414708E+02 -0.40705929073E+00 -0.14235927725E+02  0.95778180156E+02  0.91211540054E+02 0.  0.
         11    1    3    3    0    0  0.51518463751E+02  0.22550421075E+02 -0.21732654756E+02  0.60290810916E+02  0.51100000000E-03 0.  1.
         22    1    1    0    0    0 -0.25516414708E+02  0.40705929073E+00  0.14235927725E+02  0.29221819844E+02  0.00000000000E+00 0.  1.
</event>
<event>
 5    1  0.1691138E-003  0.9118800E+02  0.7818608E-02  0.1130116E+00
         25   -1    0    0    0    0  0.00000000000E+00  0.00000000000E+00  0.99999998245E-14  0.12500000000E+03  0.12500000000E+03 0.  0.
        -11    1    3    3    0    0 -0.51034343149E+02 -0.12486061684E+02 -0.15434602317E+02  0.54759774160E+02  0.51100000000E-03 0.  1.
         23    2    1    0    0    0 -0.14975725589E+02 -0.24702917982E+02  0.68594603379E+00  0.96104030805E+02  0.91657011195E+02 0.  0.
         11    1    3    3    0    0  0.36058617560E+02 -0.12216856298E+02  0.16120548351E+02  0.41344256645E+02  0.51100000000E-03 0. -1.
         22    1    1    0    0    0  0.14975725589E+02  0.24702917982E+02 -0.68594603379E+00  0.28895969195E+02  0.00000000000E+00 0.  1.
</event>
<event>
 5    1  0.1691138E-003  0.9118800E+02  0.7818608E-02  0.1130116E+00
         25   -1    0    0    0    0  0.00000000000E+00  0.00000000000E+00  0.99999998245E-14  0.12500000000E+03  0.12500000000E+03 0.  0.
        -11    1    3    3    0    0  0.30068979665E+02 -0.32165465726E+02  0.17977094622E+02  0.47559821853E+02  0.51100000000E-03 0. -1.
         23    2    1    0    0    0  0.12580545969E+02  0.13257472393E+02  0.21999637695E+02  0.96399042501E+02  0.92058463084E+02 0.  0.
         11    1    3    3    0    0 -0.17488433696E+02  0.45422938118E+02  0.40225430735E+01  0.48839220648E+02  0.51100000000E-03 0.  1.
         22    1    1    0    0    0 -0.12580545969E+02 -0.13257472393E+02 -0.21999637695E+02  0.28600957499E+02  0.00000000000E+00 0.  1.
</event>
<event>
 5    1  0.1691138E-003  0.9118800E+02  0.7818608E-02  0.1130116E+00
         25   -1    0    0    0    0  0.00000000000E+00  0.00000000000E+00  0.99999998245E-14  0.12500000000E+03  0.12500000000E+03 0.  0.
        -11    1    3    3    0    0  0.55692521735E+02 -0.38787029316E+01 -0.19993108183E+02  0.59299457744E+02  0.51100000000E-03 0. -1.
         23    2    1    0    0    0  0.22717603502E+02  0.10280434787E+02 -0.15919204426E+02  0.95416255851E+02  0.90714188321E+02 0.  0.
         11    1    3    3    0    0 -0.32974918233E+02  0.14159137719E+02  0.40739037567E+01  0.36116798107E+02  0.51100000000E-03 0.  1.
         22    1    1    0    0    0 -0.22717603502E+02 -0.10280434787E+02  0.15919204426E+02  0.29583744149E+02  0.00000000000E+00 0. -1.
</event>
<event>
 5    1  0.1691138E-003  0.9118800E+02  0.7818608E-02  0.1130116E+00
         25   -1    0    0    0    0  0.00000000000E+00  0.00000000000E+00  0.99999998245E-14  0.12500000000E+03  0.12500000000E+03 0.  0.
        -11    1    3    3    0    0  0.24117114986E+02 -0.44182320567E+01  0.22814554164E+02  0.33491191256E+02  0.51100000000E-03 0.  1.
         23    2    1    0    0    0 -0.25128990866E+02 -0.47818728780E+01 -0.14788136933E+02  0.95453063034E+02  0.90764892764E+02 0.  0.
         11    1    3    3    0    0 -0.49246105852E+02 -0.36364082130E+00 -0.37602691097E+02  0.61961871778E+02  0.51100000000E-03 0. -1.
         22    1    1    0    0    0  0.25128990866E+02  0.47818728780E+01  0.14788136933E+02  0.29546936966E+02  0.00000000000E+00 0. -1.
</event>
<event>
 5    1  0.1691138E-003  0.9118800E+02  0.7818608E-02  0.1130116E+00
         25   -1    0    0    0    0  0.00000000000E+00  0.00000000000E+00  0.99999998245E-14  0.12500000000E+03  0.12500000000E+03 0.  0.
        -11    1    3    3    0    0  0.47753023632E+02 -0.11566381574E+02  0.71386065525E+01  0.49649694384E+02  0.51100000000E-03 0.  1.
         23    2    1    0    0    0  0.88949604384E+01 -0.30506376981E+02  0.35159529565E+01  0.93029368432E+02  0.87363276655E+02 0.  0.
         11    1    3    3    0    0 -0.38858063193E+02 -0.18939995407E+02 -0.36226535960E+01  0.43379674047E+02  0.51100000000E-03 0. -1.
         22    1    1    0    0    0 -0.88949604384E+01  0.30506376981E+02 -0.35159529565E+01  0.31970631568E+02  0.00000000000E+00 0.  1.
</event>
<event>
 5    1  0.1691138E-003  0.9118800E+02  0.7818608E-02  0.1130116E+00
         25   -1    0    0    0    0  0.00000000000E+00  0.00000000000E+00  0.99999998245E-14  0.12500000000E+03  0.12500000000E+03 0.  0.
        -11    1    3    3    0    0  0.13372141792E+02  0.39849333230E+02  0.33997704609E+00  0.42034499160E+02  0.51100000000E-03 0.  1.
         23    2    1    0    0    0 -0.46172048609E+01 -0.27989280461E+01 -0.28116864435E+02  0.96369410684E+02  0.92018219234E+02 0.  0.
         11    1    3    3    0    0 -0.17989346653E+02 -0.42648261276E+02 -0.28456841481E+02  0.54334911523E+02  0.51100000000E-03 0. -1.
         22    1    1    0    0    0  0.46172048609E+01  0.27989280461E+01  0.28116864435E+02  0.28630589316E+02  0.00000000000E+00 0. -1.
</event>
<event>
 5    1  0.1691138E-003  0.9118800E+02  0.7818608E-02  0.1130116E+00
         25   -1    0    0    0    0  0.00000000000E+00  0.00000000000E+00  0.99999998245E-14  0.12500000000E+03  0.12500000000E+03 0.  0.
        -11    1    3    3    0    0 -0.21085593396E+02  0.43680516657E+02  0.35522037388E+02  0.60119921197E+02  0.51100000000E-03 0.  1.
         23    2    1    0    0    0 -0.16815547693E+02  0.11762817842E+02  0.21610078124E+02  0.95198624120E+02  0.90413804422E+02 0.  0.
         11    1    3    3    0    0  0.42700457035E+01 -0.31917698815E+02 -0.13911959264E+02  0.35078702923E+02  0.51100000000E-03 0. -1.
         22    1    1    0    0    0  0.16815547693E+02 -0.11762817842E+02 -0.21610078124E+02  0.29801375880E+02  0.00000000000E+00 0.  1.
</event>
<event>
 5    1  0.1691138E-003  0.9118800E+02  0.7818608E-02  0.1130116E+00
         25   -1    0    0    0    0  0.00000000000E+00  0.00000000000E+00  0.99999998245E-14  0.12500000000E+03  0.12500000000E+03 0.  0.
        -11    1    3    3    0    0  0.26986053068E+02 -0.27822140372E+02 -0.10387929530E+02  0.40127641785E+02  0.51100000000E-03 0. -1.
         23    2    1    0    0    0  0.54460704480E+01  0.23880848961E+02 -0.14917556381E+02  0.96320946341E+02  0.91952360411E+02 0.  0.
         11    1    3    3    0    0 -0.21539982620E+02  0.51702989332E+02 -0.45296268512E+01  0.56193304555E+02  0.51100000000E-03 0.  1.
         22    1    1    0    0    0 -0.54460704480E+01 -0.23880848961E+02  0.14917556381E+02  0.28679053659E+02  0.00000000000E+00 0.  1.
</event>
<event>
 5    1  0.1691138E-003  0.9118800E+02  0.7818608E-02  0.1130116E+00
         25   -1    0    0    0    0  0.00000000000E+00  0.00000000000E+00  0.99999998245E-14  0.12500000000E+03  0.12500000000E+03 0.  0.
        -11    1    3    3    0    0  0.42594277956E+02 -0.28908886911E+02 -0.11218194493E+02  0.52686280425E+02  0.51100000000E-03 0.  1.
         23    2    1    0    0    0  0.18033399347E+01 -0.19098847492E+02 -0.21806935483E+02  0.95955887935E+02  0.91454753752E+02 0.  0.
         11    1    3    3    0    0 -0.40790938022E+02  0.98100394189E+01 -0.10588740990E+02  0.43269607510E+02  0.51100000000E-03 0. -1.
         22    1    1    0    0    0 -0.18033399347E+01  0.19098847492E+02  0.21806935483E+02  0.29044112065E+02  0.00000000000E+00 0. -1.
</event>
<event>
 5    1  0.1691138E-003  0.9118800E+02  0.7818608E-02  0.1130116E+00
         25   -1    0    0    0    0  0.00000000000E+00  0.00000000000E+00  0.99999998245E-14  0.12500000000E+03  0.12500000000E+03 0.  0.
        -11    1    3    3    0    0 -0.10182030693E+02 -0.15854654259E+02  0.26980966382E+02  0.32909213875E+02  0.51100000000E-03 0.  1.
         23    2    1    0    0    0  0.13110431474E+02  0.24720604359E+02 -0.12713671076E+02  0.94265180568E+02  0.89113944711E+02 0.  0.
         11    1    3    3    0    0  0.23292462167E+02  0.40575258618E+02 -0.39694637457E+02  0.61355966693E+02  0.51100000000E-03 0. -1.
         22    1    1    0    0    0 -0.13110431474E+02 -0.24720604359E+02  0.12713671076E+02  0.30734819432E+02  0.00000000000E+00 0. -1.
</event>
<event>
 5    1  0.1691138E-003  0.9118800E+02  0.7818608E-02  0.1130116E+00
         25   -1    0    0    0    0  0.00000000000E+00  0.00000000000E+00  0.99999998245E-14  0.12500000000E+03  0.12500000000E+03 0.  0.
        -11    1    3    3    0    0  0.33609755392E+02  0.81475063145E+01  0.13011005533E+01  0.34607663596E+02  0.51100000000E-03 0.  1.
         23    2    1    0    0    0 -0.28084215456E+02 -0.48211471088E+00  0.37324550523E+00  0.96909166894E+02  0.92748540277E+02 0.  0.
         11    1    3    3    0    0 -0.61693970848E+02 -0.86296210254E+01 -0.92785504809E+00  0.62301503299E+02  0.51100000000E-03 0. -1.
         22    1    1    0    0    0  0.28084215456E+02  0.48211471088E+00 -0.37324550523E+00  0.28090833106E+02  0.00000000000E+00 0. -1.
</event>
<event>
 5    1  0.1691138E-003  0.9118800E+02  0.7818608E-02  0.1130116E+00
         25   -1    0    0    0    0  0.00000000000E+00  0.00000000000E+00  0.99999998245E-14  0.12500000000E+03  0.12500000000E+03 0.  0.
        -11    1    3    3    0    0  0.20589770150E+02 -0.96935805784E+01  0.28668940249E+02  0.36603446211E+02  0.51100000000E-03 0.  1.
         23    2    1    0    0    0 -0.97116484866E+01  0.27816962813E+02 -0.45895970579E+01  0.95181147949E+02  0.90389639823E+02 0.  0.
         11    1    3    3    0    0 -0.30301418637E+02  0.37510543391E+02 -0.33258537307E+02  0.58577701738E+02  0.51100000000E-03 0. -1.
         22    1    1    0    0    0  0.97116484866E+01 -0.27816962813E+02  0.45895970579E+01  0.29818852051E+02  0.00000000000E+00 0.  1.
</event>
<event>
 5    1  0.1691138E-003  0.9118800E+02  0.7818608E-02  0.1130116E+00
         25   -1    0    0    0    0  0.00000000000E+00  0.00000000000E+00  0.99999998245E-14  0.12500000000E+03  0.12500000000E+03 0.  0.
        -11    1    3    3    0    0  0.11056235508E+02  0.39004147486E+02  0.21778289912E+01  0.40599344873E+02  0.51100000000E-03 0. -1.
         23    2    1    0    0    0 -0.19788249915E+02  0.55976262275E+01 -0.24261015312E+02  0.93195831751E+02  0.87601129774E+02 0.  0.
         11    1    3    3    0    0 -0.30844485422E+02 -0.33406521259E+02 -0.26438844303E+02  0.52596486878E+02  0.51100000000E-03 0.  1.
         22    1    1    0    0    0  0.19788249915E+02 -0.55976262275E+01  0.24261015312E+02  0.31804168249E+02  0.00000000000E+00 0.  1.
</event>
<event>
 5    1  0.1691138E-003  0.9118800E+02  0.7818608E-02  0.1130116E+00
         25   -1    0    0    0    0  0.00000000000E+00  0.00000000000E+00  0.99999998245E-14  0.12500000000E+03  0.12500000000E+03 0.  0.
        -11    1    3    3    0    0 -0.38141234084E+02  0.66313488679E+01 -0.44929525404E+02  0.59307594611E+02  0.51100000000E-03 0.  1.
         23    2    1    0    0    0 -0.91341193340E+01 -0.65950414567E+01 -0.26673222012E+02  0.96045078478E+02  0.91576577898E+02 0.  0.
         11    1    3    3    0    0  0.29007114750E+02 -0.13226390325E+02  0.18256303391E+02  0.36737483867E+02  0.51100000000E-03 0. -1.
         22    1    1    0    0    0  0.91341193340E+01  0.65950414567E+01  0.26673222012E+02  0.28954921522E+02  0.00000000000E+00 0.  1.
</event>
<event>
 5    1  0.1691138E-003  0.9118800E+02  0.7818608E-02  0.1130116E+00
         25   -1    0    0    0    0  0.00000000000E+00  0.00000000000E+00  0.99999998245E-14  0.12500000000E+03  0.12500000000E+03 0.  0.
        -11    1    3    3    0    0 -0.58126060713E+02 -0.10115727648E+02 -0.79666727607E+00  0.59005097736E+02  0.51100000000E-03 0.  1.
         23    2    1    0    0    0 -0.24373770650E+02  0.67811611815E+01 -0.98993981037E+01  0.97832686450E+02  0.93984954182E+02 0.  0.
         11    1    3    3    0    0  0.33752290062E+02  0.16896888830E+02 -0.91027308276E+01  0.38827588714E+02  0.51100000000E-03 0. -1.
         22    1    1    0    0    0  0.24373770650E+02 -0.67811611815E+01  0.98993981037E+01  0.27167313550E+02  0.00000000000E+00 0.  1.
</event>
<event>
 5    1  0.1691138E-003  0.9118800E+02  0.7818608E-02  0.1130116E+00
         25   -1    0    0    0    0  0.00000000000E+00  0.00000000000E+00  0.99999998245E-14  0.12500000000E+03  0.12500000000E+03 0.  0.
        -11    1    3    3    0    0 -0.57645407550E+00 -0.33005761264E+01 -0.43470586440E+02  0.43599518206E+02  0.51100000000E-03 0. -1.
         23    2    1    0    0    0  0.11948033970E+02 -0.26103664502E+02  0.22499811333E+01  0.96203833045E+02  0.91793018587E+02 0.  0.
         11    1    3    3    0    0  0.12524488046E+02 -0.22803088375E+02  0.45720567573E+02  0.52604314840E+02  0.51100000000E-03 0.  1.
         22    1    1    0    0    0 -0.11948033970E+02  0.26103664502E+02 -0.22499811333E+01  0.28796166955E+02  0.00000000000E+00 0. -1.
</event>
<event>
 5    1  0.1691138E-003  0.9118800E+02  0.7818608E-02  0.1130116E+00
         25   -1    0    0    0    0  0.00000000000E+00  0.00000000000E+00  0.99999998245E-14  0.12500000000E+03  0.12500000000E+03 0.  0.
        -11    1    3    3    0    0  0.54399602963E+01 -0.26807988979E+02  0.29268269861E+02  0.40061116585E+02  0.51100000000E-03 0.  1.
         23    2    1    0    0    0  0.25826244937E+02  0.15773793425E+02  0.17924277489E+01  0.94684652669E+02  0.89700407843E+02 0.  0.
         11    1    3    3    0    0  0.20386284641E+02  0.42581782405E+02 -0.27475842112E+02  0.54623536083E+02  0.51100000000E-03 0. -1.
         22    1    1    0    0    0 -0.25826244937E+02 -0.15773793425E+02 -0.17924277489E+01  0.30315347331E+02  0.00000000000E+00 0. -1.
</event>
<event>
 5    1  0.1691138E-003  0.9118800E+02  0.7818608E-02  0.1130116E+00
         25   -1    0    0    0    0  0.00000000000E+00  0.00000000000E+00  0.99999998245E-14  0.12500000000E+03  0.12500000000E+03 0.  0.
        -11    1    3    3    0    0 -0.59848038329E+02  0.29168847671E+01  0.56477239102E+01  0.60184654973E+02  0.51100000000E-03 0. -1.
         23    2    1    0    0    0 -0.28741268895E+02 -0.72210498450E+01 -0.57163676610E+01  0.94819195541E+02  0.89887701524E+02 0.  0.
         11    1    3    3    0    0  0.31106769434E+02 -0.10137934612E+02 -0.11364091571E+02  0.34634540568E+02  0.51100000000E-03 0.  1.
         22    1    1    0    0    0  0.28741268895E+02  0.72210498450E+01  0.57163676610E+01  0.30180804459E+02  0.00000000000E+00 0. -1.
</event>
<event>
 5    1  0.1691138E-003  0.9118800E+02  0.7818608E-02  0.1130116E+00
         25   -1    0    0    0    0  0.00000000000E+00  0.00000000000E+00  0.99999998245E-14  0.12500000000E+03  0.12500000000E+03 0.  0.
        -11    1    3    3    0    0 -0.76914607708E+01  0.12322880972E+00 -0.46655609192E+02  0.47285511771E+02  0.51100000000E-03 0.  1.
         23    2    1    0    0    0  0.19967723540E+02  0.19658349270E+02 -0.17553159020E+02  0.91935304765E+02  0.85783600946E+02 0.  0.
         11    1    3    3    0    0  0.27659184311E+02  0.19535120460E+02  0.29102450172E+02  0.44649792994E+02  0.51100000000E-03 0. -1.
         22    1    1    0    0    0 -0.19967723540E+02 -0.19658349270E+02  0.17553159020E+02  0.33064695235E+02  0.00000000000E+00 0.  1.
</event>
<event>
 5    1  0.1691138E-003  0.9118800E+02  0.7818608E-02  0.1130116E+00
         25   -1    0    0    0    0  0.00000000000E+00  0.00000000000E+00  0.99999998245E-14  0.12500000000E+03  0.12500000000E+03 0.  0.
        -11    1    3    3    0    0  0.29529793936E+01  0.59453852544E+01 -0.54928187175E+02  0.55327872178E+02  0.51100000000E-03 0. -1.
         23    2    1    0    0    0  0.17266278311E+02  0.15195342979E+02 -0.18726920962E+02  0.95339919358E+02  0.90608939071E+02 0.  0.
         11    1    3    3    0    0  0.14313298918E+02  0.92499577244E+01  0.36201266213E+02  0.40012047180E+02  0.51100000000E-03 0.  1.
         22    1    1    0    0    0 -0.17266278311E+02 -0.15195342979E+02  0.18726920962E+02  0.29660080642E+02  0.00000000000E+00 0. -1.
</event>
<event>
 5    1  0.1691138E-003  0.9118800E+02  0.7818608E-02  0.1130116E+00
         25   -1    0    0    0    0  0.00000000000E+00  0.00000000000E+00  0.99999998245E-14  0.12500000000E+03  0.12500000000E+03 0.  0.
        -11    1    3    3    0    0 -0.55351968114E+02 -0.17714708147E+02  0.11584389196E+02  0.59260858348E+02  0.51100000000E-03 0.  1.
         23    2    1    0    0    0 -0.25164372728E+02 -0.82780895606E+01 -0.90280934918E+01  0.97012879861E+02  0.92888212198E+02 0.  0.
         11    1    3    3    0    0  0.30187595386E+02  0.94366185866E+01 -0.20612482688E+02  0.37752021513E+02  0.51100000000E-03 0. -1.
         22    1    1    0    0    0  0.25164372728E+02  0.82780895606E+01  0.90280934918E+01  0.27987120139E+02  0.00000000000E+00 0.  1.
</event>
<event>
 5    1  0.1691138E-003  0.9118800E+02  0.7818608E-02  0.1130116E+00
         25   -1    0    0    0    0  0.00000000000E+00  0.00000000000E+00  0.99999998245E-14  0.12500000000E+03  0.12500000000E+03 0.  0.
        -11    1    3    3    0    0  0.28610634048E-01 -0.37435403662E+02 -0.47013774127E+02  0.60097464371E+02  0.51100000000E-03 0. -1.
         23    2    1    0    0    0  0.88953986364E+01 -0.23725895559E+02 -0.16328796585E+02  0.94855749555E+02  0.89938520050E+02 0.  0.
         11    1    3    3    0    0  0.88667880023E+01  0.13709508104E+02  0.30684977542E+02  0.34758285184E+02  0.51100000000E-03 0.  1.
         22    1    1    0    0    0 -0.88953986364E+01  0.23725895559E+02  0.16328796585E+02  0.30144250445E+02  0.00000000000E+00 0. -1.
</event>
<event>
 5    1  0.1691138E-003  0.9118800E+02  0.7818608E-02  0.1130116E+00
         25   -1    0    0    0    0  0.00000000000E+00  0.00000000000E+00  0.99999998245E-14  0.12500000000E+03  0.12500000000E+03 0.  0.
        -11    1    3    3    0    0  0.40400705199E+02 -0.30267922988E+02 -0.35415178759E+02  0.61665217338E+02  0.51100000000E-03 0.  1.
         23    2    1    0    0    0  0.14895698587E+02 -0.19754056683E+02 -0.14135780415E+02  0.96505704435E+02  0.92203178409E+02 0.  0.
         11    1    3    3    0    0 -0.25505006613E+02  0.10513866304E+02  0.21279398344E+02  0.34840487096E+02  0.51100000000E-03 0. -1.
         22    1    1    0    0    0 -0.14895698587E+02  0.19754056683E+02  0.14135780415E+02  0.28494295565E+02  0.00000000000E+00 0.  1.
</event>
<event>
 5    1  0.1691138E-003  0.9118800E+02  0.7818608E-02  0.1130116E+00
         25   -1    0    0    0    0  0.00000000000E+00  0.00000000000E+00  0.99999998245E-14  0.12500000000E+03  0.12500000000E+03 0.  0.
        -11    1    3    3    0    0  0.18655015262E+01  0.22962226256E+02 -0.17056662367E+02  0.28664850635E+02  0.51100000000E-03 0.  1.
         23    2    1    0    0    0  0.20111921448E+02  0.87722978963E+01  0.33899803283E+02  0.84618825459E+02  0.74361995432E+02 0.  0.
         11    1    3    3    0    0  0.18246419922E+02 -0.14189928359E+02  0.50956465650E+02  0.55953974824E+02  0.51100000000E-03 0. -1.
         22    1    1    0    0    0 -0.20111921448E+02 -0.87722978963E+01 -0.33899803283E+02  0.40381174541E+02  0.00000000000E+00 0. -1.
</event>
<event>
 5    1  0.1691138E-003  0.9118800E+02  0.7818608E-02  0.1130116E+00
         25   -1    0    0    0    0  0.00000000000E+00  0.00000000000E+00  0.99999998245E-14  0.12500000000E+03  0.12500000000E+03 0.  0.
        -11    1    3    3    0    0 -0.58802130768E+02  0.94463196698E+01  0.84866106454E+01  0.60157676972E+02  0.51100000000E-03 0.  1.
         23    2    1    0    0    0 -0.24185448223E+02  0.15542763725E+02  0.73532994931E+01  0.95325357233E+02  0.90588847593E+02 0.  0.
         11    1    3    3    0    0  0.34616682545E+02  0.60964440548E+01 -0.11333111523E+01  0.35167680261E+02  0.51100000000E-03 0. -1.
         22    1    1    0    0    0  0.24185448223E+02 -0.15542763725E+02 -0.73532994931E+01  0.29674642767E+02  0.00000000000E+00 0.  1.
</event>
<event>
 5    1  0.1691138E-003  0.9118800E+02  0.7818608E-02  0.1130116E+00
         25   -1    0    0    0    0  0.00000000000E+00  0.00000000000E+00  0.99999998245E-14  0.12500000000E+03  0.12500000000E+03 0.  0.
        -11    1    3    3    0    0  0.25446673450E+02  0.48256061692E+02 -0.21781193075E+02  0.58741816891E+02  0.51100000000E-03 0. -1.
         23    2    1    0    0    0  0.11873919205E+02  0.16496178321E+02 -0.24238253231E+02  0.93367630880E+02  0.87845931721E+02 0.  0.
         11    1    3    3    0    0 -0.13572754245E+02 -0.31759883371E+02 -0.24570601557E+01  0.34625813989E+02  0.51100000000E-03 0.  1.
         22    1    1    0    0    0 -0.11873919205E+02 -0.16496178321E+02  0.24238253231E+02  0.31632369120E+02  0.00000000000E+00 0. -1.
</event>
<event>
 5    1  0.1691138E-003  0.9118800E+02  0.7818608E-02  0.1130116E+00
         25   -1    0    0    0    0  0.00000000000E+00  0.00000000000E+00  0.99999998245E-14  0.12500000000E+03  0.12500000000E+03 0.  0.
        -11    1    3    3    0    0  0.40138149171E+02  0.18426814218E+02  0.13247888653E+02  0.46109923608E+02  0.51100000000E-03 0. -1.
         23    2    1    0    0    0  0.15062159637E+02 -0.23696456000E+02 -0.11762266447E+00  0.96921458105E+02  0.92765104033E+02 0.  0.
         11    1    3    3    0    0 -0.25075989534E+02 -0.42123270217E+02 -0.13365511317E+02  0.50811534497E+02  0.51100000000E-03 0.  1.
         22    1    1    0    0    0 -0.15062159637E+02  0.23696456000E+02  0.11762266447E+00  0.28078541895E+02  0.00000000000E+00 0. -1.
</event>
<event>
 5    1  0.1691138E-003  0.9118800E+02  0.7818608E-02  0.1130116E+00
         25   -1    0    0    0    0  0.00000000000E+00  0.00000000000E+00  0.99999998245E-14  0.12500000000E+03  0.12500000000E+03 0.  0.
        -11    1    3    3    0    0  0.29957919347E+02 -0.32779885961E+02 -0.19417495779E+02  0.48466864947E+02  0.51100000000E-03 0.  1.
         23    2    1    0    0    0  0.24275586242E+02 -0.13323739675E+01  0.15786517076E+02  0.96012184816E+02  0.91531667766E+02 0.  0.
         11    1    3    3    0    0 -0.56823331055E+01  0.31447511993E+02  0.35204012855E+02  0.47545319869E+02  0.51100000000E-03 0. -1.
         22    1    1    0    0    0 -0.24275586242E+02  0.13323739675E+01 -0.15786517076E+02  0.28987815184E+02  0.00000000000E+00 0. -1.
</event>
<event>
 5    1  0.1691138E-003  0.9118800E+02  0.7818608E-02  0.1130116E+00
         25   -1    0    0    0    0  0.00000000000E+00  0.00000000000E+00  0.99999998245E-14  0.12500000000E+03  0.12500000000E+03 0.  0.
        -11    1    3    3    0    0  0.13841831884E+02 -0.18050234141E+02  0.53308578902E+01  0.23362904540E+02  0.51100000000E-03 0. -1.
         23    2    1    0    0    0 -0.14850373282E+02  0.12375817906E+02 -0.37241437896E+02  0.83040267494E+02  0.71659380917E+02 0.  0.
         11    1    3    3    0    0 -0.28692205165E+02  0.30426052047E+02 -0.42572295786E+02  0.59677362954E+02  0.51100000000E-03 0.  1.
         22    1    1    0    0    0  0.14850373282E+02 -0.12375817906E+02  0.37241437896E+02  0.41959732506E+02  0.00000000000E+00 0.  1.
</event>
<event>
 5    1  0.1691138E-003  0.9118800E+02  0.7818608E-02  0.1130116E+00
         25   -1    0    0    0    0  0.00000000000E+00  0.00000000000E+00  0.99999998245E-14  0.12500000000E+03  0.12500000000E+03 0.  0.
        -11    1    3    3    0    0 -0.26425562885E+02  0.38873063056E+02 -0.18458010020E+02  0.50498747898E+02  0.51100000000E-03 0.  1.
         23    2    1    0    0    0 -0.30107566814E+02  0.55122398352E+01  0.81452725349E+01  0.93326733163E+02  0.87787717198E+02 0.  0.
         11    1    3    3    0    0 -0.36820039291E+01 -0.33360823220E+02  0.26603282555E+02  0.42827985265E+02  0.51100000000E-03 0. -1.
         22    1    1    0    0    0  0.30107566814E+02 -0.55122398352E+01 -0.81452725349E+01  0.31673266837E+02  0.00000000000E+00 0. -1.
</event>
<event>
 5    1  0.1691138E-003  0.9118800E+02  0.7818608E-02  0.1130116E+00
         25   -1    0    0    0    0  0.00000000000E+00  0.00000000000E+00  0.99999998245E-14  0.12500000000E+03  0.12500000000E+03 0.  0.
        -11    1    3    3    0    0  0.44284546390E+02  0.93625649098E+01 -0.27541675908E+02  0.52984172945E+02  0.51100000000E-03 0. -1.
         23    2    1    0    0    0  0.30551983605E+02 -0.52814792431E+01  0.72555258233E+01  0.93157255455E+02  0.87546067095E+02 0.  0.
         11    1    3    3    0    0 -0.13732562785E+02 -0.14644044153E+02  0.34797201731E+02  0.40173082510E+02  0.51100000000E-03 0.  1.
         22    1    1    0    0    0 -0.30551983605E+02  0.52814792431E+01 -0.72555258233E+01  0.31842744545E+02  0.00000000000E+00 0. -1.
</event>
<event>
 5    1  0.1691138E-003  0.9118800E+02  0.7818608E-02  0.1130116E+00
         25   -1    0    0    0    0  0.00000000000E+00  0.00000000000E+00  0.99999998245E-14  0.12500000000E+03  0.12500000000E+03 0.  0.
        -11    1    3    3    0    0 -0.30498381513E+02  0.38842133982E+01 -0.41715151260E+02  0.51820770291E+02  0.51100000000E-03 0. -1.
         23    2    1    0    0    0  0.10574891913E+02 -0.30415798131E+01 -0.26740783367E+02  0.96083758166E+02  0.91629359604E+02 0.  0.
         11    1    3    3    0    0  0.41073273426E+02 -0.69257932112E+01  0.14974367894E+02  0.44262987875E+02  0.51100000000E-03 0.  1.
         22    1    1    0    0    0 -0.10574891913E+02  0.30415798131E+01  0.26740783367E+02  0.28916241834E+02  0.00000000000E+00 0. -1.
</event>
<event>
 5    1  0.1691138E-003  0.9118800E+02  0.7818608E-02  0.1130116E+00
         25   -1    0    0    0    0  0.00000000000E+00  0.00000000000E+00  0.99999998245E-14  0.12500000000E+03  0.12500000000E+03 0.  0.
        -11    1    3    3    0    0  0.10299316157E+02  0.39629799102E+01 -0.34459170616E+02  0.36183083933E+02  0.51100000000E-03 0.  1.
         23    2    1    0    0    0 -0.29202720995E+02 -0.63565929018E+01  0.69299475028E+01  0.94320538479E+02  0.89191561370E+02 0.  0.
         11    1    3    3    0    0 -0.39502037152E+02 -0.10319572812E+02  0.41389118119E+02  0.58137454546E+02  0.51100000000E-03 0. -1.
         22    1    1    0    0    0  0.29202720995E+02  0.63565929018E+01 -0.69299475028E+01  0.30679461521E+02  0.00000000000E+00 0. -1.
</event>
<event>
 5    1  0.1691138E-003  0.9118800E+02  0.7818608E-02  0.1130116E+00
         25   -1    0    0    0    0  0.00000000000E+00  0.00000000000E+00  0.99999998245E-14  0.12500000000E+03  0.12500000000E+03 0.  0.
        -11    1    3    3    0    0 -0.23365937714E+01 -0.72773835929E+01  0.41463094379E+02  0.42161690883E+02  0.51100000000E-03 0.  1.
         23    2    1    0    0    0 -0.33981928657E+01  0.27657520707E+02 -0.94757035918E+00  0.97118392156E+02  0.93030092115E+02 0.  0.
         11    1    3    3    0    0 -0.10615990943E+01  0.34934904299E+02 -0.42410664738E+02  0.54956701273E+02  0.51100000000E-03 0. -1.
         22    1    1    0    0    0  0.33981928657E+01 -0.27657520707E+02  0.94757035918E+00  0.27881607844E+02  0.00000000000E+00 0. -1.
</event>
<event>
 5    1  0.1691138E-003  0.9118800E+02  0.7818608E-02  0.1130116E+00
         25   -1    0    0    0    0  0.00000000000E+00  0.00000000000E+00  0.99999998245E-14  0.12500000000E+03  0.12500000000E+03 0.  0.
        -11    1    3    3    0    0  0.72717797613E+00  0.14959591095E+01 -0.38746806474E+02  0.38782492103E+02  0.51100000000E-03 0.  1.
         23    2    1    0    0    0  0.26320220394E+02  0.69676100270E+01  0.11505897327E+02  0.95441798695E+02  0.90749378366E+02 0.  0.
         11    1    3    3    0    0  0.25593042418E+02  0.54716509174E+01  0.50252703801E+02  0.56659306593E+02  0.51100000000E-03 0. -1.
         22    1    1    0    0    0 -0.26320220394E+02 -0.69676100270E+01 -0.11505897327E+02  0.29558201305E+02  0.00000000000E+00 0. -1.
</event>
<event>
 5    1  0.1691138E-003  0.9118800E+02  0.7818608E-02  0.1130116E+00
         25   -1    0    0    0    0  0.00000000000E+00  0.00000000000E+00  0.99999998245E-14  0.12500000000E+03  0.12500000000E+03 0.  0.
        -11    1    3    3    0    0  0.11078691203E+02  0.19202375420E+02 -0.26968660784E+02  0.34910990895E+02  0.51100000000E-03 0. -1.
         23    2    1    0    0    0  0.47395733697E+02  0.11449276720E+02 -0.13594559281E+02  0.74381292469E+02  0.54500670796E+02 0.  0.
         11    1    3    3    0    0  0.36317042494E+02 -0.77530987005E+01  0.13374101503E+02  0.39470301573E+02  0.51100000000E-03 0.  1.
         22    1    1    0    0    0 -0.47395733697E+02 -0.11449276720E+02  0.13594559281E+02  0.50618707531E+02  0.00000000000E+00 0. -1.
</event>
<event>
 5    1  0.1691138E-003  0.9118800E+02  0.7818608E-02  0.1130116E+00
         25   -1    0    0    0    0  0.00000000000E+00  0.00000000000E+00  0.99999998245E-14  0.12500000000E+03  0.12500000000E+03 0.  0.
        -11    1    3    3    0    0 -0.32737330624E+02  0.89867254299E+00 -0.14502485150E+02  0.35817070016E+02  0.51100000000E-03 0. -1.
         23    2    1    0    0    0  0.25272012922E+02  0.13402758253E+02 -0.61010081691E+01  0.95750540747E+02  0.91173654017E+02 0.  0.
         11    1    3    3    0    0  0.58009343547E+02  0.12504085710E+02  0.84014769807E+01  0.59933470731E+02  0.51100000000E-03 0.  1.
         22    1    1    0    0    0 -0.25272012922E+02 -0.13402758253E+02  0.61010081691E+01  0.29249459253E+02  0.00000000000E+00 0.  1.
</event>
<event>
 5    1  0.1691138E-003  0.9118800E+02  0.7818608E-02  0.1130116E+00
         25   -1    0    0    0    0  0.00000000000E+00  0.00000000000E+00  0.99999998245E-14  0.12500000000E+03  0.12500000000E+03 0.  0.
        -11    1    3    3    0    0 -0.28266476600E+02  0.20334589126E+01  0.44588751060E+01  0.28688154733E+02  0.51100000000E-03 0. -1.
         23    2    1    0    0    0  0.26573805629E+02 -0.29277129250E+01  0.25897641294E+02  0.87778682544E+02  0.79496356117E+02 0.  0.
         11    1    3    3    0    0  0.54840282229E+02 -0.49611718376E+01  0.21438766188E+02  0.59090527810E+02  0.51100000000E-03 0.  1.
         22    1    1    0    0    0 -0.26573805629E+02  0.29277129250E+01 -0.25897641294E+02  0.37221317456E+02  0.00000000000E+00 0.  1.
</event>
<event>
 5    1  0.1691138E-003  0.9118800E+02  0.7818608E-02  0.1130116E+00
         25   -1    0    0    0    0  0.00000000000E+00  0.00000000000E+00  0.99999998245E-14  0.12500000000E+03  0.12500000000E+03 0.  0.
        -11    1    3    3    0    0  0.28474288409E+02  0.10058965917E+02 -0.16719443375E+02  0.34518222474E+02  0.51100000000E-03 0. -1.
         23    2    1    0    0    0 -0.23084727984E+02  0.22127168942E+02  0.65520556805E+01  0.92358834195E+02  0.86398544829E+02 0.  0.
         11    1    3    3    0    0 -0.51559016393E+02  0.12068203026E+02  0.23271499056E+02  0.57840611721E+02  0.51100000000E-03 0.  1.
         22    1    1    0    0    0  0.23084727984E+02 -0.22127168942E+02 -0.65520556805E+01  0.32641165805E+02  0.00000000000E+00 0.  1.
</event>
<event>
 5    1  0.1691138E-003  0.9118800E+02  0.7818608E-02  0.1130116E+00
         25   -1    0    0    0    0  0.00000000000E+00  0.00000000000E+00  0.99999998245E-14  0.12500000000E+03  0.12500000000E+03 0.  0.
        -11    1    3    3    0    0 -0.42800659682E+01  0.48551129260E+01 -0.42574110268E+02  0.43063278459E+02  0.51100000000E-03 0.  1.
         23    2    1    0    0    0  0.22459390327E+02 -0.16695460940E+02 -0.98708903416E+00  0.96997554131E+02  0.92867586018E+02 0.  0.
         11    1    3    3    0    0  0.26739456296E+02 -0.21550573866E+02  0.41587021234E+02  0.53934275673E+02  0.51100000000E-03 0. -1.
         22    1    1    0    0    0 -0.22459390327E+02  0.16695460940E+02  0.98708903416E+00  0.28002445869E+02  0.00000000000E+00 0. -1.
</event>
<event>
 5    1  0.1691138E-003  0.9118800E+02  0.7818608E-02  0.1130116E+00
         25   -1    0    0    0    0  0.00000000000E+00  0.00000000000E+00  0.99999998245E-14  0.12500000000E+03  0.12500000000E+03 0.  0.
        -11    1    3    3    0    0  0.76173875545E+01  0.42470537092E+01 -0.27519355609E+02  0.28868269636E+02  0.51100000000E-03 0.  1.
         23    2    1    0    0    0 -0.12421250354E+02 -0.10789623550E+01  0.31338974109E+02  0.91271926851E+02  0.84811448005E+02 0.  0.
         11    1    3    3    0    0 -0.20038637908E+02 -0.53260160642E+01  0.58858329718E+02  0.62403657215E+02  0.51100000000E-03 0. -1.
         22    1    1    0    0    0  0.12421250354E+02  0.10789623550E+01 -0.31338974109E+02  0.33728073149E+02  0.00000000000E+00 0. -1.
</event>
<event>
 5    1  0.1691138E-003  0.9118800E+02  0.7818608E-02  0.1130116E+00
         25   -1    0    0    0    0  0.00000000000E+00  0.00000000000E+00  0.99999998245E-14  0.12500000000E+03  0.12500000000E+03 0.  0.
        -11    1    3    3    0    0 -0.37442160152E+01 -0.45682078162E+02 -0.34758637433E+02  0.57524206168E+02  0.51100000000E-03 0. -1.
         23    2    1    0    0    0  0.15442028002E+02 -0.22316790243E+02 -0.12203611402E+02  0.95243933613E+02  0.90476424572E+02 0.  0.
         11    1    3    3    0    0  0.19186244017E+02  0.23365287919E+02  0.22555026031E+02  0.37719727445E+02  0.51100000000E-03 0.  1.
         22    1    1    0    0    0 -0.15442028002E+02  0.22316790243E+02  0.12203611402E+02  0.29756066387E+02  0.00000000000E+00 0. -1.
</event>
<event>
 5    1  0.1691138E-003  0.9118800E+02  0.7818608E-02  0.1130116E+00
         25   -1    0    0    0    0  0.00000000000E+00  0.00000000000E+00  0.99999998245E-14  0.12500000000E+03  0.12500000000E+03 0.  0.
        -11    1    3    3    0    0  0.78177926394E-02  0.21630735017E+02 -0.25647658490E+02  0.33551321059E+02  0.51100000000E-03 0.  1.
         23    2    1    0    0    0  0.43814759386E+01 -0.13036907204E+02  0.25811590972E+02  0.95752837585E+02  0.91176802950E+02 0.  0.
         11    1    3    3    0    0  0.43736581460E+01 -0.34667642221E+02  0.51459249461E+02  0.62201516526E+02  0.51100000000E-03 0. -1.
         22    1    1    0    0    0 -0.43814759386E+01  0.13036907204E+02 -0.25811590972E+02  0.29247162415E+02  0.00000000000E+00 0. -1.
</event>
<event>
 5    1  0.1691138E-003  0.9118800E+02  0.7818608E-02  0.1130116E+00
         25   -1    0    0    0    0  0.00000000000E+00  0.00000000000E+00  0.99999998245E-14  0.12500000000E+03  0.12500000000E+03 0.  0.
        -11    1    3    3    0    0  0.59539180906E+02  0.57839711409E+01  0.52769027947E+00  0.59821792371E+02  0.51100000000E-03 0. -1.
         23    2    1    0    0    0  0.26310765218E+02 -0.10268590448E+02  0.12044782681E+01  0.96730739592E+02  0.92507755880E+02 0.  0.
         11    1    3    3    0    0 -0.33228415688E+02 -0.16052561588E+02  0.67678798858E+00  0.36908947221E+02  0.51100000000E-03 0.  1.
         22    1    1    0    0    0 -0.26310765218E+02  0.10268590448E+02 -0.12044782681E+01  0.28269260408E+02  0.00000000000E+00 0. -1.
</event>
<event>
 5    1  0.1691138E-003  0.9118800E+02  0.7818608E-02  0.1130116E+00
         25   -1    0    0    0    0  0.00000000000E+00  0.00000000000E+00  0.99999998245E-14  0.12500000000E+03  0.12500000000E+03 0.  0.
        -11    1    3    3    0    0 -0.10901445820E+02  0.23846919292E+02 -0.56582624955E+02  0.62362733485E+02  0.51100000000E-03 0.  1.
         23    2    1    0    0    0 -0.41848323314E+01  0.83330700875E+01 -0.27000534070E+02  0.96434606272E+02  0.92106740080E+02 0.  0.
         11    1    3    3    0    0  0.67166134882E+01 -0.15513849205E+02  0.29582090884E+02  0.34071872788E+02  0.51100000000E-03 0. -1.
         22    1    1    0    0    0  0.41848323314E+01 -0.83330700875E+01  0.27000534070E+02  0.28565393728E+02  0.00000000000E+00 0.  1.
</event>
<event>
 5    1  0.1691138E-003  0.9118800E+02  0.7818608E-02  0.1130116E+00
         25   -1    0    0    0    0  0.00000000000E+00  0.00000000000E+00  0.99999998245E-14  0.12500000000E+03  0.12500000000E+03 0.  0.
        -11    1    3    3    0    0 -0.18000066497E+01 -0.34417788968E+02 -0.11053933303E+01  0.34482547992E+02  0.51100000000E-03 0. -1.
         23    2    1    0    0    0  0.19098325561E+01  0.23856234070E+02 -0.17753498367E+02  0.95201441835E+02  0.90417699920E+02 0.  0.
         11    1    3    3    0    0  0.37098392058E+01  0.58274023038E+02 -0.16648105037E+02  0.60718893843E+02  0.51100000000E-03 0.  1.
         22    1    1    0    0    0 -0.19098325561E+01 -0.23856234070E+02  0.17753498367E+02  0.29798558165E+02  0.00000000000E+00 0.  1.
</event>
<event>
 5    1  0.1691138E-003  0.9118800E+02  0.7818608E-02  0.1130116E+00
         25   -1    0    0    0    0  0.00000000000E+00  0.00000000000E+00  0.99999998245E-14  0.12500000000E+03  0.12500000000E+03 0.  0.
        -11    1    3    3    0    0 -0.56370968213E+01 -0.14403842314E+02  0.29489948486E+02  0.33300219157E+02  0.51100000000E-03 0.  1.
         23    2    1    0    0    0 -0.77542748329E+01  0.53141050884E+01 -0.28712154870E+02  0.94788142587E+02  0.89844508162E+02 0.  0.
         11    1    3    3    0    0 -0.21171780116E+01  0.19717947402E+02 -0.58202103355E+02  0.61487923430E+02  0.51100000000E-03 0. -1.
         22    1    1    0    0    0  0.77542748329E+01 -0.53141050884E+01  0.28712154870E+02  0.30211857413E+02  0.00000000000E+00 0. -1.
</event>
<event>
 5    1  0.1691138E-003  0.9118800E+02  0.7818608E-02  0.1130116E+00
         25   -1    0    0    0    0  0.00000000000E+00  0.00000000000E+00  0.99999998245E-14  0.12500000000E+03  0.12500000000E+03 0.  0.
        -11    1    3    3    0    0 -0.23219236307E+02 -0.23594001713E+02 -0.11528615200E+02  0.35053085744E+02  0.51100000000E-03 0. -1.
         23    2    1    0    0    0  0.26300669648E+02  0.10953281315E+02 -0.76019894558E-01  0.96509556435E+02  0.92208400424E+02 0.  0.
         11    1    3    3    0    0  0.49519905955E+02  0.34547283027E+02  0.11452595305E+02  0.61456470691E+02  0.51100000000E-03 0.  1.
         22    1    1    0    0    0 -0.26300669648E+02 -0.10953281315E+02  0.76019894558E-01  0.28490443565E+02  0.00000000000E+00 0.  1.
</event>
<event>
 5    1  0.1691138E-003  0.9118800E+02  0.7818608E-02  0.1130116E+00
         25   -1    0    0    0    0  0.00000000000E+00  0.00000000000E+00  0.99999998245E-14  0.12500000000E+03  0.12500000000E+03 0.  0.
        -11    1    3    3    0    0  0.24194963979E+02 -0.79798402599E+01 -0.24080892737E+02  0.35056576099E+02  0.51100000000E-03 0.  1.
         23    2    1    0    0    0 -0.19159384885E+02  0.48004691767E+01  0.19069046304E+02  0.97545400013E+02  0.93602083328E+02 0.  0.
         11    1    3    3    0    0 -0.43354348864E+02  0.12780309437E+02  0.43149939040E+02  0.62488823914E+02  0.51100000000E-03 0. -1.
         22    1    1    0    0    0  0.19159384885E+02 -0.48004691767E+01 -0.19069046304E+02  0.27454599987E+02  0.00000000000E+00 0. -1.
</event>
<event>
 5    1  0.1691138E-003  0.9118800E+02  0.7818608E-02  0.1130116E+00
         25   -1    0    0    0    0  0.00000000000E+00  0.00000000000E+00  0.99999998245E-14  0.12500000000E+03  0.12500000000E+03 0.  0.
        -11    1    3    3    0    0  0.18227861194E+01  0.20724306038E+02  0.32327467135E+02  0.38443263930E+02  0.51100000000E-03 0. -1.
         23    2    1    0    0    0  0.12822596068E+02  0.95987967095E+01 -0.23577645239E+02  0.96496294570E+02  0.92190420557E+02 0.  0.
         11    1    3    3    0    0  0.10999809948E+02 -0.11125509328E+02 -0.55905112374E+02  0.58053030640E+02  0.51100000000E-03 0.  1.
         22    1    1    0    0    0 -0.12822596068E+02 -0.95987967095E+01  0.23577645239E+02  0.28503705430E+02  0.00000000000E+00 0.  1.
</event>
<event>
 5    1  0.1691138E-003  0.9118800E+02  0.7818608E-02  0.1130116E+00
         25   -1    0    0    0    0  0.00000000000E+00  0.00000000000E+00  0.99999998245E-14  0.12500000000E+03  0.12500000000E+03 0.  0.
        -11    1    3    3    0    0 -0.25170936993E+02 -0.39357934657E+02  0.38875680509E+02  0.60777805364E+02  0.51100000000E-03 0.  1.
         23    2    1    0    0    0 -0.58687882322E+01 -0.15955838803E+02  0.26445923905E+02  0.93560878536E+02  0.88120483624E+02 0.  0.
         11    1    3    3    0    0  0.19302148761E+02  0.23402095854E+02 -0.12429756604E+02  0.32783073172E+02  0.51100000000E-03 0. -1.
         22    1    1    0    0    0  0.58687882322E+01  0.15955838803E+02 -0.26445923905E+02  0.31439121464E+02  0.00000000000E+00 0.  1.
</event>
<event>
 5    1  0.1691138E-003  0.9118800E+02  0.7818608E-02  0.1130116E+00
         25   -1    0    0    0    0  0.00000000000E+00  0.00000000000E+00  0.99999998245E-14  0.12500000000E+03  0.12500000000E+03 0.  0.
        -11    1    3    3    0    0 -0.23010636976E+02  0.25509571126E+02  0.56783143044E+01  0.34820552647E+02  0.51100000000E-03 0. -1.
         23    2    1    0    0    0  0.29236049349E+02  0.28325921516E+01 -0.10129745597E+02  0.93929404484E+02  0.88641700802E+02 0.  0.
         11    1    3    3    0    0  0.52246686325E+02 -0.22676978975E+02 -0.15808059901E+02  0.59108851837E+02  0.51100000000E-03 0.  1.
         22    1    1    0    0    0 -0.29236049349E+02 -0.28325921516E+01  0.10129745597E+02  0.31070595516E+02  0.00000000000E+00 0.  1.
</event>
<event>
 5    1  0.1691138E-003  0.9118800E+02  0.7818608E-02  0.1130116E+00
         25   -1    0    0    0    0  0.00000000000E+00  0.00000000000E+00  0.99999998245E-14  0.12500000000E+03  0.12500000000E+03 0.  0.
        -11    1    3    3    0    0  0.29289461480E+02  0.76002470369E+01  0.43859352100E+02  0.53284885997E+02  0.51100000000E-03 0.  1.
         23    2    1    0    0    0  0.23362737604E+02  0.17041026911E+02  0.26657501705E+01  0.95960021858E+02  0.91460403806E+02 0.  0.
         11    1    3    3    0    0 -0.59267238762E+01  0.94407798742E+01 -0.41193601930E+02  0.42675135861E+02  0.51100000000E-03 0. -1.
         22    1    1    0    0    0 -0.23362737604E+02 -0.17041026911E+02 -0.26657501705E+01  0.29039978142E+02  0.00000000000E+00 0.  1.
</event>
<event>
 5    1  0.1691138E-003  0.9118800E+02  0.7818608E-02  0.1130116E+00
         25   -1    0    0    0    0  0.00000000000E+00  0.00000000000E+00  0.99999998245E-14  0.12500000000E+03  0.12500000000E+03 0.  0.
        -11    1    3    3    0    0  0.56142431999E+02  0.47961219598E+01 -0.20794080126E+01  0.56385276399E+02  0.51100000000E-03 0. -1.
         23    2    1    0    0    0  0.22003260033E+02  0.13038712292E+02  0.14905775861E+02  0.95397067302E+02  0.90687743524E+02 0.  0.
         11    1    3    3    0    0 -0.34139171966E+02  0.82425903322E+01  0.16985183874E+02  0.39011790903E+02  0.51100000000E-03 0.  1.
         22    1    1    0    0    0 -0.22003260033E+02 -0.13038712292E+02 -0.14905775861E+02  0.29602932698E+02  0.00000000000E+00 0. -1.
</event>
<event>
 5    1  0.1691138E-003  0.9118800E+02  0.7818608E-02  0.1130116E+00
         25   -1    0    0    0    0  0.00000000000E+00  0.00000000000E+00  0.99999998245E-14  0.12500000000E+03  0.12500000000E+03 0.  0.
        -11    1    3    3    0    0 -0.15995122279E+01  0.40644535956E+02 -0.33486523905E+02  0.52686658899E+02  0.51100000000E-03 0. -1.
         23    2    1    0    0    0 -0.19757204307E+02  0.42482932338E+01 -0.22371892081E+02  0.94852086761E+02  0.89933429214E+02 0.  0.
         11    1    3    3    0    0 -0.18157692079E+02 -0.36396242722E+02  0.11114631824E+02  0.42165427862E+02  0.51100000000E-03 0.  1.
         22    1    1    0    0    0  0.19757204307E+02 -0.42482932338E+01  0.22371892081E+02  0.30147913239E+02  0.00000000000E+00 0.  1.
</event>
<event>
 5    1  0.1691138E-003  0.9118800E+02  0.7818608E-02  0.1130116E+00
         25   -1    0    0    0    0  0.00000000000E+00  0.00000000000E+00  0.99999998245E-14  0.12500000000E+03  0.12500000000E+03 0.  0.
        -11    1    3    3    0    0  0.18968129770E+02  0.63360066546E+01  0.29054960800E+02  0.35272165721E+02  0.51100000000E-03 0.  1.
         23    2    1    0    0    0 -0.11693978459E+01 -0.28762985196E+02 -0.12805269979E+02  0.93493623694E+02  0.88025030097E+02 0.  0.
         11    1    3    3    0    0 -0.20137527616E+02 -0.35098991850E+02 -0.41860230779E+02  0.58221457973E+02  0.51100000000E-03 0. -1.
         22    1    1    0    0    0  0.11693978459E+01  0.28762985196E+02  0.12805269979E+02  0.31506376306E+02  0.00000000000E+00 0. -1.
</event>
<event>
 5    1  0.1691138E-003  0.9118800E+02  0.7818608E-02  0.1130116E+00
         25   -1    0    0    0    0  0.00000000000E+00  0.00000000000E+00  0.99999998245E-14  0.12500000000E+03  0.12500000000E+03 0.  0.
        -11    1    3    3    0    0 -0.72013318744E+01 -0.10379165740E+01 -0.43175222063E+02  0.43783972547E+02  0.51100000000E-03 0. -1.
         23    2    1    0    0    0 -0.21940326134E+02  0.18863647330E+02  0.27233128957E+01  0.95937454782E+02  0.91429555919E+02 0.  0.
         11    1    3    3    0    0 -0.14738994259E+02  0.19901563904E+02  0.45898534959E+02  0.52153482235E+02  0.51100000000E-03 0.  1.
         22    1    1    0    0    0  0.21940326134E+02 -0.18863647330E+02 -0.27233128957E+01  0.29062545218E+02  0.00000000000E+00 0. -1.
</event>
<event>
 5    1  0.1691138E-003  0.9118800E+02  0.7818608E-02  0.1130116E+00
         25   -1    0    0    0    0  0.00000000000E+00  0.00000000000E+00  0.99999998245E-14  0.12500000000E+03  0.12500000000E+03 0.  0.
        -11    1    3    3    0    0 -0.30678637119E+02 -0.85180948498E+01  0.40881229501E+02  0.51817097961E+02  0.51100000000E-03 0.  1.
         23    2    1    0    0    0 -0.21133020630E+01 -0.26441422195E+02  0.22457267277E+02  0.90244515442E+02  0.83283424884E+02 0.  0.
         11    1    3    3    0    0  0.28565335056E+02 -0.17923327346E+02 -0.18423962224E+02  0.38427417481E+02  0.51100000000E-03 0. -1.
         22    1    1    0    0    0  0.21133020630E+01  0.26441422195E+02 -0.22457267277E+02  0.34755484558E+02  0.00000000000E+00 0.  1.
</event>
<event>
 5    1  0.1691138E-003  0.9118800E+02  0.7818608E-02  0.1130116E+00
         25   -1    0    0    0    0  0.00000000000E+00  0.00000000000E+00  0.99999998245E-14  0.12500000000E+03  0.12500000000E+03 0.  0.
        -11    1    3    3    0    0 -0.14307445137E+02  0.46355040810E+02 -0.27572585270E+01  0.48591102784E+02  0.51100000000E-03 0.  1.
         23    2    1    0    0    0 -0.10463889618E+02  0.42811143101E+01 -0.25883171102E+02  0.96755363837E+02  0.92541023116E+02 0.  0.
         11    1    3    3    0    0  0.38435555186E+01 -0.42073926500E+02 -0.23125912575E+02  0.48164261054E+02  0.51100000000E-03 0. -1.
         22    1    1    0    0    0  0.10463889618E+02 -0.42811143101E+01  0.25883171102E+02  0.28244636163E+02  0.00000000000E+00 0. -1.
</event>
<event>
 5    1  0.1691138E-003  0.9118800E+02  0.7818608E-02  0.1130116E+00
         25   -1    0    0    0    0  0.00000000000E+00  0.00000000000E+00  0.99999998245E-14  0.12500000000E+03  0.12500000000E+03 0.  0.
        -11    1    3    3    0    0  0.46042409934E+02 -0.97986811919E+01 -0.25704770574E+02  0.53634437595E+02  0.51100000000E-03 0. -1.
         23    2    1    0    0    0  0.21065948465E+02 -0.21068176570E+02  0.50023288051E+01  0.94789645116E+02  0.89846598595E+02 0.  0.
         11    1    3    3    0    0 -0.24976461468E+02 -0.11269495378E+02  0.30707099379E+02  0.41155207521E+02  0.51100000000E-03 0.  1.
         22    1    1    0    0    0 -0.21065948465E+02  0.21068176570E+02 -0.50023288051E+01  0.30210354884E+02  0.00000000000E+00 0.  1.
</event>
<event>
 5    1  0.1691138E-003  0.9118800E+02  0.7818608E-02  0.1130116E+00
         25   -1    0    0    0    0  0.00000000000E+00  0.00000000000E+00  0.99999998245E-14  0.12500000000E+03  0.12500000000E+03 0.  0.
        -11    1    3    3    0    0  0.43004392832E+02 -0.21037567604E+02  0.31425142123E+02  0.57266889310E+02  0.51100000000E-03 0.  1.
         23    2    1    0    0    0  0.72011988739E+01 -0.21238364665E+02  0.20277316928E+02  0.94765996285E+02  0.89813690889E+02 0.  0.
         11    1    3    3    0    0 -0.35803193958E+02 -0.20079706143E+00 -0.11147825195E+02  0.37499106975E+02  0.51100000000E-03 0. -1.
         22    1    1    0    0    0 -0.72011988739E+01  0.21238364665E+02 -0.20277316928E+02  0.30234003715E+02  0.00000000000E+00 0.  1.
</event>
<event>
 5    1  0.1691138E-003  0.9118800E+02  0.7818608E-02  0.1130116E+00
         25   -1    0    0    0    0  0.00000000000E+00  0.00000000000E+00  0.99999998245E-14  0.12500000000E+03  0.12500000000E+03 0.  0.
        -11    1    3    3    0    0 -0.21805976328E+02 -0.36978673686E+02 -0.40074202990E+02  0.58727035144E+02  0.51100000000E-03 0. -1.
         23    2    1    0    0    0 -0.16835601266E+02 -0.23387949441E+02 -0.62557281323E+01  0.95511565258E+02  0.90845425392E+02 0.  0.
         11    1    3    3    0    0  0.49703750627E+01  0.13590724244E+02  0.33818474858E+02  0.36784530115E+02  0.51100000000E-03 0.  1.
         22    1    1    0    0    0  0.16835601266E+02  0.23387949441E+02  0.62557281323E+01  0.29488434742E+02  0.00000000000E+00 0. -1.
</event>
<event>
 5    1  0.1691138E-003  0.9118800E+02  0.7818608E-02  0.1130116E+00
         25   -1    0    0    0    0  0.00000000000E+00  0.00000000000E+00  0.99999998245E-14  0.12500000000E+03  0.12500000000E+03 0.  0.
        -11    1    3    3    0    0  0.30272084336E+02  0.16013638385E+02  0.35895720883E+02  0.49611878440E+02  0.51100000000E-03 0. -1.
         23    2    1    0    0    0  0.27756672404E+02 -0.16959383883E+02  0.12350638103E+02  0.90206439875E+02  0.83226257687E+02 0.  0.
         11    1    3    3    0    0 -0.25154119321E+01 -0.32973022268E+02 -0.23545082780E+02  0.40594561434E+02  0.51100000000E-03 0.  1.
         22    1    1    0    0    0 -0.27756672404E+02  0.16959383883E+02 -0.12350638103E+02  0.34793560125E+02  0.00000000000E+00 0. -1.
</event>
<event>
 5    1  0.1691138E-003  0.9118800E+02  0.7818608E-02  0.1130116E+00
         25   -1    0    0    0    0  0.00000000000E+00  0.00000000000E+00  0.99999998245E-14  0.12500000000E+03  0.12500000000E+03 0.  0.
        -11    1    3    3    0    0  0.20769573331E+02 -0.50686212212E+02 -0.19096129726E+02  0.58009735869E+02  0.51100000000E-03 0.  1.
         23    2    1    0    0    0 -0.33716279434E+01 -0.27167019654E+02  0.16294067892E+01  0.97576108986E+02  0.93643084350E+02 0.  0.
         11    1    3    3    0    0 -0.24141201275E+02  0.23519192558E+02  0.20725536515E+02  0.39566373118E+02  0.51100000000E-03 0. -1.
         22    1    1    0    0    0  0.33716279434E+01  0.27167019654E+02 -0.16294067892E+01  0.27423891014E+02  0.00000000000E+00 0.  1.
</event>
<event>
 5    1  0.1691138E-003  0.9118800E+02  0.7818608E-02  0.1130116E+00
         25   -1    0    0    0    0  0.00000000000E+00  0.00000000000E+00  0.99999998245E-14  0.12500000000E+03  0.12500000000E+03 0.  0.
        -11    1    3    3    0    0  0.21139142714E+02  0.20656081619E+02 -0.39674001480E+02  0.49472855752E+02  0.51100000000E-03 0.  1.
         23    2    1    0    0    0  0.28689835428E+02 -0.71822523311E+01 -0.43035512671E+01  0.95113348147E+02  0.90295830673E+02 0.  0.
         11    1    3    3    0    0  0.75506927144E+01 -0.27838333950E+02  0.35370450213E+02  0.45640492396E+02  0.51100000000E-03 0. -1.
         22    1    1    0    0    0 -0.28689835428E+02  0.71822523311E+01  0.43035512671E+01  0.29886651853E+02  0.00000000000E+00 0.  1.
</event>
<event>
 5    1  0.1691138E-003  0.9118800E+02  0.7818608E-02  0.1130116E+00
         25   -1    0    0    0    0  0.00000000000E+00  0.00000000000E+00  0.99999998245E-14  0.12500000000E+03  0.12500000000E+03 0.  0.
        -11    1    3    3    0    0 -0.15829021415E+02  0.30618167851E+02  0.33553287400E+02  0.48102528178E+02  0.51100000000E-03 0.  1.
         23    2    1    0    0    0 -0.89853621153E+01 -0.17306609065E+02  0.16584161941E+02  0.99401369628E+02  0.96048646044E+02 0.  0.
         11    1    3    3    0    0  0.68436593000E+01 -0.47924776915E+02 -0.16969125459E+02  0.51298841450E+02  0.51100000000E-03 0. -1.
         22    1    1    0    0    0  0.89853621153E+01  0.17306609065E+02 -0.16584161941E+02  0.25598630372E+02  0.00000000000E+00 0.  1.
</event>
<event>
 5    1  0.1691138E-003  0.9118800E+02  0.7818608E-02  0.1130116E+00
         25   -1    0    0    0    0  0.00000000000E+00  0.00000000000E+00  0.99999998245E-14  0.12500000000E+03  0.12500000000E+03 0.  0.
        -11    1    3    3    0    0 -0.37721773089E+02  0.34702871825E+02  0.20190584812E+02  0.55089755792E+02  0.51100000000E-03 0. -1.
         23    2    1    0    0    0  0.49075651206E+00  0.28150235775E+02  0.80175066261E+01  0.95726171609E+02  0.91140237559E+02 0.  0.
         11    1    3    3    0    0  0.38212529601E+02 -0.65526360501E+01 -0.12173078186E+02  0.40636415817E+02  0.51100000000E-03 0.  1.
         22    1    1    0    0    0 -0.49075651206E+00 -0.28150235775E+02 -0.80175066261E+01  0.29273828391E+02  0.00000000000E+00 0.  1.
</event>
<event>
 5    1  0.1691138E-003  0.9118800E+02  0.7818608E-02  0.1130116E+00
         25   -1    0    0    0    0  0.00000000000E+00  0.00000000000E+00  0.99999998245E-14  0.12500000000E+03  0.12500000000E+03 0.  0.
        -11    1    3    3    0    0 -0.10901056621E+01  0.35978512605E+02 -0.31828965403E+02  0.48049190821E+02  0.51100000000E-03 0.  1.
         23    2    1    0    0    0  0.20796324434E+02  0.84023822466E+01 -0.35034403410E+02  0.83400762511E+02  0.72285480062E+02 0.  0.
         11    1    3    3    0    0  0.21886430096E+02 -0.27576130358E+02 -0.32054380064E+01  0.35351571690E+02  0.51100000000E-03 0. -1.
         22    1    1    0    0    0 -0.20796324434E+02 -0.84023822466E+01  0.35034403410E+02  0.41599237489E+02  0.00000000000E+00 0.  1.
</event>
<event>
 5    1  0.1691138E-003  0.9118800E+02  0.7818608E-02  0.1130116E+00
         25   -1    0    0    0    0  0.00000000000E+00  0.00000000000E+00  0.99999998245E-14  0.12500000000E+03  0.12500000000E+03 0.  0.
        -11    1    3    3    0    0  0.22342409094E+02  0.18923321717E+02 -0.16732649235E+02  0.33723239756E+02  0.51100000000E-03 0.  1.
         23    2    1    0    0    0 -0.30470441624E+02  0.12948323484E+02 -0.18826044170E+02  0.86914217444E+02  0.78125247911E+02 0.  0.
         11    1    3    3    0    0 -0.52812850718E+02 -0.59749982329E+01 -0.20933949347E+01  0.53190977689E+02  0.51100000000E-03 0. -1.
         22    1    1    0    0    0  0.30470441624E+02 -0.12948323484E+02  0.18826044170E+02  0.38085782556E+02  0.00000000000E+00 0. -1.
</event>
<event>
 5    1  0.1691138E-003  0.9118800E+02  0.7818608E-02  0.1130116E+00
         25   -1    0    0    0    0  0.00000000000E+00  0.00000000000E+00  0.99999998245E-14  0.12500000000E+03  0.12500000000E+03 0.  0.
        -11    1    3    3    0    0 -0.35027558189E+00  0.32870281692E+02 -0.82422635574E+01  0.33889718504E+02  0.51100000000E-03 0. -1.
         23    2    1    0    0    0 -0.35760121284E+01 -0.28242156471E+02  0.38582789762E+01  0.96272076623E+02  0.91885902922E+02 0.  0.
         11    1    3    3    0    0 -0.32257365465E+01 -0.61112438164E+02  0.12100542534E+02  0.62382358119E+02  0.51100000000E-03 0.  1.
         22    1    1    0    0    0  0.35760121284E+01  0.28242156471E+02 -0.38582789762E+01  0.28727923377E+02  0.00000000000E+00 0.  1.
</event>
<event>
 5    1  0.1691138E-003  0.9118800E+02  0.7818608E-02  0.1130116E+00
         25   -1    0    0    0    0  0.00000000000E+00  0.00000000000E+00  0.99999998245E-14  0.12500000000E+03  0.12500000000E+03 0.  0.
        -11    1    3    3    0    0 -0.19577588965E+01  0.50974777867E+02 -0.57660379858E+01  0.51337198919E+02  0.51100000000E-03 0. -1.
         23    2    1    0    0    0  0.77885365249E+01  0.86144209691E+01 -0.23894197408E+02  0.98433061531E+02  0.94780089591E+02 0.  0.
         11    1    3    3    0    0  0.97462954215E+01 -0.42360356898E+02 -0.18128159422E+02  0.47095862613E+02  0.51100000000E-03 0.  1.
         22    1    1    0    0    0 -0.77885365249E+01 -0.86144209691E+01  0.23894197408E+02  0.26566938469E+02  0.00000000000E+00 0. -1.
</event>
<event>
 5    1  0.1691138E-003  0.9118800E+02  0.7818608E-02  0.1130116E+00
         25   -1    0    0    0    0  0.00000000000E+00  0.00000000000E+00  0.99999998245E-14  0.12500000000E+03  0.12500000000E+03 0.  0.
        -11    1    3    3    0    0 -0.55610727523E+01 -0.54918773027E+02  0.20277768802E+02  0.58806335278E+02  0.51100000000E-03 0.  1.
         23    2    1    0    0    0 -0.43506926748E+01 -0.24343528258E+02  0.25078385793E+02  0.89779816457E+02  0.82583013473E+02 0.  0.
         11    1    3    3    0    0  0.12103800775E+01  0.30575244769E+02  0.48006169906E+01  0.30973481179E+02  0.51100000000E-03 0. -1.
         22    1    1    0    0    0  0.43506926748E+01  0.24343528258E+02 -0.25078385793E+02  0.35220183543E+02  0.00000000000E+00 0.  1.
</event>
<event>
 5    1  0.1691138E-003  0.9118800E+02  0.7818608E-02  0.1130116E+00
         25   -1    0    0    0    0  0.00000000000E+00  0.00000000000E+00  0.99999998245E-14  0.12500000000E+03  0.12500000000E+03 0.  0.
        -11    1    3    3    0    0 -0.33417822040E+02 -0.13756500512E+02  0.20211428567E+02  0.41406448547E+02  0.51100000000E-03 0. -1.
         23    2    1    0    0    0 -0.21160446303E+02  0.14662953694E+02 -0.20177729982E+02  0.92290559681E+02  0.86299709850E+02 0.  0.
         11    1    3    3    0    0  0.12257375737E+02  0.28419454206E+02 -0.40389158549E+02  0.50884111134E+02  0.51100000000E-03 0.  1.
         22    1    1    0    0    0  0.21160446303E+02 -0.14662953694E+02  0.20177729982E+02  0.32709440319E+02  0.00000000000E+00 0.  1.
</event>
<event>
 5    1  0.1691138E-003  0.9118800E+02  0.7818608E-02  0.1130116E+00
         25   -1    0    0    0    0  0.00000000000E+00  0.00000000000E+00  0.99999998245E-14  0.12500000000E+03  0.12500000000E+03 0.  0.
        -11    1    3    3    0    0  0.55589383528E+01  0.23295633416E+02  0.44284709858E+02  0.50346041148E+02  0.51100000000E-03 0. -1.
         23    2    1    0    0    0  0.40051488424E+01 -0.17029811840E+02  0.23394109715E+02  0.95788014824E+02  0.91225016887E+02 0.  0.
         11    1    3    3    0    0 -0.15537895104E+01 -0.40325445256E+02 -0.20890600142E+02  0.45441973676E+02  0.51100000000E-03 0.  1.
         22    1    1    0    0    0 -0.40051488424E+01  0.17029811840E+02 -0.23394109715E+02  0.29211985176E+02  0.00000000000E+00 0.  1.
</event>
<event>
 5    1  0.1691138E-003  0.9118800E+02  0.7818608E-02  0.1130116E+00
         25   -1    0    0    0    0  0.00000000000E+00  0.00000000000E+00  0.99999998245E-14  0.12500000000E+03  0.12500000000E+03 0.  0.
        -11    1    3    3    0    0 -0.22828589211E+02 -0.44198900133E+02 -0.83158717754E+01  0.50436504458E+02  0.51100000000E-03 0. -1.
         23    2    1    0    0    0 -0.23485183328E+02  0.22604940255E+01 -0.14494696610E+02  0.97309570263E+02  0.93286615148E+02 0.  0.
         11    1    3    3    0    0 -0.65659411664E+00  0.46459394158E+02 -0.61788248345E+01  0.46873065805E+02  0.51100000000E-03 0.  1.
         22    1    1    0    0    0  0.23485183328E+02 -0.22604940255E+01  0.14494696610E+02  0.27690429737E+02  0.00000000000E+00 0. -1.
</event>
<event>
 5    1  0.1691138E-003  0.9118800E+02  0.7818608E-02  0.1130116E+00
         25   -1    0    0    0    0  0.00000000000E+00  0.00000000000E+00  0.99999998245E-14  0.12500000000E+03  0.12500000000E+03 0.  0.
        -11    1    3    3    0    0 -0.14224873213E+02 -0.13497762222E+02 -0.17549243435E+02  0.26315633154E+02  0.51100000000E-03 0.  1.
         23    2    1    0    0    0  0.35327827252E+02  0.14249132283E+02 -0.17431166466E+02  0.83108011344E+02  0.71777453536E+02 0.  0.
         11    1    3    3    0    0  0.49552700465E+02  0.27746894505E+02  0.11807696884E+00  0.56792378190E+02  0.51100000000E-03 0. -1.
         22    1    1    0    0    0 -0.35327827252E+02 -0.14249132283E+02  0.17431166466E+02  0.41891988656E+02  0.00000000000E+00 0. -1.
</event>
<event>
 5    1  0.1691138E-003  0.9118800E+02  0.7818608E-02  0.1130116E+00
         25   -1    0    0    0    0  0.00000000000E+00  0.00000000000E+00  0.99999998245E-14  0.12500000000E+03  0.12500000000E+03 0.  0.
        -11    1    3    3    0    0 -0.33236421665E+02  0.15751864221E+02 -0.47449323620E+02  0.60035150235E+02  0.51100000000E-03 0.  1.
         23    2    1    0    0    0 -0.23981419144E+02  0.48562935445E+01 -0.13088709848E+02  0.97251011250E+02  0.93208115594E+02 0.  0.
         11    1    3    3    0    0  0.92550025206E+01 -0.10895570677E+02  0.34360613772E+02  0.37215861015E+02  0.51100000000E-03 0. -1.
         22    1    1    0    0    0  0.23981419144E+02 -0.48562935445E+01  0.13088709848E+02  0.27748988750E+02  0.00000000000E+00 0.  1.
</event>
<event>
 5    1  0.1691138E-003  0.9118800E+02  0.7818608E-02  0.1130116E+00
         25   -1    0    0    0    0  0.00000000000E+00  0.00000000000E+00  0.99999998245E-14  0.12500000000E+03  0.12500000000E+03 0.  0.
        -11    1    3    3    0    0  0.48687337541E+02  0.91174653988E+01  0.10287331660E+02  0.50590653337E+02  0.51100000000E-03 0.  1.
         23    2    1    0    0    0  0.19976807152E+02 -0.21114807492E+02  0.14538557080E+02  0.92499575982E+02  0.86601928358E+02 0.  0.
         11    1    3    3    0    0 -0.28710530389E+02 -0.30232272891E+02  0.42512254202E+01  0.41908922644E+02  0.51100000000E-03 0. -1.
         22    1    1    0    0    0 -0.19976807152E+02  0.21114807492E+02 -0.14538557080E+02  0.32500424018E+02  0.00000000000E+00 0.  1.
</event>
<event>
 5    1  0.1691138E-003  0.9118800E+02  0.7818608E-02  0.1130116E+00
         25   -1    0    0    0    0  0.00000000000E+00  0.00000000000E+00  0.99999998245E-14  0.12500000000E+03  0.12500000000E+03 0.  0.
        -11    1    3    3    0    0  0.45731847015E+01  0.58664274868E+02 -0.14982643704E+02  0.60719772535E+02  0.51100000000E-03 0.  1.
         23    2    1    0    0    0  0.66210225777E+01  0.30498441974E+02  0.20929491452E+01  0.93721039996E+02  0.88347382525E+02 0.  0.
         11    1    3    3    0    0  0.20478378762E+01 -0.28165832894E+02  0.17075592850E+02  0.33001267461E+02  0.51100000000E-03 0. -1.
         22    1    1    0    0    0 -0.66210225777E+01 -0.30498441974E+02 -0.20929491452E+01  0.31278960004E+02  0.00000000000E+00 0.  1.
</event>
<event>
 5    1  0.1691138E-003  0.9118800E+02  0.7818608E-02  0.1130116E+00
         25   -1    0    0    0    0  0.00000000000E+00  0.00000000000E+00  0.99999998245E-14  0.12500000000E+03  0.12500000000E+03 0.  0.
        -11    1    3    3    0    0 -0.30282924947E+02  0.94303717157E+01 -0.28445151188E+00  0.31718580784E+02  0.51100000000E-03 0. -1.
         23    2    1    0    0    0  0.52153258334E+01 -0.35375989559E+02 -0.40859442864E+01  0.89008956648E+02  0.81407856882E+02 0.  0.
         11    1    3    3    0    0  0.35498250780E+02 -0.44806361275E+02 -0.38014927745E+01  0.57290375864E+02  0.51100000000E-03 0.  1.
         22    1    1    0    0    0 -0.52153258334E+01  0.35375989559E+02  0.40859442864E+01  0.35991043352E+02  0.00000000000E+00 0. -1.
</event>
<event>
 5    1  0.1691138E-003  0.9118800E+02  0.7818608E-02  0.1130116E+00
         25   -1    0    0    0    0  0.00000000000E+00  0.00000000000E+00  0.99999998245E-14  0.12500000000E+03  0.12500000000E+03 0.  0.
        -11    1    3    3    0    0  0.59728258463E+01 -0.11709958012E+02 -0.20092325539E+02  0.24010400061E+02  0.51100000000E-03 0. -1.
         23    2    1    0    0    0 -0.60106532830E+01  0.36150505190E+02  0.15870722135E+02  0.85064216553E+02  0.75106951331E+02 0.  0.
         11    1    3    3    0    0 -0.11983479129E+02  0.47860463203E+02  0.35963047674E+02  0.61053816493E+02  0.51100000000E-03 0.  1.
         22    1    1    0    0    0  0.60106532830E+01 -0.36150505190E+02 -0.15870722135E+02  0.39935783447E+02  0.00000000000E+00 0.  1.
</event>
<event>
 5    1  0.1691138E-003  0.9118800E+02  0.7818608E-02  0.1130116E+00
         25   -1    0    0    0    0  0.00000000000E+00  0.00000000000E+00  0.99999998245E-14  0.12500000000E+03  0.12500000000E+03 0.  0.
        -11    1    3    3    0    0  0.20298191736E+02 -0.37576874181E+02 -0.15890755788E+02  0.45569224053E+02  0.51100000000E-03 0. -1.
         23    2    1    0    0    0 -0.17462135439E+02  0.54913346685E+01 -0.12273724472E+02  0.10296082481E+03  0.10057438144E+03 0.  0.
         11    1    3    3    0    0 -0.37760327176E+02  0.43068208850E+02  0.36170313159E+01  0.57391600759E+02  0.51100000000E-03 0.  1.
         22    1    1    0    0    0  0.17462135439E+02 -0.54913346685E+01  0.12273724472E+02  0.22039175188E+02  0.00000000000E+00 0.  1.
</event>
<event>
 5    1  0.1691138E-003  0.9118800E+02  0.7818608E-02  0.1130116E+00
         25   -1    0    0    0    0  0.00000000000E+00  0.00000000000E+00  0.99999998245E-14  0.12500000000E+03  0.12500000000E+03 0.  0.
        -11    1    3    3    0    0  0.29860457455E+02 -0.16914895537E+02  0.21958517393E+02  0.40742325618E+02  0.51100000000E-03 0.  1.
         23    2    1    0    0    0 -0.11468740016E+02  0.19536502990E+02  0.18133657250E+02  0.95982135298E+02  0.91490621511E+02 0.  0.
         11    1    3    3    0    0 -0.41329197470E+02  0.36451398527E+02 -0.38248601437E+01  0.55239809680E+02  0.51100000000E-03 0. -1.
         22    1    1    0    0    0  0.11468740016E+02 -0.19536502990E+02 -0.18133657250E+02  0.29017864702E+02  0.00000000000E+00 0. -1.
</event>
<event>
 5    1  0.1691138E-003  0.9118800E+02  0.7818608E-02  0.1130116E+00
         25   -1    0    0    0    0  0.00000000000E+00  0.00000000000E+00  0.99999998245E-14  0.12500000000E+03  0.12500000000E+03 0.  0.
        -11    1    3    3    0    0  0.55023175009E+02  0.60327592982E+01  0.14449272299E+02  0.57207739363E+02  0.51100000000E-03 0. -1.
         23    2    1    0    0    0  0.17238838171E+02  0.15043471409E+02  0.17534432884E+02  0.96173971656E+02  0.91752345550E+02 0.  0.
         11    1    3    3    0    0 -0.37784336838E+02  0.90107121104E+01  0.30851605856E+01  0.38966232293E+02  0.51100000000E-03 0.  1.
         22    1    1    0    0    0 -0.17238838171E+02 -0.15043471409E+02 -0.17534432884E+02  0.28826028344E+02  0.00000000000E+00 0. -1.
</event>
<event>
 5    1  0.1691138E-003  0.9118800E+02  0.7818608E-02  0.1130116E+00
         25   -1    0    0    0    0  0.00000000000E+00  0.00000000000E+00  0.99999998245E-14  0.12500000000E+03  0.12500000000E+03 0.  0.
        -11    1    3    3    0    0  0.43522602811E+02  0.79729240183E+01 -0.96409797113E+00  0.44257360495E+02  0.51100000000E-03 0.  1.
         23    2    1    0    0    0 -0.20689553197E+01 -0.58790294403E+00 -0.27310203356E+02  0.97605230183E+02  0.93681948879E+02 0.  0.
         11    1    3    3    0    0 -0.45591558131E+02 -0.85608269624E+01 -0.26346105385E+02  0.53347869688E+02  0.51100000000E-03 0. -1.
         22    1    1    0    0    0  0.20689553197E+01  0.58790294403E+00  0.27310203356E+02  0.27394769817E+02  0.00000000000E+00 0. -1.
</event>
<event>
 5    1  0.1691138E-003  0.9118800E+02  0.7818608E-02  0.1130116E+00
         25   -1    0    0    0    0  0.00000000000E+00  0.00000000000E+00  0.99999998245E-14  0.12500000000E+03  0.12500000000E+03 0.  0.
        -11    1    3    3    0    0 -0.18691078341E+01 -0.41635835640E+02 -0.11027026920E+02  0.43111850998E+02  0.51100000000E-03 0.  1.
         23    2    1    0    0    0 -0.20764195184E+02  0.83633825469E+00 -0.25784470225E+02  0.91883687281E+02  0.85708353270E+02 0.  0.
         11    1    3    3    0    0 -0.18895087350E+02  0.42472173894E+02 -0.14757443305E+02  0.48771836283E+02  0.51100000000E-03 0. -1.
         22    1    1    0    0    0  0.20764195184E+02 -0.83633825469E+00  0.25784470225E+02  0.33116312719E+02  0.00000000000E+00 0. -1.
</event>
<event>
 5    1  0.1691138E-003  0.9118800E+02  0.7818608E-02  0.1130116E+00
         25   -1    0    0    0    0  0.00000000000E+00  0.00000000000E+00  0.99999998245E-14  0.12500000000E+03  0.12500000000E+03 0.  0.
        -11    1    3    3    0    0 -0.27945525127E+02  0.17828836093E+02 -0.30036349693E+01  0.33284254451E+02  0.51100000000E-03 0. -1.
         23    2    1    0    0    0  0.20765679958E+02  0.27761373859E+02 -0.18947029077E+02  0.85491807767E+02  0.75815248742E+02 0.  0.
         11    1    3    3    0    0  0.48711205085E+02  0.99325377660E+01 -0.15943394108E+02  0.52207553316E+02  0.51100000000E-03 0.  1.
         22    1    1    0    0    0 -0.20765679958E+02 -0.27761373859E+02  0.18947029077E+02  0.39508192233E+02  0.00000000000E+00 0.  1.
</event>
<event>
 5    1  0.1691138E-003  0.9118800E+02  0.7818608E-02  0.1130116E+00
         25   -1    0    0    0    0  0.00000000000E+00  0.00000000000E+00  0.99999998245E-14  0.12500000000E+03  0.12500000000E+03 0.  0.
        -11    1    3    3    0    0 -0.15925901274E+02  0.21584975752E+02 -0.20857718472E+02  0.33979257345E+02  0.51100000000E-03 0. -1.
         23    2    1    0    0    0  0.67836692576E+01 -0.14767142246E+02  0.23995378636E+02  0.96019578082E+02  0.91541763804E+02 0.  0.
         11    1    3    3    0    0  0.22709570532E+02 -0.36352117998E+02  0.44853097108E+02  0.62040320736E+02  0.51100000000E-03 0.  1.
         22    1    1    0    0    0 -0.67836692576E+01  0.14767142246E+02 -0.23995378636E+02  0.28980421918E+02  0.00000000000E+00 0.  1.
</event>
<event>
 5    1  0.1691138E-003  0.9118800E+02  0.7818608E-02  0.1130116E+00
         25   -1    0    0    0    0  0.00000000000E+00  0.00000000000E+00  0.99999998245E-14  0.12500000000E+03  0.12500000000E+03 0.  0.
        -11    1    3    3    0    0 -0.28754017122E+02  0.25229534366E+02 -0.30137139246E+02  0.48698768642E+02  0.51100000000E-03 0. -1.
         23    2    1    0    0    0 -0.28119672725E+02 -0.92342043195E+01  0.13323414077E+01  0.95372957332E+02  0.90654505311E+02 0.  0.
         11    1    3    3    0    0  0.63434439696E+00 -0.34463738686E+02  0.31469480654E+02  0.46674188691E+02  0.51100000000E-03 0.  1.
         22    1    1    0    0    0  0.28119672725E+02  0.92342043195E+01 -0.13323414077E+01  0.29627042668E+02  0.00000000000E+00 0. -1.
</event>
<event>
 5    1  0.1691138E-003  0.9118800E+02  0.7818608E-02  0.1130116E+00
         25   -1    0    0    0    0  0.00000000000E+00  0.00000000000E+00  0.99999998245E-14  0.12500000000E+03  0.12500000000E+03 0.  0.
        -11    1    3    3    0    0  0.42497776776E+01 -0.34709009055E+02 -0.26638275662E+02  0.43958772166E+02  0.51100000000E-03 0. -1.
         23    2    1    0    0    0 -0.21379863763E+02 -0.14648951838E+02  0.13615570800E+02  0.95724171529E+02  0.91137494382E+02 0.  0.
         11    1    3    3    0    0 -0.25629641441E+02  0.20060057217E+02  0.40253846462E+02  0.51765399362E+02  0.51100000000E-03 0.  1.
         22    1    1    0    0    0  0.21379863763E+02  0.14648951838E+02 -0.13615570800E+02  0.29275828471E+02  0.00000000000E+00 0.  1.
</event>
<event>
 5    1  0.1691138E-003  0.9118800E+02  0.7818608E-02  0.1130116E+00
         25   -1    0    0    0    0  0.00000000000E+00  0.00000000000E+00  0.99999998245E-14  0.12500000000E+03  0.12500000000E+03 0.  0.
        -11    1    3    3    0    0 -0.23387459197E+02 -0.39649710310E+02  0.84054450910E+01  0.46794489876E+02  0.51100000000E-03 0.  1.
         23    2    1    0    0    0 -0.33675976536E+01 -0.27453450949E+01 -0.24487542315E+02  0.10012999071E+03  0.96992255756E+02 0.  0.
         11    1    3    3    0    0  0.20019861543E+02  0.36904365215E+02 -0.32892987406E+02  0.53335500830E+02  0.51100000000E-03 0. -1.
         22    1    1    0    0    0  0.33675976536E+01  0.27453450949E+01  0.24487542315E+02  0.24870009293E+02  0.00000000000E+00 0. -1.
</event>
<event>
 5    1  0.1691138E-003  0.9118800E+02  0.7818608E-02  0.1130116E+00
         25   -1    0    0    0    0  0.00000000000E+00  0.00000000000E+00  0.99999998245E-14  0.12500000000E+03  0.12500000000E+03 0.  0.
        -11    1    3    3    0    0 -0.16367885545E+02 -0.12241546762E+02 -0.41701177122E+02  0.46440836749E+02  0.51100000000E-03 0.  1.
         23    2    1    0    0    0  0.21923073403E+02 -0.16821465058E+02 -0.13310049094E+02  0.94328510942E+02  0.89202733902E+02 0.  0.
         11    1    3    3    0    0  0.38290958947E+02 -0.45799182964E+01  0.28391128028E+02  0.47887674194E+02  0.51100000000E-03 0. -1.
         22    1    1    0    0    0 -0.21923073403E+02  0.16821465058E+02  0.13310049094E+02  0.30671489058E+02  0.00000000000E+00 0.  1.
</event>
<event>
 5    1  0.1691138E-003  0.9118800E+02  0.7818608E-02  0.1130116E+00
         25   -1    0    0    0    0  0.00000000000E+00  0.00000000000E+00  0.99999998245E-14  0.12500000000E+03  0.12500000000E+03 0.  0.
        -11    1    3    3    0    0 -0.55101482190E+02  0.25738336087E+02  0.62985199961E+01  0.61141693127E+02  0.51100000000E-03 0. -1.
         23    2    1    0    0    0 -0.23515871354E+02  0.17228932102E+01 -0.58949498312E+00  0.10141373131E+03  0.98632818202E+02 0.  0.
         11    1    3    3    0    0  0.31585610836E+02 -0.24015442877E+02 -0.68880149792E+01  0.40272038179E+02  0.51100000000E-03 0.  1.
         22    1    1    0    0    0  0.23515871354E+02 -0.17228932102E+01  0.58949498312E+00  0.23586268694E+02  0.00000000000E+00 0. -1.
</event>
<event>
 5    1  0.1691138E-003  0.9118800E+02  0.7818608E-02  0.1130116E+00
         25   -1    0    0    0    0  0.00000000000E+00  0.00000000000E+00  0.99999998245E-14  0.12500000000E+03  0.12500000000E+03 0.  0.
        -11    1    3    3    0    0  0.40208675449E+02 -0.97845842859E+01  0.31239675111E+02  0.51849715258E+02  0.51100000000E-03 0. -1.
         23    2    1    0    0    0  0.10715249002E+02 -0.27124815046E+02  0.40410988600E+01  0.95556789705E+02  0.90907631287E+02 0.  0.
         11    1    3    3    0    0 -0.29493426447E+02 -0.17340230760E+02 -0.27198576251E+02  0.43707074447E+02  0.51100000000E-03 0.  1.
         22    1    1    0    0    0 -0.10715249002E+02  0.27124815046E+02 -0.40410988600E+01  0.29443210295E+02  0.00000000000E+00 0. -1.
</event>
<event>
 5    1  0.1691138E-003  0.9118800E+02  0.7818608E-02  0.1130116E+00
         25   -1    0    0    0    0  0.00000000000E+00  0.00000000000E+00  0.99999998245E-14  0.12500000000E+03  0.12500000000E+03 0.  0.
        -11    1    3    3    0    0 -0.19879548603E+02 -0.41017998480E+02  0.25273211117E+02  0.52119169721E+02  0.51100000000E-03 0.  1.
         23    2    1    0    0    0 -0.27135797692E+02 -0.10583955774E+02 -0.47582862493E+01  0.95487071914E+02  0.90811717187E+02 0.  0.
         11    1    3    3    0    0 -0.72562490883E+01  0.30434042706E+02 -0.30031497366E+02  0.43367902193E+02  0.51100000000E-03 0. -1.
         22    1    1    0    0    0  0.27135797692E+02  0.10583955774E+02  0.47582862493E+01  0.29512928086E+02  0.00000000000E+00 0.  1.
</event>
<event>
 5    1  0.1691138E-003  0.9118800E+02  0.7818608E-02  0.1130116E+00
         25   -1    0    0    0    0  0.00000000000E+00  0.00000000000E+00  0.99999998245E-14  0.12500000000E+03  0.12500000000E+03 0.  0.
        -11    1    3    3    0    0  0.22840060867E+02 -0.15861009308E+02 -0.42632515032E+02  0.50899620184E+02  0.51100000000E-03 0. -1.
         23    2    1    0    0    0  0.21287492365E+02  0.16407648448E+02 -0.11496483795E+02  0.95767528356E+02  0.91196941226E+02 0.  0.
         11    1    3    3    0    0 -0.15525685020E+01  0.32268657755E+02  0.31136031237E+02  0.44867908172E+02  0.51100000000E-03 0.  1.
         22    1    1    0    0    0 -0.21287492365E+02 -0.16407648448E+02  0.11496483795E+02  0.29232471644E+02  0.00000000000E+00 0.  1.
</event>
<event>
 4    1  0.1691138E-003  0.9118800E+02  0.7818608E-02  0.1130116E+00
         25   -1    0    0    0    0  0.00000000000E+00  0.00000000000E+00  0.99999998245E-14  0.12500000000E+03  0.12500000000E+03 0.  0.
        -11    1    1    0    0    0 -0.14400468833E+02  0.34133675908E+02 -0.34446276241E+02  0.50586829123E+02  0.51100000000E-03 0.  1.
         11    1    1    0    0    0 -0.20123448477E+02 -0.52549449266E+01  0.85649476220E+01  0.22492797798E+02  0.51100000000E-03 0. -1.
         22    1    1    0    0    0  0.34523917310E+02 -0.28878730981E+02  0.25881328619E+02  0.51920373078E+02  0.00000000000E+00 0.  1.
</event>
<event>
 5    1  0.1691138E-003  0.9118800E+02  0.7818608E-02  0.1130116E+00
         25   -1    0    0    0    0  0.00000000000E+00  0.00000000000E+00  0.99999998245E-14  0.12500000000E+03  0.12500000000E+03 0.  0.
        -11    1    3    3    0    0  0.41203160129E+02 -0.19413271995E+01 -0.96302732900E+01  0.42358131685E+02  0.51100000000E-03 0.  1.
         23    2    1    0    0    0 -0.77865510825E-01  0.29349629085E+02  0.24500592397E+01  0.95548182046E+02  0.90895794796E+02 0.  0.
         11    1    3    3    0    0 -0.41281025640E+02  0.31290956285E+02  0.12080332530E+02  0.53190050361E+02  0.51100000000E-03 0. -1.
         22    1    1    0    0    0  0.77865510825E-01 -0.29349629085E+02 -0.24500592397E+01  0.29451817954E+02  0.00000000000E+00 0. -1.
</event>
<event>
 5    1  0.1691138E-003  0.9118800E+02  0.7818608E-02  0.1130116E+00
         25   -1    0    0    0    0  0.00000000000E+00  0.00000000000E+00  0.99999998245E-14  0.12500000000E+03  0.12500000000E+03 0.  0.
        -11    1    3    3    0    0 -0.46414008151E+02 -0.10751793258E+02  0.32325643089E+02  0.57574372878E+02  0.51100000000E-03 0. -1.
         23    2    1    0    0    0 -0.91461524745E+01 -0.97460829263E+01  0.26516279396E+02  0.95305702391E+02  0.90561722586E+02 0.  0.
         11    1    3    3    0    0  0.37267855677E+02  0.10057103314E+01 -0.58093636925E+01  0.37731329513E+02  0.51100000000E-03 0.  1.
         22    1    1    0    0    0  0.91461524745E+01  0.97460829263E+01 -0.26516279396E+02  0.29694297609E+02  0.00000000000E+00 0. -1.
</event>
<event>
 5    1  0.1691138E-003  0.9118800E+02  0.7818608E-02  0.1130116E+00
         25   -1    0    0    0    0  0.00000000000E+00  0.00000000000E+00  0.99999998245E-14  0.12500000000E+03  0.12500000000E+03 0.  0.
        -11    1    3    3    0    0  0.40660034280E+01  0.24434249335E+02 -0.81546299882E+01  0.26078015932E+02  0.51100000000E-03 0. -1.
         23    2    1    0    0    0  0.34581881715E+02 -0.15499220481E+02  0.18347476187E+02  0.82895816586E+02  0.71406961472E+02 0.  0.
         11    1    3    3    0    0  0.30515878287E+02 -0.39933469816E+02  0.26502106175E+02  0.56817800654E+02  0.51100000000E-03 0.  1.
         22    1    1    0    0    0 -0.34581881715E+02  0.15499220481E+02 -0.18347476187E+02  0.42104183414E+02  0.00000000000E+00 0.  1.
</event>
<event>
 5    1  0.1691138E-003  0.9118800E+02  0.7818608E-02  0.1130116E+00
         25   -1    0    0    0    0  0.00000000000E+00  0.00000000000E+00  0.99999998245E-14  0.12500000000E+03  0.12500000000E+03 0.  0.
        -11    1    3    3    0    0  0.47969087342E+02 -0.52406521735E+01  0.23278888089E+02  0.53576155205E+02  0.51100000000E-03 0.  1.
         23    2    1    0    0    0  0.16509207753E+02 -0.24548886203E+02  0.42258488092E+01  0.95115897996E+02  0.90299360457E+02 0.  0.
         11    1    3    3    0    0 -0.31459879589E+02 -0.19308234030E+02 -0.19053039279E+02  0.41539742791E+02  0.51100000000E-03 0. -1.
         22    1    1    0    0    0 -0.16509207753E+02  0.24548886203E+02 -0.42258488092E+01  0.29884102004E+02  0.00000000000E+00 0.  1.
</event>
<event>
 5    1  0.1691138E-003  0.9118800E+02  0.7818608E-02  0.1130116E+00
         25   -1    0    0    0    0  0.00000000000E+00  0.00000000000E+00  0.99999998245E-14  0.12500000000E+03  0.12500000000E+03 0.  0.
        -11    1    3    3    0    0 -0.76078417302E+01 -0.40066308797E+02  0.25393400698E+02  0.48041785517E+02  0.51100000000E-03 0.  1.
         23    2    1    0    0    0  0.24181579229E+02 -0.15759381422E+02 -0.12365254043E+01  0.96109934720E+02  0.91665062483E+02 0.  0.
         11    1    3    3    0    0  0.31789420959E+02  0.24306927375E+02 -0.26629926102E+02  0.48068149203E+02  0.51100000000E-03 0. -1.
         22    1    1    0    0    0 -0.24181579229E+02  0.15759381422E+02  0.12365254043E+01  0.28890065280E+02  0.00000000000E+00 0.  1.
</event>
<event>
 5    1  0.1691138E-003  0.9118800E+02  0.7818608E-02  0.1130116E+00
         25   -1    0    0    0    0  0.00000000000E+00  0.00000000000E+00  0.99999998245E-14  0.12500000000E+03  0.12500000000E+03 0.  0.
        -11    1    3    3    0    0 -0.32298566899E+02  0.86106954836E+01 -0.28690535745E+02  0.44050974360E+02  0.51100000000E-03 0. -1.
         23    2    1    0    0    0  0.10731960287E+02  0.20618986497E+02 -0.27837404843E+02  0.88733780399E+02  0.80984227476E+02 0.  0.
         11    1    3    3    0    0  0.43030527186E+02  0.12008291013E+02  0.85313090264E+00  0.44682806039E+02  0.51100000000E-03 0.  1.
         22    1    1    0    0    0 -0.10731960287E+02 -0.20618986497E+02  0.27837404843E+02  0.36266219601E+02  0.00000000000E+00 0.  1.
</event>
<event>
 5    1  0.1691138E-003  0.9118800E+02  0.7818608E-02  0.1130116E+00
         25   -1    0    0    0    0  0.00000000000E+00  0.00000000000E+00  0.99999998245E-14  0.12500000000E+03  0.12500000000E+03 0.  0.
        -11    1    3    3    0    0  0.82777230506E+01 -0.33180237953E+02 -0.13781351259E+02  0.36869696667E+02  0.51100000000E-03 0.  1.
         23    2    1    0    0    0 -0.27922861691E+01  0.31644437140E+01  0.29923749101E+02  0.94780117036E+02  0.89833341578E+02 0.  0.
         11    1    3    3    0    0 -0.11070009220E+02  0.36344681667E+02  0.43705100361E+02  0.57910420369E+02  0.51100000000E-03 0. -1.
         22    1    1    0    0    0  0.27922861691E+01 -0.31644437140E+01 -0.29923749101E+02  0.30219882964E+02  0.00000000000E+00 0. -1.
</event>
<event>
 5    1  0.1691138E-003  0.9118800E+02  0.7818608E-02  0.1130116E+00
         25   -1    0    0    0    0  0.00000000000E+00  0.00000000000E+00  0.99999998245E-14  0.12500000000E+03  0.12500000000E+03 0.  0.
        -11    1    3    3    0    0  0.29485111827E+02 -0.11961850637E+01 -0.52592246446E+02  0.60305448051E+02  0.51100000000E-03 0. -1.
         23    2    1    0    0    0  0.11435155980E+02  0.10993003508E+02 -0.23507530339E+02  0.96641352270E+02  0.92386893375E+02 0.  0.
         11    1    3    3    0    0 -0.18049955846E+02  0.12189188572E+02  0.29084716108E+02  0.36335904219E+02  0.51100000000E-03 0.  1.
         22    1    1    0    0    0 -0.11435155980E+02 -0.10993003508E+02  0.23507530339E+02  0.28358647730E+02  0.00000000000E+00 0. -1.
</event>
<event>
 5    1  0.1691138E-003  0.9118800E+02  0.7818608E-02  0.1130116E+00
         25   -1    0    0    0    0  0.00000000000E+00  0.00000000000E+00  0.99999998245E-14  0.12500000000E+03  0.12500000000E+03 0.  0.
        -11    1    3    3    0    0  0.20233644467E+02  0.29593315814E+02  0.88166387467E+01  0.36917446124E+02  0.51100000000E-03 0. -1.
         23    2    1    0    0    0 -0.26778437063E+02  0.28722436776E+01 -0.12834368133E+02  0.95166202376E+02  0.90368969199E+02 0.  0.
         11    1    3    3    0    0 -0.47012081529E+02 -0.26721072136E+02 -0.21651006880E+02  0.58248756253E+02  0.51100000000E-03 0.  1.
         22    1    1    0    0    0  0.26778437063E+02 -0.28722436776E+01  0.12834368133E+02  0.29833797624E+02  0.00000000000E+00 0.  1.
</event>
<event>
 5    1  0.1691138E-003  0.9118800E+02  0.7818608E-02  0.1130116E+00
         25   -1    0    0    0    0  0.00000000000E+00  0.00000000000E+00  0.99999998245E-14  0.12500000000E+03  0.12500000000E+03 0.  0.
        -11    1    3    3    0    0  0.37750037641E+02  0.29856476895E+02 -0.43242156938E+01  0.48323631860E+02  0.51100000000E-03 0.  1.
         23    2    1    0    0    0 -0.56875687961E+01  0.22633046643E+02 -0.19176444592E+02  0.94795045666E+02  0.89854111850E+02 0.  0.
         11    1    3    3    0    0 -0.43437606437E+02 -0.72234302527E+01 -0.14852228899E+02  0.46471413806E+02  0.51100000000E-03 0. -1.
         22    1    1    0    0    0  0.56875687961E+01 -0.22633046643E+02  0.19176444592E+02  0.30204954334E+02  0.00000000000E+00 0. -1.
</event>
<event>
 5    1  0.1691138E-003  0.9118800E+02  0.7818608E-02  0.1130116E+00
         25   -1    0    0    0    0  0.00000000000E+00  0.00000000000E+00  0.99999998245E-14  0.12500000000E+03  0.12500000000E+03 0.  0.
        -11    1    3    3    0    0  0.20088166482E+02 -0.40427416213E+02  0.12398858279E+02  0.46814977317E+02  0.51100000000E-03 0.  1.
         23    2    1    0    0    0  0.28520647739E+02  0.63901211886E+01  0.88767973965E+00  0.95758779582E+02  0.91184948842E+02 0.  0.
         11    1    3    3    0    0  0.84324812567E+01  0.46817537402E+02 -0.11511178539E+02  0.48943802265E+02  0.51100000000E-03 0. -1.
         22    1    1    0    0    0 -0.28520647739E+02 -0.63901211886E+01 -0.88767973965E+00  0.29241220418E+02  0.00000000000E+00 0. -1.
</event>
<event>
 5    1  0.1691138E-003  0.9118800E+02  0.7818608E-02  0.1130116E+00
         25   -1    0    0    0    0  0.00000000000E+00  0.00000000000E+00  0.99999998245E-14  0.12500000000E+03  0.12500000000E+03 0.  0.
        -11    1    3    3    0    0 -0.18304624221E+02  0.30598254261E+01 -0.16616809133E+02  0.24910643218E+02  0.51100000000E-03 0. -1.
         23    2    1    0    0    0  0.26426211093E+02  0.34780908977E+02 -0.10391466116E+02  0.80099678954E+02  0.66331890811E+02 0.  0.
         11    1    3    3    0    0  0.44730835314E+02  0.31721083551E+02  0.62253430173E+01  0.55189035736E+02  0.51100000000E-03 0.  1.
         22    1    1    0    0    0 -0.26426211093E+02 -0.34780908977E+02  0.10391466116E+02  0.44900321046E+02  0.00000000000E+00 0.  1.
</event>
<event>
 5    1  0.1691138E-003  0.9118800E+02  0.7818608E-02  0.1130116E+00
         25   -1    0    0    0    0  0.00000000000E+00  0.00000000000E+00  0.99999998245E-14  0.12500000000E+03  0.12500000000E+03 0.  0.
        -11    1    3    3    0    0  0.34902211884E+02 -0.35195336848E+01 -0.32757687399E+02  0.47996016457E+02  0.51100000000E-03 0.  1.
         23    2    1    0    0    0 -0.44452670379E+00 -0.18550628618E+01 -0.40694276149E+02  0.84261038630E+02  0.73758115875E+02 0.  0.
         11    1    3    3    0    0 -0.35346738588E+02  0.16644708229E+01 -0.79365887499E+01  0.36265022172E+02  0.51100000000E-03 0. -1.
         22    1    1    0    0    0  0.44452670379E+00  0.18550628618E+01  0.40694276149E+02  0.40738961370E+02  0.00000000000E+00 0. -1.
</event>
<event>
 5    1  0.1691138E-003  0.9118800E+02  0.7818608E-02  0.1130116E+00
         25   -1    0    0    0    0  0.00000000000E+00  0.00000000000E+00  0.99999998245E-14  0.12500000000E+03  0.12500000000E+03 0.  0.
        -11    1    3    3    0    0 -0.42700028671E+00 -0.43880195218E+02 -0.19446880740E+02  0.47998281556E+02  0.51100000000E-03 0. -1.
         23    2    1    0    0    0  0.27054347279E+02 -0.89274797614E+01 -0.42258361074E-01  0.96510714517E+02  0.92209970335E+02 0.  0.
         11    1    3    3    0    0  0.27481347566E+02  0.34952715456E+02  0.19404622379E+02  0.48512432960E+02  0.51100000000E-03 0.  1.
         22    1    1    0    0    0 -0.27054347279E+02  0.89274797614E+01  0.42258361074E-01  0.28489285483E+02  0.00000000000E+00 0. -1.
</event>
<event>
 5    1  0.1691138E-003  0.9118800E+02  0.7818608E-02  0.1130116E+00
         25   -1    0    0    0    0  0.00000000000E+00  0.00000000000E+00  0.99999998245E-14  0.12500000000E+03  0.12500000000E+03 0.  0.
        -11    1    3    3    0    0 -0.72651060216E+01 -0.36603152172E+02 -0.16568339823E+02  0.40829920391E+02  0.51100000000E-03 0.  1.
         23    2    1    0    0    0 -0.16988201385E+02  0.18546274149E+02 -0.12328264402E+02  0.96990191463E+02  0.92857675320E+02 0.  0.
         11    1    3    3    0    0 -0.97230953630E+01  0.55149426321E+02  0.42400754212E+01  0.56160271072E+02  0.51100000000E-03 0. -1.
         22    1    1    0    0    0  0.16988201385E+02 -0.18546274149E+02  0.12328264402E+02  0.28009808537E+02  0.00000000000E+00 0. -1.
</event>
<event>
 5    1  0.1691138E-003  0.9118800E+02  0.7818608E-02  0.1130116E+00
         25   -1    0    0    0    0  0.00000000000E+00  0.00000000000E+00  0.99999998245E-14  0.12500000000E+03  0.12500000000E+03 0.  0.
        -11    1    3    3    0    0  0.38707972528E+02 -0.26151314836E+02  0.45574888036E+01  0.46935797738E+02  0.51100000000E-03 0. -1.
         23    2    1    0    0    0 -0.10053522733E+02  0.12259051675E+02  0.12430258836E+01  0.10909708264E+03  0.10793178707E+03 0.  0.
         11    1    3    3    0    0 -0.48761495261E+02  0.38410366511E+02 -0.33144629200E+01  0.62161284899E+02  0.51100000000E-03 0.  1.
         22    1    1    0    0    0  0.10053522733E+02 -0.12259051675E+02 -0.12430258836E+01  0.15902917363E+02  0.00000000000E+00 0.  1.
</event>
<event>
 5    1  0.1691138E-003  0.9118800E+02  0.7818608E-02  0.1130116E+00
         25   -1    0    0    0    0  0.00000000000E+00  0.00000000000E+00  0.99999998245E-14  0.12500000000E+03  0.12500000000E+03 0.  0.
        -11    1    3    3    0    0 -0.10097046971E+02  0.77388773498E+01  0.37666173016E+02  0.39756523616E+02  0.51100000000E-03 0.  1.
         23    2    1    0    0    0  0.30100931744E+02 -0.89413173489E+01  0.74834781563E+01  0.92719732140E+02  0.86919117777E+02 0.  0.
         11    1    3    3    0    0  0.40197978714E+02 -0.16680194699E+02 -0.30182694859E+02  0.52963208524E+02  0.51100000000E-03 0. -1.
         22    1    1    0    0    0 -0.30100931744E+02  0.89413173489E+01 -0.74834781563E+01  0.32280267860E+02  0.00000000000E+00 0.  1.
</event>
<event>
 5    1  0.1691138E-003  0.9118800E+02  0.7818608E-02  0.1130116E+00
         25   -1    0    0    0    0  0.00000000000E+00  0.00000000000E+00  0.99999998245E-14  0.12500000000E+03  0.12500000000E+03 0.  0.
        -11    1    3    3    0    0 -0.51284324087E+02  0.23563054321E+02 -0.13892437490E+02  0.58123138642E+02  0.51100000000E-03 0. -1.
         23    2    1    0    0    0 -0.19542223125E+02  0.10884625022E+02  0.10672731650E+02  0.10021531224E+03  0.97102152705E+02 0.  0.
         11    1    3    3    0    0  0.31742100962E+02 -0.12678429299E+02  0.24565169140E+02  0.42092173597E+02  0.51100000000E-03 0.  1.
         22    1    1    0    0    0  0.19542223125E+02 -0.10884625022E+02 -0.10672731650E+02  0.24784687761E+02  0.00000000000E+00 0. -1.
</event>
<event>
 5    1  0.1691138E-003  0.9118800E+02  0.7818608E-02  0.1130116E+00
         25   -1    0    0    0    0  0.00000000000E+00  0.00000000000E+00  0.99999998245E-14  0.12500000000E+03  0.12500000000E+03 0.  0.
        -11    1    3    3    0    0 -0.39042882853E+02 -0.37414031256E+02 -0.24364344014E+02  0.59310856475E+02  0.51100000000E-03 0. -1.
         23    2    1    0    0    0 -0.18588417815E+02 -0.70874629082E+01 -0.21044182266E+02  0.96041080570E+02  0.91571120679E+02 0.  0.
         11    1    3    3    0    0  0.20454465038E+02  0.30326568348E+02  0.33201617484E+01  0.36730224095E+02  0.51100000000E-03 0.  1.
         22    1    1    0    0    0  0.18588417815E+02  0.70874629082E+01  0.21044182266E+02  0.28958919430E+02  0.00000000000E+00 0. -1.
</event>
<event>
 5    1  0.1691138E-003  0.9118800E+02  0.7818608E-02  0.1130116E+00
         25   -1    0    0    0    0  0.00000000000E+00  0.00000000000E+00  0.99999998245E-14  0.12500000000E+03  0.12500000000E+03 0.  0.
        -11    1    3    3    0    0 -0.96945267560E+01  0.47880490830E+02 -0.26649848810E+02  0.55648357505E+02  0.51100000000E-03 0. -1.
         23    2    1    0    0    0 -0.13712224059E+02  0.24921265280E+02  0.61614795736E+01  0.95895732575E+02  0.91372496649E+02 0.  0.
         11    1    3    3    0    0 -0.40176973029E+01 -0.22959225550E+02  0.32811328384E+02  0.40247375070E+02  0.51100000000E-03 0.  1.
         22    1    1    0    0    0  0.13712224059E+02 -0.24921265280E+02 -0.61614795736E+01  0.29104267425E+02  0.00000000000E+00 0. -1.
</event>
<event>
 5    1  0.1691138E-003  0.9118800E+02  0.7818608E-02  0.1130116E+00
         25   -1    0    0    0    0  0.00000000000E+00  0.00000000000E+00  0.99999998245E-14  0.12500000000E+03  0.12500000000E+03 0.  0.
        -11    1    3    3    0    0 -0.30506101525E+02  0.29358209203E+02  0.89725080134E+01  0.43278546396E+02  0.51100000000E-03 0.  1.
         23    2    1    0    0    0  0.20737078782E+02  0.10058886701E+02  0.13613453964E+02  0.98231851635E+02  0.94514352924E+02 0.  0.
         11    1    3    3    0    0  0.51243180308E+02 -0.19299322501E+02  0.46409459502E+01  0.54953305238E+02  0.51100000000E-03 0. -1.
         22    1    1    0    0    0 -0.20737078782E+02 -0.10058886701E+02 -0.13613453964E+02  0.26768148365E+02  0.00000000000E+00 0. -1.
</event>
<event>
 5    1  0.1691138E-003  0.9118800E+02  0.7818608E-02  0.1130116E+00
         25   -1    0    0    0    0  0.00000000000E+00  0.00000000000E+00  0.99999998245E-14  0.12500000000E+03  0.12500000000E+03 0.  0.
        -11    1    3    3    0    0  0.32656745499E+02  0.72426111889E+01 -0.44086507891E+02  0.55340208002E+02  0.51100000000E-03 0. -1.
         23    2    1    0    0    0  0.94857205792E+01  0.23378598924E+02 -0.16252506308E+02  0.94988639754E+02  0.90123026683E+02 0.  0.
         11    1    3    3    0    0 -0.23171024920E+02  0.16135987735E+02  0.27834001583E+02  0.39648431752E+02  0.51100000000E-03 0.  1.
         22    1    1    0    0    0 -0.94857205792E+01 -0.23378598924E+02  0.16252506308E+02  0.30011360246E+02  0.00000000000E+00 0. -1.
</event>
<event>
 5    1  0.1691138E-003  0.9118800E+02  0.7818608E-02  0.1130116E+00
         25   -1    0    0    0    0  0.00000000000E+00  0.00000000000E+00  0.99999998245E-14  0.12500000000E+03  0.12500000000E+03 0.  0.
        -11    1    3    3    0    0  0.46534311915E+02  0.26246813345E+02  0.11064506981E+02  0.54559698599E+02  0.51100000000E-03 0.  1.
         23    2    1    0    0    0  0.10559670642E+02  0.24122951130E+02  0.20287372029E+02  0.91758446500E+02  0.85525502775E+02 0.  0.
         11    1    3    3    0    0 -0.35974641273E+02 -0.21238622153E+01  0.92228650479E+01  0.37198747901E+02  0.51100000000E-03 0. -1.
         22    1    1    0    0    0 -0.10559670642E+02 -0.24122951130E+02 -0.20287372029E+02  0.33241553500E+02  0.00000000000E+00 0.  1.
</event>
<event>
 5    1  0.1691138E-003  0.9118800E+02  0.7818608E-02  0.1130116E+00
         25   -1    0    0    0    0  0.00000000000E+00  0.00000000000E+00  0.99999998245E-14  0.12500000000E+03  0.12500000000E+03 0.  0.
        -11    1    3    3    0    0  0.25114983126E+02  0.82189274410E+01  0.34891499489E+02  0.43769051652E+02  0.51100000000E-03 0.  1.
         23    2    1    0    0    0 -0.19812389676E+02  0.18427766638E+02  0.98646640627E+01  0.96200261025E+02  0.91788154227E+02 0.  0.
         11    1    3    3    0    0 -0.44927372802E+02  0.10208839196E+02 -0.25026835426E+02  0.52431209373E+02  0.51100000000E-03 0. -1.
         22    1    1    0    0    0  0.19812389676E+02 -0.18427766638E+02 -0.98646640627E+01  0.28799738975E+02  0.00000000000E+00 0. -1.
</event>
<event>
 5    1  0.1691138E-003  0.9118800E+02  0.7818608E-02  0.1130116E+00
         25   -1    0    0    0    0  0.00000000000E+00  0.00000000000E+00  0.99999998245E-14  0.12500000000E+03  0.12500000000E+03 0.  0.
        -11    1    3    3    0    0  0.20428526286E+02 -0.12164480704E+02 -0.18630960078E+02  0.30206157496E+02  0.51100000000E-03 0.  1.
         23    2    1    0    0    0  0.34132175796E+02 -0.11213323849E+02  0.28400969340E+02  0.79203066524E+02  0.64620172013E+02 0.  0.
         11    1    3    3    0    0  0.13703649511E+02  0.95115685472E+00  0.47031929418E+02  0.48996909028E+02  0.51100000000E-03 0. -1.
         22    1    1    0    0    0 -0.34132175796E+02  0.11213323849E+02 -0.28400969340E+02  0.45796933476E+02  0.00000000000E+00 0. -1.
</event>
<event>
 5    1  0.1691138E-003  0.9118800E+02  0.7818608E-02  0.1130116E+00
         25   -1    0    0    0    0  0.00000000000E+00  0.00000000000E+00  0.99999998245E-14  0.12500000000E+03  0.12500000000E+03 0.  0.
        -11    1    3    3    0    0  0.49300980090E+02  0.18125289837E+02  0.25427435216E+02  0.58358094824E+02  0.51100000000E-03 0.  1.
         23    2    1    0    0    0  0.28220818463E+02  0.15101272020E+02 -0.18207034290E+01  0.92941023529E+02  0.87236780559E+02 0.  0.
         11    1    3    3    0    0 -0.21080161627E+02 -0.30240178169E+01 -0.27248138645E+02  0.34582928706E+02  0.51100000000E-03 0. -1.
         22    1    1    0    0    0 -0.28220818463E+02 -0.15101272020E+02  0.18207034290E+01  0.32058976471E+02  0.00000000000E+00 0.  1.
</event>
<event>
 5    1  0.1691138E-003  0.9118800E+02  0.7818608E-02  0.1130116E+00
         25   -1    0    0    0    0  0.00000000000E+00  0.00000000000E+00  0.99999998245E-14  0.12500000000E+03  0.12500000000E+03 0.  0.
        -11    1    3    3    0    0  0.22458733640E+02  0.20597872185E+02 -0.17399106386E+02  0.35091251881E+02  0.51100000000E-03 0.  1.
         23    2    1    0    0    0 -0.18780887024E+02 -0.21942133657E+02 -0.39247139324E+01  0.95852404452E+02  0.91313203387E+02 0.  0.
         11    1    3    3    0    0 -0.41239620664E+02 -0.42540005842E+02  0.13474392454E+02  0.60761152571E+02  0.51100000000E-03 0. -1.
         22    1    1    0    0    0  0.18780887024E+02  0.21942133657E+02  0.39247139324E+01  0.29147595548E+02  0.00000000000E+00 0. -1.
</event>
<event>
 5    1  0.1691138E-003  0.9118800E+02  0.7818608E-02  0.1130116E+00
         25   -1    0    0    0    0  0.00000000000E+00  0.00000000000E+00  0.99999998245E-14  0.12500000000E+03  0.12500000000E+03 0.  0.
        -11    1    3    3    0    0  0.15509565982E+02 -0.93382727732E+01  0.29003513580E+02  0.34189966007E+02  0.51100000000E-03 0.  1.
         23    2    1    0    0    0  0.10703680891E+01  0.62088133752E+01 -0.28671672637E+02  0.95644253319E+02  0.91027816242E+02 0.  0.
         11    1    3    3    0    0 -0.14439197893E+02  0.15547086148E+02 -0.57675186217E+02  0.61454287312E+02  0.51100000000E-03 0. -1.
         22    1    1    0    0    0 -0.10703680891E+01 -0.62088133752E+01  0.28671672637E+02  0.29355746681E+02  0.00000000000E+00 0. -1.
</event>
<event>
 5    1  0.1691138E-003  0.9118800E+02  0.7818608E-02  0.1130116E+00
         25   -1    0    0    0    0  0.00000000000E+00  0.00000000000E+00  0.99999998245E-14  0.12500000000E+03  0.12500000000E+03 0.  0.
        -11    1    3    3    0    0 -0.76398926194E+01 -0.24528090822E+01 -0.38669821005E+02  0.39493534768E+02  0.51100000000E-03 0.  1.
         23    2    1    0    0    0  0.27865118675E+02 -0.17911450689E+02 -0.37036834335E+01  0.91668300740E+02  0.85393648388E+02 0.  0.
         11    1    3    3    0    0  0.35505011294E+02 -0.15458641607E+02  0.34966137572E+02  0.52174765973E+02  0.51100000000E-03 0. -1.
         22    1    1    0    0    0 -0.27865118675E+02  0.17911450689E+02  0.37036834335E+01  0.33331699260E+02  0.00000000000E+00 0. -1.
</event>
<event>
 5    1  0.1691138E-003  0.9118800E+02  0.7818608E-02  0.1130116E+00
         25   -1    0    0    0    0  0.00000000000E+00  0.00000000000E+00  0.99999998245E-14  0.12500000000E+03  0.12500000000E+03 0.  0.
        -11    1    3    3    0    0  0.19880126123E+02  0.15380672883E+02  0.46241816840E+02  0.52631645784E+02  0.51100000000E-03 0. -1.
         23    2    1    0    0    0 -0.14914376201E+02  0.63429799587E+01  0.27263994356E+02  0.93282537925E+02  0.87724765495E+02 0.  0.
         11    1    3    3    0    0 -0.34794502324E+02 -0.90376929241E+01 -0.18977822484E+02  0.40650892141E+02  0.51100000000E-03 0.  1.
         22    1    1    0    0    0  0.14914376201E+02 -0.63429799587E+01 -0.27263994356E+02  0.31717462075E+02  0.00000000000E+00 0.  1.
</event>
<event>
 5    1  0.1691138E-003  0.9118800E+02  0.7818608E-02  0.1130116E+00
         25   -1    0    0    0    0  0.00000000000E+00  0.00000000000E+00  0.99999998245E-14  0.12500000000E+03  0.12500000000E+03 0.  0.
        -11    1    3    3    0    0  0.37776540275E+02 -0.15928993928E+02 -0.42741273950E+02  0.59225132687E+02  0.51100000000E-03 0.  1.
         23    2    1    0    0    0  0.59223647114E+01 -0.14654730945E+02 -0.24172642202E+02  0.96118307289E+02  0.91676479112E+02 0.  0.
         11    1    3    3    0    0 -0.31854175563E+02  0.12742629835E+01  0.18568631748E+02  0.36893174602E+02  0.51100000000E-03 0. -1.
         22    1    1    0    0    0 -0.59223647114E+01  0.14654730945E+02  0.24172642202E+02  0.28881692711E+02  0.00000000000E+00 0.  1.
</event>
<event>
 5    1  0.1691138E-003  0.9118800E+02  0.7818608E-02  0.1130116E+00
         25   -1    0    0    0    0  0.00000000000E+00  0.00000000000E+00  0.99999998245E-14  0.12500000000E+03  0.12500000000E+03 0.  0.
        -11    1    3    3    0    0  0.56801822381E+02  0.63350189397E+01 -0.11765939291E+02  0.58352521955E+02  0.51100000000E-03 0.  1.
         23    2    1    0    0    0  0.19201733724E+02  0.63480262140E+01 -0.19685131199E+02  0.96777519508E+02  0.92570945101E+02 0.  0.
         11    1    3    3    0    0 -0.37600088657E+02  0.13007274317E-01 -0.79191919079E+01  0.38424997553E+02  0.51100000000E-03 0. -1.
         22    1    1    0    0    0 -0.19201733724E+02 -0.63480262140E+01  0.19685131199E+02  0.28222480492E+02  0.00000000000E+00 0.  1.
</event>
<event>
 5    1  0.1691138E-003  0.9118800E+02  0.7818608E-02  0.1130116E+00
         25   -1    0    0    0    0  0.00000000000E+00  0.00000000000E+00  0.99999998245E-14  0.12500000000E+03  0.12500000000E+03 0.  0.
        -11    1    3    3    0    0 -0.30032709291E+02  0.16195541428E+02 -0.37765053824E+02  0.50896546839E+02  0.51100000000E-03 0.  1.
         23    2    1    0    0    0 -0.30573241479E+02  0.49412524174E+01  0.36488634909E+01  0.93815816914E+02  0.88481377863E+02 0.  0.
         11    1    3    3    0    0 -0.54053218766E+00 -0.11254289011E+02  0.41413917315E+02  0.42919270075E+02  0.51100000000E-03 0. -1.
         22    1    1    0    0    0  0.30573241479E+02 -0.49412524174E+01 -0.36488634909E+01  0.31184183086E+02  0.00000000000E+00 0.  1.
</event>
<event>
 5    1  0.1691138E-003  0.9118800E+02  0.7818608E-02  0.1130116E+00
         25   -1    0    0    0    0  0.00000000000E+00  0.00000000000E+00  0.99999998245E-14  0.12500000000E+03  0.12500000000E+03 0.  0.
        -11    1    3    3    0    0  0.50290225077E+02 -0.32063700615E+02 -0.12027346219E+02  0.60842786695E+02  0.51100000000E-03 0. -1.
         23    2    1    0    0    0  0.29302747013E+02 -0.82737988028E+01 -0.65295921946E+00  0.94544572161E+02  0.89504988913E+02 0.  0.
         11    1    3    3    0    0 -0.20987478064E+02  0.23789901812E+02  0.11374386999E+02  0.33701785466E+02  0.51100000000E-03 0.  1.
         22    1    1    0    0    0 -0.29302747013E+02  0.82737988028E+01  0.65295921946E+00  0.30455427839E+02  0.00000000000E+00 0. -1.
</event>
<event>
 5    1  0.1691138E-003  0.9118800E+02  0.7818608E-02  0.1130116E+00
         25   -1    0    0    0    0  0.00000000000E+00  0.00000000000E+00  0.99999998245E-14  0.12500000000E+03  0.12500000000E+03 0.  0.
        -11    1    3    3    0    0 -0.32928563895E+02 -0.37227959976E+02  0.23576188760E+02  0.55009526456E+02  0.51100000000E-03 0.  1.
         23    2    1    0    0    0 -0.30906598502E+02 -0.24689129389E+01  0.12798418659E+02  0.91457297631E+02  0.85084219498E+02 0.  0.
         11    1    3    3    0    0  0.20219653924E+01  0.34759047037E+02 -0.10777770101E+02  0.36447771175E+02  0.51100000000E-03 0. -1.
         22    1    1    0    0    0  0.30906598502E+02  0.24689129389E+01 -0.12798418659E+02  0.33542702369E+02  0.00000000000E+00 0.  1.
</event>
<event>
 5    1  0.1691138E-003  0.9118800E+02  0.7818608E-02  0.1130116E+00
         25   -1    0    0    0    0  0.00000000000E+00  0.00000000000E+00  0.99999998245E-14  0.12500000000E+03  0.12500000000E+03 0.  0.
        -11    1    3    3    0    0 -0.20446160505E+02  0.20294019702E+02  0.20410909605E+02  0.35305777803E+02  0.51100000000E-03 0.  1.
         23    2    1    0    0    0  0.28835618000E+02 -0.82245406891E+01  0.29085700828E+01  0.94873670736E+02  0.89963424145E+02 0.  0.
         11    1    3    3    0    0  0.49281778506E+02 -0.28518560391E+02 -0.17502339522E+02  0.59567892933E+02  0.51100000000E-03 0. -1.
         22    1    1    0    0    0 -0.28835618000E+02  0.82245406891E+01 -0.29085700828E+01  0.30126329264E+02  0.00000000000E+00 0. -1.
</event>
<event>
 5    1  0.1691138E-003  0.9118800E+02  0.7818608E-02  0.1130116E+00
         25   -1    0    0    0    0  0.00000000000E+00  0.00000000000E+00  0.99999998245E-14  0.12500000000E+03  0.12500000000E+03 0.  0.
        -11    1    3    3    0    0  0.16181416858E+02 -0.45244146437E+02  0.39879231401E+01  0.48215916143E+02  0.51100000000E-03 0.  1.
         23    2    1    0    0    0  0.97137185263E+01 -0.13919857216E+02 -0.27231489235E+02  0.92911485568E+02  0.87194445878E+02 0.  0.
         11    1    3    3    0    0 -0.64676983315E+01  0.31324289221E+02 -0.31219412375E+02  0.44695569425E+02  0.51100000000E-03 0. -1.
         22    1    1    0    0    0 -0.97137185263E+01  0.13919857216E+02  0.27231489235E+02  0.32088514432E+02  0.00000000000E+00 0.  1.
</event>
<event>
 5    1  0.1691138E-003  0.9118800E+02  0.7818608E-02  0.1130116E+00
         25   -1    0    0    0    0  0.00000000000E+00  0.00000000000E+00  0.99999998245E-14  0.12500000000E+03  0.12500000000E+03 0.  0.
        -11    1    3    3    0    0  0.32653655494E+02  0.10601728623E+02  0.76501440223E+01  0.35173606166E+02  0.51100000000E-03 0. -1.
         23    2    1    0    0    0 -0.24337992786E+02  0.83175826163E+01 -0.13433625119E+02  0.95983067749E+02  0.91491895473E+02 0.  0.
         11    1    3    3    0    0 -0.56991648279E+02 -0.22841460066E+01 -0.21083769141E+02  0.60809461583E+02  0.51100000000E-03 0.  1.
         22    1    1    0    0    0  0.24337992786E+02 -0.83175826163E+01  0.13433625119E+02  0.29016932251E+02  0.00000000000E+00 0.  1.
</event>
<event>
 5    1  0.1691138E-003  0.9118800E+02  0.7818608E-02  0.1130116E+00
         25   -1    0    0    0    0  0.00000000000E+00  0.00000000000E+00  0.99999998245E-14  0.12500000000E+03  0.12500000000E+03 0.  0.
        -11    1    3    3    0    0  0.35069485920E+00 -0.44741758335E+02  0.15929621546E+02  0.47494218266E+02  0.51100000000E-03 0. -1.
         23    2    1    0    0    0 -0.55057706865E+01  0.14385339321E+01  0.28681516791E+02  0.95759406706E+02  0.91185808526E+02 0.  0.
         11    1    3    3    0    0 -0.58564655457E+01  0.46180292267E+02  0.12751895245E+02  0.48265188440E+02  0.51100000000E-03 0.  1.
         22    1    1    0    0    0  0.55057706865E+01 -0.14385339321E+01 -0.28681516791E+02  0.29240593294E+02  0.00000000000E+00 0. -1.
</event>
<event>
 5    1  0.1691138E-003  0.9118800E+02  0.7818608E-02  0.1130116E+00
         25   -1    0    0    0    0  0.00000000000E+00  0.00000000000E+00  0.99999998245E-14  0.12500000000E+03  0.12500000000E+03 0.  0.
        -11    1    3    3    0    0 -0.22911548552E+02 -0.47834812681E+01 -0.43498107193E+02  0.49395405452E+02  0.51100000000E-03 0. -1.
         23    2    1    0    0    0 -0.29214395414E+02  0.43944418833E+01  0.11735775553E+01  0.95433645758E+02  0.90738147653E+02 0.  0.
         11    1    3    3    0    0 -0.63028468623E+01  0.91779231515E+01  0.44671684749E+02  0.46038240306E+02  0.51100000000E-03 0.  1.
         22    1    1    0    0    0  0.29214395414E+02 -0.43944418833E+01 -0.11735775553E+01  0.29566354242E+02  0.00000000000E+00 0. -1.
</event>
<event>
 5    1  0.1691138E-003  0.9118800E+02  0.7818608E-02  0.1130116E+00
         25   -1    0    0    0    0  0.00000000000E+00  0.00000000000E+00  0.99999998245E-14  0.12500000000E+03  0.12500000000E+03 0.  0.
        -11    1    3    3    0    0  0.53804009101E+02  0.27548924036E+02  0.93520013880E+01  0.61165959005E+02  0.51100000000E-03 0. -1.
         23    2    1    0    0    0  0.24453428413E+02  0.13201439220E+02 -0.48527244861E+01  0.96790124184E+02  0.92587963829E+02 0.  0.
         11    1    3    3    0    0 -0.29350580688E+02 -0.14347484816E+02 -0.14204725874E+02  0.35624165179E+02  0.51100000000E-03 0.  1.
         22    1    1    0    0    0 -0.24453428413E+02 -0.13201439220E+02  0.48527244861E+01  0.28209875816E+02  0.00000000000E+00 0. -1.
</event>
<event>
 5    1  0.1691138E-003  0.9118800E+02  0.7818608E-02  0.1130116E+00
         25   -1    0    0    0    0  0.00000000000E+00  0.00000000000E+00  0.99999998245E-14  0.12500000000E+03  0.12500000000E+03 0.  0.
        -11    1    3    3    0    0 -0.68980470778E+01  0.49991490291E+02 -0.26739491516E+02  0.57111579927E+02  0.51100000000E-03 0.  1.
         23    2    1    0    0    0  0.98870486930E+01  0.15214412779E+02 -0.22701763526E+02  0.95937960235E+02  0.91430246958E+02 0.  0.
         11    1    3    3    0    0  0.16785095771E+02 -0.34777077511E+02  0.40377279896E+01  0.38826380308E+02  0.51100000000E-03 0. -1.
         22    1    1    0    0    0 -0.98870486930E+01 -0.15214412779E+02  0.22701763526E+02  0.29062039765E+02  0.00000000000E+00 0.  1.
</event>
<event>
 5    1  0.1691138E-003  0.9118800E+02  0.7818608E-02  0.1130116E+00
         25   -1    0    0    0    0  0.00000000000E+00  0.00000000000E+00  0.99999998245E-14  0.12500000000E+03  0.12500000000E+03 0.  0.
        -11    1    3    3    0    0  0.20078210363E+02 -0.23388840726E+02  0.40367718271E+02  0.50790994089E+02  0.51100000000E-03 0.  1.
         23    2    1    0    0    0  0.31507839052E+02 -0.10652875265E+02  0.33512969728E+01  0.91571585971E+02  0.85251958879E+02 0.  0.
         11    1    3    3    0    0  0.11429628689E+02  0.12735965461E+02 -0.37016421299E+02  0.40780591881E+02  0.51100000000E-03 0. -1.
         22    1    1    0    0    0 -0.31507839052E+02  0.10652875265E+02 -0.33512969728E+01  0.33428414029E+02  0.00000000000E+00 0. -1.
</event>
<event>
 5    1  0.1691138E-003  0.9118800E+02  0.7818608E-02  0.1130116E+00
         25   -1    0    0    0    0  0.00000000000E+00  0.00000000000E+00  0.99999998245E-14  0.12500000000E+03  0.12500000000E+03 0.  0.
        -11    1    3    3    0    0  0.29331302678E+02  0.25406249295E+02 -0.25413885358E+02  0.46386079693E+02  0.51100000000E-03 0. -1.
         23    2    1    0    0    0  0.19181807996E+02  0.12595964649E+02  0.19942742813E+02  0.94597482434E+02  0.89578851347E+02 0.  0.
         11    1    3    3    0    0 -0.10149494682E+02 -0.12810284647E+02  0.45356628171E+02  0.48211402742E+02  0.51100000000E-03 0.  1.
         22    1    1    0    0    0 -0.19181807996E+02 -0.12595964649E+02 -0.19942742813E+02  0.30402517566E+02  0.00000000000E+00 0. -1.
</event>
<event>
 5    1  0.1691138E-003  0.9118800E+02  0.7818608E-02  0.1130116E+00
         25   -1    0    0    0    0  0.00000000000E+00  0.00000000000E+00  0.99999998245E-14  0.12500000000E+03  0.12500000000E+03 0.  0.
        -11    1    3    3    0    0  0.13767904409E+02  0.17102007443E+02 -0.34695852105E+02  0.41058933303E+02  0.51100000000E-03 0. -1.
         23    2    1    0    0    0  0.42678863698E+01 -0.28193566922E+02 -0.49937101932E+01  0.96051265807E+02  0.91585023076E+02 0.  0.
         11    1    3    3    0    0 -0.95000180393E+01 -0.45295574365E+02  0.29702141912E+02  0.54992332504E+02  0.51100000000E-03 0.  1.
         22    1    1    0    0    0 -0.42678863698E+01  0.28193566922E+02  0.49937101932E+01  0.28948734193E+02  0.00000000000E+00 0.  1.
</event>
<event>
 5    1  0.1691138E-003  0.9118800E+02  0.7818608E-02  0.1130116E+00
         25   -1    0    0    0    0  0.00000000000E+00  0.00000000000E+00  0.99999998245E-14  0.12500000000E+03  0.12500000000E+03 0.  0.
        -11    1    3    3    0    0  0.58769745981E+02 -0.76287001966E+01  0.38738989443E+01  0.59389285251E+02  0.51100000000E-03 0. -1.
         23    2    1    0    0    0  0.25708948376E+02 -0.14284589163E+01  0.15460866259E+02  0.94966203920E+02  0.90091902966E+02 0.  0.
         11    1    3    3    0    0 -0.33060797605E+02  0.62002412802E+01  0.11586967315E+02  0.35576918669E+02  0.51100000000E-03 0.  1.
         22    1    1    0    0    0 -0.25708948376E+02  0.14284589163E+01 -0.15460866259E+02  0.30033796080E+02  0.00000000000E+00 0. -1.
</event>
<event>
 5    1  0.1691138E-003  0.9118800E+02  0.7818608E-02  0.1130116E+00
         25   -1    0    0    0    0  0.00000000000E+00  0.00000000000E+00  0.99999998245E-14  0.12500000000E+03  0.12500000000E+03 0.  0.
        -11    1    3    3    0    0  0.38309791107E+02  0.13062562604E+02  0.46744317825E+02  0.61832854420E+02  0.51100000000E-03 0. -1.
         23    2    1    0    0    0  0.13318670658E+02  0.36960161655E+01  0.25694294900E+02  0.95823908521E+02  0.91274186550E+02 0.  0.
         11    1    3    3    0    0 -0.24991120450E+02 -0.93665464387E+01 -0.21050022925E+02  0.33991054102E+02  0.51100000000E-03 0.  1.
         22    1    1    0    0    0 -0.13318670658E+02 -0.36960161655E+01 -0.25694294900E+02  0.29176091479E+02  0.00000000000E+00 0. -1.
</event>
<event>
 5    1  0.1691138E-003  0.9118800E+02  0.7818608E-02  0.1130116E+00
         25   -1    0    0    0    0  0.00000000000E+00  0.00000000000E+00  0.99999998245E-14  0.12500000000E+03  0.12500000000E+03 0.  0.
        -11    1    3    3    0    0 -0.20338259318E+02 -0.53185516732E+02  0.21217308954E+02  0.60766094013E+02  0.51100000000E-03 0.  1.
         23    2    1    0    0    0 -0.52755087683E+00 -0.24938216187E+02  0.15203326259E+02  0.95788117728E+02  0.91225157890E+02 0.  0.
         11    1    3    3    0    0  0.19810708441E+02  0.28247300545E+02 -0.60139826942E+01  0.35022023715E+02  0.51100000000E-03 0. -1.
         22    1    1    0    0    0  0.52755087683E+00  0.24938216187E+02 -0.15203326259E+02  0.29211882272E+02  0.00000000000E+00 0.  1.
</event>
<event>
 5    1  0.1691138E-003  0.9118800E+02  0.7818608E-02  0.1130116E+00
         25   -1    0    0    0    0  0.00000000000E+00  0.00000000000E+00  0.99999998245E-14  0.12500000000E+03  0.12500000000E+03 0.  0.
        -11    1    3    3    0    0 -0.24169176351E+01 -0.26900360407E+02  0.20049165903E+02  0.33636883544E+02  0.51100000000E-03 0.  1.
         23    2    1    0    0    0  0.10250821101E+02  0.22829843570E+02 -0.15038313255E+02  0.95803562611E+02  0.91246318571E+02 0.  0.
         11    1    3    3    0    0  0.12667738737E+02  0.49730203977E+02 -0.35087479158E+02  0.62166679067E+02  0.51100000000E-03 0. -1.
         22    1    1    0    0    0 -0.10250821101E+02 -0.22829843570E+02  0.15038313255E+02  0.29196437389E+02  0.00000000000E+00 0. -1.
</event>
<event>
 5    1  0.1691138E-003  0.9118800E+02  0.7818608E-02  0.1130116E+00
         25   -1    0    0    0    0  0.00000000000E+00  0.00000000000E+00  0.99999998245E-14  0.12500000000E+03  0.12500000000E+03 0.  0.
        -11    1    3    3    0    0  0.35735792492E+02 -0.14405742806E+02 -0.22395949222E+02  0.44566252172E+02  0.51100000000E-03 0. -1.
         23    2    1    0    0    0  0.14216485415E+02  0.23711227062E+02  0.59574117220E+01  0.96718884379E+02  0.92491735278E+02 0.  0.
         11    1    3    3    0    0 -0.21519307077E+02  0.38116969868E+02  0.28353360944E+02  0.52152632207E+02  0.51100000000E-03 0.  1.
         22    1    1    0    0    0 -0.14216485415E+02 -0.23711227062E+02 -0.59574117220E+01  0.28281115621E+02  0.00000000000E+00 0.  1.
</event>
<event>
 5    1  0.1691138E-003  0.9118800E+02  0.7818608E-02  0.1130116E+00
         25   -1    0    0    0    0  0.00000000000E+00  0.00000000000E+00  0.99999998245E-14  0.12500000000E+03  0.12500000000E+03 0.  0.
        -11    1    3    3    0    0  0.21987975572E+02  0.18690709790E+02 -0.26967845182E+02  0.39497827487E+02  0.51100000000E-03 0. -1.
         23    2    1    0    0    0 -0.25490064555E+02 -0.74190160896E+01 -0.12931777192E+02  0.95470082084E+02  0.90788328110E+02 0.  0.
         11    1    3    3    0    0 -0.47478040127E+02 -0.26109725880E+02  0.14036067989E+02  0.55972254597E+02  0.51100000000E-03 0.  1.
         22    1    1    0    0    0  0.25490064555E+02  0.74190160896E+01  0.12931777192E+02  0.29529917916E+02  0.00000000000E+00 0.  1.
</event>
<event>
 5    1  0.1691138E-003  0.9118800E+02  0.7818608E-02  0.1130116E+00
         25   -1    0    0    0    0  0.00000000000E+00  0.00000000000E+00  0.99999998245E-14  0.12500000000E+03  0.12500000000E+03 0.  0.
        -11    1    3    3    0    0  0.47212995743E+01 -0.41126639341E+02 -0.13536019401E+02  0.43553587161E+02  0.51100000000E-03 0.  1.
         23    2    1    0    0    0  0.75866697155E+01  0.98261286336E+01 -0.26088971585E+02  0.96108049570E+02  0.91662491743E+02 0.  0.
         11    1    3    3    0    0  0.28653701412E+01  0.50952767974E+02 -0.12552952184E+02  0.52554462409E+02  0.51100000000E-03 0. -1.
         22    1    1    0    0    0 -0.75866697155E+01 -0.98261286336E+01  0.26088971585E+02  0.28891950430E+02  0.00000000000E+00 0.  1.
</event>
<event>
 5    1  0.1691138E-003  0.9118800E+02  0.7818608E-02  0.1130116E+00
         25   -1    0    0    0    0  0.00000000000E+00  0.00000000000E+00  0.99999998245E-14  0.12500000000E+03  0.12500000000E+03 0.  0.
        -11    1    3    3    0    0 -0.40510413604E+02  0.22877200278E+02 -0.16189123508E+02  0.49260000235E+02  0.51100000000E-03 0.  1.
         23    2    1    0    0    0 -0.16476025560E+02 -0.18340313480E+02 -0.13121380715E+02  0.97071570960E+02  0.92967159470E+02 0.  0.
         11    1    3    3    0    0  0.24034388044E+02 -0.41217513758E+02  0.30677427928E+01  0.47811570724E+02  0.51100000000E-03 0. -1.
         22    1    1    0    0    0  0.16476025560E+02  0.18340313480E+02  0.13121380715E+02  0.27928429040E+02  0.00000000000E+00 0.  1.
</event>
<event>
 5    1  0.1691138E-003  0.9118800E+02  0.7818608E-02  0.1130116E+00
         25   -1    0    0    0    0  0.00000000000E+00  0.00000000000E+00  0.99999998245E-14  0.12500000000E+03  0.12500000000E+03 0.  0.
        -11    1    3    3    0    0  0.17008124475E+02 -0.39554019611E+02  0.13233116005E+01  0.43076071309E+02  0.51100000000E-03 0.  1.
         23    2    1    0    0    0  0.26129476131E+02  0.10659429988E+02 -0.94571365588E+01  0.95237432866E+02  0.90467442853E+02 0.  0.
         11    1    3    3    0    0  0.91213516554E+01  0.50213449599E+02 -0.10780448159E+02  0.52161361557E+02  0.51100000000E-03 0. -1.
         22    1    1    0    0    0 -0.26129476131E+02 -0.10659429988E+02  0.94571365588E+01  0.29762567134E+02  0.00000000000E+00 0. -1.
</event>
<event>
 5    1  0.1691138E-003  0.9118800E+02  0.7818608E-02  0.1130116E+00
         25   -1    0    0    0    0  0.00000000000E+00  0.00000000000E+00  0.99999998245E-14  0.12500000000E+03  0.12500000000E+03 0.  0.
        -11    1    3    3    0    0  0.87880333742E+01  0.30210692326E+02 -0.24173929951E+02  0.39677378327E+02  0.51100000000E-03 0.  1.
         23    2    1    0    0    0  0.84028091360E+01  0.57585490455E+01  0.26862751136E+02  0.96270651120E+02  0.91883963671E+02 0.  0.
         11    1    3    3    0    0 -0.38522423821E+00 -0.24452143280E+02  0.51036681087E+02  0.56593272792E+02  0.51100000000E-03 0. -1.
         22    1    1    0    0    0 -0.84028091360E+01 -0.57585490455E+01 -0.26862751136E+02  0.28729348880E+02  0.00000000000E+00 0. -1.
</event>
<event>
 5    1  0.1691138E-003  0.9118800E+02  0.7818608E-02  0.1130116E+00
         25   -1    0    0    0    0  0.00000000000E+00  0.00000000000E+00  0.99999998245E-14  0.12500000000E+03  0.12500000000E+03 0.  0.
        -11    1    3    3    0    0  0.29473634477E+02  0.24224573245E+02  0.46049581424E+02  0.59800409930E+02  0.51100000000E-03 0.  1.
         23    2    1    0    0    0  0.20253600153E+02  0.19045181112E+02  0.13365873505E+02  0.94152409862E+02  0.88955620764E+02 0.  0.
         11    1    3    3    0    0 -0.92200343237E+01 -0.51793921328E+01 -0.32683707918E+02  0.34351999932E+02  0.51100000000E-03 0. -1.
         22    1    1    0    0    0 -0.20253600153E+02 -0.19045181112E+02 -0.13365873505E+02  0.30847590138E+02  0.00000000000E+00 0.  1.
</event>
<event>
 5    1  0.1691138E-003  0.9118800E+02  0.7818608E-02  0.1130116E+00
         25   -1    0    0    0    0  0.00000000000E+00  0.00000000000E+00  0.99999998245E-14  0.12500000000E+03  0.12500000000E+03 0.  0.
        -11    1    3    3    0    0 -0.29562374096E+02 -0.20826114678E+02 -0.44351382415E+02  0.57225048162E+02  0.51100000000E-03 0.  1.
         23    2    1    0    0    0 -0.18856763141E+02  0.78383507155E+01 -0.20927821939E+02  0.95759771047E+02  0.91186307973E+02 0.  0.
         11    1    3    3    0    0  0.10705610954E+02  0.28664465393E+02  0.23423560476E+02  0.38534722885E+02  0.51100000000E-03 0. -1.
         22    1    1    0    0    0  0.18856763141E+02 -0.78383507155E+01  0.20927821939E+02  0.29240228953E+02  0.00000000000E+00 0.  1.
</event>
<event>
 5    1  0.1691138E-003  0.9118800E+02  0.7818608E-02  0.1130116E+00
         25   -1    0    0    0    0  0.00000000000E+00  0.00000000000E+00  0.99999998245E-14  0.12500000000E+03  0.12500000000E+03 0.  0.
        -11    1    3    3    0    0 -0.26815693463E+02  0.28364659602E+02  0.29886388755E+02  0.49161281140E+02  0.51100000000E-03 0. -1.
         23    2    1    0    0    0  0.44715675427E+00  0.28817267057E+02 -0.72962688308E+01  0.95270042573E+02  0.90512488880E+02 0.  0.
         11    1    3    3    0    0  0.27262850217E+02  0.45260745497E+00 -0.37182657586E+02  0.46108761433E+02  0.51100000000E-03 0.  1.
         22    1    1    0    0    0 -0.44715675427E+00 -0.28817267057E+02  0.72962688308E+01  0.29729957427E+02  0.00000000000E+00 0. -1.
</event>
<event>
 5    1  0.1691138E-003  0.9118800E+02  0.7818608E-02  0.1130116E+00
         25   -1    0    0    0    0  0.00000000000E+00  0.00000000000E+00  0.99999998245E-14  0.12500000000E+03  0.12500000000E+03 0.  0.
        -11    1    3    3    0    0  0.55296091069E+01 -0.34036515696E+02  0.11040839227E+01  0.34500434478E+02  0.51100000000E-03 0.  1.
         23    2    1    0    0    0  0.10171862923E+02  0.23160681884E+02 -0.16823049577E+02  0.94620747578E+02  0.89611310081E+02 0.  0.
         11    1    3    3    0    0  0.46422538157E+01  0.57197197580E+02 -0.17927133500E+02  0.60120313100E+02  0.51100000000E-03 0. -1.
         22    1    1    0    0    0 -0.10171862923E+02 -0.23160681884E+02  0.16823049577E+02  0.30379252422E+02  0.00000000000E+00 0. -1.
</event>
<event>
 5    1  0.1691138E-003  0.9118800E+02  0.7818608E-02  0.1130116E+00
         25   -1    0    0    0    0  0.00000000000E+00  0.00000000000E+00  0.99999998245E-14  0.12500000000E+03  0.12500000000E+03 0.  0.
        -11    1    3    3    0    0 -0.10917649000E+02  0.32473952102E+02 -0.10348663158E+02  0.35788929213E+02  0.51100000000E-03 0. -1.
         23    2    1    0    0    0  0.10376129524E+02 -0.18068863242E+02  0.17944279435E+02  0.97501908299E+02  0.93543984706E+02 0.  0.
         11    1    3    3    0    0  0.21293778524E+02 -0.50542815344E+02  0.28292942593E+02  0.61712979085E+02  0.51100000000E-03 0.  1.
         22    1    1    0    0    0 -0.10376129524E+02  0.18068863242E+02 -0.17944279435E+02  0.27498091701E+02  0.00000000000E+00 0.  1.
</event>
<event>
 5    1  0.1691138E-003  0.9118800E+02  0.7818608E-02  0.1130116E+00
         25   -1    0    0    0    0  0.00000000000E+00  0.00000000000E+00  0.99999998245E-14  0.12500000000E+03  0.12500000000E+03 0.  0.
        -11    1    3    3    0    0 -0.56278828630E+01  0.13706050493E+02  0.53142726837E+02  0.55169541429E+02  0.51100000000E-03 0.  1.
         23    2    1    0    0    0 -0.20452118250E+02 -0.52354685322E+01  0.22151990436E+02  0.94399183802E+02  0.89301713033E+02 0.  0.
         11    1    3    3    0    0 -0.14824235387E+02 -0.18941519025E+02 -0.30990736401E+02  0.39229642373E+02  0.51100000000E-03 0. -1.
         22    1    1    0    0    0  0.20452118250E+02  0.52354685322E+01 -0.22151990436E+02  0.30600816198E+02  0.00000000000E+00 0.  1.
</event>
<event>
 5    1  0.1691138E-003  0.9118800E+02  0.7818608E-02  0.1130116E+00
         25   -1    0    0    0    0  0.00000000000E+00  0.00000000000E+00  0.99999998245E-14  0.12500000000E+03  0.12500000000E+03 0.  0.
        -11    1    3    3    0    0  0.55042372094E+02 -0.59671000167E+01  0.24398844755E+01  0.55418607388E+02  0.51100000000E-03 0. -1.
         23    2    1    0    0    0  0.19579148828E+02  0.20240180958E+01  0.20985130729E+02  0.96228218168E+02  0.91826219251E+02 0.  0.
         11    1    3    3    0    0 -0.35463223266E+02  0.79911181125E+01  0.18545246253E+02  0.40809610780E+02  0.51100000000E-03 0.  1.
         22    1    1    0    0    0 -0.19579148828E+02 -0.20240180958E+01 -0.20985130729E+02  0.28771781832E+02  0.00000000000E+00 0. -1.
</event>
<event>
 5    1  0.1691138E-003  0.9118800E+02  0.7818608E-02  0.1130116E+00
         25   -1    0    0    0    0  0.00000000000E+00  0.00000000000E+00  0.99999998245E-14  0.12500000000E+03  0.12500000000E+03 0.  0.
        -11    1    3    3    0    0  0.36997081661E+02  0.25728685414E+02  0.93795623522E+01  0.46029615409E+02  0.51100000000E-03 0.  1.
         23    2    1    0    0    0 -0.12955769728E+02  0.25114958669E+02  0.60697596128E+01  0.96095759827E+02  0.91645730707E+02 0.  0.
         11    1    3    3    0    0 -0.49952851389E+02 -0.61372674454E+00 -0.33098027394E+01  0.50066144418E+02  0.51100000000E-03 0. -1.
         22    1    1    0    0    0  0.12955769728E+02 -0.25114958669E+02 -0.60697596128E+01  0.28904240173E+02  0.00000000000E+00 0. -1.
</event>
<event>
 5    1  0.1691138E-003  0.9118800E+02  0.7818608E-02  0.1130116E+00
         25   -1    0    0    0    0  0.00000000000E+00  0.00000000000E+00  0.99999998245E-14  0.12500000000E+03  0.12500000000E+03 0.  0.
        -11    1    3    3    0    0  0.89102451638E+01  0.23521828704E+02 -0.51785562658E+02  0.57570942276E+02  0.51100000000E-03 0. -1.
         23    2    1    0    0    0 -0.17144266352E+01 -0.57348488621E+01 -0.26956326344E+02  0.97387117497E+02  0.93390467255E+02 0.  0.
         11    1    3    3    0    0 -0.10624671799E+02 -0.29256677566E+02  0.24829236314E+02  0.39816175221E+02  0.51100000000E-03 0.  1.
         22    1    1    0    0    0  0.17144266352E+01  0.57348488621E+01  0.26956326344E+02  0.27612882503E+02  0.00000000000E+00 0. -1.
</event>
<event>
 5    1  0.1691138E-003  0.9118800E+02  0.7818608E-02  0.1130116E+00
         25   -1    0    0    0    0  0.00000000000E+00  0.00000000000E+00  0.99999998245E-14  0.12500000000E+03  0.12500000000E+03 0.  0.
        -11    1    3    3    0    0  0.25931938841E+02 -0.39180917723E+02  0.40261156182E+02  0.61875443134E+02  0.51100000000E-03 0.  1.
         23    2    1    0    0    0  0.92477332917E+01 -0.22958523766E+02  0.15808993087E+02  0.95630991726E+02  0.91009603513E+02 0.  0.
         11    1    3    3    0    0 -0.16684205549E+02  0.16222393957E+02 -0.24452163095E+02  0.33755548592E+02  0.51100000000E-03 0. -1.
         22    1    1    0    0    0 -0.92477332917E+01  0.22958523766E+02 -0.15808993087E+02  0.29369008274E+02  0.00000000000E+00 0.  1.
</event>
<event>
 5    1  0.1691138E-003  0.9118800E+02  0.7818608E-02  0.1130116E+00
         25   -1    0    0    0    0  0.00000000000E+00  0.00000000000E+00  0.99999998245E-14  0.12500000000E+03  0.12500000000E+03 0.  0.
        -11    1    3    3    0    0 -0.26166476636E+02  0.13561827386E+02  0.15294877211E+02  0.33204531780E+02  0.51100000000E-03 0. -1.
         23    2    1    0    0    0  0.26906344216E+02 -0.12706099046E+02 -0.27685125543E+01  0.95115874217E+02  0.90299327540E+02 0.  0.
         11    1    3    3    0    0  0.53072820852E+02 -0.26267926432E+02 -0.18063389765E+02  0.61911342437E+02  0.51100000000E-03 0.  1.
         22    1    1    0    0    0 -0.26906344216E+02  0.12706099046E+02  0.27685125543E+01  0.29884125783E+02  0.00000000000E+00 0.  1.
</event>
<event>
 5    1  0.1691138E-003  0.9118800E+02  0.7818608E-02  0.1130116E+00
         25   -1    0    0    0    0  0.00000000000E+00  0.00000000000E+00  0.99999998245E-14  0.12500000000E+03  0.12500000000E+03 0.  0.
        -11    1    3    3    0    0 -0.27156264267E+02 -0.39716793829E+02  0.14790196851E+02  0.50335239387E+02  0.51100000000E-03 0.  1.
         23    2    1    0    0    0 -0.15982490186E+02  0.16432108663E+00  0.27095596512E+02  0.93541482166E+02  0.88092965335E+02 0.  0.
         11    1    3    3    0    0  0.11173774081E+02  0.39881114915E+02  0.12305399661E+02  0.43206242780E+02  0.51100000000E-03 0. -1.
         22    1    1    0    0    0  0.15982490186E+02 -0.16432108663E+00 -0.27095596512E+02  0.31458517834E+02  0.00000000000E+00 0.  1.
</event>
<event>
 5    1  0.1691138E-003  0.9118800E+02  0.7818608E-02  0.1130116E+00
         25   -1    0    0    0    0  0.00000000000E+00  0.00000000000E+00  0.99999998245E-14  0.12500000000E+03  0.12500000000E+03 0.  0.
        -11    1    3    3    0    0  0.23953514535E+02  0.37394189160E+02 -0.83125722622E+01  0.45179587198E+02  0.51100000000E-03 0. -1.
         23    2    1    0    0    0 -0.22109294969E+02  0.16943116035E+02 -0.94346391501E+01  0.95590774901E+02  0.90954349678E+02 0.  0.
         11    1    3    3    0    0 -0.46062809504E+02 -0.20451073125E+02 -0.11220668880E+01  0.50411187704E+02  0.51100000000E-03 0.  1.
         22    1    1    0    0    0  0.22109294969E+02 -0.16943116035E+02  0.94346391501E+01  0.29409225099E+02  0.00000000000E+00 0.  1.
</event>
<event>
 5    1  0.1691138E-003  0.9118800E+02  0.7818608E-02  0.1130116E+00
         25   -1    0    0    0    0  0.00000000000E+00  0.00000000000E+00  0.99999998245E-14  0.12500000000E+03  0.12500000000E+03 0.  0.
        -11    1    3    3    0    0  0.29619090861E+02  0.72629238627E+01 -0.32907226548E+02  0.44865645720E+02  0.51100000000E-03 0. -1.
         23    2    1    0    0    0  0.17551689957E+02  0.21179046836E+02  0.13180976943E+02  0.94498327941E+02  0.89440382296E+02 0.  0.
         11    1    3    3    0    0 -0.12067400904E+02  0.13916122973E+02  0.46088203491E+02  0.49632682221E+02  0.51100000000E-03 0.  1.
         22    1    1    0    0    0 -0.17551689957E+02 -0.21179046836E+02 -0.13180976943E+02  0.30501672059E+02  0.00000000000E+00 0.  1.
</event>
<event>
 5    1  0.1691138E-003  0.9118800E+02  0.7818608E-02  0.1130116E+00
         25   -1    0    0    0    0  0.00000000000E+00  0.00000000000E+00  0.99999998245E-14  0.12500000000E+03  0.12500000000E+03 0.  0.
        -11    1    3    3    0    0  0.43116407995E+01  0.33975117839E+02  0.17900048982E+02  0.38643377600E+02  0.51100000000E-03 0.  1.
         23    2    1    0    0    0 -0.27655467594E+02  0.85060469869E+01 -0.16170413757E+02  0.91853959448E+02  0.85664986208E+02 0.  0.
         11    1    3    3    0    0 -0.31967108393E+02 -0.25469070852E+02 -0.34070462740E+02  0.53210581848E+02  0.51100000000E-03 0. -1.
         22    1    1    0    0    0  0.27655467594E+02 -0.85060469869E+01  0.16170413757E+02  0.33146040552E+02  0.00000000000E+00 0. -1.
</event>
<event>
 5    1  0.1691138E-003  0.9118800E+02  0.7818608E-02  0.1130116E+00
         25   -1    0    0    0    0  0.00000000000E+00  0.00000000000E+00  0.99999998245E-14  0.12500000000E+03  0.12500000000E+03 0.  0.
        -11    1    3    3    0    0  0.37146944104E+02 -0.17871334412E+02 -0.12113572276E+02  0.42965319544E+02  0.51100000000E-03 0. -1.
         23    2    1    0    0    0 -0.22320936997E+00  0.14933916175E+02 -0.26369210791E+02  0.94694770212E+02  0.89714505812E+02 0.  0.
         11    1    3    3    0    0 -0.37370153474E+02  0.32805250587E+02 -0.14255638515E+02  0.51729450669E+02  0.51100000000E-03 0.  1.
         22    1    1    0    0    0  0.22320936997E+00 -0.14933916175E+02  0.26369210791E+02  0.30305229788E+02  0.00000000000E+00 0.  1.
</event>
<event>
 5    1  0.1691138E-003  0.9118800E+02  0.7818608E-02  0.1130116E+00
         25   -1    0    0    0    0  0.00000000000E+00  0.00000000000E+00  0.99999998245E-14  0.12500000000E+03  0.12500000000E+03 0.  0.
        -11    1    3    3    0    0 -0.24455858355E+02  0.74572538936E+01  0.56783191246E+02  0.62273834407E+02  0.51100000000E-03 0.  1.
         23    2    1    0    0    0 -0.79542433484E+01  0.48176043365E+01  0.27244858227E+02  0.96211780211E+02  0.91803840076E+02 0.  0.
         11    1    3    3    0    0  0.16501615007E+02 -0.26396495571E+01 -0.29538333018E+02  0.33937945804E+02  0.51100000000E-03 0. -1.
         22    1    1    0    0    0  0.79542433484E+01 -0.48176043365E+01 -0.27244858227E+02  0.28788219789E+02  0.00000000000E+00 0.  1.
</event>
<event>
 5    1  0.1691138E-003  0.9118800E+02  0.7818608E-02  0.1130116E+00
         25   -1    0    0    0    0  0.00000000000E+00  0.00000000000E+00  0.99999998245E-14  0.12500000000E+03  0.12500000000E+03 0.  0.
        -11    1    3    3    0    0  0.34789355208E+01  0.57028845762E+01  0.42472335778E+02  0.42994478617E+02  0.51100000000E-03 0.  1.
         23    2    1    0    0    0 -0.29210925203E+02 -0.35212707515E+01  0.24670179626E+01  0.95474355612E+02  0.90794211836E+02 0.  0.
         11    1    3    3    0    0 -0.32689860724E+02 -0.92241553277E+01 -0.40005317815E+02  0.52479876995E+02  0.51100000000E-03 0. -1.
         22    1    1    0    0    0  0.29210925203E+02  0.35212707515E+01 -0.24670179626E+01  0.29525644388E+02  0.00000000000E+00 0. -1.
</event>
<event>
 5    1  0.1691138E-003  0.9118800E+02  0.7818608E-02  0.1130116E+00
         25   -1    0    0    0    0  0.00000000000E+00  0.00000000000E+00  0.99999998245E-14  0.12500000000E+03  0.12500000000E+03 0.  0.
        -11    1    3    3    0    0 -0.66504306560E+01 -0.14122103077E+02 -0.31869978056E+02  0.35487427701E+02  0.51100000000E-03 0.  1.
         23    2    1    0    0    0  0.19494748772E+02  0.10996898708E+02  0.17392877700E+02  0.96654114839E+02  0.92404159591E+02 0.  0.
         11    1    3    3    0    0  0.26145179428E+02  0.25119001785E+02  0.49262855756E+02  0.61166687139E+02  0.51100000000E-03 0. -1.
         22    1    1    0    0    0 -0.19494748772E+02 -0.10996898708E+02 -0.17392877700E+02  0.28345885161E+02  0.00000000000E+00 0. -1.
</event>
<event>
 5    1  0.1691138E-003  0.9118800E+02  0.7818608E-02  0.1130116E+00
         25   -1    0    0    0    0  0.00000000000E+00  0.00000000000E+00  0.99999998245E-14  0.12500000000E+03  0.12500000000E+03 0.  0.
        -11    1    3    3    0    0  0.33678612432E+02 -0.53114193704E+01 -0.64152129687E+01  0.34693155935E+02  0.51100000000E-03 0. -1.
         23    2    1    0    0    0 -0.21669211903E+02  0.19608730704E+02 -0.45713222426E+01  0.95420377769E+02  0.90719867957E+02 0.  0.
         11    1    3    3    0    0 -0.55347824335E+02  0.24920150074E+02  0.18438907261E+01  0.60727221833E+02  0.51100000000E-03 0.  1.
         22    1    1    0    0    0  0.21669211903E+02 -0.19608730704E+02  0.45713222426E+01  0.29579622231E+02  0.00000000000E+00 0.  1.
</event>
<event>
 5    1  0.1691138E-003  0.9118800E+02  0.7818608E-02  0.1130116E+00
         25   -1    0    0    0    0  0.00000000000E+00  0.00000000000E+00  0.99999998245E-14  0.12500000000E+03  0.12500000000E+03 0.  0.
        -11    1    3    3    0    0  0.32784025987E+02 -0.28428056092E+02 -0.24191776897E+02  0.49680869586E+02  0.51100000000E-03 0. -1.
         23    2    1    0    0    0  0.20800630590E+01  0.53091413269E+01 -0.28902234468E+02  0.95540658507E+02  0.90885447828E+02 0.  0.
         11    1    3    3    0    0 -0.30703962928E+02  0.33737197418E+02 -0.47104575705E+01  0.45859788922E+02  0.51100000000E-03 0.  1.
         22    1    1    0    0    0 -0.20800630590E+01 -0.53091413269E+01  0.28902234468E+02  0.29459341493E+02  0.00000000000E+00 0. -1.
</event>
<event>
 5    1  0.1691138E-003  0.9118800E+02  0.7818608E-02  0.1130116E+00
         25   -1    0    0    0    0  0.00000000000E+00  0.00000000000E+00  0.99999998245E-14  0.12500000000E+03  0.12500000000E+03 0.  0.
        -11    1    3    3    0    0 -0.79780554159E+01  0.37158656733E+02 -0.37249269443E+02  0.53215817316E+02  0.51100000000E-03 0. -1.
         23    2    1    0    0    0  0.17539432609E+02  0.36033073060E+01 -0.18176120283E+02  0.99485555692E+02  0.96158145381E+02 0.  0.
         11    1    3    3    0    0  0.25517488025E+02 -0.33555349427E+02  0.19073149159E+02  0.46269738376E+02  0.51100000000E-03 0.  1.
         22    1    1    0    0    0 -0.17539432609E+02 -0.36033073060E+01  0.18176120283E+02  0.25514444308E+02  0.00000000000E+00 0. -1.
</event>
<event>
 5    1  0.1691138E-003  0.9118800E+02  0.7818608E-02  0.1130116E+00
         25   -1    0    0    0    0  0.00000000000E+00  0.00000000000E+00  0.99999998245E-14  0.12500000000E+03  0.12500000000E+03 0.  0.
        -11    1    3    3    0    0  0.35688191531E+02 -0.61178942374E+00  0.39944835148E+02  0.53568751678E+02  0.51100000000E-03 0. -1.
         23    2    1    0    0    0  0.94038219331E+01 -0.22675561697E+02  0.12856552228E+02  0.97288920981E+02  0.93258941905E+02 0.  0.
         11    1    3    3    0    0 -0.26284369598E+02 -0.22063772273E+02 -0.27088282920E+02  0.43720169303E+02  0.51100000000E-03 0.  1.
         22    1    1    0    0    0 -0.94038219331E+01  0.22675561697E+02 -0.12856552228E+02  0.27711079019E+02  0.00000000000E+00 0. -1.
</event>
<event>
 5    1  0.1691138E-003  0.9118800E+02  0.7818608E-02  0.1130116E+00
         25   -1    0    0    0    0  0.00000000000E+00  0.00000000000E+00  0.99999998245E-14  0.12500000000E+03  0.12500000000E+03 0.  0.
        -11    1    3    3    0    0  0.19254872579E+02  0.10212144675E+02  0.16137697021E+02  0.27119426290E+02  0.51100000000E-03 0.  1.
         23    2    1    0    0    0  0.43563386487E+02 -0.16672012043E+02 -0.16128748643E+02  0.75645555817E+02  0.57327035108E+02 0.  0.
         11    1    3    3    0    0  0.24308513908E+02 -0.26884156718E+02 -0.32266445664E+02  0.48526129528E+02  0.51100000000E-03 0. -1.
         22    1    1    0    0    0 -0.43563386487E+02  0.16672012043E+02  0.16128748643E+02  0.49354444183E+02  0.00000000000E+00 0.  1.
</event>
<event>
 5    1  0.1691138E-003  0.9118800E+02  0.7818608E-02  0.1130116E+00
         25   -1    0    0    0    0  0.00000000000E+00  0.00000000000E+00  0.99999998245E-14  0.12500000000E+03  0.12500000000E+03 0.  0.
        -11    1    3    3    0    0 -0.21249705184E+02  0.26483216286E+02 -0.18059696825E+02  0.38458592862E+02  0.51100000000E-03 0.  1.
         23    2    1    0    0    0  0.15371372633E+02 -0.18424645390E+02 -0.15444804587E+02  0.96464256745E+02  0.92146970576E+02 0.  0.
         11    1    3    3    0    0  0.36621077817E+02 -0.44907861676E+02  0.26148922378E+01  0.58005663883E+02  0.51100000000E-03 0. -1.
         22    1    1    0    0    0 -0.15371372633E+02  0.18424645390E+02  0.15444804587E+02  0.28535743255E+02  0.00000000000E+00 0. -1.
</event>
<event>
 5    1  0.1691138E-003  0.9118800E+02  0.7818608E-02  0.1130116E+00
         25   -1    0    0    0    0  0.00000000000E+00  0.00000000000E+00  0.99999998245E-14  0.12500000000E+03  0.12500000000E+03 0.  0.
        -11    1    3    3    0    0 -0.17169885269E+02 -0.11914715272E+02 -0.38763880607E+02  0.44038663015E+02  0.51100000000E-03 0.  1.
         23    2    1    0    0    0 -0.16293786635E+02 -0.18226000591E+01  0.17390471918E+02  0.10109941701E+03  0.98233671680E+02 0.  0.
         11    1    3    3    0    0  0.87609863424E+00  0.10092115213E+02  0.56154352525E+02  0.57060753992E+02  0.51100000000E-03 0. -1.
         22    1    1    0    0    0  0.16293786635E+02  0.18226000591E+01 -0.17390471918E+02  0.23900582993E+02  0.00000000000E+00 0. -1.
</event>
<event>
 5    1  0.1691138E-003  0.9118800E+02  0.7818608E-02  0.1130116E+00
         25   -1    0    0    0    0  0.00000000000E+00  0.00000000000E+00  0.99999998245E-14  0.12500000000E+03  0.12500000000E+03 0.  0.
        -11    1    3    3    0    0 -0.24598988627E+02 -0.20059006832E+02  0.50808937778E+02  0.59908448110E+02  0.51100000000E-03 0. -1.
         23    2    1    0    0    0 -0.22208879319E+02 -0.10623188325E+02  0.17022181683E+02  0.95069394927E+02  0.90234964021E+02 0.  0.
         11    1    3    3    0    0  0.23901093079E+01  0.94358185077E+01 -0.33786756095E+02  0.35160946818E+02  0.51100000000E-03 0.  1.
         22    1    1    0    0    0  0.22208879319E+02  0.10623188325E+02 -0.17022181683E+02  0.29930605073E+02  0.00000000000E+00 0. -1.
</event>
<event>
 5    1  0.1691138E-003  0.9118800E+02  0.7818608E-02  0.1130116E+00
         25   -1    0    0    0    0  0.00000000000E+00  0.00000000000E+00  0.99999998245E-14  0.12500000000E+03  0.12500000000E+03 0.  0.
        -11    1    3    3    0    0  0.21413429416E+02  0.26194917939E+01  0.28216214037E+01  0.21756797655E+02  0.51100000000E-03 0. -1.
         23    2    1    0    0    0 -0.30455384530E+02  0.28756374279E+01  0.31553258537E+02  0.81052214370E+02  0.68103256842E+02 0.  0.
         11    1    3    3    0    0 -0.51868813946E+02  0.25614563399E+00  0.28731637133E+02  0.59295416715E+02  0.51100000000E-03 0.  1.
         22    1    1    0    0    0  0.30455384530E+02 -0.28756374279E+01 -0.31553258537E+02  0.43947785630E+02  0.00000000000E+00 0.  1.
</event>
<event>
 5    1  0.1691138E-003  0.9118800E+02  0.7818608E-02  0.1130116E+00
         25   -1    0    0    0    0  0.00000000000E+00  0.00000000000E+00  0.99999998245E-14  0.12500000000E+03  0.12500000000E+03 0.  0.
        -11    1    3    3    0    0 -0.56482853195E+02 -0.94901675156E+01  0.19103292531E+02  0.60376417336E+02  0.51100000000E-03 0.  1.
         23    2    1    0    0    0 -0.27676784352E+02  0.68998404095E+01  0.73131299784E+01  0.95553539095E+02  0.90903161517E+02 0.  0.
         11    1    3    3    0    0  0.28806068843E+02  0.16390007925E+02 -0.11790162553E+02  0.35177121759E+02  0.51100000000E-03 0. -1.
         22    1    1    0    0    0  0.27676784352E+02 -0.68998404095E+01 -0.73131299784E+01  0.29446460905E+02  0.00000000000E+00 0.  1.
</event>
<event>
 5    1  0.1691138E-003  0.9118800E+02  0.7818608E-02  0.1130116E+00
         25   -1    0    0    0    0  0.00000000000E+00  0.00000000000E+00  0.99999998245E-14  0.12500000000E+03  0.12500000000E+03 0.  0.
        -11    1    3    3    0    0  0.85083640234E+01  0.26707845398E+02  0.43309912810E+02  0.51589241243E+02  0.51100000000E-03 0. -1.
         23    2    1    0    0    0 -0.76610471550E+01 -0.12780137059E+02  0.19518798799E+02  0.10044379807E+03  0.97395839321E+02 0.  0.
         11    1    3    3    0    0 -0.16169411178E+02 -0.39487982457E+02 -0.23791114011E+02  0.48854556825E+02  0.51100000000E-03 0.  1.
         22    1    1    0    0    0  0.76610471550E+01  0.12780137059E+02 -0.19518798799E+02  0.24556201932E+02  0.00000000000E+00 0. -1.
</event>
<event>
 5    1  0.1691138E-003  0.9118800E+02  0.7818608E-02  0.1130116E+00
         25   -1    0    0    0    0  0.00000000000E+00  0.00000000000E+00  0.99999998245E-14  0.12500000000E+03  0.12500000000E+03 0.  0.
        -11    1    3    3    0    0  0.20924127405E+02  0.23495327517E+02 -0.18313606180E+02  0.36403814283E+02  0.51100000000E-03 0.  1.
         23    2    1    0    0    0 -0.29100239681E+02  0.15892870170E+02  0.38036056870E+01  0.91625238758E+02  0.85330590585E+02 0.  0.
         11    1    3    3    0    0 -0.50024367086E+02 -0.76024573473E+01  0.22117211867E+02  0.55221424475E+02  0.51100000000E-03 0. -1.
         22    1    1    0    0    0  0.29100239681E+02 -0.15892870170E+02 -0.38036056870E+01  0.33374761242E+02  0.00000000000E+00 0. -1.
</event>
<event>
 5    1  0.1691138E-003  0.9118800E+02  0.7818608E-02  0.1130116E+00
         25   -1    0    0    0    0  0.00000000000E+00  0.00000000000E+00  0.99999998245E-14  0.12500000000E+03  0.12500000000E+03 0.  0.
        -11    1    3    3    0    0 -0.33613081706E+02 -0.17433807881E+02 -0.13104229928E+02  0.40068663083E+02  0.51100000000E-03 0. -1.
         23    2    1    0    0    0  0.70683748612E+01 -0.15022132930E+02  0.24423312945E+02  0.95468243937E+02  0.90785797261E+02 0.  0.
         11    1    3    3    0    0  0.40681456567E+02  0.24116749510E+01  0.37527542873E+02  0.55399580854E+02  0.51100000000E-03 0.  1.
         22    1    1    0    0    0 -0.70683748612E+01  0.15022132930E+02 -0.24423312945E+02  0.29531756063E+02  0.00000000000E+00 0.  1.
</event>
<event>
 5    1  0.1691138E-003  0.9118800E+02  0.7818608E-02  0.1130116E+00
         25   -1    0    0    0    0  0.00000000000E+00  0.00000000000E+00  0.99999998245E-14  0.12500000000E+03  0.12500000000E+03 0.  0.
        -11    1    3    3    0    0 -0.33549781406E+02 -0.23395145563E+02 -0.32711498320E+01  0.41031952060E+02  0.51100000000E-03 0.  1.
         23    2    1    0    0    0  0.12368428341E+02  0.80836951597E+01 -0.20878311179E+02  0.99422118447E+02  0.96075645258E+02 0.  0.
         11    1    3    3    0    0  0.45918209748E+02  0.31478840723E+02 -0.17607161347E+02  0.58390166387E+02  0.51100000000E-03 0. -1.
         22    1    1    0    0    0 -0.12368428341E+02 -0.80836951597E+01  0.20878311179E+02  0.25577881553E+02  0.00000000000E+00 0. -1.
</event>
<event>
 5    1  0.1691138E-003  0.9118800E+02  0.7818608E-02  0.1130116E+00
         25   -1    0    0    0    0  0.00000000000E+00  0.00000000000E+00  0.99999998245E-14  0.12500000000E+03  0.12500000000E+03 0.  0.
        -11    1    3    3    0    0  0.28931734294E+02  0.24684940544E+01  0.22726351038E+02  0.36873103259E+02  0.51100000000E-03 0.  1.
         23    2    1    0    0    0 -0.24682981736E+02 -0.14579524482E+02  0.10678098065E+02  0.94408597616E+02  0.89314889039E+02 0.  0.
         11    1    3    3    0    0 -0.53614716030E+02 -0.17048018536E+02 -0.12048252973E+02  0.57535494358E+02  0.51100000000E-03 0. -1.
         22    1    1    0    0    0  0.24682981736E+02  0.14579524482E+02 -0.10678098065E+02  0.30591402384E+02  0.00000000000E+00 0.  1.
</event>
<event>
 5    1  0.1691138E-003  0.9118800E+02  0.7818608E-02  0.1130116E+00
         25   -1    0    0    0    0  0.00000000000E+00  0.00000000000E+00  0.99999998245E-14  0.12500000000E+03  0.12500000000E+03 0.  0.
        -11    1    3    3    0    0  0.61483436810E+02 -0.38039197071E+01  0.46161525105E+01  0.61773713434E+02  0.51100000000E-03 0. -1.
         23    2    1    0    0    0  0.28083200898E+02  0.49624477265E+01  0.15941268958E+01  0.96437204257E+02  0.92110265792E+02 0.  0.
         11    1    3    3    0    0 -0.33400235912E+02  0.87663674336E+01 -0.30220256147E+01  0.34663490823E+02  0.51100000000E-03 0.  1.
         22    1    1    0    0    0 -0.28083200898E+02 -0.49624477265E+01 -0.15941268958E+01  0.28562795743E+02  0.00000000000E+00 0. -1.
</event>
<event>
 5    1  0.1691138E-003  0.9118800E+02  0.7818608E-02  0.1130116E+00
         25   -1    0    0    0    0  0.00000000000E+00  0.00000000000E+00  0.99999998245E-14  0.12500000000E+03  0.12500000000E+03 0.  0.
        -11    1    3    3    0    0 -0.54383523508E+02  0.90598545873E+01  0.13420986754E+02  0.56743030232E+02  0.51100000000E-03 0. -1.
         23    2    1    0    0    0 -0.17362475322E+02  0.12432648010E+02  0.21404072734E+02  0.94764910858E+02  0.89812180212E+02 0.  0.
         11    1    3    3    0    0  0.37021048186E+02  0.33727934228E+01  0.79830859799E+01  0.38021880625E+02  0.51100000000E-03 0.  1.
         22    1    1    0    0    0  0.17362475322E+02 -0.12432648010E+02 -0.21404072734E+02  0.30235089142E+02  0.00000000000E+00 0. -1.
</event>
<event>
 5    1  0.1691138E-003  0.9118800E+02  0.7818608E-02  0.1130116E+00
         25   -1    0    0    0    0  0.00000000000E+00  0.00000000000E+00  0.99999998245E-14  0.12500000000E+03  0.12500000000E+03 0.  0.
        -11    1    3    3    0    0  0.19441664681E+01  0.40104132787E+01  0.33164315362E+02  0.33462441806E+02  0.51100000000E-03 0.  1.
         23    2    1    0    0    0  0.21972924952E+02  0.63905792056E-01 -0.22981589940E+02  0.93204292883E+02  0.87613202320E+02 0.  0.
         11    1    3    3    0    0  0.20028758484E+02 -0.39465074867E+01 -0.56145905302E+02  0.59741851077E+02  0.51100000000E-03 0. -1.
         22    1    1    0    0    0 -0.21972924952E+02 -0.63905792056E-01  0.22981589940E+02  0.31795707117E+02  0.00000000000E+00 0. -1.
</event>
<event>
 5    1  0.1691138E-003  0.9118800E+02  0.7818608E-02  0.1130116E+00
         25   -1    0    0    0    0  0.00000000000E+00  0.00000000000E+00  0.99999998245E-14  0.12500000000E+03  0.12500000000E+03 0.  0.
        -11    1    3    3    0    0  0.18400751576E+02  0.54309910262E+02  0.20618696420E+02  0.60936726639E+02  0.51100000000E-03 0.  1.
         23    2    1    0    0    0 -0.89169785297E+00  0.27833541085E+02  0.82181250867E+01  0.95964871029E+02  0.91467030985E+02 0.  0.
         11    1    3    3    0    0 -0.19292449429E+02 -0.26476369176E+02 -0.12400571334E+02  0.35028144390E+02  0.51100000000E-03 0. -1.
         22    1    1    0    0    0  0.89169785297E+00 -0.27833541085E+02 -0.82181250867E+01  0.29035128971E+02  0.00000000000E+00 0.  1.
</event>
<event>
 5    1  0.1691138E-003  0.9118800E+02  0.7818608E-02  0.1130116E+00
         25   -1    0    0    0    0  0.00000000000E+00  0.00000000000E+00  0.99999998245E-14  0.12500000000E+03  0.12500000000E+03 0.  0.
        -11    1    3    3    0    0 -0.30678956622E+02  0.13246224773E+02 -0.50918058232E+00  0.33420354805E+02  0.51100000000E-03 0.  1.
         23    2    1    0    0    0  0.20361586594E+02 -0.18288147979E+02 -0.12996136831E+02  0.94702308048E+02  0.89725007729E+02 0.  0.
         11    1    3    3    0    0  0.51040543216E+02 -0.31534372752E+02 -0.12486956248E+02  0.61281953243E+02  0.51100000000E-03 0. -1.
         22    1    1    0    0    0 -0.20361586594E+02  0.18288147979E+02  0.12996136831E+02  0.30297691952E+02  0.00000000000E+00 0. -1.
</event>
<event>
 5    1  0.1691138E-003  0.9118800E+02  0.7818608E-02  0.1130116E+00
         25   -1    0    0    0    0  0.00000000000E+00  0.00000000000E+00  0.99999998245E-14  0.12500000000E+03  0.12500000000E+03 0.  0.
        -11    1    3    3    0    0  0.35300783229E+02 -0.20923010050E+02 -0.32700631603E+02  0.52471410822E+02  0.51100000000E-03 0.  1.
         23    2    1    0    0    0  0.34809775217E+02 -0.63269026440E+01  0.14254917714E+01  0.89591213315E+02  0.82297043257E+02 0.  0.
         11    1    3    3    0    0 -0.49100801270E+00  0.14596107406E+02  0.34126123375E+02  0.37119802493E+02  0.51100000000E-03 0. -1.
         22    1    1    0    0    0 -0.34809775217E+02  0.63269026440E+01 -0.14254917714E+01  0.35408786685E+02  0.00000000000E+00 0. -1.
</event>
<event>
 5    1  0.1691138E-003  0.9118800E+02  0.7818608E-02  0.1130116E+00
         25   -1    0    0    0    0  0.00000000000E+00  0.00000000000E+00  0.99999998245E-14  0.12500000000E+03  0.12500000000E+03 0.  0.
        -11    1    3    3    0    0 -0.16054955724E+02  0.10926672068E+02  0.40270023716E+02  0.44708260715E+02  0.51100000000E-03 0.  1.
         23    2    1    0    0    0 -0.22670483286E+02  0.21059360315E+02 -0.68084991691E+01  0.93317147694E+02  0.87774067489E+02 0.  0.
         11    1    3    3    0    0 -0.66155275624E+01  0.10132688247E+02 -0.47078522886E+02  0.48608886980E+02  0.51100000000E-03 0. -1.
         22    1    1    0    0    0  0.22670483286E+02 -0.21059360315E+02  0.68084991691E+01  0.31682852306E+02  0.00000000000E+00 0.  1.
</event>
<event>
 5    1  0.1691138E-003  0.9118800E+02  0.7818608E-02  0.1130116E+00
         25   -1    0    0    0    0  0.00000000000E+00  0.00000000000E+00  0.99999998245E-14  0.12500000000E+03  0.12500000000E+03 0.  0.
        -11    1    3    3    0    0 -0.38958219256E+02  0.32665421707E+02 -0.30297458976E+01  0.50930854925E+02  0.51100000000E-03 0. -1.
         23    2    1    0    0    0 -0.18972058530E+02 -0.42868369636E+01  0.18516905181E+02  0.98144986436E+02  0.94399399411E+02 0.  0.
         11    1    3    3    0    0  0.19986160726E+02 -0.36952258670E+02  0.21546651079E+02  0.47214131512E+02  0.51100000000E-03 0.  1.
         22    1    1    0    0    0  0.18972058530E+02  0.42868369636E+01 -0.18516905181E+02  0.26855013564E+02  0.00000000000E+00 0. -1.
</event>
<event>
 5    1  0.1691138E-003  0.9118800E+02  0.7818608E-02  0.1130116E+00
         25   -1    0    0    0    0  0.00000000000E+00  0.00000000000E+00  0.99999998245E-14  0.12500000000E+03  0.12500000000E+03 0.  0.
        -11    1    3    3    0    0 -0.40357590270E+02 -0.32009795078E+02 -0.21113866228E+01  0.51554049570E+02  0.51100000000E-03 0. -1.
         23    2    1    0    0    0 -0.69091371182E+00 -0.26039866283E+02  0.14747339782E+02  0.95066139100E+02  0.90230453700E+02 0.  0.
         11    1    3    3    0    0  0.39666676558E+02  0.59699287958E+01  0.16858726404E+02  0.43512089529E+02  0.51100000000E-03 0.  1.
         22    1    1    0    0    0  0.69091371182E+00  0.26039866283E+02 -0.14747339782E+02  0.29933860900E+02  0.00000000000E+00 0. -1.
</event>
<event>
 5    1  0.1691138E-003  0.9118800E+02  0.7818608E-02  0.1130116E+00
         25   -1    0    0    0    0  0.00000000000E+00  0.00000000000E+00  0.99999998245E-14  0.12500000000E+03  0.12500000000E+03 0.  0.
        -11    1    3    3    0    0  0.21528645119E+02 -0.34662264691E+02  0.46063596268E+02  0.61537062455E+02  0.51100000000E-03 0. -1.
         23    2    1    0    0    0  0.30942587920E+01 -0.17952768358E+02  0.24551899898E+02  0.94427592214E+02  0.89341468835E+02 0.  0.
         11    1    3    3    0    0 -0.18434386327E+02  0.16709496333E+02 -0.21511696370E+02  0.32890529760E+02  0.51100000000E-03 0.  1.
         22    1    1    0    0    0 -0.30942587920E+01  0.17952768358E+02 -0.24551899898E+02  0.30572407786E+02  0.00000000000E+00 0. -1.
</event>
<event>
 5    1  0.1691138E-003  0.9118800E+02  0.7818608E-02  0.1130116E+00
         25   -1    0    0    0    0  0.00000000000E+00  0.00000000000E+00  0.99999998245E-14  0.12500000000E+03  0.12500000000E+03 0.  0.
        -11    1    3    3    0    0  0.46317394247E+02  0.23276897963E+02 -0.34439630454E+02  0.62235063546E+02  0.51100000000E-03 0. -1.
         23    2    1    0    0    0  0.19798500044E+02  0.76146398890E+01 -0.18184040478E+02  0.97060374506E+02  0.92952103938E+02 0.  0.
         11    1    3    3    0    0 -0.26518894203E+02 -0.15662258074E+02  0.16255589975E+02  0.34825310959E+02  0.51100000000E-03 0.  1.
         22    1    1    0    0    0 -0.19798500044E+02 -0.76146398890E+01  0.18184040478E+02  0.27939625494E+02  0.00000000000E+00 0. -1.
</event>
<event>
 5    1  0.1691138E-003  0.9118800E+02  0.7818608E-02  0.1130116E+00
         25   -1    0    0    0    0  0.00000000000E+00  0.00000000000E+00  0.99999998245E-14  0.12500000000E+03  0.12500000000E+03 0.  0.
        -11    1    3    3    0    0 -0.38568072967E+01 -0.37415889834E+02  0.18931227219E+02  0.42109561134E+02  0.51100000000E-03 0. -1.
         23    2    1    0    0    0 -0.24408635665E+02 -0.31754996480E+01 -0.16393817281E+02  0.95425982044E+02  0.90727589580E+02 0.  0.
         11    1    3    3    0    0 -0.20551828368E+02  0.34240390186E+02 -0.35325044500E+02  0.53316420910E+02  0.51100000000E-03 0.  1.
         22    1    1    0    0    0  0.24408635665E+02  0.31754996480E+01  0.16393817281E+02  0.29574017956E+02  0.00000000000E+00 0.  1.
</event>
<event>
 5    1  0.1691138E-003  0.9118800E+02  0.7818608E-02  0.1130116E+00
         25   -1    0    0    0    0  0.00000000000E+00  0.00000000000E+00  0.99999998245E-14  0.12500000000E+03  0.12500000000E+03 0.  0.
        -11    1    3    3    0    0  0.59371996388E+01 -0.46253231342E+00 -0.33452925668E+02  0.33978853891E+02  0.51100000000E-03 0.  1.
         23    2    1    0    0    0 -0.87806430298E+01  0.18845776292E+02  0.22131740520E+02  0.94634280602E+02  0.89630185488E+02 0.  0.
         11    1    3    3    0    0 -0.14717842669E+02  0.19308308606E+02  0.55584666189E+02  0.60655426712E+02  0.51100000000E-03 0. -1.
         22    1    1    0    0    0  0.87806430298E+01 -0.18845776292E+02 -0.22131740520E+02  0.30365719398E+02  0.00000000000E+00 0. -1.
</event>
<event>
 5    1  0.1691138E-003  0.9118800E+02  0.7818608E-02  0.1130116E+00
         25   -1    0    0    0    0  0.00000000000E+00  0.00000000000E+00  0.99999998245E-14  0.12500000000E+03  0.12500000000E+03 0.  0.
        -11    1    3    3    0    0 -0.23800247279E+02  0.52592452775E+02  0.87242108742E+01  0.58382614836E+02  0.51100000000E-03 0. -1.
         23    2    1    0    0    0  0.36870559245E+01  0.25959245402E+02  0.10638403532E+02  0.96704197609E+02  0.92471884388E+02 0.  0.
         11    1    3    3    0    0  0.27487303204E+02 -0.26633207374E+02  0.19141926579E+01  0.38321582773E+02  0.51100000000E-03 0.  1.
         22    1    1    0    0    0 -0.36870559245E+01 -0.25959245402E+02 -0.10638403532E+02  0.28295802391E+02  0.00000000000E+00 0. -1.
</event>
<event>
 5    1  0.1691138E-003  0.9118800E+02  0.7818608E-02  0.1130116E+00
         25   -1    0    0    0    0  0.00000000000E+00  0.00000000000E+00  0.99999998245E-14  0.12500000000E+03  0.12500000000E+03 0.  0.
        -11    1    3    3    0    0 -0.30542385751E+01  0.44812493828E+02  0.39178321876E+02  0.59602255675E+02  0.51100000000E-03 0.  1.
         23    2    1    0    0    0 -0.12130665881E+02  0.24278604198E+02  0.10794092464E+02  0.95791848592E+02  0.91230269911E+02 0.  0.
         11    1    3    3    0    0 -0.90764273061E+01 -0.20533889629E+02 -0.28384229412E+02  0.36189592917E+02  0.51100000000E-03 0. -1.
         22    1    1    0    0    0  0.12130665881E+02 -0.24278604198E+02 -0.10794092464E+02  0.29208151408E+02  0.00000000000E+00 0.  1.
</event>
<event>
 5    1  0.1691138E-003  0.9118800E+02  0.7818608E-02  0.1130116E+00
         25   -1    0    0    0    0  0.00000000000E+00  0.00000000000E+00  0.99999998245E-14  0.12500000000E+03  0.12500000000E+03 0.  0.
        -11    1    3    3    0    0  0.13342770157E+02  0.12932203551E+02  0.28781411525E+02  0.34258445000E+02  0.51100000000E-03 0.  1.
         23    2    1    0    0    0 -0.23482600399E+02 -0.24844569433E+01 -0.17669260097E+02  0.95507495865E+02  0.90839825881E+02 0.  0.
         11    1    3    3    0    0 -0.36825370557E+02 -0.15416660494E+02 -0.46450671622E+02  0.61249050865E+02  0.51100000000E-03 0. -1.
         22    1    1    0    0    0  0.23482600399E+02  0.24844569433E+01  0.17669260097E+02  0.29492504135E+02  0.00000000000E+00 0. -1.
</event>
<event>
 5    1  0.1691138E-003  0.9118800E+02  0.7818608E-02  0.1130116E+00
         25   -1    0    0    0    0  0.00000000000E+00  0.00000000000E+00  0.99999998245E-14  0.12500000000E+03  0.12500000000E+03 0.  0.
        -11    1    3    3    0    0  0.25918735566E+02 -0.39498437759E+01  0.28320496510E+02  0.38593168334E+02  0.51100000000E-03 0.  1.
         23    2    1    0    0    0 -0.11611045576E+02  0.25456068270E+02  0.26740761777E+02  0.86297336893E+02  0.77131927393E+02 0.  0.
         11    1    3    3    0    0 -0.37529781143E+02  0.29405912046E+02 -0.15797347326E+01  0.47704168559E+02  0.51100000000E-03 0. -1.
         22    1    1    0    0    0  0.11611045576E+02 -0.25456068270E+02 -0.26740761777E+02  0.38702663107E+02  0.00000000000E+00 0. -1.
</event>
<event>
 5    1  0.1691138E-003  0.9118800E+02  0.7818608E-02  0.1130116E+00
         25   -1    0    0    0    0  0.00000000000E+00  0.00000000000E+00  0.99999998245E-14  0.12500000000E+03  0.12500000000E+03 0.  0.
        -11    1    3    3    0    0  0.19700443575E+02 -0.44047825128E+01 -0.56697857893E+02  0.60184355741E+02  0.51100000000E-03 0.  1.
         23    2    1    0    0    0  0.17055871054E+02  0.69127430306E+01 -0.24918937970E+02  0.94021907367E+02  0.88772049891E+02 0.  0.
         11    1    3    3    0    0 -0.26445725212E+01  0.11317525543E+02  0.31778919924E+02  0.33837551626E+02  0.51100000000E-03 0. -1.
         22    1    1    0    0    0 -0.17055871054E+02 -0.69127430306E+01  0.24918937970E+02  0.30978092633E+02  0.00000000000E+00 0.  1.
</event>
<event>
 5    1  0.1691138E-003  0.9118800E+02  0.7818608E-02  0.1130116E+00
         25   -1    0    0    0    0  0.00000000000E+00  0.00000000000E+00  0.99999998245E-14  0.12500000000E+03  0.12500000000E+03 0.  0.
        -11    1    3    3    0    0  0.19171523546E+02 -0.31440785561E+02 -0.95994725713E+01  0.38055488247E+02  0.51100000000E-03 0. -1.
         23    2    1    0    0    0 -0.17057811103E+02 -0.18534146373E+01  0.23892058011E+02  0.95585131287E+02  0.90946593238E+02 0.  0.
         11    1    3    3    0    0 -0.36229334649E+02  0.29587370924E+02  0.33491530582E+02  0.57529643040E+02  0.51100000000E-03 0.  1.
         22    1    1    0    0    0  0.17057811103E+02  0.18534146373E+01 -0.23892058011E+02  0.29414868713E+02  0.00000000000E+00 0.  1.
</event>
